Membrane in water
40155
    1TCq1    O1    1   4.718   4.223  11.567 -0.2832 -0.2532  0.1470
    1TCq1    C1    2   4.597   4.200  11.623 -0.0732 -0.1331  0.3065
    1TCq1    O2    3   4.496   4.163  11.562 -0.2554 -0.1318  0.0869
    1TCq1    C2    4   4.613   4.161  11.762  0.3859 -0.3259  0.2456
    1TCq1    C3    5   4.719   4.209  11.833 -0.1180  0.2099  0.7517
    1TCq1    C4    6   0.035   4.136  11.942  0.5031  0.6111 -0.4775
    1TCq1    C5    7   4.691   4.024  11.981  0.2055 -0.1733 -0.6373
    1TCq1    C6    8   4.584   3.983  11.912 -0.8828 -0.5540  0.3880
    1TCq1    C7    9   4.542   4.048  11.800  0.6080  0.0603 -0.5942
    1TCq1    C8   10   4.497   3.870  11.956 -0.3273  0.1241 -0.1093
    1TCq1    O4   11   4.400   3.848  11.889  0.2594  0.4544  0.0421
    1TCq1    C9   12   0.155   4.166  12.014 -0.3313  0.5079  0.0321
    1TCq1    O5   13   0.201   4.074  12.091  0.6925 -0.1558 -0.4030
    1TCq1    O6   14   0.215   4.269  11.981  0.1379 -0.3941  0.0584
    1TCq1    H1   15   0.067   4.231  11.633 -0.0230 -1.6712  0.0353
    1TCq1    H2   16   0.052   4.297  11.803  0.2986  0.0441  1.0611
    1TCq1    H3   17   4.718   3.979  12.076  1.9159  2.2137  0.0217
    1TCq1    H4   18   4.456   4.025  11.738  0.5819 -1.1994 -0.0870
    2MPD2     C   19   4.423   3.422  12.180  0.1981  0.1882  0.4330
    2MPD2    C1   20   4.334   3.516  12.146 -0.0544 -0.5771 -0.3283
    2MPD2    C2   21   4.380   3.627  12.083 -0.0091 -0.4522  0.4542
    2MPD2    C3   22   4.518   3.655  12.085  0.2881  0.3444 -0.3519
    2MPD2    C4   23   4.612   3.562  12.128  0.2810 -0.2131  0.4152
    2MPD2    C5   24   4.559   3.442  12.173  0.4038  0.1107 -0.0058
    2MPD2     H   25   4.305   3.702  12.060  0.4060 -0.2129 -0.1092
    2MPD2    H1   26   4.719   3.579  12.129  0.1200  0.7012  1.5533
    2MPD2    H2   27   4.388   3.328  12.220 -1.1268  1.0379  1.2859
    2MPD2    H3   28   4.632   3.371  12.211  0.9049  0.6886  0.1144
    2MPD2     N   29   4.569   3.782  12.033 -0.3368  0.3328  0.4252
    2MPD2    H5   30   4.670   3.795  12.033 -0.4617  1.4670 -2.5709
    2MPD2    N1   31   4.193   3.499  12.169  0.6694  0.2609  0.5490
    2MPD2    H7   32   4.129   3.570  12.136  0.4592  0.7233  1.9488
    3TCq1    O1   33   3.822   0.563  10.223 -0.0200  0.0829 -0.2353
    3TCq1    C1   34   3.845   0.530  10.351 -0.1383  0.5292  0.7537
    3TCq1    O2   35   3.811   0.596  10.447 -0.1307  0.1532  0.2899
    3TCq1    C2   36   3.855   0.387  10.358  0.1737 -0.1809  0.2455
    3TCq1    C3   37   3.944   0.316  10.283  0.8241  0.6792 -0.3026
    3TCq1    C4   38   3.927   0.178  10.278  0.8088 -0.3021  0.2248
    3TCq1    C5   39   3.844   0.117  10.373 -0.4227 -0.3886 -0.3818
    3TCq1    C6   40   3.765   0.193  10.450 -0.6826  0.1717 -0.7580
    3TCq1    C7   41   3.761   0.328  10.438 -0.3353 -0.3431 -0.9028
    3TCq1    C8   42   3.660   0.131  10.532 -0.0811 -0.6294  0.0396
    3TCq1    O4   43   3.635   0.017  10.504  0.2282 -0.3112  0.6605
    3TCq1    C9   44   4.004   0.103  10.180 -0.4748  0.1328 -0.0231
    3TCq1    O5   45   4.068   0.170  10.100 -0.4055  0.0401 -0.1676
    3TCq1    O6   46   3.995   4.701  10.186 -0.0291  0.5262 -0.2749
    3TCq1    H1   47   3.841   0.491  10.160  1.0499  1.0441 -1.0174
    3TCq1    H2   48   4.016   0.368  10.221  0.0002 -0.5269 -2.2866
    3TCq1    H3   49   3.839   0.010  10.356 -1.1324 -0.4806  0.4042
    3TCq1    H4   50   3.683   0.391  10.479 -1.1116 -0.4029 -2.2997
    4MPD2     C   51   3.239   0.136  10.823  0.0661 -0.2702  0.2053
    4MPD2    C1   52   3.309   0.250  10.855 -0.1384  0.2102 -0.4226
    4MPD2    C2   53   3.426   0.271  10.785 -0.2732  0.2765 -0.1052
    4MPD2    C3   54   3.471   0.185  10.687  0.5237  0.1186 -0.5522
    4MPD2    C4   55   3.390   0.073  10.659 -0.3021 -0.1589 -0.4226
    4MPD2    C5   56   3.276   0.051  10.726  0.0925 -0.2075  0.6808
    4MPD2     H   57   3.488   0.357  10.810  1.1533 -0.5360 -0.8751
    4MPD2    H1   58   3.414   4.721  10.586 -2.0019 -0.0267 -1.1230
    4MPD2    H2   59   3.151   0.103  10.878 -0.2557  0.1857 -0.0421
    4MPD2    H3   60   3.210   4.695  10.695 -0.4177 -0.2299  1.8304
    4MPD2     N   61   3.593   0.217  10.621  0.2667 -0.5325 -0.1694
    4MPD2    H5   62   3.628   0.310  10.636 -2.0719  0.3350 -0.0510
    4MPD2    N1   63   3.276   0.340  10.959  0.8063  0.4197 -0.4428
    4MPD2    H7   64   3.321   0.430  10.958  2.8461 -0.6059 -0.2384
    5TCq1    O1   65   0.197   1.750  11.190  0.1161  0.2338 -0.6859
    5TCq1    C1   66   0.084   1.687  11.236  0.4287 -0.5725 -0.5234
    5TCq1    O2   67   0.072   1.612  11.330 -0.4749  0.5334  0.4582
    5TCq1    C2   68   4.707   1.707  11.130 -0.2133  0.4898  0.3565
    5TCq1    C3   69   4.695   1.821  11.054 -0.1980  0.8199 -0.2292
    5TCq1    C4   70   4.582   1.840  10.978  0.3507 -0.3494  0.0652
    5TCq1    C5   71   4.486   1.740  10.977  0.6667 -0.6698 -0.3428
    5TCq1    C6   72   4.495   1.631  11.056  0.1587 -0.3741 -0.0445
    5TCq1    C7   73   4.610   1.614  11.134 -0.2764 -0.0687 -0.5209
    5TCq1    C8   74   4.454   1.498  10.998 -0.2287 -0.0371 -0.5957
    5TCq1    O4   75   4.478   1.398  11.061 -0.3578 -0.4131  0.6354
    5TCq1    C9   76   4.566   1.955  10.888 -0.5890  0.1989 -0.4204
    5TCq1    O5   77   4.677   2.011  10.855 -0.6316  0.1290 -0.5841
    5TCq1    O6   78   4.463   1.967  10.819  0.1160 -0.0897  0.0550
    5TCq1    H1   79   0.204   1.760  11.092  1.9483 -0.7683 -0.6504
    5TCq1    H2   80   0.048   1.898  11.054  0.0775  0.5435  2.2743
    5TCq1    H3   81   4.397   1.760  10.917  0.9230 -0.3378 -0.6131
    5TCq1    H4   82   4.617   1.528  11.200 -0.9382  1.0057  0.9532
    6MPD2     C   83   4.323   1.450  10.653  0.3169 -0.3863  0.1544
    6MPD2    C1   84   4.393   1.415  10.766  0.7576 -0.0883 -0.5585
    6MPD2    C2   85   4.452   1.289  10.786  0.0915 -0.1160 -0.1540
    6MPD2    C3   86   4.436   1.196  10.689 -0.1195 -0.3908  0.2110
    6MPD2    C4   87   4.363   1.229  10.579  0.4396 -0.4709 -0.6596
    6MPD2    C5   88   4.305   1.352  10.558  0.4235  0.7521  0.0014
    6MPD2     H   89   4.519   1.260  10.866 -1.1255  0.8347  1.2016
    6MPD2    H1   90   4.331   1.174  10.492 -3.5272 -0.5109  0.8147
    6MPD2    H2   91   4.285   1.550  10.634  1.3051 -0.1570 -0.5811
    6MPD2    H3   92   4.248   1.371  10.467  0.9222 -0.8828 -0.6462
    6MPD2     N   93   4.493   1.064  10.694  0.8712  0.2117  0.5335
    6MPD2    H5   94   4.548   1.047  10.778  0.5211  0.3893  0.8031
    6MPD2    N1   95   4.404   1.513  10.867  0.4694 -0.1578  0.6446
    6MPD2    H7   96   4.371   1.607  10.846  1.3235 -0.1023 -0.4529
    7TCq1    O1   97   1.169   1.374  13.357 -0.0070  0.1029  0.3970
    7TCq1    C1   98   1.194   1.287  13.254  0.1000 -0.1175  0.3657
    7TCq1    O2   99   1.288   1.302  13.174 -0.5970  0.2545 -0.6004
    7TCq1    C2  100   1.160   1.157  13.303  0.1080  0.7655 -0.0293
    7TCq1    C3  101   1.030   1.133  13.327 -0.0286  0.4649 -0.2715
    7TCq1    C4  102   1.007   1.014  13.385  0.4040  0.8257  0.2703
    7TCq1    C5  103   1.103   0.918  13.419 -0.1663  0.4039 -0.0298
    7TCq1    C6  104   1.232   0.946  13.375  0.2409  0.5177 -0.1487
    7TCq1    C7  105   1.264   1.069  13.325  0.0527  0.1025 -0.3735
    7TCq1    C8  106   1.337   0.847  13.396 -0.4306  0.3703  0.3345
    7TCq1    O4  107   1.303   0.730  13.425 -0.0100 -0.4601  0.0438
    7TCq1    C9  108   0.868   1.000  13.420  0.1020 -0.4638  0.1099
    7TCq1    O5  109   0.841   0.889  13.479 -0.5260  0.3021 -0.6252
    7TCq1    O6  110   0.794   1.059  13.340 -0.7629  0.1477 -0.2131
    7TCq1    H1  111   1.123   1.340  13.437 -0.1819  1.3097  0.8166
    7TCq1    H2  112   0.959   1.214  13.310 -0.0613  0.5265  0.1593
    7TCq1    H3  113   1.071   0.826  13.464 -0.6454  0.6384  0.1073
    7TCq1    H4  114   1.356   1.117  13.294  0.1715  0.7621  0.9720
    8MPD2     C  115   1.821   0.767  13.516  0.1387 -0.1565 -0.9921
    8MPD2    C1  116   1.729   0.684  13.456 -0.0904  0.0710  0.4732
    8MPD2    C2  117   1.607   0.732  13.426  0.0248 -0.5190  0.3464
    8MPD2    C3  118   1.576   0.865  13.453 -0.4548  0.1695 -0.2976
    8MPD2    C4  119   1.678   0.953  13.495 -0.0665  0.2736 -0.6086
    8MPD2    C5  120   1.798   0.900  13.536  0.1324 -0.2551 -0.1913
    8MPD2     H  121   1.532   0.665  13.386 -2.1078  0.8198  2.0920
    8MPD2    H1  122   1.664   1.059  13.515 -1.5219  0.4669 -2.6973
    8MPD2    H2  123   1.919   0.730  13.543  0.4135  2.7093  1.9277
    8MPD2    H3  124   1.875   0.967  13.576 -0.1178  0.1043 -0.3123
    8MPD2     N  125   1.452   0.913  13.414 -0.8915  0.1215 -0.0526
    8MPD2    H5  126   1.445   1.014  13.414 -1.6534  0.0653 -2.6204
    8MPD2    N1  127   1.770   0.549  13.444 -0.1932 -0.3584 -0.2716
    8MPD2    H7  128   1.857   0.511  13.478  0.2160 -0.1384 -1.0793
    9TCq1    O1  129   3.681   4.114  10.663  0.1509 -0.1242 -0.0265
    9TCq1    C1  130   3.759   4.066  10.762 -0.5626 -0.5040 -0.2279
    9TCq1    O2  131   3.743   4.060  10.881 -0.6758  0.1239  0.1447
    9TCq1    C2  132   3.891   4.056  10.713 -0.4141  0.4912  0.2793
    9TCq1    C3  133   3.911   4.034  10.579 -0.8126  0.1439  0.1933
    9TCq1    C4  134   4.045   4.024  10.541 -0.5790  0.3249 -1.1139
    9TCq1    C5  135   4.145   4.045  10.625  0.3794 -0.0284 -0.3356
    9TCq1    C6  136   4.119   4.079  10.759 -0.2404 -0.4223  0.3743
    9TCq1    C7  137   3.989   4.082  10.803  0.3476  0.6698 -0.2762
    9TCq1    C8  138   4.229   4.123  10.835  0.7280  0.5128 -0.1008
    9TCq1    O4  139   4.345   4.114  10.799  0.4038  0.1885 -0.1495
    9TCq1    C9  140   4.073   3.982  10.412  0.6794  0.4240  0.2663
    9TCq1    O5  141   4.190   3.941  10.384 -0.1360  0.1989 -0.0539
    9TCq1    O6  142   3.980   4.011  10.327  0.1357  0.7077  0.0255
    9TCq1    H1  143   3.737   4.122  10.583  0.6401 -0.1490  0.3183
    9TCq1    H2  144   3.831   3.993  10.518  0.1506 -0.5337 -0.6151
    9TCq1    H3  145   4.249   4.051  10.594 -0.0499 -1.0010 -1.9468
    9TCq1    H4  146   3.971   4.096  10.909  3.1733 -0.0051  0.2966
   10MPD2     C  147   4.414   4.233  11.031  0.5711 -0.2676 -0.5684
   10MPD2    C1  148   4.281   4.219  11.049  0.1831  0.2363  0.1082
   10MPD2    C2  149   4.231   4.228  11.178  0.8711  0.0182 -0.0878
   10MPD2    C3  150   4.307   4.267  11.285  0.0765 -0.7033 -1.0395
   10MPD2    C4  151   4.441   4.285  11.264  0.4424 -0.4542  0.1717
   10MPD2    C5  152   4.497   4.274  11.136 -0.4682  0.8477  0.1032
   10MPD2     H  153   4.127   4.212  11.201  0.9268  1.9672  1.4551
   10MPD2    H1  154   4.508   4.316  11.343  2.0825 -1.7196 -0.7315
   10MPD2    H2  155   4.465   4.221  10.937  3.0457  0.5753  0.6736
   10MPD2    H3  156   4.599   4.303  11.116 -0.2500 -0.9494 -1.3528
   10MPD2     N  157   4.253   4.281  11.417  0.3423  0.4473  0.0173
   10MPD2    H5  158   4.321   4.276  11.492 -1.0486  0.3704  1.2715
   10MPD2    N1  159   4.192   4.179  10.955  0.3639  0.3503 -0.5059
   10MPD2    H7  160   4.093   4.195  10.965  0.5215 -0.0475  1.6811
   11TCq1    O1  161   0.785   4.266  14.312  0.7120  0.0184  0.1780
   11TCq1    C1  162   0.754   4.208  14.428 -0.4761 -0.0374 -0.3000
   11TCq1    O2  163   0.832   4.177  14.518 -0.7777 -0.3019 -0.1970
   11TCq1    C2  164   0.622   4.145  14.408  0.9157 -0.8025  0.2264
   11TCq1    C3  165   0.590   4.044  14.499  0.0800  0.3056 -0.3906
   11TCq1    C4  166   0.465   3.994  14.494  0.1939 -0.2542 -0.2405
   11TCq1    C5  167   0.376   4.032  14.397  0.0558  0.0190  0.0109
   11TCq1    C6  168   0.410   4.132  14.304  0.1234 -0.1906 -0.1675
   11TCq1    C7  169   0.534   4.189  14.311  0.2664  0.0345  0.5244
   11TCq1    C8  170   0.322   4.173  14.193  0.0668 -0.1495 -0.2217
   11TCq1    O4  171   0.345   4.275  14.132  0.6358 -0.3312 -0.3805
   11TCq1    C9  172   0.428   3.898  14.598 -0.8118  0.5768 -0.2472
   11TCq1    O5  173   0.310   3.854  14.601 -0.0136  0.0154 -0.1770
   11TCq1    O6  174   0.519   3.857  14.675  0.4686  1.0175 -0.2418
   11TCq1    H1  175   0.715   4.316  14.265  1.7843 -0.2340 -1.7086
   11TCq1    H2  176   0.669   4.014  14.567 -1.8364  1.8861  2.5154
   11TCq1    H3  177   0.278   3.985  14.401  0.2639 -0.4899 -0.8626
   11TCq1    H4  178   0.547   4.265  14.235  3.6915 -1.2255 -0.1109
   12MPD2     C  179   0.093   4.223  14.006 -0.2545  0.3903 -0.5713
   12MPD2    C1  180   0.134   4.098  14.053 -0.2353  0.1626  0.0625
   12MPD2    C2  181   0.063   3.982  14.006 -0.1029 -0.0219  0.7926
   12MPD2    C3  182   4.675   3.998  13.917 -0.3149  0.1230  0.5344
   12MPD2    C4  183   4.629   4.121  13.882 -0.4695  0.1393  0.5788
   12MPD2    C5  184   4.704   4.225  13.929  0.7249 -0.0360  1.0339
   12MPD2     H  185   0.091   3.883  14.038 -0.1925 -0.2698  0.0925
   12MPD2    H1  186   4.539   4.146  13.827  1.7940  2.7712 -1.9791
   12MPD2    H2  187   0.142   4.311  14.046  0.3937 -0.0879 -0.3093
   12MPD2    H3  188   4.674   4.327  13.907 -1.7012 -0.5952  1.7382
   12MPD2     N  189   4.602   3.887  13.869  0.2422  0.2308 -0.0231
   12MPD2    H5  190   4.517   3.916  13.821 -0.6627 -1.4816  0.5287
   12MPD2    N1  191   0.226   4.080  14.160  0.0495 -0.5411 -0.1129
   12MPD2    H7  192   0.221   3.986  14.197  0.4504 -0.6582 -0.3589
   13TCq1    O1  193   4.604   3.839  10.686  0.1112  0.4341  0.0839
   13TCq1    C1  194   4.554   3.849  10.811 -0.0318  0.3376 -0.0302
   13TCq1    O2  195   4.614   3.886  10.909 -0.1643  0.0327 -0.5811
   13TCq1    C2  196   4.425   3.793  10.826 -0.6877  0.2533 -0.0721
   13TCq1    C3  197   4.377   3.715  10.728 -0.2455  0.6609  0.2561
   13TCq1    C4  198   4.244   3.678  10.735  0.3298  0.5701  0.3532
   13TCq1    C5  199   4.167   3.713  10.842  0.3802  0.0394  0.8133
   13TCq1    C6  200   4.226   3.788  10.940  0.1154 -0.7498 -0.1118
   13TCq1    C7  201   4.353   3.823  10.936 -0.2155 -0.4526  0.3018
   13TCq1    C8  202   4.139   3.829  11.051 -0.3828 -0.3680 -0.2864
   13TCq1    O4  203   4.022   3.807  11.036 -0.3905  0.1674  0.3891
   13TCq1    C9  204   4.191   3.598  10.634  0.4409  0.3626  0.3298
   13TCq1    O5  205   4.239   3.604  10.516  0.1353 -0.2386  0.4130
   13TCq1    O6  206   4.075   3.549  10.655  0.7436  0.6476 -0.0770
   13TCq1    H1  207   4.532   3.825  10.620 -0.4725  0.8581  0.6306
   13TCq1    H2  208   4.434   3.676  10.644 -0.5916 -0.4025  0.5143
   13TCq1    H3  209   4.063   3.685  10.836 -0.4621  3.6925 -2.2114
   13TCq1    H4  210   4.389   3.895  11.009 -1.1884  0.5445 -0.2179
   14MPD2     C  211   4.235   3.900  11.399  0.1451  0.5939  0.1690
   14MPD2    C1  212   4.158   3.905  11.282  0.4417 -0.9683  0.3070
   14MPD2    C2  213   4.028   3.933  11.300  0.2372 -0.5998 -1.1556
   14MPD2    C3  214   3.965   3.966  11.414 -0.0689 -0.8410  0.1567
   14MPD2    C4  215   4.044   3.970  11.531 -0.7410  0.3239 -0.3935
   14MPD2    C5  216   4.176   3.928  11.519 -0.2356  0.0270  0.1573
   14MPD2     H  217   3.965   3.942  11.211 -0.0574 -1.4793 -1.0376
   14MPD2    H1  218   4.010   4.016  11.623  0.1854 -0.5733  0.4090
   14MPD2    H2  219   4.342   3.887  11.383  0.5430  0.1485  3.2090
   14MPD2    H3  220   4.241   3.937  11.605 -0.5229 -3.0016  0.6811
   14MPD2     N  221   3.836   4.014  11.404 -0.0729  0.0525  0.2112
   14MPD2    H5  222   3.796   4.030  11.312  0.4515 -0.1807 -0.0608
   14MPD2    N1  223   4.213   3.871  11.161  0.3027 -0.1891 -0.2029
   14MPD2    H7  224   4.313   3.856  11.162  0.4351  0.8165  2.0759
   15TCq1    O1  225   1.256   3.165   2.515 -0.1315 -0.4201  0.0457
   15TCq1    C1  226   1.338   3.175   2.412 -1.0767 -0.8976  0.4220
   15TCq1    O2  227   1.458   3.179   2.430  0.3896  0.1427 -0.1592
   15TCq1    C2  228   1.271   3.115   2.294  0.2426 -0.3327  0.0698
   15TCq1    C3  229   1.139   3.142   2.280  0.0789 -0.3565 -0.2299
   15TCq1    C4  230   1.062   3.066   2.198  0.6251  0.0525  0.1082
   15TCq1    C5  231   1.114   2.969   2.117  0.0470 -0.2842  0.7300
   15TCq1    C6  232   1.251   2.947   2.135  0.2995  0.2847  0.7266
   15TCq1    C7  233   1.334   3.023   2.216 -0.2901  0.0430  0.8139
   15TCq1    C8  234   1.328   2.883   2.031  0.1825 -1.0225 -0.2157
   15TCq1    O4  235   1.450   2.884   2.034 -0.2501 -0.2103  0.1726
   15TCq1    C9  236   0.918   3.082   2.200  0.7559 -0.1930  0.0937
   15TCq1    O5  237   0.873   3.141   2.300 -0.0314 -0.0220 -0.4778
   15TCq1    O6  238   0.854   3.045   2.098 -0.8289 -0.0295  0.0069
   15TCq1    H1  239   1.169   3.121   2.499  0.9877 -2.8878  0.6468
   15TCq1    H2  240   1.087   3.225   2.327  1.3240 -1.5050  3.1601
   15TCq1    H3  241   1.058   2.895   2.061 -0.5790 -2.0124  3.6693
   15TCq1    H4  242   1.436   3.001   2.245 -0.3818  0.0665  1.1559
   16MPD2     C  243   1.197   2.820   1.691  0.2323  0.2467  0.6571
   16MPD2    C1  244   1.293   2.805   1.790  0.2398 -0.1961 -0.1005
   16MPD2    C2  245   1.419   2.758   1.763 -0.4037  0.6507  0.5975
   16MPD2    C3  246   1.459   2.716   1.639 -0.6256  0.3031 -0.4438
   16MPD2    C4  247   1.364   2.729   1.541 -0.1984  0.0728  0.3969
   16MPD2    C5  248   1.238   2.783   1.561 -0.0375  0.5331 -0.0980
   16MPD2     H  249   1.493   2.753   1.842  1.4722 -1.1409 -1.2680
   16MPD2    H1  250   1.390   2.687   1.444 -2.1317  0.0192 -0.0903
   16MPD2    H2  251   1.095   2.849   1.715  0.1967 -0.7636  1.7109
   16MPD2    H3  252   1.168   2.782   1.478 -0.3798 -1.5467  0.2041
   16MPD2     N  253   1.588   2.652   1.620 -0.1182 -0.9287 -0.2702
   16MPD2    H5  254   1.641   2.663   1.706 -1.5760  0.7801  0.4009
   16MPD2    N1  255   1.254   2.858   1.914  0.1250 -0.3448 -0.5221
   16MPD2    H7  256   1.161   2.898   1.922  0.2344 -0.0077 -0.9751
   17TCq1    O1  257   3.769   3.294  10.160 -0.0309 -0.1822  0.0977
   17TCq1    C1  258   3.835   3.302  10.047  0.1703  0.0533  0.2838
   17TCq1    O2  259   3.788   3.312   9.936 -0.1779  0.3126  0.2959
   17TCq1    C2  260   3.976   3.277  10.070 -0.4825 -0.1104 -0.4517
   17TCq1    C3  261   4.051   3.324   9.966  0.2188  0.5105  0.4917
   17TCq1    C4  262   4.187   3.341   9.994 -0.3667 -0.2220 -0.5215
   17TCq1    C5  263   4.228   3.336  10.122 -0.6583 -0.0838 -0.4085
   17TCq1    C6  264   4.151   3.278  10.221  0.2576  0.1009  0.2199
   17TCq1    C7  265   4.020   3.242  10.195  0.2695 -0.2751 -0.4616
   17TCq1    C8  266   4.200   3.277  10.351  0.3533 -0.2891 -0.5499
   17TCq1    O4  267   4.111   3.281  10.435 -0.2969 -0.0412  0.6555
   17TCq1    C9  268   4.268   3.405   9.893  0.1260 -0.5997  0.0116
   17TCq1    O5  269   4.230   3.392   9.772  0.2610  0.0929 -0.2021
   17TCq1    O6  270   4.365   3.464   9.939  0.3862 -0.0976  0.2301
   17TCq1    H1  271   3.802   3.336  10.242 -0.9488 -1.1612  0.9638
   17TCq1    H2  272   4.007   3.349   9.870  1.0874  0.1205 -0.0099
   17TCq1    H3  273   4.321   3.389  10.141 -0.1291 -1.0376 -0.3579
   17TCq1    H4  274   3.957   3.214  10.279  0.3781  0.8552  0.0007
   18MPD2     C  275   4.342   3.304  10.615  0.4782  0.4549 -0.3521
   18MPD2    C1  276   4.406   3.263  10.494  0.1242  0.8116  0.1649
   18MPD2    C2  277   4.542   3.226  10.498  0.1490 -0.2265  0.5363
   18MPD2    C3  278   4.611   3.235  10.620 -0.0237 -0.1635  0.1639
   18MPD2    C4  279   4.545   3.281  10.734  0.0599  1.0970 -0.1765
   18MPD2    C5  280   4.410   3.313  10.738  0.1485  0.4008 -0.4911
   18MPD2     H  281   4.595   3.202  10.407  2.0599 -1.1738  1.8891
   18MPD2    H1  282   4.598   3.282  10.828 -1.2660 -0.2599  0.5835
   18MPD2    H2  283   4.244   3.349  10.614  0.3991  0.3182  1.4262
   18MPD2    H3  284   4.372   3.364  10.826  3.3577  0.2863  0.9364
   18MPD2     N  285   0.024   3.209  10.644 -0.2905  0.2234 -0.0449
   18MPD2    H5  286   0.066   3.240  10.731 -1.5137  0.9286  0.2828
   18MPD2    N1  287   4.337   3.263  10.366 -0.6322 -0.1074 -0.5516
   18MPD2    H7  288   4.390   3.253  10.280 -0.5012 -3.0755 -0.1033
   19TMC2    C1  289   0.826   3.613  13.892  0.3723  0.9250 -0.2504
   19TMC2    C2  290   0.771   3.648  13.768 -0.1893 -0.0432 -0.6163
   19TMC2    C3  291   0.676   3.562  13.720 -0.5089 -0.0204  0.2118
   19TMC2    C4  292   0.778   3.516  13.975  0.0154 -0.0004 -0.1385
   19TMC2    C5  293   0.670   3.448  13.917 -0.2788  0.0874  0.6612
   19TMC2    C6  294   0.620   3.460  13.791  0.6227  0.2031  0.2683
   19TMC2     C  295   0.912   3.716  13.947 -0.1219 -0.6611  0.8595
   19TMC2     O  296   0.915   3.825  13.888 -0.7034 -0.7034  0.5248
   19TMC2     H  297   0.816   3.725  13.707  1.4488 -1.0084 -0.6264
   19TMC2    H1  298   0.800   3.510  14.081 -0.5646 -0.6995 -0.0579
   19TMC2    H2  299   0.548   3.394  13.745 -0.7722  1.0789  1.2117
   19TMC2    C7  300   0.629   3.325  13.982 -0.4252  0.1990  0.4981
   19TMC2    C8  301   0.616   3.575  13.587  0.5067 -0.1714  0.1055
   19TMC2    O1  302   0.539   3.262  13.930 -0.3494  0.0121  0.1021
   19TMC2    O2  303   0.564   3.475  13.533 -0.3699 -0.4308 -0.0754
   19TMC2    O5  304   0.624   3.698  13.538 -0.0649  0.2002 -0.2983
   19TMC2    H5  305   0.640   3.769  13.604 -0.5702 -0.2937  0.3527
   20MPD2     C  306   1.125   3.873  14.094  0.1093 -0.5024 -0.0207
   20MPD2    C1  307   1.103   3.739  14.113 -0.5906  0.0620 -0.0226
   20MPD2    C2  308   1.188   3.669  14.201  0.3216 -0.2819  0.0268
   20MPD2    C3  309   1.287   3.736  14.271 -0.1271 -0.3761 -0.3424
   20MPD2    C4  310   1.309   3.870  14.240  0.4288 -0.1683  0.5011
   20MPD2    C5  311   1.221   3.939  14.166 -0.3010 -0.2579 -0.3314
   20MPD2     H  312   1.173   3.562  14.206 -0.9648 -0.0266  1.5835
   20MPD2    H1  313   1.387   3.929  14.286  1.8051 -2.1357  0.7000
   20MPD2    H2  314   1.063   3.925  14.022 -1.1804 -0.6239  1.0170
   20MPD2    H3  315   1.233   4.044  14.144 -1.9473 -0.0893 -0.4563
   20MPD2     N  316   1.371   3.678  14.367 -0.0233  0.4913  0.1305
   20MPD2    H5  317   1.448   3.726  14.411  1.4888 -1.1796 -0.6980
   20MPD2    N1  318   1.000   3.669  14.045 -0.5007  0.0189  0.0018
   20MPD2    H7  319   0.996   3.570  14.065 -1.6737  0.0329 -0.1674
   21MPD2     C  320   4.001   4.394  14.539  0.4840 -0.0682  0.7700
   21MPD2    C1  321   3.962   4.255  14.548  0.2717  0.0218  0.2266
   21MPD2    C2  322   3.822   4.233  14.567  0.3795 -0.5834 -0.6344
   21MPD2    C3  323   3.729   4.340  14.555 -0.3423  0.3800  0.0482
   21MPD2    C4  324   3.769   4.465  14.537 -0.0642 -0.0268  0.2110
   21MPD2    C5  325   3.908   4.493  14.535 -0.8347  0.6114  0.1193
   21MPD2     H  326   3.784   4.133  14.584  0.3019 -0.5706 -0.7327
   21MPD2    H1  327   3.696   4.544  14.522  0.5046  0.2410 -1.1345
   21MPD2    H2  328   4.103   4.431  14.531  0.6505 -0.5795  0.4613
   21MPD2    H3  329   3.935   4.594  14.506  0.2074  1.1050  2.7867
   21MPD2     N  330   3.592   4.323  14.562 -0.0809 -0.0919  0.5951
   21MPD2    H5  331   3.536   4.408  14.561  1.6591  1.0293 -1.2135
   21MPD2    N1  332   4.046   4.139  14.519 -0.2210  0.5486  0.0329
   21MPD2    H7  333   4.014   4.044  14.536  0.0171  0.5606  0.5369
   22TCq2    C1  334   3.531   4.202  14.555  0.6108 -0.1084 -1.1319
   22TCq2    O2  335   3.574   4.091  14.517 -0.3073 -0.1365 -0.1773
   22TCq2    C2  336   3.389   4.213  14.570  0.6230  0.6868 -0.0798
   22TCq2    C3  337   3.317   4.121  14.498 -0.0125  0.1767 -0.2003
   22TCq2    C4  338   3.184   4.144  14.482  0.3330  0.0187 -0.5117
   22TCq2    C5  339   3.119   4.256  14.527 -0.0093 -0.2258 -0.2424
   22TCq2    C6  340   3.196   4.344  14.595  0.3311 -0.0409  0.3263
   22TCq2    C7  341   3.328   4.323  14.621 -0.6347 -0.2484 -0.6510
   22TCq2    C8  342   3.122   4.439  14.685 -0.1195 -0.4281  1.2426
   22TCq2    O4  343   3.185   4.484  14.776 -0.0342 -0.3118  0.1764
   22TCq2    C9  344   3.112   4.034  14.429  0.1545 -0.4136 -0.3381
   22TCq2    O5  345   3.137   3.922  14.472  0.2851 -0.3141 -0.1536
   22TCq2    O6  346   3.021   4.063  14.350  0.3531  0.2347  0.2396
   22TCq2    H2  347   3.366   4.037  14.451 -1.8966 -2.4811  2.6165
   22TCq2    H3  348   3.017   4.275  14.497  0.7129  1.6911 -1.4791
   22TCq2    H4  349   3.382   4.388  14.689 -0.1487 -2.2448  0.8773
   23MPD2     C  350   0.166   0.095  14.699 -0.1601  0.5676  0.7314
   23MPD2    C1  351   0.038   0.059  14.738 -0.4341  0.6616  0.5430
   23MPD2    C2  352   4.654   0.072  14.655 -0.0027 -0.1037 -0.1924
   23MPD2    C3  353   4.679   0.124  14.527 -0.0164  0.1512  0.5210
   23MPD2    C4  354   0.078   0.167  14.484  0.0211  0.1947 -0.4129
   23MPD2    C5  355   0.183   0.141  14.572  0.0867  0.2038  0.9496
   23MPD2     H  356   4.553   0.048  14.685 -0.0086  0.9972  0.6699
   23MPD2    H1  357   0.093   0.204  14.383  2.4978 -0.7485 -0.3975
   23MPD2    H2  358   0.250   0.104  14.766  0.3033 -0.7689  0.3313
   23MPD2    H3  359   0.281   0.175  14.540 -0.4481  1.6009  0.7650
   23MPD2     N  360   4.568   0.134  14.435 -0.4259 -0.0812 -0.4972
   23MPD2    H5  361   4.581   0.200  14.360  2.8732  0.4926  0.5864
   23MPD2    N1  362   0.021   0.023  14.876 -0.9312  0.0350 -0.4295
   23MPD2    H7  363   4.656   4.699  14.895  0.4237 -2.5328 -0.4886
   24TCq2    C1  364   4.466   0.051  14.425 -0.4236 -0.5662 -0.2417
   24TCq2    O2  365   4.443   4.676  14.493 -0.2513  0.0484  0.6528
   24TCq2    C2  366   4.386   0.083  14.310 -1.1569 -0.8035  0.0795
   24TCq2    C3  367   4.408   0.194  14.236 -0.0148 -0.5757  0.1281
   24TCq2    C4  368   4.314   0.217  14.143 -0.1422  0.0385  0.0463
   24TCq2    C5  369   4.201   0.145  14.109 -0.4141  0.4204 -0.2569
   24TCq2    C6  370   4.180   0.045  14.200 -0.5306  0.3765  0.2364
   24TCq2    C7  371   4.272   0.009  14.288 -0.1394  0.4763 -0.1591
   24TCq2    C8  372   4.047   4.706  14.201  0.0422  0.1192 -0.1739
   24TCq2    O4  373   4.039   4.601  14.261 -0.2591 -0.9019  0.0759
   24TCq2    C9  374   4.339   0.340  14.067  0.0805  0.6515 -0.1576
   24TCq2    O5  375   4.450   0.400  14.084 -0.0844  0.0964  0.5227
   24TCq2    O6  376   4.242   0.393  14.008  0.5787 -0.5331 -0.3486
   24TCq2    H2  377   4.494   0.259  14.249  0.9123 -1.1387 -2.9863
   24TCq2    H3  378   4.137   0.174  14.026 -2.2292  1.2972  1.4246
   24TCq2    H4  379   4.251   4.647  14.352  0.2780  0.5450  0.0706
   25TMC2    C1  380   3.522   2.690  11.808 -0.7388  0.2570  0.1493
   25TMC2    C2  381   3.632   2.756  11.866  0.4101 -0.3029  0.5034
   25TMC2    C3  382   3.638   2.742  11.998 -0.5047  0.4616 -0.1292
   25TMC2    C4  383   3.428   2.623  11.885 -0.0282 -0.5566  0.2359
   25TMC2    C5  384   3.451   2.615  12.019 -0.0165 -0.3366  0.2387
   25TMC2    C6  385   3.565   2.665  12.080 -0.7772 -0.6540  0.6050
   25TMC2     C  386   3.512   2.696  11.661  0.2463  0.0030  0.3450
   25TMC2     O  387   3.588   2.776  11.617 -0.2267 -0.2672 -0.1229
   25TMC2     H  388   3.714   2.803  11.814 -0.8511 -0.3335 -1.4974
   25TMC2    H1  389   3.344   2.579  11.834 -1.1216 -0.7244  2.1958
   25TMC2    H2  390   3.580   2.661  12.187  1.1614 -1.5207  0.3070
   25TMC2    C7  391   3.342   2.589  12.108  0.3259 -0.2311 -0.3994
   25TMC2    C8  392   3.744   2.811  12.047  0.3959 -0.3579 -0.1148
   25TMC2    O1  393   3.372   2.599  12.225 -0.4239 -0.7994  0.3481
   25TMC2    O2  394   3.816   2.775  12.139  0.1829 -0.4684  0.2126
   25TMC2    O5  395   3.725   2.945  12.016 -1.0839  0.5524 -0.1135
   25TMC2    H5  396   3.646   2.975  11.967 -2.4630 -0.8093  1.2594
   26MPD2     C  397   3.458   2.541  11.182 -0.3216 -0.7591 -0.0766
   26MPD2    C1  398   3.416   2.442  11.266 -0.4629 -0.7264  0.4262
   26MPD2    C2  399   3.406   2.465  11.401 -0.0211 -0.0203 -0.1648
   26MPD2    C3  400   3.443   2.583  11.454 -0.0716 -0.7663  0.4069
   26MPD2    C4  401   3.498   2.677  11.376  0.4207  0.1276 -0.1104
   26MPD2    C5  402   3.504   2.656  11.239 -0.5510  1.1065 -0.3546
   26MPD2     H  403   3.371   2.390  11.471  0.9313 -2.3609 -2.2401
   26MPD2    H1  404   3.526   2.776  11.410 -0.6989  0.2884  0.3149
   26MPD2    H2  405   3.455   2.544  11.074 -1.0807  1.5043  0.0133
   26MPD2    H3  406   3.552   2.731  11.178 -0.3069  1.1441 -0.1157
   26MPD2     N  407   3.449   2.594  11.594 -0.1626 -0.3245  0.0409
   26MPD2    H5  408   3.401   2.527  11.653  0.2110  1.0107  1.8572
   26MPD2    N1  409   3.382   2.316  11.207  0.1777 -0.3520  0.1934
   26MPD2    H7  410   3.408   2.305  11.110 -0.4281 -3.7062  0.4173
   27TMC2    C1  411   2.398   4.604  12.119 -0.0997  0.7298 -0.5081
   27TMC2    C2  412   2.487   4.555  12.035 -0.0206 -0.0558  1.0515
   27TMC2    C3  413   2.516   4.645  11.929 -0.2959 -1.1424  0.6976
   27TMC2    C4  414   2.323   4.718  12.086 -0.5497 -0.0534 -0.4593
   27TMC2    C5  415   2.351   0.079  11.982  0.1546 -0.5288 -0.0678
   27TMC2    C6  416   2.455   0.046  11.893 -0.5885 -0.2206 -0.0342
   27TMC2     C  417   2.377   4.522  12.232  0.4835  0.2466 -0.5061
   27TMC2     O  418   2.461   4.440  12.264 -0.0384 -0.2510 -0.1916
   27TMC2     H  419   2.555   4.473  12.054  0.7014 -0.5030 -3.3496
   27TMC2    H1  420   2.259   0.044  12.159 -1.2355 -2.3588  0.4908
   27TMC2    H2  421   2.487   0.115  11.816 -0.5070 -0.2995 -0.0709
   27TMC2    C7  422   2.267   0.196  11.974 -0.5005  0.1111 -0.0201
   27TMC2    C8  423   2.601   4.592  11.830  0.4466  0.2136  0.0963
   27TMC2    O1  424   2.149   0.180  11.996 -0.2381 -0.2417 -0.3039
   27TMC2    O2  425   2.668   4.493  11.858  0.9097  0.2752 -0.1683
   27TMC2    O5  426   2.551   4.623  11.705 -0.1915 -0.5930 -0.5134
   27TMC2    H5  427   2.484   4.695  11.700 -1.3849 -1.6118  1.0877
   28MPD2     C  428   2.078   4.366  12.618 -0.0704 -0.9712 -0.0561
   28MPD2    C1  429   2.023   4.480  12.561 -0.2498  0.2218 -0.3050
   28MPD2    C2  430   2.090   4.539  12.459 -0.3941  0.2656 -0.5510
   28MPD2    C3  431   2.210   4.490  12.411 -0.3633  0.3253  0.9737
   28MPD2    C4  432   2.264   4.382  12.475  0.1259 -0.2600  0.3826
   28MPD2    C5  433   2.203   4.335  12.588  0.1404 -0.7923 -0.2946
   28MPD2     H  434   2.046   4.625  12.408  0.7048  1.7110  0.9516
   28MPD2    H1  435   2.362   4.342  12.449  0.0067 -1.0121  1.0869
   28MPD2    H2  436   2.032   4.318  12.704 -1.3716 -0.8757 -0.6910
   28MPD2    H3  437   2.254   4.252  12.637 -1.4981 -1.4064  0.3741
   28MPD2     N  438   2.261   4.551  12.296  0.1245  0.0709  0.0070
   28MPD2    H5  439   2.202   4.616  12.246  2.9571  1.2586 -1.7748
   28MPD2    N1  440   1.900   4.514  12.609 -0.0601 -0.9178  1.1235
   28MPD2    H7  441   1.862   4.457  12.684 -1.4542  0.1618  1.2500
   29MPD2     C  442   1.609   2.266  14.049 -0.0964  0.1838 -0.2163
   29MPD2    C1  443   1.646   2.216  14.175  0.0164  0.2902  0.4803
   29MPD2    C2  444   1.661   2.302  14.282 -0.1709 -0.2471 -0.4631
   29MPD2    C3  445   1.597   2.422  14.278 -0.2152  0.1544  0.0028
   29MPD2    C4  446   1.557   2.469  14.155  0.4310 -0.3519 -0.7828
   29MPD2    C5  447   1.558   2.388  14.044 -0.0997 -0.5091  0.1692
   29MPD2     H  448   1.695   2.264  14.378 -1.5647 -1.3427 -0.4047
   29MPD2    H1  449   1.518   2.570  14.149 -0.2853 -0.5268  1.0555
   29MPD2    H2  450   1.596   2.201  13.963  0.5675  2.0807 -1.7185
   29MPD2    H3  451   1.530   2.429  13.947 -1.3486 -2.0672 -0.1289
   29MPD2     N  452   1.581   2.509  14.389 -0.5066  0.0234 -0.1353
   29MPD2    H5  453   1.546   2.602  14.371  0.2074  0.2932 -0.1192
   29MPD2    N1  454   1.695   2.077  14.190  0.4114 -0.1740 -0.2207
   29MPD2    H7  455   1.701   2.043  14.285 -1.4251  0.7802  0.2380
   30TCq2    C1  456   1.615   2.485  14.520 -0.0751  0.2779 -0.1245
   30TCq2    O2  457   1.637   2.373  14.570 -0.2980  0.4138  0.5414
   30TCq2    C2  458   1.627   2.604  14.613  0.1487 -0.7934 -0.4426
   30TCq2    C3  459   1.633   2.578  14.749  0.0972 -0.2043 -0.0130
   30TCq2    C4  460   1.670   2.676  14.842  0.4192  0.4422  0.1043
   30TCq2    C5  461   1.692   2.797  14.787 -0.2393 -0.0604 -0.0613
   30TCq2    C6  462   1.684   2.821  14.656 -0.1015  0.0110 -0.3612
   30TCq2    C7  463   1.645   2.728  14.564  0.2573  0.9110  0.6918
   30TCq2    C8  464   1.720   2.945  14.593  0.1726  0.1721  0.1197
   30TCq2    O4  465   1.712   2.948  14.472 -0.0408  0.3837  0.1986
   30TCq2    C9  466   1.700   2.650  14.980 -0.1707 -0.4944  0.2114
   30TCq2    O5  467   1.749   2.743  15.045 -0.0883  0.2355 -0.2471
   30TCq2    O6  468   1.704   2.532  15.014 -0.2534  0.0218 -0.2466
   30TCq2    H2  469   1.613   2.476  14.781 -2.4181 -0.2405 -1.7069
   30TCq2    H3  470   1.727   2.875  14.854  0.6895 -1.2641  0.8715
   30TCq2    H4  471   1.652   2.742  14.457 -1.7421  0.3167  0.4901
   31MPD2     C  472   4.627   0.922  14.679  0.0759 -0.2017 -0.3233
   31MPD2    C1  473   4.511   0.976  14.623  0.0851  0.0646 -0.3989
   31MPD2    C2  474   4.396   0.899  14.630  0.1562 -0.1970 -0.2805
   31MPD2    C3  475   4.395   0.772  14.688 -0.3167 -0.5546 -0.2362
   31MPD2    C4  476   4.512   0.719  14.740  0.4897 -0.4429 -0.2748
   31MPD2    C5  477   4.632   0.794  14.726  0.2266 -0.0649  0.0564
   31MPD2     H  478   4.301   0.937  14.593  1.0553  1.0433 -1.3285
   31MPD2    H1  479   4.510   0.620  14.785  0.2454 -0.9978 -1.4921
   31MPD2    H2  480   4.712   0.989  14.672 -1.0915  1.4670  1.3227
   31MPD2    H3  481   0.000   0.759  14.772  0.6824  1.5535  0.3800
   31MPD2     N  482   4.281   0.698  14.733 -0.3602 -0.6667 -0.4311
   31MPD2    H5  483   4.295   0.623  14.800 -1.7650  0.5925  1.2947
   31MPD2    N1  484   4.517   1.109  14.578  0.0994  0.4103  1.2556
   31MPD2    H7  485   4.598   1.163  14.607  1.5593  0.6208 -3.2674
   32TCq2    C1  486   4.158   0.706  14.670 -0.0439  0.0037  0.4024
   32TCq2    O2  487   4.121   0.785  14.585  0.1534 -0.2365 -0.3179
   32TCq2    C2  488   4.060   0.628  14.730 -0.2982 -0.2917  0.7755
   32TCq2    C3  489   3.926   0.655  14.699  0.8892 -0.0779  0.8696
   32TCq2    C4  490   3.831   0.629  14.792  0.0386 -0.9423  0.2499
   32TCq2    C5  491   3.854   0.569  14.912 -0.0251  0.3455 -0.9528
   32TCq2    C6  492   3.987   0.549  14.942  0.2024 -0.4658 -0.4014
   32TCq2    C7  493   4.090   0.571  14.856  0.3261  0.6237 -0.0628
   32TCq2    C8  494   4.033   0.540  15.083  0.2132  0.4983 -0.6982
   32TCq2    O4  495   4.149   0.520  15.101 -0.4580  0.7661 -0.3575
   32TCq2    C9  496   3.693   0.670  14.769  0.2817 -0.3273  0.0245
   32TCq2    O5  497   3.667   0.728  14.661  0.0986  0.4599 -0.0372
   32TCq2    O6  498   3.611   0.648  14.862  0.3111 -0.0197 -0.4736
   32TCq2    H2  499   3.892   0.710  14.611  1.9221 -0.0681  0.4723
   32TCq2    H3  500   3.773   0.561  14.983  0.9583 -2.0724 -0.1200
   32TCq2    H4  501   4.192   0.549  14.886 -0.2861 -0.7385  1.0036
   33MPD2     C  502   0.537   3.707  10.590 -0.7181  0.0791  0.4053
   33MPD2    C1  503   0.437   3.622  10.546  0.5604 -0.7491  0.1049
   33MPD2    C2  504   0.361   3.669  10.444  0.5822  0.2080  0.2130
   33MPD2    C3  505   0.365   3.805  10.400  0.2473 -0.0105 -0.2585
   33MPD2    C4  506   0.459   3.889  10.450 -0.1084 -0.9738  0.0206
   33MPD2    C5  507   0.553   3.839  10.547 -0.2202  0.2413 -0.8679
   33MPD2     H  508   0.275   3.610  10.414  0.2111 -0.0324  1.7384
   33MPD2    H1  509   0.468   3.993  10.420  0.3961 -1.3381 -1.0826
   33MPD2    H2  510   0.612   3.673  10.661 -1.2441 -4.6860 -1.3091
   33MPD2    H3  511   0.624   3.901  10.601 -1.7578 -1.3135  3.0034
   33MPD2     N  512   0.273   3.862  10.316 -0.4275 -0.1268  0.4627
   33MPD2    H5  513   0.280   3.961  10.296  1.9070  0.1045  2.3989
   33MPD2    N1  514   0.421   3.491  10.581 -0.0520  0.3428 -0.9024
   33MPD2    H7  515   0.349   3.440  10.530  0.8167 -0.7107 -1.0811
   34TCq2    C1  516   0.165   3.799  10.261 -0.2338  0.0767 -0.4001
   34TCq2    O2  517   0.142   3.679  10.244 -0.5834 -0.4375  0.5740
   34TCq2    C2  518   0.072   3.888  10.192  0.2908 -0.1620  0.1840
   34TCq2    C3  519   4.662   3.857  10.205 -0.7842  0.0870  0.4594
   34TCq2    C4  520   4.579   3.943  10.149 -0.2777 -0.1976  0.3708
   34TCq2    C5  521   4.605   4.058  10.080 -0.1230  0.5472  0.4337
   34TCq2    C6  522   0.018   4.083  10.066 -0.2602 -0.3379  0.3354
   34TCq2    C7  523   0.112   3.999  10.119 -0.4737  0.0061  0.4172
   34TCq2    C8  524   0.061   4.183   9.974  0.3416  1.0431  0.6927
   34TCq2    O4  525   0.172   4.230   9.989  0.1550 -1.0604 -0.2144
   34TCq2    C9  526   4.436   3.908  10.150  0.5151 -0.0245  0.2077
   34TCq2    O5  527   4.403   3.802  10.210 -0.2344  0.2941 -0.3971
   34TCq2    O6  528   4.354   3.974  10.079 -0.4098 -0.3846 -0.3016
   34TCq2    H2  529   4.633   3.763  10.251  2.0713 -0.8509  0.2993
   34TCq2    H3  530   4.522   4.113  10.038 -1.0410  0.3838  2.0564
   34TCq2    H4  531   0.216   4.004  10.091  0.3365 -0.5683  3.3196
   35MPD2     C  532   1.552   0.715  12.112 -0.1929 -0.1918 -0.0273
   35MPD2    C1  533   1.554   0.578  12.144  0.2742 -0.6273 -0.4683
   35MPD2    C2  534   1.487   0.489  12.054  0.0549  0.3807  0.4823
   35MPD2    C3  535   1.414   0.536  11.945  0.0505 -0.1593 -0.3392
   35MPD2    C4  536   1.404   0.673  11.932  0.3061  0.3666  0.7283
   35MPD2    C5  537   1.473   0.758  12.013 -0.2254 -0.2602  0.3776
   35MPD2     H  538   1.490   0.384  12.079  0.1192  0.5642  1.2368
   35MPD2    H1  539   1.360   0.722  11.845 -3.0125 -2.3098  0.9169
   35MPD2    H2  540   1.604   0.798  12.158 -0.0818  0.5743 -1.5261
   35MPD2    H3  541   1.469   0.867  12.013 -1.6797 -0.3114 -1.8087
   35MPD2     N  542   1.356   0.439  11.853 -0.3175 -0.3264  0.0585
   35MPD2    H5  543   1.363   0.343  11.884  4.1145 -0.3304 -0.9613
   35MPD2    N1  544   1.627   0.533  12.262  0.0454  0.2730 -0.2218
   35MPD2    H7  545   1.682   0.607  12.305 -1.5790  0.5151  1.4350
   36TCq2    C1  546   1.275   0.470  11.748  0.5489  0.6884  0.5733
   36TCq2    O2  547   1.223   0.579  11.722 -0.2082 -0.5596 -0.6267
   36TCq2    C2  548   1.200   0.348  11.701 -0.3209  0.1242  0.7526
   36TCq2    C3  549   1.079   0.367  11.643  0.1574 -0.2699 -0.0852
   36TCq2    C4  550   1.001   0.260  11.622 -0.6283 -0.5816  0.3104
   36TCq2    C5  551   1.055   0.135  11.649 -1.0226  0.2881 -0.7473
   36TCq2    C6  552   1.179   0.116  11.691  0.8255 -0.7258 -0.3213
   36TCq2    C7  553   1.256   0.224  11.717 -0.2161 -0.3539  0.3370
   36TCq2    C8  554   1.223   4.707  11.726 -0.1208 -0.3841 -0.0885
   36TCq2    O4  555   1.136   4.617  11.738  0.3214 -0.0588 -0.1979
   36TCq2    C9  556   0.868   0.281  11.570  0.4888  0.2820  0.2741
   36TCq2    O5  557   0.799   0.175  11.566 -0.2880 -0.6822 -0.7651
   36TCq2    O6  558   0.837   0.397  11.545 -0.0794 -0.4769 -0.2016
   36TCq2    H2  559   1.027   0.462  11.633 -0.0175 -0.2145  1.3268
   36TCq2    H3  560   0.991   0.051  11.623  0.5192 -0.2919 -2.7055
   36TCq2    H4  561   1.364   0.217  11.726  0.0159 -0.1044 -2.1755
   37TMC2    C1  562   3.692   0.257  11.624 -0.7389  0.2541 -0.6496
   37TMC2    C2  563   3.701   0.229  11.494  0.5857  0.6324 -0.2423
   37TMC2    C3  564   3.829   0.239  11.436 -0.1052 -0.1759  0.0800
   37TMC2    C4  565   3.792   0.313  11.698 -0.9467  0.4307 -0.2325
   37TMC2    C5  566   3.911   0.340  11.636 -0.6182  0.1266 -0.2804
   37TMC2    C6  567   3.935   0.297  11.502  0.4441  0.3789  0.3922
   37TMC2     C  568   3.558   0.257  11.681 -0.3250 -0.0264 -0.3569
   37TMC2     O  569   3.468   0.247  11.598  0.2524 -0.0274  0.5040
   37TMC2     H  570   3.609   0.196  11.446  0.5151  0.5810 -0.0700
   37TMC2    H1  571   3.781   0.341  11.802  1.3787 -0.2395  0.1846
   37TMC2    H2  572   4.026   0.314  11.447 -1.1822 -2.7818 -3.3294
   37TMC2    C7  573   4.020   0.400  11.709 -0.4131  0.6191  0.2516
   37TMC2    C8  574   3.840   0.226  11.296  0.0700  0.4100  0.0305
   37TMC2    O1  575   3.996   0.411  11.827  0.6970  0.5213 -0.3377
   37TMC2    O2  576   3.910   0.134  11.256  0.3698 -0.5629  0.2123
   37TMC2    O5  577   3.715   0.240  11.255 -0.4663 -0.3754  0.1129
   37TMC2    H5  578   3.672   0.321  11.289 -1.6707 -1.0382  0.1827
   38MPD2     C  579   3.210   0.414  12.025  0.7665 -0.1766  0.1729
   38MPD2    C1  580   3.330   0.381  12.092  0.5929  0.2444 -0.8688
   38MPD2    C2  581   3.435   0.344  12.013  0.5561  0.0827 -0.2068
   38MPD2    C3  582   3.429   0.323  11.881 -0.0822  0.2390 -0.7940
   38MPD2    C4  583   3.310   0.354  11.813  0.1492 -0.6104 -0.2542
   38MPD2    C5  584   3.204   0.404  11.888 -0.1533 -0.1468 -0.0677
   38MPD2     H  585   3.528   0.335  12.067  0.5444  1.2538  0.0055
   38MPD2    H1  586   3.299   0.351  11.706 -0.8689 -2.2145 -0.0973
   38MPD2    H2  587   3.120   0.456  12.068 -0.7647 -1.6665 -1.5410
   38MPD2    H3  588   3.115   0.434  11.833 -0.6853  2.1387  2.0300
   38MPD2     N  589   3.542   0.276  11.815 -0.4434  0.4299 -0.4633
   38MPD2    H5  590   3.617   0.251  11.879 -0.5519  1.1251 -0.0676
   38MPD2    N1  591   3.354   0.406  12.227  0.1722  0.0127  0.2454
   38MPD2    H7  592   3.448   0.381  12.259  0.0801 -0.3575  0.2235
   39MPD2     C  593   1.940   2.297   1.920  0.0819  0.3039 -0.1618
   39MPD2    C1  594   1.838   2.390   1.896 -0.0071  0.3624 -0.5143
   39MPD2    C2  595   1.741   2.371   1.800 -0.1977  0.5110  0.1620
   39MPD2    C3  596   1.750   2.253   1.724 -0.6443  0.7063 -0.0443
   39MPD2    C4  597   1.856   2.169   1.739  0.1565 -0.1295 -0.1934
   39MPD2    C5  598   1.940   2.184   1.843 -0.4726 -0.0669 -0.2544
   39MPD2     H  599   1.664   2.446   1.784 -3.7812 -3.7468 -2.2468
   39MPD2    H1  600   1.867   2.075   1.686 -2.0875  0.1612 -1.1556
   39MPD2    H2  601   1.998   2.292   2.011 -0.4377  0.5851  0.1877
   39MPD2    H3  602   2.003   2.099   1.870 -0.5028  0.3756  1.2188
   39MPD2     N  603   1.665   2.217   1.618 -0.4503  0.0976  0.1262
   39MPD2    H5  604   1.692   2.146   1.550  1.9189  0.4193  0.7508
   39MPD2    N1  605   1.846   2.503   1.981  0.4616 -0.6196  0.0280
   39MPD2    H7  606   1.887   2.482   2.071  0.3812  0.6160  0.3584
   40TCq2    C1  607   1.770   2.625   1.962  0.4546  0.5101 -0.0162
   40TCq2    O2  608   1.725   2.663   1.857 -0.4013 -0.0840 -0.3678
   40TCq2    C2  609   1.789   2.727   2.055 -0.0701  0.5118 -0.3226
   40TCq2    C3  610   1.823   2.689   2.181  0.1599  0.2639  0.0477
   40TCq2    C4  611   1.916   2.758   2.251  0.5369 -0.3089 -0.0417
   40TCq2    C5  612   1.961   2.873   2.204 -0.1865 -0.4208  0.0147
   40TCq2    C6  613   1.936   2.904   2.076 -0.2788  0.2866 -0.5984
   40TCq2    C7  614   1.843   2.835   2.001 -0.4116  0.5590  0.7419
   40TCq2    C8  615   2.014   3.006   2.008 -0.2563 -0.0610  1.1736
   40TCq2    O4  616   1.960   3.056   1.907 -0.1564 -0.0795  0.4589
   40TCq2    C9  617   1.942   2.727   2.390  0.2808 -0.0909 -0.6505
   40TCq2    O5  618   1.896   2.618   2.438  0.2468  0.0770  0.3290
   40TCq2    O6  619   2.029   2.799   2.448  0.5628  0.1450  0.1432
   40TCq2    H2  620   1.780   2.599   2.224  0.7707 -0.6051 -1.1577
   40TCq2    H3  621   2.021   2.934   2.271 -0.6845  1.7197 -1.4834
   40TCq2    H4  622   1.845   2.855   1.894 -2.5902 -0.3513  0.5310
   41TMC2    C1  623   0.964   0.085  14.246 -0.6936 -0.7765  0.1006
   41TMC2    C2  624   1.014   0.195  14.293  0.1960  0.6124  0.1319
   41TMC2    C3  625   1.013   0.304  14.204  0.4338 -0.1145 -0.1485
   41TMC2    C4  626   0.912   0.065  14.116  0.3569 -0.1008  0.1232
   41TMC2    C5  627   0.915   0.174  14.029 -0.0233  0.5201 -0.3531
   41TMC2    C6  628   0.961   0.295  14.078  0.1761  0.1787 -0.2520
   41TMC2     C  629   0.933   4.707  14.338 -0.6352  0.4736 -0.3421
   41TMC2     O  630   0.882   4.605  14.290 -0.5274  0.0982  0.4685
   41TMC2     H  631   1.055   0.217  14.391  1.7351  1.0366 -0.6017
   41TMC2    H1  632   0.877   4.694  14.076  2.4660 -0.4316 -0.9201
   41TMC2    H2  633   0.961   0.381  14.012 -0.7025  0.5420  0.2128
   41TMC2    C7  634   0.815   0.174  13.918 -0.0666  0.3238  0.5267
   41TMC2    C8  635   1.111   0.407  14.237  0.2632 -0.0791 -0.1259
   41TMC2    O1  636   0.733   0.082  13.908 -0.1747  0.0226 -0.4736
   41TMC2    O2  637   1.222   0.377  14.274 -0.1518  0.4364  0.1722
   41TMC2    O5  638   1.048   0.522  14.276  0.0979  0.0290 -0.3602
   41TMC2    H5  639   0.957   0.519  14.239  0.9736 -2.1505 -2.2979
   42MPD2     C  640   0.851   4.533  14.574  0.0935 -0.5372  0.7194
   42MPD2    C1  641   0.869   4.676  14.583 -0.5140 -0.3121  0.8302
   42MPD2    C2  642   0.849   0.019  14.708 -0.6753  0.2514 -0.3390
   42MPD2    C3  643   0.798   4.660  14.807  0.2786  0.2086  0.8768
   42MPD2    C4  644   0.785   4.523  14.789  0.4499  0.3042 -0.3260
   42MPD2    C5  645   0.818   4.457  14.679  0.6953 -0.1346  1.4677
   42MPD2     H  646   0.878   0.123  14.716 -1.4764  0.2840  2.0522
   42MPD2    H1  647   0.757   4.461  14.873  0.7623  2.1371  1.1413
   42MPD2    H2  648   0.884   4.485  14.482  1.3415  1.4377  0.1391
   42MPD2    H3  649   0.811   4.349  14.678 -1.0156  0.0058 -2.0192
   42MPD2     N  650   0.775   4.712  14.938  0.5060  0.5374  0.1845
   42MPD2    H5  651   0.759   4.644  15.012  0.8905 -0.3409 -0.5413
   42MPD2    N1  652   0.918   0.025  14.471 -0.3660  0.2051  0.3126
   42MPD2    H7  653   0.945   0.118  14.500  0.6621 -0.1749  0.5518
   43MPD2     C  654   2.139   3.564   0.400 -0.2172  0.6146  0.4685
   43MPD2    C1  655   2.167   3.468   0.493  0.0500  0.4816 -0.3042
   43MPD2    C2  656   2.109   3.481   0.618 -0.1025 -1.2957  0.8426
   43MPD2    C3  657   2.034   3.588   0.653  0.4375 -0.0271 -0.0343
   43MPD2    C4  658   2.008   3.688   0.560  0.6011  0.3922  0.0342
   43MPD2    C5  659   2.059   3.665   0.432 -0.8326 -0.3697  0.0587
   43MPD2     H  660   2.128   3.400   0.687 -0.1685 -0.4934  1.8052
   43MPD2    H1  661   1.951   3.779   0.574  1.7518  0.8045  2.1881
   43MPD2    H2  662   2.169   3.556   0.296 -1.1703 -1.2716  0.3355
   43MPD2    H3  663   2.028   3.720   0.343  0.6496 -1.3517 -1.0700
   43MPD2     N  664   1.981   3.602   0.781  0.2471  0.4593  0.0109
   43MPD2    H5  665   1.917   3.680   0.789 -0.9057 -0.5439  0.6928
   43MPD2    N1  666   2.239   3.355   0.460 -0.3293  0.1824  0.2078
   43MPD2    H7  667   2.241   3.277   0.525  1.7456  1.5170  1.7607
   44TCq2    C1  668   2.018   3.568   1.388  0.0650  0.3698 -0.0379
   44TCq2    O2  669   2.126   3.509   1.369  0.3670 -0.4532 -0.0581
   44TCq2    C2  670   1.959   3.593   1.256 -0.0217  0.0465  0.1203
   44TCq2    C3  671   1.831   3.643   1.251  0.1023  0.0611  0.2188
   44TCq2    C4  672   1.768   3.672   1.134 -0.6972 -0.1131  0.4324
   44TCq2    C5  673   1.824   3.629   1.011 -0.3561 -0.0677 -0.4608
   44TCq2    C6  674   1.945   3.561   1.018  0.3519 -0.6932  0.1568
   44TCq2    C7  675   2.014   3.546   1.137  0.6804  0.5063  0.1474
   44TCq2    C8  676   2.012   3.522   0.895 -0.4441 -0.3790 -0.3993
   44TCq2    O4  677   2.109   3.448   0.907 -0.0229  0.1705  0.1196
   44TCq2    C9  678   1.658   3.765   1.143  0.0965  0.0325 -0.1591
   44TCq2    O5  679   1.618   3.808   1.253  0.1699 -0.1816 -0.1502
   44TCq2    O6  680   1.621   3.810   1.028 -0.1774  0.4298 -0.1298
   44TCq2    H2  681   1.785   3.669   1.345  2.8752  2.6785  0.8549
   44TCq2    H3  682   1.761   3.634   0.923 -3.6655  1.5146  2.0138
   44TCq2    H4  683   2.118   3.518   1.127 -0.6879 -3.5637 -3.2918
   45TMC2    C1  684   2.925   0.387   9.664  0.3435  0.3890 -0.2452
   45TMC2    C2  685   3.001   0.400   9.778  0.6882 -0.5453 -0.1397
   45TMC2    C3  686   3.035   0.524   9.809 -0.4600 -0.3628 -0.6778
   45TMC2    C4  687   2.872   0.500   9.599  0.2883  0.1348  0.1816
   45TMC2    C5  688   2.909   0.623   9.638 -0.4039 -0.2164 -0.3845
   45TMC2    C6  689   2.984   0.639   9.755  0.0779  0.2619 -0.5233
   45TMC2     C  690   2.880   0.251   9.623 -0.4224  0.8722 -0.1293
   45TMC2     O  691   2.913   0.158   9.693 -0.1441  0.2711 -0.1019
   45TMC2     H  692   3.051   0.319   9.828  0.2657 -1.7585 -1.6781
   45TMC2    H1  693   2.799   0.493   9.519 -0.2604  1.8468  0.5390
   45TMC2    H2  694   3.028   0.731   9.794  0.7990 -0.3019 -0.0099
   45TMC2    C7  695   2.839   0.739   9.590  0.3808 -0.0732 -0.3193
   45TMC2    C8  696   3.123   0.545   9.922  0.2433 -0.0533 -0.2216
   45TMC2    O1  697   2.746   0.737   9.510 -0.0445 -0.3993 -0.2129
   45TMC2    O2  698   3.113   0.633  10.006  0.2169  0.7575  0.8300
   45TMC2    O5  699   3.241   0.484   9.887 -0.1406 -0.1046 -0.2384
   45TMC2    H5  700   3.244   0.434   9.803 -0.9574 -0.1428 -0.2428
   46MPD2     C  701   2.765   0.007   9.507 -0.6135 -0.1322  0.4517
   46MPD2    C1  702   2.716   0.131   9.476 -0.0271  0.4397  0.2186
   46MPD2    C2  703   2.603   0.143   9.399 -0.9605 -0.5020 -0.0163
   46MPD2    C3  704   2.529   0.031   9.368  0.0029  0.6336  0.0078
   46MPD2    C4  705   2.565   4.636   9.423 -0.8011 -0.7882  0.1501
   46MPD2    C5  706   2.688   4.619   9.489 -0.0358 -0.9531 -0.1471
   46MPD2     H  707   2.574   0.243   9.368  0.9466  0.6628  1.9312
   46MPD2    H1  708   2.514   4.544   9.396 -1.8077  0.6120 -2.7251
   46MPD2    H2  709   2.858   4.713   9.560  0.1141  1.0331 -0.4258
   46MPD2    H3  710   2.725   4.528   9.535  0.3466 -0.6652  0.1150
   46MPD2     N  711   2.403   0.049   9.303 -0.2824 -0.0374  0.0599
   46MPD2    H5  712   2.388   0.146   9.278  2.6031  1.0979  2.7769
   46MPD2    N1  713   2.784   0.248   9.520 -1.2051  0.2260  0.5078
   46MPD2    H7  714   2.757   0.341   9.488  0.0283 -0.0579 -1.3436
   47TMC2    C1  715   4.547   1.348   8.457 -0.2116 -0.0026  0.0881
   47TMC2    C2  716   4.547   1.388   8.326 -0.0002  0.0389  0.5332
   47TMC2    C3  717   4.501   1.295   8.232  0.0833  0.0718 -0.0113
   47TMC2    C4  718   4.505   1.226   8.487 -0.7095  0.3111  1.2312
   47TMC2    C5  719   4.463   1.137   8.391 -0.1384 -0.3363 -0.4009
   47TMC2    C6  720   4.465   1.170   8.259  0.3691  0.0573 -0.7332
   47TMC2     C  721   4.611   1.431   8.565  0.6312  0.5774  0.2319
   47TMC2     O  722   4.588   1.548   8.567 -0.5732 -0.4592  0.2447
   47TMC2     H  723   4.581   1.487   8.298 -1.6590  0.2465 -0.7621
   47TMC2    H1  724   4.490   1.202   8.591 -0.8773  0.1284  1.1647
   47TMC2    H2  725   4.436   1.103   8.178  0.0842 -0.4384 -0.2233
   47TMC2    C7  726   4.395   1.018   8.431 -0.4136 -0.7106  0.5747
   47TMC2    C8  727   4.450   1.350   8.108 -0.2290  0.2284  0.5494
   47TMC2    O1  728   4.354   1.006   8.544  0.2928  0.4835  0.2769
   47TMC2    O2  729   4.441   1.287   8.004 -0.2999 -0.2713 -0.8947
   47TMC2    O5  730   4.433   1.486   8.120 -0.5325 -0.1647 -0.5815
   47TMC2    H5  731   4.416   1.510   8.214  1.4214  0.9232 -0.5036
   48MPD2     C  732   0.012   1.539   8.825  0.0451 -0.0035  0.4852
   48MPD2    C1  733   0.044   1.417   8.761  0.6252  0.2532  0.8941
   48MPD2    C2  734   0.144   1.340   8.818 -0.4793 -0.1721  0.0419
   48MPD2    C3  735   0.218   1.378   8.930 -0.0021 -0.4474  1.2743
   48MPD2    C4  736   0.184   1.496   8.995 -0.3089 -0.0017  0.1996
   48MPD2    C5  737   0.087   1.569   8.935  0.8360  1.0215 -0.3930
   48MPD2     H  738   0.162   1.251   8.759 -0.7387  0.8776 -1.6094
   48MPD2    H1  739   0.236   1.536   9.081 -1.4738  4.3397 -1.1253
   48MPD2    H2  740   4.655   1.603   8.790 -0.0810  0.4136  1.5452
   48MPD2    H3  741   0.062   1.664   8.981  1.7249  0.3288  1.4978
   48MPD2     N  742   0.319   1.287   8.966 -0.2027  0.3968 -0.8201
   48MPD2    H5  743   0.330   1.203   8.910  0.3106  0.4962 -0.8675
   48MPD2    N1  744   4.700   1.362   8.648 -0.6132 -0.0493 -0.0808
   48MPD2    H7  745   4.717   1.269   8.611  1.9323  1.0492 -1.6569
   49MPD2     C  746   3.300   3.099   9.851  0.8810  0.3271  0.8337
   49MPD2    C1  747   3.249   3.012   9.949 -0.5339 -0.3089 -0.1811
   49MPD2    C2  748   3.303   3.020  10.079  0.3474  0.8734 -0.2348
   49MPD2    C3  749   3.397   3.109  10.119 -0.7176  0.0297  0.2979
   49MPD2    C4  750   3.448   3.184  10.019 -0.3434 -0.2083  0.4588
   49MPD2    C5  751   3.396   3.189   9.891 -0.2610  0.4104 -0.1524
   49MPD2     H  752   3.251   2.955  10.148  1.6899 -1.2318 -1.2004
   49MPD2    H1  753   3.529   3.250  10.047  0.3767 -0.1626 -1.7207
   49MPD2    H2  754   3.276   3.105   9.745  1.3440  1.9063  0.8181
   49MPD2    H3  755   3.444   3.254   9.818 -1.7145 -0.1433 -1.6136
   49MPD2     N  756   3.442   3.131  10.254  0.0129 -0.1474 -0.0051
   49MPD2    H5  757   3.501   3.213  10.267 -1.0419  0.7773 -1.0594
   49MPD2    N1  758   3.142   2.919   9.927  0.5186  0.0138 -0.0149
   49MPD2    H7  759   3.107   2.864  10.005  1.3019 -1.3024 -0.5931
   50TCq2    C1  760   3.074   2.901   9.810  0.4774 -0.7829  0.6267
   50TCq2    O2  761   3.085   2.954   9.696  0.1646 -0.0635  0.1667
   50TCq2    C2  762   2.986   2.779   9.818  0.1449 -0.1429 -1.0002
   50TCq2    C3  763   2.954   2.725   9.943 -0.3675  0.3004 -0.2560
   50TCq2    C4  764   2.908   2.599   9.949 -0.3286  0.1935  0.0575
   50TCq2    C5  765   2.914   2.514   9.840  0.7477 -0.0220 -0.3456
   50TCq2    C6  766   2.958   2.575   9.724 -0.0148 -0.2053  1.1153
   50TCq2    C7  767   3.002   2.701   9.705  0.8884 -0.3208  0.4852
   50TCq2    C8  768   2.942   2.502   9.596  0.4469 -0.4846 -0.5581
   50TCq2    O4  769   3.016   2.524   9.503  0.2675  0.4300  0.3479
   50TCq2    C9  770   2.878   2.541  10.075 -1.0055 -0.6911 -0.3555
   50TCq2    O5  771   2.827   2.425  10.079  0.1560  0.1980  0.1218
   50TCq2    O6  772   2.873   2.621  10.174 -0.3073 -0.7812  0.1220
   50TCq2    H2  773   2.958   2.784  10.033 -1.6796  3.0205 -1.9795
   50TCq2    H3  774   2.886   2.410   9.846 -1.3020  0.5064 -0.7484
   50TCq2    H4  775   3.048   2.731   9.612  0.6189 -1.1860  0.0765
   51MPD2     C  776   3.856   1.713   0.948  0.0349  0.0543 -0.1106
   51MPD2    C1  777   3.722   1.691   0.983 -0.5422  0.1985 -0.2513
   51MPD2    C2  778   3.675   1.749   1.104 -0.5386  0.1823 -1.0842
   51MPD2    C3  779   3.763   1.840   1.169 -0.7606 -0.4322 -1.1445
   51MPD2    C4  780   3.894   1.861   1.133  0.0609 -0.0900  0.4534
   51MPD2    C5  781   3.936   1.797   1.021  0.2050 -0.4408 -0.0575
   51MPD2     H  782   3.569   1.733   1.117 -0.3296 -1.0411 -0.8909
   51MPD2    H1  783   3.956   1.935   1.183 -1.5573  1.1409  0.6218
   51MPD2    H2  784   3.886   1.686   0.847 -1.0630 -3.0809  0.3797
   51MPD2    H3  785   4.036   1.816   0.984 -0.5372  0.3805 -1.6111
   51MPD2     N  786   3.711   1.929   1.263 -0.5223 -0.4493 -0.4051
   51MPD2    H5  787   3.780   1.995   1.296 -0.4025 -0.4955 -0.5608
   51MPD2    N1  788   3.630   1.613   0.904 -0.1075 -0.0047  0.3322
   51MPD2    H7  789   3.534   1.605   0.936 -0.5849 -2.0602 -1.6051
   52TCq2    C1  790   3.582   1.921   1.317 -0.4411  0.8518 -0.2299
   52TCq2    O2  791   3.502   1.825   1.318 -0.3138  0.1396 -0.0104
   52TCq2    C2  792   3.568   2.029   1.415 -0.1746  0.2644 -0.1393
   52TCq2    C3  793   3.512   1.978   1.528  0.9062  0.0168  0.3613
   52TCq2    C4  794   3.519   2.054   1.634  0.6217  0.7040 -0.0128
   52TCq2    C5  795   3.587   2.167   1.644 -0.2668  0.1612 -0.6312
   52TCq2    C6  796   3.654   2.209   1.532 -0.2796 -0.2869 -0.1704
   52TCq2    C7  797   3.654   2.132   1.422  0.9555  0.2068  0.1649
   52TCq2    C8  798   3.754   2.313   1.546  0.7846 -0.5486  0.2765
   52TCq2    O4  799   3.868   2.291   1.509 -0.3968  0.2798 -0.0931
   52TCq2    C9  800   3.455   2.004   1.754  0.7818 -0.5121  0.1628
   52TCq2    O5  801   3.392   1.896   1.744  0.0406 -0.0544 -0.2863
   52TCq2    O6  802   3.478   2.064   1.864 -0.0979 -0.9515  0.1846
   52TCq2    H2  803   3.445   1.893   1.525 -0.5505  1.2087 -0.8573
   52TCq2    H3  804   3.583   2.220   1.739  2.6902 -0.2516 -0.2790
   52TCq2    H4  805   3.711   2.178   1.342  2.4725 -1.0746  0.4979
   53TMC2    C1  806   4.448   0.556  12.255  0.0613  0.1663 -0.0000
   53TMC2    C2  807   4.550   0.543  12.353  0.2387 -1.2545  0.2619
   53TMC2    C3  808   4.505   0.547  12.483  0.1004 -0.0092 -0.5009
   53TMC2    C4  809   4.312   0.572  12.289  0.1926 -0.6194  0.5509
   53TMC2    C5  810   4.288   0.577  12.424 -1.1014  0.1490  0.6670
   53TMC2    C6  811   4.377   0.560  12.522 -0.1169  0.3534  0.2929
   53TMC2     C  812   4.491   0.513  12.122 -0.7872 -0.1391  0.2458
   53TMC2     O  813   4.609   0.489  12.101 -0.0117  0.3694 -0.4311
   53TMC2     H  814   4.655   0.556  12.327  0.2911 -0.3429  0.9217
   53TMC2    H1  815   4.231   0.573  12.218  1.7886 -0.0822 -1.2536
   53TMC2    H2  816   4.352   0.563  12.627 -2.2339 -1.2811 -0.1487
   53TMC2    C7  817   4.150   0.617  12.457  0.8172  0.8266 -0.1138
   53TMC2    C8  818   4.597   0.566  12.593  0.2504  0.3754 -0.3985
   53TMC2    O1  819   4.082   0.668  12.366 -0.4243 -0.5164  0.0915
   53TMC2    O2  820   4.560   0.639  12.687 -0.2877  0.6322 -0.3411
   53TMC2    O5  821   4.705   0.494  12.571 -0.2925 -0.2914 -0.0763
   53TMC2    H5  822   4.698   0.454  12.482  2.9342  1.3186 -1.0644
   54MPD2     C  823   4.502   0.411  11.844  0.4396  0.3612 -0.0457
   54MPD2    C1  824   4.391   0.451  11.912 -0.4836  0.2690 -0.0145
   54MPD2    C2  825   4.266   0.448  11.852  0.4709 -0.9253  0.6100
   54MPD2    C3  826   4.257   0.409  11.718 -0.0626 -0.0742 -0.1714
   54MPD2    C4  827   4.377   0.368  11.654 -0.1913  0.0837 -0.0873
   54MPD2    C5  828   4.496   0.370  11.715 -0.2357 -0.3851  0.1047
   54MPD2     H  829   4.186   0.496  11.907 -1.3007 -1.6452 -1.3353
   54MPD2    H1  830   4.378   0.328  11.553 -0.2186 -0.2402  0.0397
   54MPD2    H2  831   4.602   0.419  11.885  0.6346  1.4438 -0.7339
   54MPD2    H3  832   4.586   0.341  11.662  0.0264 -1.8450  1.3550
   54MPD2     N  833   4.141   0.394  11.647 -0.2115 -0.3843  0.0342
   54MPD2    H5  834   4.143   0.395  11.545  0.4557 -1.8385  0.0397
   54MPD2    N1  835   4.387   0.505  12.040 -0.0135 -0.6735 -0.0022
   54MPD2    H7  836   4.295   0.537  12.067  1.1894  2.1591  0.7332
   55MPD2     C  837   4.652   3.151   0.280  0.7555 -0.6300  0.0440
   55MPD2    C1  838   4.588   3.070   0.375 -0.1588  0.9779 -0.2833
   55MPD2    C2  839   4.471   3.106   0.436 -0.1650  0.9691 -0.1779
   55MPD2    C3  840   4.405   3.220   0.386  1.0381  0.1602 -0.2308
   55MPD2    C4  841   4.475   3.294   0.293  0.0668 -0.1563 -0.4320
   55MPD2    C5  842   4.594   3.262   0.239  0.0927  0.4615 -0.5671
   55MPD2     H  843   4.425   3.057   0.521  1.2480  1.2990  0.7864
   55MPD2    H1  844   4.438   3.389   0.254 -0.4191 -1.5405 -3.3086
   55MPD2    H2  845   0.018   3.111   0.233  2.1252  1.7873  0.6082
   55MPD2    H3  846   4.635   3.330   0.165  0.0191 -0.3621 -1.3743
   55MPD2     N  847   4.295   3.258   0.459 -0.1032  0.9135 -0.5929
   55MPD2    H5  848   4.263   3.195   0.532 -2.3614  0.2378 -2.1669
   55MPD2    N1  849   4.650   2.952   0.425  0.5325  0.4670  0.0041
   55MPD2    H7  850   0.011   2.925   0.375  0.6307  0.3853  0.2139
   56TCq2    C1  851   4.603   2.871   0.524 -0.3335  0.2129 -0.5633
   56TCq2    O2  852   4.493   2.872   0.584  0.5073  0.0957  0.4905
   56TCq2    C2  853   4.685   2.750   0.535 -0.4849  0.0946 -0.6712
   56TCq2    C3  854   0.046   2.699   0.444 -0.3254 -0.1827  0.3124
   56TCq2    C4  855   0.109   2.575   0.478 -0.0106  0.5405  0.0433
   56TCq2    C5  856   0.099   2.514   0.596 -0.5818  0.1410  0.0076
   56TCq2    C6  857   0.020   2.580   0.685  0.6226  0.2303 -0.2609
   56TCq2    C7  858   4.668   2.689   0.657 -0.0255 -0.0637 -0.7662
   56TCq2    C8  859   4.702   2.497   0.800 -0.6186  0.2345  0.2183
   56TCq2    O4  860   0.053   2.404   0.828  0.0143 -0.1004 -0.2969
   56TCq2    C9  861   0.176   2.497   0.369  0.4046 -0.5324  0.2214
   56TCq2    O5  862   0.249   2.404   0.413 -0.6576  0.1675  0.4869
   56TCq2    O6  863   0.160   2.538   0.253 -0.2667  0.9142  0.0625
   56TCq2    H2  864   0.058   2.733   0.342 -3.0429  0.4625  0.2047
   56TCq2    H3  865   0.135   2.415   0.619 -0.8277  0.6406  2.6037
   56TCq2    H4  866   4.612   2.743   0.733 -0.0128  0.5423 -1.1898
   57TMC2    C1  867   3.941   4.355  13.276 -0.4284 -0.0140 -0.5978
   57TMC2    C2  868   4.069   4.356  13.330  0.6178 -0.3284 -0.3279
   57TMC2    C3  869   4.155   4.268  13.273 -0.3249 -0.2252 -0.3378
   57TMC2    C4  870   3.892   4.259  13.187  0.6247 -1.0976  0.3069
   57TMC2    C5  871   3.981   4.165  13.150 -0.2495 -0.3530  0.2599
   57TMC2    C6  872   4.116   4.172  13.183 -0.4443  0.4067  0.4993
   57TMC2     C  873   3.838   4.445  13.332 -0.1817  0.3297 -0.1566
   57TMC2     O  874   3.743   4.476  13.266 -0.6353 -0.4241 -0.2785
   57TMC2     H  875   4.117   4.425  13.399 -1.3375  0.7958 -0.0707
   57TMC2    H1  876   3.793   4.271  13.144  0.6528 -1.3315  0.1753
   57TMC2    H2  877   4.189   4.100  13.148  0.8157  1.5307  0.8102
   57TMC2    C7  878   3.922   4.039  13.112 -0.0592 -0.2673  0.3999
   57TMC2    C8  879   4.294   4.280  13.315 -0.3097  0.5159  0.1164
   57TMC2    O1  880   3.801   4.030  13.137 -0.0321 -0.3957 -0.1178
   57TMC2    O2  881   4.352   4.384  13.330 -0.0300 -0.1100  0.1545
   57TMC2    O5  882   4.323   4.159  13.374  0.2216 -0.5739  0.0740
   57TMC2    H5  883   4.244   4.103  13.389 -0.3868  0.7018  1.6794
   58MPD2     C  884   3.620   4.628  13.759  0.4992  0.2308 -0.1344
   58MPD2    C1  885   3.573   4.617  13.632  0.0246 -0.4779  0.4140
   58MPD2    C2  886   3.659   4.575  13.537  0.3042 -0.0957 -0.3600
   58MPD2    C3  887   3.786   4.535  13.559  0.0254 -0.4676  0.4762
   58MPD2    C4  888   3.838   4.551  13.684  0.6172  0.0121  0.5292
   58MPD2    C5  889   3.761   4.606  13.785 -0.0465  0.9484  0.0809
   58MPD2     H  890   3.621   4.561  13.436  0.1322  1.4087 -0.5010
   58MPD2    H1  891   3.932   4.507  13.717  1.1123  0.5703 -0.1489
   58MPD2    H2  892   3.562   4.660  13.845 -1.6815  0.2556 -1.6071
   58MPD2    H3  893   3.808   4.601  13.882  0.2490 -3.8393 -0.2806
   58MPD2     N  894   3.873   4.476  13.462 -0.6871 -0.3326  0.1045
   58MPD2    H5  895   3.957   4.428  13.490 -0.5249 -0.4027 -0.4914
   58MPD2    N1  896   3.447   4.650  13.592 -0.7878  0.1593  0.6539
   58MPD2    H7  897   3.420   4.640  13.495 -0.2659  0.3141  0.4933
   59MPD2     C  898   1.487   4.050  13.225 -0.4560 -0.9025 -0.2308
   59MPD2    C1  899   1.591   4.089  13.134 -0.0484  0.1224 -0.4538
   59MPD2    C2  900   1.698   4.166  13.182  0.6065  0.1568 -0.3719
   59MPD2    C3  901   1.705   4.204  13.316 -0.4318  0.4091 -0.8068
   59MPD2    C4  902   1.598   4.178  13.395  0.0572  0.8230 -0.4091
   59MPD2    C5  903   1.495   4.096  13.359  0.4338  0.3122 -0.2761
   59MPD2     H  904   1.773   4.201  13.112 -1.1214  1.2963 -1.6257
   59MPD2    H1  905   1.590   4.218  13.495 -1.5664  0.6069 -0.4465
   59MPD2    H2  906   1.405   3.986  13.194  1.7234 -3.9406  0.2446
   59MPD2    H3  907   1.413   4.078  13.427  1.1349  0.2193  0.5397
   59MPD2     N  908   1.809   4.272  13.372 -0.0319  0.6050  0.0273
   59MPD2    H5  909   1.785   4.327  13.454 -1.7683 -2.1487  1.3826
   59MPD2    N1  910   1.581   4.057  12.992  0.3324  0.1825 -0.3701
   59MPD2    H7  911   1.667   4.069  12.941  0.3820  0.9918 -0.0908
   60TCq2    C1  912   1.470   3.987  12.933  0.3224  0.0164 -0.7297
   60TCq2    O2  913   1.371   3.944  12.985  0.0435  0.0138 -0.1983
   60TCq2    C2  914   1.484   3.972  12.790 -0.5234 -0.0157  0.0822
   60TCq2    C3  915   1.413   3.871  12.736 -0.0412  0.2037  0.0319
   60TCq2    C4  916   1.434   3.826  12.609 -0.4716 -0.2096  0.4932
   60TCq2    C5  917   1.529   3.884  12.532 -0.5833 -0.4040  0.0007
   60TCq2    C6  918   1.596   3.992  12.588 -0.1956  0.9109  0.2665
   60TCq2    C7  919   1.573   4.040  12.715 -0.8030  0.3332  0.4263
   60TCq2    C8  920   1.677   4.080  12.501  0.3672 -0.2378  0.4002
   60TCq2    O4  921   1.767   4.023  12.442 -0.2436 -0.2386  0.8819
   60TCq2    C9  922   1.371   3.703  12.557 -0.0749  0.0319  0.0397
   60TCq2    O5  923   1.263   3.659  12.610 -0.6746  0.4448  0.8472
   60TCq2    O6  924   1.433   3.623  12.477 -0.1913 -0.2677 -0.0978
   60TCq2    H2  925   1.346   3.820  12.804 -0.2583  0.5716  0.0999
   60TCq2    H3  926   1.554   3.854  12.431 -1.2400  1.3557 -0.7030
   60TCq2    H4  927   1.611   4.133  12.757 -1.8460  1.2229 -0.5971
   61MPD2     C  928   0.793   0.587  15.012 -0.0514  0.2207  0.1868
   61MPD2    C1  929   0.852   0.713  15.034  0.3931 -0.2938  0.8145
   61MPD2    C2  930   0.764   0.823  15.025  0.4807 -0.1696  0.0696
   61MPD2    C3  931   0.634   0.804  14.984  0.2608 -0.4243 -0.1593
   61MPD2    C4  932   0.588   0.680  14.948  0.0346 -0.4673 -0.6281
   61MPD2    C5  933   0.663   0.570  14.970  0.0524  0.0080 -0.0943
   61MPD2     H  934   0.798   0.924  15.041 -0.1722 -0.1653  1.4273
   61MPD2    H1  935   0.485   0.669  14.916 -0.1084  0.0643 -0.3612
   61MPD2    H2  936   0.852   0.497  15.020 -1.9829 -1.2275 -1.8924
   61MPD2    H3  937   0.626   0.472  14.940  0.0399 -0.2728  0.8160
   61MPD2     N  938   0.543   0.904  14.950  0.0528 -0.3100 -0.3506
   61MPD2    H5  939   0.469   0.866  14.892  0.6560  1.3651 -2.2339
   61MPD2    N1  940   0.990   0.729  15.073 -0.0014  0.8738 -0.2459
   61MPD2    H7  941   1.027   0.824  15.075  1.7939  0.1922 -0.7530
   62TCq2    C1  942   1.080   0.628  15.080  0.0580  0.4572  0.5541
   62TCq2    O2  943   1.078   0.515  15.043  0.0427 -0.8381 -0.1981
   62TCq2    C2  944   1.202   0.667  15.145 -0.9095 -0.3613  0.3682
   62TCq2    C3  945   1.314   0.611  15.085  0.2844  0.1571 -0.3699
   62TCq2    C4  946   1.436   0.628  15.139  0.4780 -0.0305 -0.1199
   62TCq2    C5  947   1.455   0.712  15.243  0.0960 -0.3359 -0.1531
   62TCq2    C6  948   1.341   0.773  15.289 -0.2159  0.0429  0.1572
   62TCq2    C7  949   1.208   0.755  15.246 -0.7582  0.4559 -0.1012
   62TCq2    C8  950   1.355   0.850  15.405 -0.5124  0.0924 -0.4835
   62TCq2    O4  951   1.453   0.816  15.468  0.2604  0.4517  0.2042
   62TCq2    C9  952   1.544   0.549  15.081 -0.3655  0.9111  0.3961
   62TCq2    O5  953   1.659   0.565  15.133 -0.2130  0.4077  0.2677
   62TCq2    O6  954   1.517   0.500  14.967  0.4004 -0.0596 -0.4185
   62TCq2    H2  955   1.303   0.556  14.992  1.2930  1.3635 -1.1939
   62TCq2    H3  956   1.555   0.715  15.284  0.4981 -0.6346 -1.1098
   62TCq2    H4  957   1.122   0.804  15.292 -1.8970  0.1746 -1.9041
   63TMC2    C1  958   0.495   0.904  10.674  0.1984 -0.2810  0.4019
   63TMC2    C2  959   0.567   0.900  10.792 -0.1714  0.4400  0.3113
   63TMC2    C3  960   0.707   0.898  10.783  0.7032 -0.2345 -0.7572
   63TMC2    C4  961   0.555   0.911  10.550  0.0369 -0.0498 -0.5041
   63TMC2    C5  962   0.688   0.913  10.548  0.0561  0.5762  0.0378
   63TMC2    C6  963   0.762   0.904  10.658 -0.1538 -0.1867  0.3927
   63TMC2     C  964   0.384   0.818  10.681  0.1043  0.4634  0.0112
   63TMC2     O  965   0.391   0.735  10.775  0.0129  0.2366  0.5285
   63TMC2     H  966   0.522   0.897  10.891 -0.4830  0.9519  0.1835
   63TMC2    H1  967   0.503   0.917  10.455  1.4964 -1.0261 -1.3680
   63TMC2    H2  968   0.870   0.909  10.652 -0.1625  0.2542  0.6581
   63TMC2    C7  969   0.756   0.952  10.428 -0.2380 -0.3806 -0.2658
   63TMC2    C8  970   0.785   0.834  10.884  0.1272  0.3276  0.4302
   63TMC2    O1  971   0.710   0.918  10.326 -0.3769 -0.6603  0.0986
   63TMC2    O2  972   0.875   0.751  10.865 -0.2908 -0.5184 -0.0802
   63TMC2    O5  973   0.713   0.843  11.000  0.4200  0.7071  0.4222
   63TMC2    H5  974   0.645   0.913  10.996  1.2444  1.3798 -1.8257
   64MPD2     C  975   0.059   0.516  10.431 -0.8936 -0.5799 -0.0186
   64MPD2    C1  976   0.133   0.493  10.546 -0.3087  0.0720 -0.2380
   64MPD2    C2  977   0.195   0.599  10.604  0.6099  0.5773  0.1344
   64MPD2    C3  978   0.215   0.719  10.534 -0.3403  0.2581 -0.3046
   64MPD2    C4  979   0.159   0.735  10.409 -0.5858 -0.5886  0.1056
   64MPD2    C5  980   0.069   0.633  10.374 -0.0193  0.0035 -0.5908
   64MPD2     H  981   0.238   0.588  10.703 -1.6581 -0.5422  0.9988
   64MPD2    H1  982   0.157   0.831  10.358 -1.0573 -2.2237 -2.9837
   64MPD2    H2  983   0.014   0.439  10.370 -0.7485 -0.8840  0.2572
   64MPD2    H3  984   0.005   0.648  10.288 -0.4327 -0.1132 -0.3021
   64MPD2     N  985   0.305   0.819  10.575  0.1122 -0.1011  0.3448
   64MPD2    H5  986   0.321   0.900  10.516  0.2609 -1.1213 -1.0220
   64MPD2    N1  987   0.150   0.371  10.603 -0.0586 -0.6575  0.1218
   64MPD2    H7  988   0.218   0.367  10.679  0.1576 -2.3399 -0.1529
   65MPD2     C  989   1.665   0.305  15.868  0.5923 -0.5515 -0.4136
   65MPD2    C1  990   1.663   0.329  15.733 -0.3720  0.1689  1.2287
   65MPD2    C2  991   1.640   0.221  15.645  0.7447  0.1467  0.0104
   65MPD2    C3  992   1.633   0.093  15.692 -0.5058 -0.6626 -0.4612
   65MPD2    C4  993   1.649   0.068  15.821 -0.1914 -0.0835 -0.6733
   65MPD2    C5  994   1.663   0.177  15.910  0.2913 -0.0069 -0.0732
   65MPD2     H  995   1.627   0.237  15.539 -1.3269  0.0746  0.2461
   65MPD2    H1  996   1.643   4.691  15.863  0.0943 -0.4514 -1.5157
   65MPD2    H2  997   1.687   0.381  15.942 -1.4880  0.4234 -0.7750
   65MPD2    H3  998   1.660   0.148  16.015 -0.2035  0.5686  0.0783
   65MPD2     N  999   1.598   4.706  15.607  0.2026  0.0404 -0.1238
   65MPD2    H5 1000   1.597   4.616  15.655  2.5811  0.3272  0.4733
   65MPD2    N1 1001   1.677   0.466  15.679  0.8022  0.2120 -0.1972
   65MPD2    H7 1002   1.672   0.469  15.578 -0.3625 -0.2668 -0.1534
   66TCq2    C1 1003   1.681   0.581  15.748 -0.2393 -0.8747 -0.0982
   66TCq2    O2 1004   1.658   0.594  15.865  0.4102  0.7449  0.7577
   66TCq2    C2 1005   1.707   0.704  15.672  0.2773  0.6639 -0.1558
   66TCq2    C3 1006   1.774   0.698  15.557 -0.0559 -0.1890 -0.3390
   66TCq2    C4 1007   1.802   0.807  15.489 -0.0211  0.4834 -0.2270
   66TCq2    C5 1008   1.784   0.934  15.532 -0.2503  0.2778 -0.5808
   66TCq2    C6 1009   1.715   0.944  15.650 -0.0887  0.5320  0.3349
   66TCq2    C7 1010   1.677   0.831  15.725  0.0248  0.1534  0.0759
   66TCq2    C8 1011   1.723   1.077  15.720 -0.1859  1.0857  0.3406
   66TCq2    O4 1012   1.803   1.161  15.695  0.1045 -0.3384 -0.1276
   66TCq2    C9 1013   1.867   0.782  15.366 -0.5020  0.6918 -0.6832
   66TCq2    O5 1014   1.924   0.881  15.316 -0.9973  0.0914  0.6495
   66TCq2    O6 1015   1.872   0.666  15.321  0.3761 -0.3916 -0.1856
   66TCq2    H2 1016   1.811   0.603  15.521 -1.5142 -0.8935  0.0570
   66TCq2    H3 1017   1.828   1.019  15.480 -1.1713  0.5412 -0.9209
   66TCq2    H4 1018   1.648   0.835  15.829 -0.7205  0.5529 -0.1471
   67MPD2     C 1019   1.863   4.389  14.396 -0.7977 -0.4017  0.7844
   67MPD2    C1 1020   1.819   4.517  14.425 -0.4883 -0.3314 -0.0229
   67MPD2    C2 1021   1.718   4.571  14.346  0.5203  0.1510 -0.0665
   67MPD2    C3 1022   1.657   4.496  14.249 -0.7350  0.2379  0.4253
   67MPD2    C4 1023   1.704   4.372  14.222  1.6729  0.3106  0.1052
   67MPD2    C5 1024   1.807   4.325  14.288  0.0935 -0.3754  0.2984
   67MPD2     H 1025   1.672   4.662  14.382 -3.4511 -1.4811 -0.9709
   67MPD2    H1 1026   1.648   4.309  14.154  0.0135  1.7265  0.1472
   67MPD2    H2 1027   1.941   4.335  14.450  0.3986  0.3006 -0.2458
   67MPD2    H3 1028   1.833   4.222  14.265 -0.2703 -0.4556  0.2440
   67MPD2     N 1029   1.530   4.531  14.191  0.3311 -0.0526 -0.5004
   67MPD2    H5 1030   1.482   4.452  14.150 -0.3796  0.4995 -0.7343
   67MPD2    N1 1031   1.860   4.600  14.531 -0.4965  0.7648 -0.8601
   67MPD2    H7 1032   1.819   4.693  14.540 -1.2176  0.5165 -1.4975
   68TCq2    C1 1033   1.976   4.583  14.599 -0.5584 -0.2769  0.3075
   68TCq2    O2 1034   2.056   4.493  14.593  0.2022  0.9242 -0.0166
   68TCq2    C2 1035   1.996   4.693  14.697 -0.9498 -0.2651 -0.7925
   68TCq2    C3 1036   1.902   0.070  14.720  0.5775 -0.0223 -0.6369
   68TCq2    C4 1037   1.936   0.169  14.809  0.5724  0.6094 -0.5589
   68TCq2    C5 1038   2.050   0.158  14.883  0.1395  0.4442 -0.5775
   68TCq2    C6 1039   2.143   0.056  14.869  0.4296 -0.5032 -0.2893
   68TCq2    C7 1040   2.115   4.684  14.776  0.2418  0.0717 -0.2051
   68TCq2    C8 1041   2.261   0.055  14.943 -0.4116 -0.0650  0.1709
   68TCq2    O4 1042   2.364   0.006  14.893 -0.0331  0.0139  0.1778
   68TCq2    C9 1043   1.850   0.281  14.847  0.5179  0.1730 -1.1864
   68TCq2    O5 1044   1.791   0.354  14.759  0.4195  0.6754  0.1486
   68TCq2    O6 1045   1.864   0.322  14.964  0.1942 -0.6498 -0.0114
   68TCq2    H2 1046   1.815   0.070  14.654 -1.0283  1.8006  1.4840
   68TCq2    H3 1047   2.070   0.241  14.950  0.1269 -0.4646  0.5653
   68TCq2    H4 1048   2.182   4.599  14.767  0.5301  0.3814 -1.0549
   69TMC2    C1 1049   3.641   1.006  11.988 -0.1390 -0.2832  0.5023
   69TMC2    C2 1050   3.567   1.052  11.886 -0.0497  0.7405 -0.2194
   69TMC2    C3 1051   3.616   1.032  11.758 -0.0980 -0.2989  0.3194
   69TMC2    C4 1052   3.762   0.939  11.961 -0.9756  0.1919 -0.1255
   69TMC2    C5 1053   3.803   0.924  11.833 -0.4972  0.0688  0.2684
   69TMC2    C6 1054   3.732   0.971  11.724 -0.0623 -0.0418 -0.0925
   69TMC2     C 1055   3.628   1.063  12.121  0.4485  0.2905 -0.1970
   69TMC2     O 1056   3.522   1.121  12.142  0.4641  0.1347 -0.3227
   69TMC2     H 1057   3.483   1.120  11.899 -0.7413 -0.8179  3.2116
   69TMC2    H1 1058   3.826   0.895  12.036 -0.8044  0.3749 -0.1662
   69TMC2    H2 1059   3.768   0.978  11.622  1.5026  2.0541  0.6050
   69TMC2    C7 1060   3.927   0.849  11.819  0.9579  0.3485 -0.5372
   69TMC2    C8 1061   3.541   1.091  11.648 -0.1674  0.6501  0.3770
   69TMC2    O1 1062   4.005   0.853  11.916 -0.3093 -0.4353 -0.0209
   69TMC2    O2 1063   3.587   1.105  11.536  0.0318  0.3180 -0.3595
   69TMC2    O5 1064   3.408   1.105  11.672  0.2622  0.3791 -0.3654
   69TMC2    H5 1065   3.390   1.107  11.768  1.7251 -1.6596 -0.0384
   70MPD2     C 1066   3.845   1.021  12.399 -0.0297  0.5998 -0.2363
   70MPD2    C1 1067   3.729   1.051  12.338  0.1637  0.6397 -0.0186
   70MPD2    C2 1068   3.614   1.089  12.413 -0.1886 -0.1160 -0.1129
   70MPD2    C3 1069   3.629   1.083  12.549 -0.2483 -0.2677 -0.0809
   70MPD2    C4 1070   3.743   1.047  12.609  0.8339  0.5252  0.1982
   70MPD2    C5 1071   3.852   1.008  12.532 -0.5168 -0.2949 -0.1715
   70MPD2     H 1072   3.516   1.114  12.374  1.6901  1.6681 -3.6704
   70MPD2    H1 1073   3.749   1.035  12.716  0.1970 -0.8000  0.0908
   70MPD2    H2 1074   3.933   0.997  12.341  0.3948  0.3343  0.5204
   70MPD2    H3 1075   3.949   0.981  12.573 -0.6666  0.5109  0.7011
   70MPD2     N 1076   3.522   1.111  12.638 -0.0148 -0.6946 -0.2174
   70MPD2    H5 1077   3.535   1.110  12.739 -0.2833  1.0486 -0.1588
   70MPD2    N1 1078   3.733   1.034  12.202 -0.0328 -0.2661 -0.6728
   70MPD2    H7 1079   3.819   1.004  12.158  0.9835  0.7452  0.6120
   71TMC2    C1 1080   1.775   1.041   2.063 -0.3914  0.3033  0.0917
   71TMC2    C2 1081   1.836   0.966   2.151  0.0217 -0.2755  0.5912
   71TMC2    C3 1082   1.765   0.889   2.237  0.2514 -0.4581 -0.1654
   71TMC2    C4 1083   1.636   1.034   2.048 -0.0027 -0.5613 -0.1288
   71TMC2    C5 1084   1.563   0.956   2.138  0.7226 -0.0844  0.1432
   71TMC2    C6 1085   1.627   0.887   2.239 -0.4252  0.2302  0.2802
   71TMC2     C 1086   1.851   1.088   1.949  0.1017  0.0095  0.8326
   71TMC2     O 1087   1.801   1.094   1.843  0.5061 -0.0456 -0.3742
   71TMC2     H 1088   1.944   0.956   2.153  0.2451  1.6251 -2.6771
   71TMC2    H1 1089   1.587   1.072   1.959 -3.4387  0.6614  2.2656
   71TMC2    H2 1090   1.584   0.829   2.320 -1.1253  0.4453  0.0698
   71TMC2    C7 1091   1.417   0.960   2.148  0.9224  0.0568 -0.2603
   71TMC2    C8 1092   1.829   0.854   2.367  1.1636 -0.0704 -0.4469
   71TMC2    O1 1093   1.365   0.875   2.216  0.0319  0.3866 -0.0399
   71TMC2    O2 1094   1.928   0.921   2.392 -0.0806 -0.0849 -0.4041
   71TMC2    O5 1095   1.796   0.739   2.429 -0.2788 -0.4249 -0.5930
   71TMC2    H5 1096   1.743   0.681   2.370  1.2247 -2.7694  0.3362
   72MPD2     C 1097   2.283   1.265   1.737 -0.0356 -0.2242 -0.1961
   72MPD2    C1 1098   2.154   1.257   1.686  0.3198  0.4404 -0.1251
   72MPD2    C2 1099   2.051   1.200   1.767  0.5042 -0.1640  0.2018
   72MPD2    C3 1100   2.076   1.143   1.890 -0.2348  0.9190 -0.2673
   72MPD2    C4 1101   2.206   1.159   1.935  0.2153  0.2914 -0.4519
   72MPD2    C5 1102   2.306   1.208   1.854 -0.2283  0.3633 -0.5706
   72MPD2     H 1103   1.954   1.209   1.720 -0.2971 -0.8372  1.7511
   72MPD2    H1 1104   2.235   1.138   2.037  0.9438  1.7774 -0.3441
   72MPD2    H2 1105   2.361   1.303   1.673 -1.2337  1.7444 -0.4926
   72MPD2    H3 1106   2.406   1.218   1.894 -0.3130 -0.4346 -0.1635
   72MPD2     N 1107   1.985   1.101   1.982  0.0174  0.4902 -0.4489
   72MPD2    H5 1108   2.005   1.093   2.081 -2.6424 -0.4037  0.0358
   72MPD2    N1 1109   2.123   1.305   1.560  0.5023 -0.3489  0.0502
   72MPD2    H7 1110   2.036   1.273   1.520 -0.9906  0.1455  2.8995
   73TMC2    C1 1111   1.378   3.123  14.175  0.2032 -0.1165 -0.9556
   73TMC2    C2 1112   1.465   3.019  14.144  0.1156 -0.1123 -1.1064
   73TMC2    C3 1113   1.595   3.044  14.178 -0.2202  0.4211  0.3173
   73TMC2    C4 1114   1.418   3.235  14.244  0.3072  0.2274 -0.1800
   73TMC2    C5 1115   1.549   3.256  14.266  0.0439 -0.0011 -0.1591
   73TMC2    C6 1116   1.637   3.156  14.239 -0.1567 -0.2309  0.0665
   73TMC2     C 1117   1.294   3.173  14.067  0.3935 -0.3465 -0.4591
   73TMC2     O 1118   1.296   3.294  14.046  0.4854  0.7835 -0.2914
   73TMC2     H 1119   1.443   2.935  14.078 -0.1085  0.8014 -2.1865
   73TMC2    H1 1120   1.345   3.312  14.268  0.6805  0.1410  1.2707
   73TMC2    H2 1121   1.741   3.180  14.260  0.0641  0.9901 -2.4805
   73TMC2    C7 1122   1.591   3.387  14.225  0.5589  0.3634  0.6455
   73TMC2    C8 1123   1.699   2.946  14.154 -0.4402  0.2432 -0.5895
   73TMC2    O1 1124   1.705   3.414  14.258 -0.2036  0.0800  0.0241
   73TMC2    O2 1125   1.817   2.978  14.131 -0.7888 -1.1130 -0.2789
   73TMC2    O5 1126   1.640   2.832  14.180 -0.4357  0.3697  0.1280
   73TMC2    H5 1127   1.555   2.855  14.223  0.1339  0.8235  1.0278
   74MPD2     C 1128   0.944   3.161  13.697 -0.5664 -0.1591 -0.1361
   74MPD2    C1 1129   1.048   3.245  13.720  0.3981 -0.0371 -0.7345
   74MPD2    C2 1130   1.129   3.227  13.826  0.1389 -0.0737 -0.1256
   74MPD2    C3 1131   1.120   3.108  13.901 -0.4608 -0.3920 -1.1956
   74MPD2    C4 1132   1.011   3.024  13.883  0.0748  0.7370  0.7445
   74MPD2    C5 1133   0.928   3.057  13.778  0.1331  0.0354 -0.7232
   74MPD2     H 1134   1.215   3.293  13.832 -0.8517  1.3100 -0.9514
   74MPD2    H1 1135   0.996   2.931  13.936 -1.5203  1.2146  1.1121
   74MPD2    H2 1136   0.876   3.169  13.614  1.3765 -0.0267 -1.7223
   74MPD2    H3 1137   0.851   2.984  13.756 -0.5804  0.3923  0.5526
   74MPD2     N 1138   1.212   3.078  14.006 -0.6384  1.0798 -0.2667
   74MPD2    H5 1139   1.184   2.999  14.064 -0.8167  0.3389 -1.3625
   74MPD2    N1 1140   1.051   3.355  13.631  0.0419  0.5777 -0.5399
   74MPD2    H7 1141   0.984   3.362  13.556  0.1667  0.4012 -0.6658
   75TCq2    C1 1142   1.474   4.658  14.200 -0.2309  0.4784 -0.2606
   75TCq2    O2 1143   1.513   0.037  14.255  0.6538  0.3631 -0.3836
   75TCq2    C2 1144   1.348   4.654  14.134  0.3016  0.6353 -0.2694
   75TCq2    C3 1145   1.271   4.551  14.162  0.1495 -0.1829 -0.4823
   75TCq2    C4 1146   1.163   4.517  14.078 -0.2057  0.3156 -0.6318
   75TCq2    C5 1147   1.128   4.601  13.982  0.4508  0.3226 -0.0492
   75TCq2    C6 1148   1.209   4.707  13.955  0.3377 -0.7937 -0.8862
   75TCq2    C7 1149   1.319   0.010  14.029  0.1689 -0.0046  0.0716
   75TCq2    C8 1150   1.182   0.057  13.837 -0.0813  0.2908 -0.0663
   75TCq2    O4 1151   1.226   0.171  13.830 -0.2619  0.5782  0.0040
   75TCq2    C9 1152   1.090   4.397  14.099  0.1960  0.0424 -0.1581
   75TCq2    O5 1153   0.994   4.379  14.017 -0.2075 -0.3803  0.1631
   75TCq2    O6 1154   1.140   4.317  14.181 -0.2327 -0.2756 -0.4530
   75TCq2    H2 1155   1.285   4.488  14.248 -1.9509 -0.8817 -0.6492
   75TCq2    H3 1156   1.042   4.577  13.920 -0.1575  1.3056  0.4131
   75TCq2    H4 1157   1.375   0.099  14.001 -1.0882  0.6741 -0.2515
   76MPD2     C 1158   0.514   0.890  12.165 -0.0927  0.0004  0.2088
   76MPD2    C1 1159   0.403   0.809  12.130  0.5290  0.2349  0.2970
   76MPD2    C2 1160   0.411   0.676  12.172 -0.0219 -0.2936 -0.2261
   76MPD2    C3 1161   0.521   0.622  12.236  0.0279  0.4735 -0.7054
   76MPD2    C4 1162   0.631   0.708  12.281 -0.1705  0.1201  0.0663
   76MPD2    C5 1163   0.622   0.842  12.238  0.2884 -0.3262  0.5860
   76MPD2     H 1164   0.329   0.612  12.142  0.5799 -2.1048  1.9870
   76MPD2    H1 1165   0.718   0.676  12.336  0.0426 -0.0963 -0.3911
   76MPD2    H2 1166   0.519   0.991  12.127 -1.2449 -0.4659 -1.2007
   76MPD2    H3 1167   0.699   0.916  12.257 -0.7191  0.4419  1.6577
   76MPD2     N 1168   0.523   0.486  12.274  0.1434  0.1871  0.7522
   76MPD2    H5 1169   0.613   0.465  12.315 -0.9279 -0.8897  2.5345
   76MPD2    N1 1170   0.287   0.863  12.065 -0.4510 -0.1359  0.0286
   76MPD2    H7 1171   0.291   0.958  12.031 -1.2753  0.8813  2.7495
   77TCq2    C1 1172   0.427   0.387  12.239  0.5204  0.2362  0.0259
   77TCq2    O2 1173   0.313   0.400  12.199 -0.0959  0.2752 -0.1387
   77TCq2    C2 1174   0.463   0.253  12.264  0.3251 -0.2831  0.1739
   77TCq2    C3 1175   0.388   0.158  12.205 -0.4727 -0.0014  0.0529
   77TCq2    C4 1176   0.441   0.033  12.198  0.1509 -0.1761 -0.1771
   77TCq2    C5 1177   0.564   0.005  12.250 -0.0040 -0.3332  0.8661
   77TCq2    C6 1178   0.636   0.097  12.321 -0.4926  0.3627 -0.0332
   77TCq2    C7 1179   0.587   0.226  12.323 -0.0867 -0.5007 -0.1271
   77TCq2    C8 1180   0.772   0.056  12.368 -0.1824 -0.5151  0.2842
   77TCq2    O4 1181   0.815   4.676  12.323  0.3282  0.5370 -0.4101
   77TCq2    C9 1182   0.364   4.651  12.140 -0.7640 -0.2727 -0.6413
   77TCq2    O5 1183   0.410   4.533  12.143  0.9696 -0.1864 -0.3614
   77TCq2    O6 1184   0.254   4.683  12.088  0.7075  0.1985 -0.0117
   77TCq2    H2 1185   0.292   0.175  12.158  0.5063  0.8761 -1.6261
   77TCq2    H3 1186   0.606   4.628  12.239 -1.9841 -1.0289 -0.2606
   77TCq2    H4 1187   0.648   0.307  12.359  2.2032 -1.6297 -1.4778
   78MPD1     C 1188   0.273   0.688   1.682 -0.8612 -0.1420 -0.1369
   78MPD1    C1 1189   0.386   0.632   1.742  0.9782 -0.4631  0.1766
   78MPD1    C2 1190   0.505   0.702   1.744 -0.9054  0.8529 -0.1827
   78MPD1    C3 1191   0.518   0.819   1.669 -0.3201 -0.1346  0.6451
   78MPD1    C4 1192   0.405   0.879   1.617  0.1190  0.1864 -0.1004
   78MPD1    C5 1193   0.284   0.813   1.621 -0.0208 -0.7414 -0.5171
   78MPD1     H 1194   0.589   0.663   1.801 -1.0364  1.5319  0.4704
   78MPD1    H1 1195   0.399   0.965   1.553 -0.2029 -0.6131 -1.1456
   78MPD1    H2 1196   0.176   0.640   1.691 -0.8161 -0.1710  0.2219
   78MPD1    H3 1197   0.197   0.859   1.575  0.8100  2.1904  0.8470
   78MPD1     N 1198   0.644   0.883   1.646  0.5688 -0.0841  0.7113
   78MPD1    H5 1199   0.654   0.966   1.589 -1.8293  1.0304  1.9491
   78MPD1    N1 1200   0.371   0.530   1.837 -0.5327  0.1938 -0.2982
   78MPD1    H6 1201   0.450   0.467   1.831 -0.3894  0.2760  0.8735
   78MPD1    H7 1202   0.298   0.470   1.799 -0.7321  0.6582 -0.6529
   79TCq2    C1 1203   0.766   0.829   1.674 -0.5438 -0.2848 -0.0075
   79TCq2    O2 1204   0.790   0.722   1.725  0.2403  0.5990 -0.5186
   79TCq2    C2 1205   0.873   0.919   1.648  0.1598 -0.4780 -0.2327
   79TCq2    C3 1206   0.853   1.048   1.604 -0.3416  0.3775  0.3513
   79TCq2    C4 1207   0.968   1.117   1.564 -0.2541  0.3315  0.3685
   79TCq2    C5 1208   1.092   1.068   1.589  0.7689 -0.7454 -0.2926
   79TCq2    C6 1209   1.110   0.940   1.643  0.0408  0.2481 -0.0239
   79TCq2    C7 1210   0.996   0.871   1.678  0.0890  0.5361 -0.1397
   79TCq2    C8 1211   1.244   0.893   1.681 -0.1311  0.6360 -0.6615
   79TCq2    O4 1212   1.342   0.936   1.620 -0.0192  0.2566 -0.2585
   79TCq2    C9 1213   0.949   1.238   1.495  0.0379 -0.3094 -0.3175
   79TCq2    O5 1214   1.050   1.288   1.436  0.0455  0.1102  0.0602
   79TCq2    O6 1215   0.829   1.282   1.481 -0.0989 -0.3609  0.4807
   79TCq2    H2 1216   0.752   1.086   1.595 -0.0422  0.8696 -0.9862
   79TCq2    H3 1217   1.183   1.106   1.545  0.4357  1.1087  0.6119
   79TCq2    H4 1218   1.014   0.771   1.717  0.1615 -0.3836 -2.5207
   80MPD2     C 1219   4.160   0.213  12.523  0.4938  0.7908 -0.1928
   80MPD2    C1 1220   4.084   0.244  12.415 -0.1424  0.1444  0.2353
   80MPD2    C2 1221   3.950   0.282  12.436  0.5165 -0.1378  0.2403
   80MPD2    C3 1222   3.893   0.291  12.564  0.3045 -0.1158 -1.2870
   80MPD2    C4 1223   3.974   0.260  12.668  0.0853 -0.1518 -0.4188
   80MPD2    C5 1224   4.101   0.215  12.647 -0.4496  0.9852  0.8444
   80MPD2     H 1225   3.902   0.301  12.341  1.1758  1.0184  0.1405
   80MPD2    H1 1226   3.942   0.270  12.771  0.7395 -1.0659 -0.1195
   80MPD2    H2 1227   4.263   0.182  12.513  0.3802  0.1424  0.6172
   80MPD2    H3 1228   4.162   0.182  12.730  2.7536  3.0570 -0.6917
   80MPD2     N 1229   3.758   0.334  12.589  0.1173 -0.4090  0.5766
   80MPD2    H5 1230   3.731   0.336  12.687 -0.2098  0.1908  0.4737
   80MPD2    N1 1231   4.134   0.233  12.280 -0.0553 -0.3589  0.4407
   80MPD2    H7 1232   4.073   0.265  12.206 -0.4489 -2.1005  0.0016
   81TCq2    C1 1233   4.266   0.199  12.247 -0.0889  0.2358 -0.4640
   81TCq2    O2 1234   4.364   0.203  12.323 -0.0510 -0.1468 -0.3233
   81TCq2    C2 1235   4.284   0.146  12.117  0.6907  0.6503  0.0204
   81TCq2    C3 1236   4.410   0.128  12.068  0.5327 -0.5551  0.4882
   81TCq2    C4 1237   4.419   0.072  11.945 -0.0701  0.2234  0.2323
   81TCq2    C5 1238   4.322   0.035  11.864 -0.0549  0.0675 -0.1388
   81TCq2    C6 1239   4.195   0.053  11.917 -0.2429  0.1012 -0.3768
   81TCq2    C7 1240   4.172   0.101  12.043  0.5838  0.0485 -1.0609
   81TCq2    C8 1241   4.088   4.711  11.851 -0.5565  0.0544  0.2425
   81TCq2    O4 1242   4.083   0.000  11.727  0.0289 -0.1419  0.2514
   81TCq2    C9 1243   4.547   0.032  11.891  0.2193 -0.4064  0.1897
   81TCq2    O5 1244   4.625   4.719  11.980  0.4882 -0.1702 -0.2885
   81TCq2    O6 1245   4.569   0.037  11.766  0.5249  0.4893  0.7295
   81TCq2    H2 1246   4.502   0.151  12.119  0.2919 -0.5135  0.8985
   81TCq2    H3 1247   4.347   4.693  11.781 -0.7445  0.3154 -0.5465
   81TCq2    H4 1248   4.079   0.119  12.095  0.4190  1.5430 -1.8989
   82MPD2     C 1249   2.561   4.673  10.520  0.2073  0.4782  0.2212
   82MPD2    C1 1250   2.460   4.578  10.542 -0.6101  0.3527 -0.6104
   82MPD2    C2 1251   2.491   4.470  10.622  0.5020 -0.0444 -0.7739
   82MPD2    C3 1252   2.618   4.460  10.677  0.3798  0.5776  0.1585
   82MPD2    C4 1253   2.712   4.552  10.653 -0.6435 -0.5798 -0.1591
   82MPD2    C5 1254   2.680   4.657  10.580  0.5566 -0.3219 -0.4655
   82MPD2     H 1255   2.414   4.396  10.641 -1.2017  2.2081  1.1389
   82MPD2    H1 1256   2.806   4.536  10.705  0.6251 -2.0705 -2.8909
   82MPD2    H2 1257   2.536   0.037  10.460  1.2548 -0.3844 -1.4595
   82MPD2    H3 1258   2.764   4.718  10.551  1.1462 -1.9349 -2.1260
   82MPD2     N 1259   2.663   4.349  10.760 -0.2206 -0.0115 -0.2200
   82MPD2    H5 1260   2.759   4.355  10.792 -0.0392  1.4720 -1.0107
   82MPD2    N1 1261   2.337   4.586  10.466  0.2580  0.5554 -0.3221
   82MPD2    H7 1262   2.304   4.677  10.433  1.6488 -0.0588 -3.4358
   83TCq2    C1 1263   2.584   4.239  10.802 -0.5249 -0.5558 -0.4283
   83TCq2    O2 1264   2.471   4.203  10.762  0.0774 -0.0353 -1.2745
   83TCq2    C2 1265   2.653   4.141  10.890  0.4269 -0.3871 -0.5063
   83TCq2    C3 1266   2.789   4.133  10.899 -0.2346  0.6780  0.4532
   83TCq2    C4 1267   2.842   4.028  10.967  0.0742 -0.7745 -0.2661
   83TCq2    C5 1268   2.767   3.938  11.032 -0.2937  0.2548 -0.0638
   83TCq2    C6 1269   2.632   3.955  11.026 -0.1742 -0.0511  0.1468
   83TCq2    C7 1270   2.571   4.053  10.950 -0.4837 -0.7672  0.6467
   83TCq2    C8 1271   2.548   3.841  11.064 -0.0440 -0.5244 -0.2873
   83TCq2    O4 1272   2.590   3.754  11.135 -0.2508 -0.0518 -0.2453
   83TCq2    C9 1273   2.988   4.014  10.979 -0.4717 -0.3487 -0.0578
   83TCq2    O5 1274   3.061   4.105  10.929 -0.5890 -0.3390 -0.0007
   83TCq2    O6 1275   3.032   3.905  11.018  0.3133 -0.5367 -0.4229
   83TCq2    H2 1276   2.850   4.209  10.851 -0.1220  1.0503  1.1788
   83TCq2    H3 1277   2.811   3.861  11.093  0.3559  0.2620 -0.5218
   83TCq2    H4 1278   2.464   4.069  10.947 -0.2929  0.6099  1.1391
   84TCq2    C1 1279   3.424   3.054  10.369  0.1091  0.1713 -0.2797
   84TCq2    O2 1280   3.338   2.968  10.368  0.2136  0.5467 -0.5573
   84TCq2    C2 1281   3.492   3.114  10.486 -0.3626 -0.0097 -1.0280
   84TCq2    C3 1282   3.601   3.190  10.454  0.3227  0.1831 -0.7247
   84TCq2    C4 1283   3.658   3.262  10.556  0.3179  1.1752  0.6251
   84TCq2    C5 1284   3.615   3.236  10.687 -0.3482 -0.1542  0.4052
   84TCq2    C6 1285   3.496   3.160  10.710 -0.2336  0.0569  0.0689
   84TCq2    C7 1286   3.434   3.099  10.606  0.3570 -0.0632  0.1657
   84TCq2    C8 1287   3.428   3.193  10.832 -0.4372  0.8463 -0.1124
   84TCq2    O4 1288   3.479   3.278  10.903  0.4391  0.4666 -0.2999
   84TCq2    C9 1289   3.764   3.358  10.527 -1.2482 -0.1053 -0.4327
   84TCq2    O5 1290   3.807   3.374  10.403 -0.1662  0.4924 -0.1200
   84TCq2    O6 1291   3.820   3.414  10.622  0.5881 -0.4656  0.1462
   84TCq2    H2 1292   3.654   3.193  10.359  1.1656 -1.0080 -0.2932
   84TCq2    H3 1293   3.663   3.281  10.773 -3.0783  1.1028  1.2711
   84TCq2    H4 1294   3.343   3.041  10.611 -0.4791  1.2673  0.1037
   85MPD2     C 1295   3.748   1.027  16.324 -0.2409 -0.2405  0.3021
   85MPD2    C1 1296   3.657   1.037  16.224  0.4041 -0.0862  0.0153
   85MPD2    C2 1297   3.660   1.139  16.127 -1.1123 -0.3421 -0.0269
   85MPD2    C3 1298   3.759   1.228  16.138  0.2643  0.1319  0.1477
   85MPD2    C4 1299   3.858   1.211  16.231  0.3326 -0.1947 -0.7053
   85MPD2    C5 1300   3.852   1.106  16.319 -0.0471  0.4431  0.1031
   85MPD2     H 1301   3.579   1.151  16.057 -0.5370 -0.1311 -0.6533
   85MPD2    H1 1302   3.946   1.273  16.239 -0.3305  0.6812 -0.0747
   85MPD2    H2 1303   3.745   0.949  16.399 -0.9942 -1.1188 -0.6420
   85MPD2    H3 1304   3.929   1.088  16.393 -1.2264 -1.2994  0.9203
   85MPD2     N 1305   3.755   1.352  16.067  0.2447  1.2279 -1.0126
   85MPD2    H5 1306   3.678   1.357  16.002 -1.6955  1.0490  1.2479
   85MPD2    N1 1307   3.545   0.956  16.227 -0.0957 -0.2588 -0.0909
   85MPD2    H7 1308   3.491   0.944  16.143 -1.1280  1.4867  0.3208
   86TCq2    C1 1309   3.838   1.453  16.082 -0.2656  0.5764 -0.4787
   86TCq2    O2 1310   3.932   1.467  16.156 -0.0212  0.2965 -0.2364
   86TCq2    C2 1311   3.816   1.570  15.992 -0.5749 -0.4967 -0.6310
   86TCq2    C3 1312   3.696   1.580  15.931 -0.2135  0.0084  0.4203
   86TCq2    C4 1313   3.688   1.654  15.813  0.0231  0.2862 -0.1884
   86TCq2    C5 1314   3.797   1.725  15.763 -0.6173 -0.2577 -0.2188
   86TCq2    C6 1315   3.914   1.722  15.829 -0.9514  0.4157 -0.1033
   86TCq2    C7 1316   3.926   1.631  15.939 -0.0140  0.0131  0.8570
   86TCq2    C8 1317   4.037   1.756  15.749 -0.3640  0.1293 -0.1799
   86TCq2    O4 1318   4.029   1.829  15.649  0.6147  0.0582  0.3155
   86TCq2    C9 1319   3.561   1.649  15.744 -0.1018 -0.1683 -0.0435
   86TCq2    O5 1320   3.482   1.577  15.808 -0.2193 -0.0123 -0.8100
   86TCq2    O6 1321   3.542   1.715  15.637  0.3901 -0.3673  0.5409
   86TCq2    H2 1322   3.608   1.539  15.978 -1.5196  2.3074 -0.0546
   86TCq2    H3 1323   3.785   1.785  15.674  0.1941  0.3439  0.0802
   86TCq2    H4 1324   4.013   1.612  16.001  3.8162  0.2557 -4.4411
   87MPD2     C 1325   1.248   0.693   1.292 -0.4527  0.2638 -0.1340
   87MPD2    C1 1326   1.158   0.597   1.323  0.3673  0.7984 -0.5020
   87MPD2    C2 1327   1.023   0.617   1.335 -0.7234  0.1589 -0.1378
   87MPD2    C3 1328   0.983   0.754   1.320  0.2101  0.9430 -0.6937
   87MPD2    C4 1329   1.078   0.851   1.289  0.2327  0.0693 -0.3248
   87MPD2    C5 1330   1.214   0.818   1.277  0.5235 -0.3282  0.0899
   87MPD2     H 1331   0.949   0.540   1.319  0.1484 -0.5283 -0.8416
   87MPD2    H1 1332   1.047   0.950   1.255 -0.5313  0.3123  1.1014
   87MPD2    H2 1333   1.354   0.671   1.279 -0.6157 -0.6355  0.0332
   87MPD2    H3 1334   1.287   0.892   1.246 -0.6054  1.8457  2.6012
   87MPD2     N 1335   0.850   0.799   1.310  0.0330  0.5970  0.7140
   87MPD2    H5 1336   0.836   0.898   1.293  1.0190  0.9391  1.9219
   87MPD2    N1 1337   1.212   0.473   1.345 -0.2484  0.0856  0.4174
   87MPD2    H7 1338   1.312   0.466   1.325 -0.3096 -0.4959  0.3224
   88TCq2    C1 1339   1.149   0.368   1.406 -0.8426 -0.7138  0.5806
   88TCq2    O2 1340   1.034   0.356   1.450 -0.1461  0.1357  0.2968
   88TCq2    C2 1341   1.227   0.245   1.413  0.3022  0.1037  0.7604
   88TCq2    C3 1342   1.204   0.160   1.519 -0.4344 -0.0747 -0.3914
   88TCq2    C4 1343   1.281   0.044   1.534  0.1385  0.3750  0.3826
   88TCq2    C5 1344   1.387   0.019   1.447 -0.0676  0.6880 -1.1666
   88TCq2    C6 1345   1.404   0.109   1.344 -0.6092  1.2730 -0.1023
   88TCq2    C7 1346   1.325   0.220   1.325  0.0561 -0.1667  0.1984
   88TCq2    C8 1347   1.523   0.102   1.256 -0.2691 -0.7871  0.1409
   88TCq2    O4 1348   1.530   0.162   1.153 -0.2198 -0.0951  0.0368
   88TCq2    C9 1349   1.227   4.675   1.630  0.5807  0.8081 -0.2970
   88TCq2    O5 1350   1.125   4.716   1.692  0.6482  0.0268 -0.0790
   88TCq2    O6 1351   1.292   4.575   1.663 -0.9450  0.3257 -0.2909
   88TCq2    H2 1352   1.129   0.181   1.595  0.7318  1.1322  0.4276
   88TCq2    H3 1353   1.446   4.651   1.453 -0.4034  0.6096  1.2687
   88TCq2    H4 1354   1.350   0.293   1.250 -1.1652 -0.5889 -0.6038
   89MPD2     C 1355   2.196   3.223   1.912  0.0517 -0.2742 -0.1192
   89MPD2    C1 1356   2.222   3.134   2.019  0.8950  0.0689  0.1928
   89MPD2    C2 1357   2.332   3.161   2.095 -0.3074  0.5749  0.3704
   89MPD2    C3 1358   2.423   3.261   2.065  0.2840  0.1636  0.6172
   89MPD2    C4 1359   2.411   3.324   1.946  0.1399  0.1356 -0.5159
   89MPD2    C5 1360   2.294   3.311   1.868 -0.5855  0.3638 -0.8767
   89MPD2     H 1361   2.345   3.114   2.191  1.2042  1.3927  0.5688
   89MPD2    H1 1362   2.475   3.401   1.904 -0.5604  1.2926  0.5608
   89MPD2    H2 1363   2.111   3.214   1.846  0.7990  0.5766 -1.1940
   89MPD2    H3 1364   2.297   3.358   1.771 -1.5184  2.6548  0.2246
   89MPD2     N 1365   2.532   3.288   2.152  0.4980 -0.2476 -0.4911
   89MPD2    H5 1366   2.543   3.232   2.236 -0.3580  2.8030  1.6928
   89MPD2    N1 1367   2.136   3.032   2.067  0.8078 -0.2347  0.0749
   89MPD2    H7 1368   2.162   2.985   2.153 -0.0143  2.5952  1.8866
   90TCq2    C1 1369   2.622   3.391   2.143 -0.2138  0.0702  0.3842
   90TCq2    O2 1370   2.650   3.467   2.049  0.4285 -0.2506  0.0045
   90TCq2    C2 1371   2.714   3.395   2.246  0.0635  0.1581 -0.2416
   90TCq2    C3 1372   2.678   3.366   2.374  0.1343 -0.2597 -0.0623
   90TCq2    C4 1373   2.779   3.345   2.460  0.0980 -0.2763  0.3427
   90TCq2    C5 1374   2.908   3.359   2.430 -0.8110  0.3741  0.2066
   90TCq2    C6 1375   2.945   3.394   2.303  1.1761  0.0825 -0.5245
   90TCq2    C7 1376   2.846   3.428   2.210  0.0805  0.1486  0.2378
   90TCq2    C8 1377   3.085   3.428   2.272 -0.2262 -0.0333  0.0819
   90TCq2    O4 1378   3.156   3.445   2.374  0.0465 -0.4194  0.3210
   90TCq2    C9 1379   2.744   3.315   2.601  0.3980 -0.2470 -0.0759
   90TCq2    O5 1380   2.831   3.304   2.691  0.7646 -0.3423  0.1413
   90TCq2    O6 1381   2.621   3.298   2.629 -0.3973  0.5253  0.4350
   90TCq2    H2 1382   2.575   3.370   2.409 -0.1622 -0.3904 -0.9155
   90TCq2    H3 1383   2.983   3.332   2.504 -1.0555 -0.4224  0.1648
   90TCq2    H4 1384   2.870   3.430   2.104  0.1024 -1.3345  0.2142
   91TMC2    C1 1385   4.095   2.222  16.748 -0.2327 -0.3777  0.1839
   91TMC2    C2 1386   4.154   2.298  16.652 -0.4731 -0.1643 -0.4833
   91TMC2    C3 1387   4.067   2.352  16.560 -0.9737  0.0063 -0.1570
   91TMC2    C4 1388   3.962   2.189  16.755 -0.6476  0.0767  0.4689
   91TMC2    C5 1389   3.892   2.229  16.640  0.3367  0.6262  0.3994
   91TMC2    C6 1390   3.941   2.314  16.547  0.1071 -0.3866 -0.2067
   91TMC2     C 1391   4.186   2.136  16.824  1.0561  0.0456 -0.1504
   91TMC2     O 1392   4.147   2.045  16.892 -0.0504  0.6295 -0.0483
   91TMC2     H 1393   4.260   2.320  16.649 -0.0601 -1.8349  1.4601
   91TMC2    H1 1394   3.929   2.121  16.832 -0.7640 -1.3237 -0.8088
   91TMC2    H2 1395   3.880   2.366  16.474 -1.1959 -1.1313  0.3622
   91TMC2    C7 1396   3.754   2.182  16.639 -0.1614  0.3987 -0.1239
   91TMC2    C8 1397   4.122   2.453  16.471 -0.3695  0.1498  0.1570
   91TMC2    O1 1398   3.711   2.141  16.741  0.2263 -0.5197 -0.4421
   91TMC2    O2 1399   4.074   2.467  16.360 -0.4413 -0.1603 -0.1038
   91TMC2    O5 1400   4.161   2.557  16.551 -0.0594 -0.3699  0.6379
   91TMC2    H5 1401   4.168   2.533  16.646  0.2929 -1.0642  0.4366
   92MPD2     C 1402   4.426   1.989  16.910 -0.7619 -0.8156  0.0738
   92MPD2    C1 1403   4.425   2.122  16.889 -0.4116 -0.2495 -0.5627
   92MPD2    C2 1404   4.541   2.196  16.886 -0.4899  0.2769 -0.0125
   92MPD2    C3 1405   4.655   2.135  16.916 -0.1563 -0.1416 -0.5714
   92MPD2    C4 1406   4.658   2.001  16.950  0.1593 -0.3662  0.7683
   92MPD2    C5 1407   4.541   1.929  16.949 -0.6699 -0.4949  0.0135
   92MPD2     H 1408   4.534   2.298  16.849 -0.1816 -0.5923 -2.4989
   92MPD2    H1 1409   0.023   1.947  16.980  0.4425 -0.4486 -0.2208
   92MPD2    H2 1410   4.335   1.931  16.905 -0.2707 -1.3962 -2.4440
   92MPD2    H3 1411   4.537   1.823  16.972 -0.4021 -0.5626 -0.2450
   92MPD2     N 1412   0.049   2.213  16.901  0.2207 -0.2171  0.1336
   92MPD2    H5 1413   0.039   2.312  16.884 -0.0755 -0.6253 -2.0671
   92MPD2    N1 1414   4.315   2.185  16.840  0.7991  0.0320 -0.0507
   92MPD2    H7 1415   4.334   2.273  16.794 -2.0856  1.6237  1.8069
   93MPD2     C 1416   1.021   2.078  13.897 -0.1312  0.2290 -0.0514
   93MPD2    C1 1417   0.962   2.202  13.914 -0.4584 -0.0745 -0.2824
   93MPD2    C2 1418   0.823   2.223  13.885 -0.4664 -0.4171 -0.4757
   93MPD2    C3 1419   0.751   2.115  13.835  0.0148 -0.3833 -0.6132
   93MPD2    C4 1420   0.809   1.989  13.825 -0.0324 -0.0780  0.0466
   93MPD2    C5 1421   0.939   1.977  13.864  0.0039 -0.5519 -0.5696
   93MPD2     H 1422   0.781   2.323  13.884 -0.1181 -0.2544  1.9907
   93MPD2    H1 1423   0.761   1.901  13.783 -2.3973  0.7017  1.1568
   93MPD2    H2 1424   1.122   2.057  13.931 -0.4213 -1.4918 -0.2687
   93MPD2    H3 1425   0.980   1.876  13.864  1.3327 -0.0134  5.2428
   93MPD2     N 1426   0.625   2.121  13.770  0.0513 -0.0929 -0.5619
   93MPD2    H5 1427   0.616   2.043  13.706  2.1456  0.8547 -1.9801
   93MPD2    N1 1428   1.033   2.314  13.954  0.3506  0.2762 -0.5142
   93MPD2    H7 1429   0.975   2.394  13.978 -0.9585 -0.6803 -0.4982
   94TCq2    C1 1430   1.167   2.328  13.959  0.0813  0.5864  1.0217
   94TCq2    O2 1431   1.252   2.252  13.905  0.5701 -0.0587 -0.4693
   94TCq2    C2 1432   1.215   2.463  13.977 -0.2647 -0.2046  0.4219
   94TCq2    C3 1433   1.146   2.543  14.067 -0.3695  0.5320  0.4236
   94TCq2    C4 1434   1.172   2.673  14.064 -0.3175 -0.0855 -0.1369
   94TCq2    C5 1435   1.254   2.734  13.974  0.2543 -0.3429  0.7839
   94TCq2    C6 1436   1.319   2.658  13.877 -0.2491  0.1018 -0.6492
   94TCq2    C7 1437   1.301   2.524  13.884 -0.6738  0.4742 -0.0191
   94TCq2    C8 1438   1.419   2.717  13.791  0.3526 -0.3936 -0.2005
   94TCq2    O4 1439   1.502   2.642  13.736 -0.5339  0.1803  0.1727
   94TCq2    C9 1440   1.122   2.751  14.170 -0.0621  0.7828 -0.1111
   94TCq2    O5 1441   1.051   2.700  14.262  0.4369 -0.2932 -0.0148
   94TCq2    O6 1442   1.172   2.864  14.180  0.5720  0.2317 -0.6311
   94TCq2    H2 1443   1.084   2.500  14.145  1.1533  0.2098  1.4354
   94TCq2    H3 1444   1.277   2.839  13.986 -0.2370 -0.0401 -0.8453
   94TCq2    H4 1445   1.358   2.462  13.816 -0.8476 -1.0827  1.2478
   95TMC2    C1 1446   0.898   4.402  16.035  0.1889 -0.1820  0.0969
   95TMC2    C2 1447   0.856   4.337  16.149  0.2032  0.4079  0.8246
   95TMC2    C3 1448   0.837   4.411  16.261  0.5539 -1.2434 -0.3696
   95TMC2    C4 1449   0.927   4.534  16.036 -0.0743 -0.0052 -0.3967
   95TMC2    C5 1450   0.913   4.605  16.156 -0.2789  0.3142 -1.2149
   95TMC2    C6 1451   0.869   4.544  16.265 -0.2791  0.3332 -0.1061
   95TMC2     C 1452   0.917   4.329  15.906 -0.1755 -0.1395  1.0771
   95TMC2     O 1453   0.929   4.395  15.806  0.4650  0.7681  0.5232
   95TMC2     H 1454   0.832   4.231  16.143  0.1767  0.4443  0.2632
   95TMC2    H1 1455   0.975   4.572  15.947  1.8492  1.3535  1.2016
   95TMC2    H2 1456   0.857   4.600  16.358  0.9339  0.0969  0.1958
   95TMC2    C7 1457   0.899   0.030  16.158 -0.4478  0.4263 -0.1559
   95TMC2    C8 1458   0.785   4.345  16.382 -0.0750 -0.1575 -0.1179
   95TMC2    O1 1459   0.862   0.082  16.259  0.8843  0.1125  0.7585
   95TMC2    O2 1460   0.831   4.237  16.421 -0.4056  0.5685  0.1562
   95TMC2    O5 1461   0.718   4.425  16.458  0.5103 -0.3183 -0.0504
   95TMC2    H5 1462   0.678   4.501  16.412  0.4905  0.0637  0.5900
   96MPD2     C 1463   1.131   4.010  15.589 -0.4712  0.8652 -0.5689
   96MPD2    C1 1464   1.166   4.130  15.627 -0.2300 -0.2180 -0.0997
   96MPD2    C2 1465   1.096   4.188  15.734  0.3969  0.4741  0.6158
   96MPD2    C3 1466   1.000   4.126  15.810 -0.6936 -0.7400  0.3463
   96MPD2    C4 1467   0.986   3.989  15.789  0.3629 -0.1391 -0.3677
   96MPD2    C5 1468   1.052   3.936  15.678  0.9236 -0.2210 -0.1400
   96MPD2     H 1469   1.130   4.281  15.777 -0.7893  0.4055  1.7125
   96MPD2    H1 1470   0.910   3.931  15.841  0.9088  0.3994  1.0188
   96MPD2    H2 1471   1.175   3.949  15.511  1.5112  1.1385  0.3334
   96MPD2    H3 1472   1.032   3.833  15.654 -2.6012  1.1663 -3.0413
   96MPD2     N 1473   0.933   4.194  15.916  0.2834  0.5399  0.7429
   96MPD2    H5 1474   0.878   4.141  15.983  0.6009  0.8076  1.2125
   96MPD2    N1 1475   1.272   4.197  15.561  0.0157 -0.0129 -0.0917
   96MPD2    H7 1476   1.316   4.147  15.485  0.4683 -0.2019  0.2945
   97MPD2     C 1477   2.642   1.447   0.754 -1.1562 -0.2921  0.4458
   97MPD2    C1 1478   2.745   1.541   0.778 -0.0739 -0.3260 -0.7012
   97MPD2    C2 1479   2.831   1.572   0.674 -0.0014 -0.3605  0.2153
   97MPD2    C3 1480   2.804   1.514   0.548  0.4472  0.7302 -0.0856
   97MPD2    C4 1481   2.702   1.416   0.536  0.3995 -0.5751  0.0703
   97MPD2    C5 1482   2.630   1.382   0.638  0.8805 -0.2468 -0.2899
   97MPD2     H 1483   2.914   1.641   0.686 -0.3237  0.0202  0.2700
   97MPD2    H1 1484   2.678   1.372   0.440 -1.3938 -0.3774  0.4331
   97MPD2    H2 1485   2.561   1.425   0.823 -0.5378  2.6666  2.1098
   97MPD2    H3 1486   2.551   1.311   0.615  0.7595 -0.3291  0.3887
   97MPD2     N 1487   2.858   1.575   0.432 -0.0141  0.2431  0.5992
   97MPD2    H5 1488   2.847   1.533   0.340 -0.4121 -1.0276  1.2323
   97MPD2    N1 1489   2.762   1.587   0.912 -0.5648 -0.1740  0.2663
   97MPD2    H7 1490   2.698   1.561   0.987  1.9465 -1.2149  2.0183
   98TCq2    C1 1491   2.916   1.700   0.420 -0.2010 -0.5683 -0.1012
   98TCq2    O2 1492   2.957   1.784   0.501  0.2357  0.1636  0.2854
   98TCq2    C2 1493   2.961   1.721   0.285  0.5712  0.2192  0.0918
   98TCq2    C3 1494   2.901   1.658   0.181 -0.0149  0.2194  0.6787
   98TCq2    C4 1495   2.948   1.683   0.054 -0.2613 -0.0053  0.2133
   98TCq2    C5 1496   3.055   1.767   0.033  0.5732 -0.0334 -0.2646
   98TCq2    C6 1497   3.098   1.835   0.143  0.4532 -0.4076  0.0211
   98TCq2    C7 1498   3.061   1.813   0.269 -0.4363  0.9771  0.5032
   98TCq2    C8 1499   3.194   1.943   0.129  0.4009  0.0544  0.6865
   98TCq2    O4 1500   3.266   1.972   0.223  0.0380 -0.2751  0.1240
   98TCq2    C9 1501   2.862   1.650  17.633 -0.5182  0.8031  0.1304
   98TCq2    O5 1502   2.901   1.692  17.520  0.5155  0.5843  0.0865
   98TCq2    O6 1503   2.758   1.585  17.660  0.1480  0.3373 -0.1340
   98TCq2    H2 1504   2.805   1.610   0.191 -0.2656  0.3560 -1.0952
   98TCq2    H3 1505   3.091   1.781  17.627  0.5414 -0.0439 -0.2776
   98TCq2    H4 1506   3.105   1.872   0.348 -0.6601  1.2282  0.4410
   99MPD2     C 1507   2.123   3.644   1.873  0.1164 -0.2136  0.2894
   99MPD2    C1 1508   1.986   3.653   1.860  0.4702  0.2023  0.8140
   99MPD2    C2 1509   1.929   3.641   1.735  0.2101 -1.0244  0.4580
   99MPD2    C3 1510   2.010   3.606   1.629 -0.0264  0.3804  0.3212
   99MPD2    C4 1511   2.146   3.604   1.647 -0.3434  0.3417 -0.4820
   99MPD2    C5 1512   2.200   3.625   1.772 -0.7292 -0.1215 -1.0332
   99MPD2     H 1513   1.822   3.659   1.729  0.6406  1.3971  0.0468
   99MPD2    H1 1514   2.212   3.593   1.562 -1.0355 -1.1377 -0.8349
   99MPD2    H2 1515   2.172   3.645   1.970  1.4711 -3.5544 -0.3462
   99MPD2    H3 1516   2.304   3.596   1.780 -0.7441  0.1436  0.0131
   99MPD2     N 1517   1.953   3.606   1.501  0.0210 -0.7066  0.2615
   99MPD2    H5 1518   1.857   3.639   1.492 -0.8905 -2.9709  1.6136
   99MPD2    N1 1519   1.899   3.684   1.965 -0.2251 -0.4242 -0.3030
   99MPD2    H7 1520   1.801   3.683   1.939 -0.6134  0.8189  1.1509
  100TCq2    C1 1521   1.936   3.719   2.096 -0.3340 -0.3656  0.2601
  100TCq2    O2 1522   2.045   3.735   2.144 -0.5127 -0.2176 -0.4881
  100TCq2    C2 1523   1.821   3.727   2.193 -0.6546 -0.1560  0.2605
  100TCq2    C3 1524   1.851   3.803   2.303 -0.1512 -0.1010 -0.2322
  100TCq2    C4 1525   1.749   3.817   2.389  0.1814  0.1223 -0.2460
  100TCq2    C5 1526   1.630   3.755   2.380  0.2058  0.1100  0.0573
  100TCq2    C6 1527   1.607   3.676   2.264 -0.8162  0.4244  0.1167
  100TCq2    C7 1528   1.706   3.653   2.177  0.2584 -0.4947  0.3156
  100TCq2    C8 1529   1.477   3.625   2.244  0.2862  0.2866 -0.2287
  100TCq2    O4 1530   1.388   3.666   2.321 -0.0127  0.5850 -0.3889
  100TCq2    C9 1531   1.770   3.918   2.489  0.7144  0.0476  0.0365
  100TCq2    O5 1532   1.667   3.966   2.536 -0.3623  0.1089 -0.6973
  100TCq2    O6 1533   1.878   3.983   2.489 -0.2128 -0.4653 -0.5107
  100TCq2    H2 1534   1.940   3.864   2.306  0.6607 -1.4334  2.9216
  100TCq2    H3 1535   1.553   3.775   2.454  0.0024  0.3330 -0.2149
  100TCq2    H4 1536   1.696   3.607   2.079  1.8308 -1.5285  0.6469
  101MPD2     C 1537   2.645   4.670  13.115 -0.0368  0.6447 -0.2671
  101MPD2    C1 1538   2.521   4.722  13.138 -0.6928 -0.1495 -0.1500
  101MPD2    C2 1539   2.432   4.647  13.217 -0.6064  0.2124  0.6682
  101MPD2    C3 1540   2.477   4.543  13.290 -0.3286 -0.8764  0.5704
  101MPD2    C4 1541   2.606   4.496  13.270 -0.1151  1.0055  0.1118
  101MPD2    C5 1542   2.694   4.559  13.185  0.0221  0.1234 -0.3243
  101MPD2     H 1543   2.330   4.682  13.229  0.1028  1.9960  1.5984
  101MPD2    H1 1544   2.645   4.408  13.321  0.7265 -0.1171 -2.4887
  101MPD2    H2 1545   2.711   4.722  13.046  0.6892 -1.4397 -1.1269
  101MPD2    H3 1546   2.792   4.515  13.166 -0.0507 -0.8304  1.4503
  101MPD2     N 1547   2.375   4.494  13.375 -0.0260  0.2398  0.1864
  101MPD2    H5 1548   2.287   4.543  13.364 -1.3696 -2.0919  0.4771
  101MPD2    N1 1549   2.491   0.117  13.072 -0.0385  0.0710 -0.5860
  101MPD2    H7 1550   2.570   0.152  13.019  2.1249 -1.2208  1.7769
  102TCq2    C1 1551   2.581   0.504  12.763 -0.2158 -0.2453 -0.1551
  102TCq2    O2 1552   2.674   0.433  12.753 -0.5852 -0.0259 -0.0033
  102TCq2    C2 1553   2.470   0.460  12.846  0.4393 -0.0064  0.0394
  102TCq2    C3 1554   2.362   0.546  12.856 -0.7469  0.3106  0.2806
  102TCq2    C4 1555   2.256   0.493  12.921  0.0545  0.0580  0.1438
  102TCq2    C5 1556   2.252   0.372  12.987  0.2827  0.7750  0.2714
  102TCq2    C6 1557   2.359   0.286  12.968 -0.9873  0.0353 -0.2092
  102TCq2    C7 1558   2.469   0.332  12.893 -0.0014 -0.0848  0.2512
  102TCq2    C8 1559   2.366   0.177  13.069 -0.2139 -0.2851 -0.1050
  102TCq2    O4 1560   2.269   0.159  13.142 -0.3319  0.1886 -0.3184
  102TCq2    C9 1561   2.146   0.583  12.946 -0.1519  0.7435 -0.0126
  102TCq2    O5 1562   2.047   0.538  13.009  0.1959 -0.1063  0.0338
  102TCq2    O6 1563   2.172   0.699  12.901  0.1414  0.3578 -0.2125
  102TCq2    H2 1564   2.360   0.650  12.829 -3.3318  0.7722  2.2879
  102TCq2    H3 1565   2.163   0.340  13.041  0.4539 -1.1777 -0.6076
  102TCq2    H4 1566   2.557   0.269  12.895  0.7212  0.9734  2.5660
  103TMC2    C1 1567   0.975   0.393  13.055 -0.3251 -1.0516  0.3022
  103TMC2    C2 1568   1.103   0.430  13.026 -0.1459 -0.0009  1.0878
  103TMC2    C3 1569   1.149   0.532  13.107  0.2610  0.1307 -0.2922
  103TMC2    C4 1570   0.892   0.425  13.154  0.0334 -0.3447  0.0526
  103TMC2    C5 1571   0.951   0.515  13.237  0.4179  0.3721 -0.0851
  103TMC2    C6 1572   1.077   0.572  13.216  0.5890 -0.3019 -0.4919
  103TMC2     C 1573   0.921   0.292  12.954 -0.1398  0.3819  0.0908
  103TMC2     O 1574   0.802   0.306  12.922 -0.3107  0.1140 -0.1144
  103TMC2     H 1575   1.149   0.412  12.929  1.1128 -0.6770  1.8114
  103TMC2    H1 1576   0.810   0.357  13.171 -1.4988  1.2369 -1.0923
  103TMC2    H2 1577   1.126   0.640  13.285 -0.6012 -0.4619  0.5008
  103TMC2    C7 1578   0.904   0.517  13.378  0.5857  0.0111 -0.3410
  103TMC2    C8 1579   1.290   0.575  13.100 -1.0593  0.1208 -0.8798
  103TMC2    O1 1580   0.967   0.577  13.464  0.6805 -0.0508 -0.1910
  103TMC2    O2 1581   1.383   0.507  13.060  0.3232  0.4788  0.1576
  103TMC2    O5 1582   1.289   0.708  13.120 -0.0216  0.0162 -1.4189
  103TMC2    H5 1583   1.198   0.743  13.110 -0.1825 -0.5196 -1.7948
  104MPD2     C 1584   1.081   0.028  12.780  0.7874 -0.4390  0.5582
  104MPD2    C1 1585   0.998   0.133  12.792 -0.3052 -1.1505 -0.0927
  104MPD2    C2 1586   0.904   0.159  12.688 -0.0127  0.6543  0.2992
  104MPD2    C3 1587   0.894   0.087  12.574  0.3225  0.2566 -0.3135
  104MPD2    C4 1588   0.980   4.702  12.565  0.0348  0.3801  0.1362
  104MPD2    C5 1589   1.072   4.678  12.666 -0.7836  0.4354 -0.1889
  104MPD2     H 1590   0.839   0.246  12.694 -1.0440 -0.0774 -0.1456
  104MPD2    H1 1591   0.971   4.627  12.487  1.4188 -0.3577  0.6815
  104MPD2    H2 1592   1.167   0.014  12.844  1.1968  1.0374  0.3201
  104MPD2    H3 1593   1.139   4.595  12.652 -0.4314  0.4112  1.5875
  104MPD2     N 1594   0.793   0.129  12.477  0.0392 -0.2882 -0.1940
  104MPD2    H5 1595   0.736   0.206  12.509 -0.7852 -1.2183  0.5570
  104MPD2    N1 1596   1.015   0.215  12.904 -0.4090  0.3086  0.0345
  104MPD2    H7 1597   1.089   0.185  12.967 -0.7617  0.0270  0.3134
  105MPD2     C 1598   2.481   4.429   0.038 -0.1618 -0.0446  0.4247
  105MPD2    C1 1599   2.378   4.515  17.694  0.7416  0.0255 -0.7555
  105MPD2    C2 1600   2.310   4.579   0.096  0.4359  0.2611  0.3235
  105MPD2    C3 1601   2.342   4.568   0.229  0.0272 -0.6215 -0.0797
  105MPD2    C4 1602   2.456   4.498   0.259 -0.3022  0.3518 -0.0875
  105MPD2    C5 1603   2.530   4.442   0.163  0.4986 -0.1698 -0.5649
  105MPD2     H 1604   2.219   4.628   0.064 -0.0977 -0.1559  1.2237
  105MPD2    H1 1605   2.503   4.501   0.357  2.7853 -2.2945 -1.4875
  105MPD2    H2 1606   2.546   4.374  17.666  1.2543  0.8801  1.0435
  105MPD2    H3 1607   2.616   4.386   0.197  1.0647  0.7661 -0.4503
  105MPD2     N 1608   2.265   4.641   0.328 -0.2894 -0.0489  0.5834
  105MPD2    H5 1609   2.195   4.697   0.282 -2.4176 -2.4496  0.9414
  105MPD2    N1 1610   2.343   4.534  17.558  0.1454  0.2813  0.2196
  105MPD2    H7 1611   2.271   4.605  17.556 -0.0798  0.0823  1.8022
  106TCq2    C1 1612   2.277   4.625   0.465  0.0144  0.1770 -0.2585
  106TCq2    O2 1613   2.348   4.544   0.521  0.2650 -0.7792 -0.3126
  106TCq2    C2 1614   2.180   4.698   0.545 -0.0868  0.1196 -0.1728
  106TCq2    C3 1615   2.095   0.065   0.489 -0.3529  0.3970 -0.1819
  106TCq2    C4 1616   1.990   0.103   0.566  0.4846  0.2047 -0.1128
  106TCq2    C5 1617   1.962   0.059   0.697  0.8978 -0.0433  0.3150
  106TCq2    C6 1618   2.047   4.686   0.744  0.8233 -1.1330  0.4880
  106TCq2    C7 1619   2.161   4.652   0.668  0.8083 -0.5912 -0.9107
  106TCq2    C8 1620   2.056   4.673   0.887 -0.4119 -0.0587 -0.0342
  106TCq2    O4 1621   2.159   4.624   0.931 -0.2942  0.4544  0.3845
  106TCq2    C9 1622   1.914   0.211   0.507  0.4734  0.1473 -0.4090
  106TCq2    O5 1623   1.966   0.287   0.423  0.1750 -0.1740 -0.6210
  106TCq2    O6 1624   1.798   0.222   0.553  0.4901  0.2750  0.2018
  106TCq2    H2 1625   2.102   0.117   0.394 -0.2570  2.9292  1.2106
  106TCq2    H3 1626   1.881   0.103   0.754 -0.2882  0.3449 -1.6608
  106TCq2    H4 1627   2.234   4.588   0.715 -1.0327 -1.4424  0.7841
  107TMC2    C1 1628   3.064   3.710  11.483  0.1088 -0.6038  0.2491
  107TMC2    C2 1629   3.187   3.756  11.461  0.3871  0.9219 -0.2604
  107TMC2    C3 1630   3.279   3.658  11.421  0.6501  0.0215  0.1318
  107TMC2    C4 1631   3.030   3.583  11.456  0.2291  0.2254  1.1145
  107TMC2    C5 1632   3.121   3.502  11.398 -0.4945  0.4556  0.1919
  107TMC2    C6 1633   3.247   3.538  11.383  0.4612  0.0101 -0.1561
  107TMC2     C 1634   2.969   3.803  11.546  0.0950 -0.0663 -0.4930
  107TMC2     O 1635   2.883   3.771  11.627  0.2461  0.3662  0.0766
  107TMC2     H 1636   3.214   3.858  11.486 -0.3736  0.4663  2.3823
  107TMC2    H1 1637   2.928   3.549  11.461  0.1497  0.7792  3.0799
  107TMC2    H2 1638   3.320   3.481  11.328 -0.0501  1.1371 -2.0082
  107TMC2    C7 1639   3.071   3.375  11.335  0.0948  0.0096 -0.2295
  107TMC2    C8 1640   3.415   3.695  11.396  0.2144  0.2121 -0.6628
  107TMC2    O1 1641   2.996   3.304  11.395  0.0367  0.1038 -0.1014
  107TMC2    O2 1642   3.506   3.617  11.408  0.0414 -0.4665 -0.5566
  107TMC2    O5 1643   3.411   3.808  11.316  0.2859  0.0532 -0.4983
  107TMC2    H5 1644   3.322   3.850  11.315 -1.3841 -3.4605  1.1756
  108MPD2     C 1645   3.020   4.164  11.511  0.0107 -0.0122 -0.3711
  108MPD2    C1 1646   2.962   4.054  11.566 -0.1365 -0.5267  0.3957
  108MPD2    C2 1647   2.867   4.071  11.671 -0.6095  0.0128 -1.1800
  108MPD2    C3 1648   2.840   4.195  11.721 -0.4856  0.0861  0.6761
  108MPD2    C4 1649   2.896   4.301  11.659  0.4441 -0.1042 -0.3468
  108MPD2    C5 1650   2.983   4.286  11.558 -0.0403  0.5743  0.0304
  108MPD2     H 1651   2.817   3.990  11.722 -1.8708  0.9239 -0.9584
  108MPD2    H1 1652   2.875   4.402  11.694  1.9065 -0.2316  0.8993
  108MPD2    H2 1653   3.083   4.160  11.423  0.1072  2.1604 -0.3953
  108MPD2    H3 1654   3.033   4.373  11.518  1.9132 -0.7386 -0.3838
  108MPD2     N 1655   2.756   4.214  11.835 -0.3674 -0.5556 -1.0824
  108MPD2    H5 1656   2.727   4.309  11.853  0.4539 -0.2393 -1.4747
  108MPD2    N1 1657   3.002   3.929  11.510 -0.2432 -0.1378 -0.3306
  108MPD2    H7 1658   3.081   3.943  11.448  1.8929 -0.7326  2.2472
  109MPD2     C 1659   2.197   0.813   2.187 -0.2022 -0.3861  0.1133
  109MPD2    C1 1660   2.256   0.823   2.059  0.2682 -0.9422 -0.8094
  109MPD2    C2 1661   2.385   0.873   2.051 -1.3096  0.0143 -0.4834
  109MPD2    C3 1662   2.456   0.911   2.165 -0.0036  0.6952 -0.2409
  109MPD2    C4 1663   2.395   0.886   2.290 -0.2605  0.5128 -0.0108
  109MPD2    C5 1664   2.268   0.835   2.298  0.3101  0.0168  0.9501
  109MPD2     H 1665   2.428   0.908   1.958 -0.0324 -0.2963 -0.0121
  109MPD2    H1 1666   2.438   0.914   2.385  0.2227 -3.0799  0.8485
  109MPD2    H2 1667   2.099   0.766   2.193 -0.1013 -0.6376 -0.1884
  109MPD2    H3 1668   2.227   0.814   2.396  1.9668  2.1595  2.0885
  109MPD2     N 1669   2.572   0.990   2.144  0.3160 -0.2133  0.0741
  109MPD2    H5 1670   2.605   1.003   2.049  0.4910 -2.9756 -0.2340
  109MPD2    N1 1671   2.176   0.785   1.948  0.3240 -0.4608 -0.1764
  109MPD2    H7 1672   2.081   0.757   1.969 -0.1471  0.7339 -0.7425
  110TCq2    C1 1673   2.657   1.036   2.245 -0.1807  0.6999 -0.7490
  110TCq2    O2 1674   2.648   1.016   2.369  0.5247  0.1670 -0.1712
  110TCq2    C2 1675   2.770   1.109   2.189  0.6268  0.4382  0.2593
  110TCq2    C3 1676   2.890   1.111   2.249  0.8467 -0.5937  0.6874
  110TCq2    C4 1677   2.996   1.172   2.191 -0.0759  0.0536 -1.1203
  110TCq2    C5 1678   2.980   1.224   2.074  0.3101  0.6768  0.1907
  110TCq2    C6 1679   2.858   1.223   2.012  0.0412 -0.2070  0.0386
  110TCq2    C7 1680   2.750   1.163   2.066 -0.8029  0.5838 -0.9040
  110TCq2    C8 1681   2.850   1.284   1.885  0.0297 -0.3913 -0.3042
  110TCq2    O4 1682   2.944   1.359   1.854 -0.3422  0.3452 -0.4119
  110TCq2    C9 1683   3.125   1.170   2.252 -0.7853  0.2124  0.0586
  110TCq2    O5 1684   3.225   1.232   2.203  0.4001 -0.4808  0.4952
  110TCq2    O6 1685   3.135   1.110   2.359  0.5216 -0.1609 -0.7674
  110TCq2    H2 1686   2.888   1.072   2.350 -2.8638  0.2207  0.9626
  110TCq2    H3 1687   3.063   1.273   2.023 -0.2360 -0.2816 -1.6166
  110TCq2    H4 1688   2.654   1.169   2.015 -1.0785 -1.1868 -0.5670
  111TMC2    C1 1689   3.141   0.899  11.329  0.0546 -0.1168  0.3615
  111TMC2    C2 1690   3.254   0.911  11.251  0.5949  0.2381 -0.0187
  111TMC2    C3 1691   3.374   0.899  11.314 -1.1143  0.1213 -0.5693
  111TMC2    C4 1692   3.143   0.861  11.460  0.1424 -0.2525  0.5433
  111TMC2    C5 1693   3.266   0.844  11.522  0.3542  0.2953 -0.3223
  111TMC2    C6 1694   3.389   0.850  11.442 -0.2864  0.6870 -0.3078
  111TMC2     C 1695   3.018   0.907  11.255 -0.0855 -0.4642 -0.0931
  111TMC2     O 1696   3.019   0.874  11.136 -0.1204  0.1456  0.3849
  111TMC2     H 1697   3.255   0.946  11.149  0.1597  2.1206  0.6125
  111TMC2    H1 1698   3.050   0.854  11.516 -0.9904  1.5687 -1.0905
  111TMC2    H2 1699   3.490   0.859  11.480  0.1861 -0.8841 -1.1764
  111TMC2    C7 1700   3.280   0.790  11.659 -0.7085 -0.1961 -0.2419
  111TMC2    C8 1701   3.480   0.891  11.221  0.1855 -0.2919  0.0352
  111TMC2    O1 1702   3.195   0.819  11.740  0.1023  0.5726  0.1262
  111TMC2    O2 1703   3.486   0.966  11.119 -0.4735 -0.1947  0.2292
  111TMC2    O5 1704   3.545   0.779  11.242 -0.2291 -0.0793  0.0515
  111TMC2    H5 1705   3.522   0.746  11.331  1.0806 -1.3313 -0.0753
  112MPD2     C 1706   2.542   1.126  11.235  0.0523 -1.0765  0.2813
  112MPD2    C1 1707   2.621   1.075  11.139 -0.0384  0.0595  0.4337
  112MPD2    C2 1708   2.741   1.008  11.173  0.7065  0.6965 -0.0497
  112MPD2    C3 1709   2.793   1.018  11.296 -0.2028 -0.3700  0.0517
  112MPD2    C4 1710   2.719   1.089  11.395 -0.1808  0.2961 -0.1443
  112MPD2    C5 1711   2.593   1.132  11.362 -0.5402  0.1301  0.1483
  112MPD2     H 1712   2.798   0.947  11.105 -0.7414 -0.9184  0.1744
  112MPD2    H1 1713   2.751   1.106  11.497 -1.9269  0.1402  0.4408
  112MPD2    H2 1714   2.443   1.166  11.217  2.2731  2.4318 -3.8373
  112MPD2    H3 1715   2.537   1.184  11.439 -1.0010  1.5828 -1.1560
  112MPD2     N 1716   2.916   0.964  11.338  0.3993 -0.5286  0.5906
  112MPD2    H5 1717   2.934   0.962  11.438  0.2969 -1.7478  0.5845
  112MPD2    N1 1718   2.573   1.052  11.005 -0.3503 -0.4684  0.2519
  112MPD2    H7 1719   2.645   1.005  10.951 -0.5918 -0.7391  0.1656
  113MPD2     C 1720   1.692   3.399   1.493 -0.4326 -1.0224 -0.7833
  113MPD2    C1 1721   1.568   3.448   1.455  0.0616  0.6341  0.3019
  113MPD2    C2 1722   1.524   3.429   1.320  0.0902 -0.4215  0.0580
  113MPD2    C3 1723   1.620   3.379   1.230  0.0668 -0.1182 -0.2807
  113MPD2    C4 1724   1.739   3.333   1.267  0.0390 -0.8618 -0.9519
  113MPD2    C5 1725   1.773   3.340   1.399  0.2452  0.5075 -0.2077
  113MPD2     H 1726   1.434   3.481   1.290 -0.2591 -0.0170  1.7872
  113MPD2    H1 1727   1.809   3.287   1.199  0.8459 -1.3531  0.2067
  113MPD2    H2 1728   1.729   3.393   1.595  1.9443 -2.1827 -1.6931
  113MPD2    H3 1729   1.872   3.303   1.420  0.0624  0.3010  0.2844
  113MPD2     N 1730   1.593   3.361   1.090 -0.0473  0.0656  0.1532
  113MPD2    H5 1731   1.668   3.311   1.043  0.8248 -1.3068  3.0300
  113MPD2    N1 1732   1.486   3.497   1.558  0.2748 -0.2077 -0.9792
  113MPD2    H7 1733   1.543   3.519   1.639  0.0493 -2.0704 -0.3137
  114TCq2    C1 1734   1.492   3.413   1.013 -0.5906 -0.2961 -0.4482
  114TCq2    O2 1735   1.392   3.475   1.046  0.4709  0.1840 -0.1459
  114TCq2    C2 1736   1.507   3.391   0.872  0.0671  0.2980 -0.0017
  114TCq2    C3 1737   1.631   3.363   0.818 -0.6033  0.3162  0.4647
  114TCq2    C4 1738   1.646   3.322   0.692  0.4433  0.2601 -0.0490
  114TCq2    C5 1739   1.544   3.337   0.604 -0.1419  0.5991 -0.3260
  114TCq2    C6 1740   1.422   3.378   0.652 -0.1685  0.0694  0.2737
  114TCq2    C7 1741   1.395   3.401   0.786 -0.5913  0.3537 -0.7532
  114TCq2    C8 1742   1.312   3.366   0.565  0.6393 -0.2891  0.0561
  114TCq2    O4 1743   1.312   3.400   0.450 -0.2456 -0.6995 -0.0688
  114TCq2    C9 1744   1.766   3.254   0.655  0.3227 -0.1441 -0.3856
  114TCq2    O5 1745   1.797   3.232   0.535 -0.9671 -0.3698 -0.2709
  114TCq2    O6 1746   1.823   3.201   0.753 -0.2047  0.2488  0.1136
  114TCq2    H2 1747   1.714   3.354   0.888  0.4362  0.9092 -0.6923
  114TCq2    H3 1748   1.567   3.309   0.502 -0.7770 -0.0281 -0.3043
  114TCq2    H4 1749   1.299   3.434   0.823  0.4435  2.0884  0.3912
  115TMC2    C1 1750   1.402   1.665   0.045 -0.0063  0.5174  0.1271
  115TMC2    C2 1751   1.541   1.661   0.055  0.6806 -0.1627 -0.3624
  115TMC2    C3 1752   1.601   1.782   0.075  0.3771  0.3106 -0.3010
  115TMC2    C4 1753   1.322   1.781   0.046 -0.3755 -0.6080  0.5234
  115TMC2    C5 1754   1.390   1.897   0.055  0.3327 -0.5178 -0.4408
  115TMC2    C6 1755   1.521   1.893   0.076  0.0603  0.0649  0.4387
  115TMC2     C 1756   1.333   1.537   0.033 -0.5589 -0.0247  0.0869
  115TMC2     O 1757   1.399   1.444  17.686  0.1219 -0.1384 -0.0468
  115TMC2     H 1758   1.603   1.573   0.046  1.0972  0.1742 -0.7911
  115TMC2    H1 1759   1.217   1.784   0.018  0.0949  1.3203 -1.0362
  115TMC2    H2 1760   1.558   1.989   0.109  1.2124 -0.6271  1.1793
  115TMC2    C7 1761   1.330   2.019   0.012  0.1651  0.9309  1.7615
  115TMC2    C8 1762   1.729   1.784   0.138 -0.6915  0.9748  0.1608
  115TMC2    O1 1763   1.211   2.033   0.031  0.0038  0.3681  0.3217
  115TMC2    O2 1764   1.774   1.685   0.197  0.2733 -0.0368  0.1808
  115TMC2    O5 1765   1.797   1.901   0.112  0.4775  0.2383  0.4114
  115TMC2    H5 1766   1.765   1.951   0.034  1.2164  0.5119  0.2891
  116MPD2     C 1767   0.898   1.272   0.083  0.7224 -0.5836  0.1172
  116MPD2    C1 1768   1.012   1.236   0.025 -0.4519 -0.6337 -0.0472
  116MPD2    C2 1769   1.118   1.331   0.020 -0.3443  0.4994 -0.8226
  116MPD2    C3 1770   1.104   1.455   0.078  0.9787  0.7093 -0.1896
  116MPD2    C4 1771   0.982   1.483   0.135 -0.1200 -0.8209  0.6615
  116MPD2    C5 1772   0.884   1.392   0.139 -0.1864 -0.1541  0.5910
  116MPD2     H 1773   1.203   1.313  17.649  0.8108  0.5576  0.6705
  116MPD2    H1 1774   0.951   1.582   0.167 -2.1006 -0.6506 -1.8490
  116MPD2    H2 1775   0.814   1.205   0.097  0.0933  0.5179  1.5497
  116MPD2    H3 1776   0.784   1.415   0.173 -0.9625 -0.2802 -1.6167
  116MPD2     N 1777   1.209   1.556   0.084 -0.6915  0.1076 -0.7737
  116MPD2    H5 1778   1.191   1.640   0.138  2.2465  0.8246 -0.8997
  116MPD2    N1 1779   1.012   1.111  17.650 -0.2131 -0.3961 -0.1957
  116MPD2    H7 1780   0.916   1.078  17.646 -0.3510  0.0816 -0.9183
  117TMC2    C1 1781   0.065   2.709  14.182  0.1004  0.2981  0.1351
  117TMC2    C2 1782   0.053   2.660  14.312  0.0809 -0.1725  0.0048
  117TMC2    C3 1783   0.154   2.682  14.393 -0.4642  0.3238  0.8887
  117TMC2    C4 1784   0.179   2.773  14.137  0.7489 -0.3113  0.4353
  117TMC2    C5 1785   0.282   2.786  14.225 -0.3444  0.4755  0.2419
  117TMC2    C6 1786   0.265   2.750  14.358  0.0135  0.0338  0.5086
  117TMC2     C 1787   4.679   2.719  14.089  0.0010 -0.0575  0.2798
  117TMC2     O 1788   4.588   2.639  14.103 -0.2008 -0.2932  0.0869
  117TMC2     H 1789   4.681   2.615  14.339  0.4549 -0.6361  0.5431
  117TMC2    H1 1790   0.197   2.806  14.035 -0.1068 -2.7087 -0.4900
  117TMC2    H2 1791   0.346   2.763  14.428  1.3301 -2.3436 -0.5591
  117TMC2    C7 1792   0.374   2.893  14.184 -0.1730  0.4045 -0.1118
  117TMC2    C8 1793   0.117   2.650  14.525  1.2397 -0.1088  0.1949
  117TMC2    O1 1794   0.337   2.963  14.093  0.4073  0.4765 -0.2925
  117TMC2    O2 1795   0.134   2.728  14.618 -0.1607 -0.1438 -0.1823
  117TMC2    O5 1796   0.064   2.532  14.533 -0.2913 -0.4916  0.5775
  117TMC2    H5 1797   0.085   2.486  14.449 -0.8123  0.3223  0.0109
  118MPD2     C 1798   0.722   2.924  14.278  0.8804  0.2834  0.4279
  118MPD2    C1 1799   0.603   2.974  14.227  0.1497 -0.5962 -0.3442
  118MPD2    C2 1800   0.602   3.091  14.156 -0.1950  0.2508  0.7273
  118MPD2    C3 1801   0.726   3.159  14.133  1.2997  0.0445 -0.5706
  118MPD2    C4 1802   0.838   3.114  14.195  0.0993  0.6002  0.7488
  118MPD2    C5 1803   0.835   2.992  14.259 -0.0316  0.1916  0.7567
  118MPD2     H 1804   0.506   3.128  14.122  1.1366  1.9834 -1.1809
  118MPD2    H1 1805   0.935   3.161  14.185  0.5745 -0.6005 -0.1904
  118MPD2    H2 1806   0.732   2.826  14.322  1.3512  0.0055 -0.3059
  118MPD2    H3 1807   0.929   2.943  14.280 -1.1059 -2.0006  0.5426
  118MPD2     N 1808   0.732   3.284  14.069 -0.0955  0.6078 -0.3236
  118MPD2    H5 1809   0.820   3.333  14.073 -0.1800  0.6538  0.9034
  118MPD2    N1 1810   0.488   2.896  14.254 -0.1901  0.5945 -0.4248
  118MPD2    H7 1811   0.506   2.816  14.313 -1.3634  1.4958  1.1457
  119MPD2     C 1812   3.249   4.517  13.012  0.3265 -0.2123 -0.0394
  119MPD2    C1 1813   3.186   4.455  13.120  0.2873 -0.3627 -0.1966
  119MPD2    C2 1814   3.146   4.320  13.110  0.1247  0.0312  0.2812
  119MPD2    C3 1815   3.150   4.253  12.992 -0.0504  0.0405  0.2800
  119MPD2    C4 1816   3.197   4.324  12.882  0.3790 -0.3507 -0.2239
  119MPD2    C5 1817   3.248   4.449  12.890 -0.4051 -0.0268  0.1534
  119MPD2     H 1818   3.109   4.268  13.198 -2.4369  2.5419  0.7012
  119MPD2    H1 1819   3.196   4.282  12.782 -0.0351 -0.3711 -0.2126
  119MPD2    H2 1820   3.297   4.614  13.024 -0.5574  0.4275 -1.6817
  119MPD2    H3 1821   3.291   4.500  12.804 -0.7682  0.1516  0.0745
  119MPD2     N 1822   3.127   4.113  12.979  0.3900 -0.1088  0.2288
  119MPD2    H5 1823   3.110   4.080  12.885 -0.1186  2.0027 -0.4247
  119MPD2    N1 1824   3.154   4.524  13.238  0.0136  0.5845 -0.6384
  119MPD2    H7 1825   3.216   4.601  13.262  2.3211 -1.8371  1.1667
  120TCq2    C1 1826   3.110   4.029  13.082  0.1552 -0.0960  0.0758
  120TCq2    O2 1827   3.133   4.042  13.204 -0.1072  0.4949 -0.4184
  120TCq2    C2 1828   3.025   3.918  13.044  0.5014  0.1096 -0.4381
  120TCq2    C3 1829   3.055   3.831  12.943  0.3626 -0.2816  0.2425
  120TCq2    C4 1830   2.977   3.721  12.933  0.0794 -0.4254  0.9287
  120TCq2    C5 1831   2.877   3.703  13.014  0.0086 -0.7061 -1.2001
  120TCq2    C6 1832   2.857   3.783  13.122  0.0994 -0.4538 -0.5080
  120TCq2    C7 1833   2.929   3.895  13.140 -0.5966  0.6078 -0.3806
  120TCq2    C8 1834   2.720   3.797  13.162 -0.3777 -0.0191 -0.8635
  120TCq2    O4 1835   2.631   3.770  13.083  1.1214 -0.2373  0.3298
  120TCq2    C9 1836   2.992   3.635  12.812  0.0151 -0.0626 -0.5572
  120TCq2    O5 1837   2.919   3.529  12.813  0.2032  0.3208 -0.5193
  120TCq2    O6 1838   3.094   3.648  12.743  0.2450  0.2851 -0.7840
  120TCq2    H2 1839   3.131   3.846  12.868 -0.4563  0.9864 -0.3254
  120TCq2    H3 1840   2.808   3.626  12.982 -1.1843 -0.4574  0.8142
  120TCq2    H4 1841   2.911   3.968  13.217  1.1131 -0.4218  1.0102
  121TMC2    C1 1842   4.532   1.305  14.037  0.5658 -0.2312 -0.1636
  121TMC2    C2 1843   4.624   1.210  14.080  0.7581  0.1165  0.3942
  121TMC2    C3 1844   4.569   1.106  14.145 -0.5730  0.7200  0.2506
  121TMC2    C4 1845   4.399   1.300  14.055 -1.0041  0.2858 -0.0773
  121TMC2    C5 1846   4.349   1.185  14.121 -0.0683 -0.3061 -0.7239
  121TMC2    C6 1847   4.433   1.085  14.168  1.1627  0.7245  0.3282
  121TMC2     C 1848   4.593   1.431  13.999 -0.1245  0.0355 -0.0465
  121TMC2     O 1849   4.536   1.525  14.049  0.3735  0.0193  0.4330
  121TMC2     H 1850   0.006   1.212  14.054  0.4834  0.9072 -0.6508
  121TMC2    H1 1851   4.336   1.375  14.009  0.3033  1.8730  0.7254
  121TMC2    H2 1852   4.393   1.006  14.231 -0.0049  0.8887 -0.1900
  121TMC2    C7 1853   4.211   1.145  14.101  0.2937 -0.4999  0.2033
  121TMC2    C8 1854   4.655   0.995  14.190  0.7416 -0.6020 -0.4507
  121TMC2    O1 1855   4.199   1.021  14.117  0.0344 -0.0228 -0.1601
  121TMC2    O2 1856   0.001   0.994  14.294  0.2993 -0.0705  0.8166
  121TMC2    O5 1857   4.694   0.942  14.076 -0.2560 -0.3323  0.4685
  121TMC2    H5 1858   4.638   0.975  14.003 -0.8242  0.4541  1.2620
  122MPD2     C 1859   0.061   1.640  13.932 -0.0436 -0.4305 -0.2493
  122MPD2    C1 1860   0.033   1.527  13.849  0.1834  0.0446 -0.0043
  122MPD2    C2 1861   0.100   1.522  13.732  0.5951 -0.6968 -0.4281
  122MPD2    C3 1862   0.188   1.620  13.689  0.1516  0.4192  0.4858
  122MPD2    C4 1863   0.219   1.723  13.773  0.5721  0.4403 -0.5543
  122MPD2    C5 1864   0.156   1.730  13.891  0.2889 -0.3810 -0.8068
  122MPD2     H 1865   0.082   1.438  13.666  0.0981 -0.8484 -0.1008
  122MPD2    H1 1866   0.270   1.814  13.742  2.4169  0.1317  1.5862
  122MPD2    H2 1867   0.028   1.645  14.035  1.2728  1.2394  0.0904
  122MPD2    H3 1868   0.172   1.815  13.958  0.3862  0.1716 -1.5323
  122MPD2     N 1869   0.253   1.623  13.564 -0.0069 -0.2828 -0.3091
  122MPD2    H5 1870   0.326   1.692  13.551 -0.5514  0.1887 -0.8895
  122MPD2    N1 1871   4.683   1.419  13.894 -0.3256 -0.0562 -0.1647
  122MPD2    H7 1872   4.690   1.326  13.854  0.8582 -0.5197  1.1226
  123MPD2     C 1873   2.915   3.897   9.786 -0.0587  0.1225 -0.2148
  123MPD2    C1 1874   2.934   4.014   9.711  0.3565 -0.8434  1.0750
  123MPD2    C2 1875   3.054   4.081   9.727  0.6712 -0.7174  0.6975
  123MPD2    C3 1876   3.152   4.036   9.812 -0.4859 -0.1106  0.8115
  123MPD2    C4 1877   3.136   3.921   9.886  0.2565  0.1236  0.3478
  123MPD2    C5 1878   3.013   3.855   9.874  0.0829  0.3297  0.1357
  123MPD2     H 1879   3.082   4.167   9.667 -0.7503  0.0007  1.0783
  123MPD2    H1 1880   3.201   3.888   9.966  0.3177  3.2300  1.5762
  123MPD2    H2 1881   2.822   3.843   9.786 -0.2016  0.3666 -0.2540
  123MPD2    H3 1882   2.986   3.771   9.936  0.3968 -1.0079 -1.5314
  123MPD2     N 1883   3.275   4.108   9.812  0.9251 -0.1020  0.3305
  123MPD2    H5 1884   3.272   4.198   9.765  2.1465 -0.9112 -1.3162
  123MPD2    N1 1885   2.827   4.065   9.626  0.4741 -0.2444  0.0397
  123MPD2    H7 1886   2.737   4.018   9.627 -0.2680  1.2061  0.6846
  124TCq2    C1 1887   3.395   4.065   9.874  0.4188 -0.1229  0.2133
  124TCq2    O2 1888   3.417   3.953   9.922 -0.1869 -0.0620  0.0403
  124TCq2    C2 1889   3.498   4.153   9.840  0.2791  1.3707 -0.0337
  124TCq2    C3 1890   3.591   4.185   9.939 -0.1132 -0.4909 -0.3588
  124TCq2    C4 1891   3.706   4.257   9.901  0.3660  0.3562 -0.7116
  124TCq2    C5 1892   3.736   4.273   9.772 -0.2614 -0.3407  0.0684
  124TCq2    C6 1893   3.639   4.244   9.673  0.2505  0.4196  0.0298
  124TCq2    C7 1894   3.518   4.180   9.706 -0.8336  0.1569  0.2338
  124TCq2    C8 1895   3.697   4.251   9.534  0.5592  0.1204  0.0995
  124TCq2    O4 1896   3.764   4.353   9.513  0.2828 -0.3158  0.3019
  124TCq2    C9 1897   3.794   4.306  10.005 -1.6489 -0.2612  0.3185
  124TCq2    O5 1898   3.801   4.234  10.111 -0.0154  0.0357  0.5539
  124TCq2    O6 1899   3.886   4.384   9.975  0.0745 -0.4222 -0.2498
  124TCq2    H2 1900   3.560   4.178  10.043  0.2458 -1.3906 -0.3079
  124TCq2    H3 1901   3.821   4.334   9.747 -1.3551  1.2596  0.2468
  124TCq2    H4 1902   3.446   4.150   9.630 -0.6807  0.8330 -0.1812
  125TMC2    C1 1903   3.889   0.524   8.924 -0.3134 -0.1546 -0.9980
  125TMC2    C2 1904   3.770   0.452   8.916  0.3487  0.2951 -0.1989
  125TMC2    C3 1905   3.729   0.412   8.792 -0.0001  0.5137 -0.1922
  125TMC2    C4 1906   3.965   0.548   8.814  0.0928  0.1854 -0.1117
  125TMC2    C5 1907   3.918   0.505   8.693 -0.1144 -0.0611  0.1744
  125TMC2    C6 1908   3.799   0.436   8.684 -1.2624 -0.4590 -1.0560
  125TMC2     C 1909   3.931   0.560   9.058 -0.0553 -0.1974  0.5506
  125TMC2     O 1910   3.872   0.509   9.151  0.2917 -0.3938  0.5822
  125TMC2     H 1911   3.704   0.452   9.002  1.0432  0.1214  0.3304
  125TMC2    H1 1912   4.065   0.589   8.815 -0.1180  0.6841  0.2585
  125TMC2    H2 1913   3.765   0.390   8.592  0.9093 -0.5962 -1.7979
  125TMC2    C7 1914   3.998   0.500   8.578 -0.3298  0.6897  0.3313
  125TMC2    C8 1915   3.602   0.344   8.784 -0.8914 -0.9377 -0.1673
  125TMC2    O1 1916   3.968   0.420   8.491  0.3792 -0.9235  0.2606
  125TMC2    O2 1917   3.559   0.295   8.886  0.2888 -0.1725  0.1893
  125TMC2    O5 1918   3.525   0.412   8.692  0.4771  0.3814  0.0699
  125TMC2    H5 1919   3.575   0.468   8.629  0.5421 -0.3088 -0.4913
  126MPD1     C 1920   4.302   0.714   9.360 -0.2181 -0.6297 -0.6832
  126MPD1    C1 1921   4.346   0.736   9.234 -0.8983  0.3321 -0.5214
  126MPD1    C2 1922   4.254   0.703   9.138  0.3456  0.4628 -0.1920
  126MPD1    C3 1923   4.130   0.658   9.166 -0.3404  0.1350 -0.1037
  126MPD1    C4 1924   4.084   0.654   9.301 -0.5240 -0.8004 -0.0821
  126MPD1    C5 1925   4.172   0.691   9.395  0.0932  0.2995  0.0132
  126MPD1     H 1926   4.286   0.709   9.034 -1.0129  1.6694 -0.5406
  126MPD1    H1 1927   3.982   0.636   9.332  0.7063  0.2160  4.6793
  126MPD1    H2 1928   4.371   0.720   9.443  0.8639  1.1452 -1.7116
  126MPD1    H3 1929   4.135   0.684   9.496  0.9367 -1.6372  0.1804
  126MPD1     N 1930   4.047   0.633   9.054  0.5090 -0.7655  0.5538
  126MPD1    H5 1931   4.080   0.664   8.964  0.9624 -1.4331  0.4895
  126MPD1    N1 1932   4.482   0.767   9.210  0.3832  1.2550  0.8695
  126MPD1    H6 1933   4.515   0.838   9.275  1.5156  2.8605 -1.4660
  126MPD1    H7 1934   4.510   0.795   9.116 -3.3328  0.5122 -0.4606
  127MPD2     C 1935   0.386   0.318   9.003 -0.6539 -0.4823 -0.1668
  127MPD2    C1 1936   0.430   0.344   9.127  0.9676 -0.5058  0.4830
  127MPD2    C2 1937   0.461   0.479   9.156 -0.3157 -0.2709 -0.1031
  127MPD2    C3 1938   0.446   0.581   9.062 -0.4113 -0.3845  0.1664
  127MPD2    C4 1939   0.410   0.542   8.936  0.3794  0.5073 -0.5485
  127MPD2    C5 1940   0.381   0.415   8.905  0.2171  0.3289 -0.0636
  127MPD2     H 1941   0.483   0.500   9.260  0.2138 -2.9879  0.3131
  127MPD2    H1 1942   0.391   0.603   8.849 -4.3461 -0.2138  0.0045
  127MPD2    H2 1943   0.373   0.215   8.972 -0.0942 -0.2059 -1.2993
  127MPD2    H3 1944   0.352   0.389   8.804 -1.0441  1.1923  0.0772
  127MPD2     N 1945   0.494   0.712   9.093  0.1958 -0.1379 -0.2024
  127MPD2    H5 1946   0.518   0.733   9.190 -1.1531  0.5185 -0.0078
  127MPD2    N1 1947   0.441   0.235   9.220  0.1726  0.9916 -0.2343
  127MPD2    H7 1948   0.395   0.148   9.193 -0.4252  0.6969  1.7290
  128TCq2    C1 1949   0.529   0.226   9.327  0.4304 -0.0526 -0.3085
  128TCq2    O2 1950   0.621   0.300   9.348 -0.4299 -0.6928  0.6142
  128TCq2    C2 1951   0.504   0.119   9.419 -0.4868  0.4208 -0.1368
  128TCq2    C3 1952   0.581   0.122   9.534  0.6061  0.0458  0.3695
  128TCq2    C4 1953   0.530   0.069   9.649  0.0725  0.3813 -0.0411
  128TCq2    C5 1954   0.420   4.718   9.637  0.0372 -0.3420  0.7332
  128TCq2    C6 1955   0.351   4.705   9.519 -0.5354  0.5313 -0.0433
  128TCq2    C7 1956   0.384   0.057   9.409 -0.1381  0.0987 -0.5532
  128TCq2    C8 1957   0.215   4.640   9.520 -0.4522  0.4843 -0.6060
  128TCq2    O4 1958   0.142   4.663   9.423 -0.1279 -0.6284 -0.5505
  128TCq2    C9 1959   0.606   0.073   9.769  0.1056 -0.6147 -0.1107
  128TCq2    O5 1960   0.729   0.100   9.769  0.6524 -0.1066 -0.0092
  128TCq2    O6 1961   0.540   0.035   9.868 -0.2885 -0.2732 -0.4270
  128TCq2    H2 1962   0.676   0.174   9.529  1.2359 -1.1192  0.1309
  128TCq2    H3 1963   0.387   4.674   9.730  1.8049  0.5564  1.7742
  128TCq2    H4 1964   0.319   0.061   9.322  1.9797 -0.6249 -2.1737
  129MPD2     C 1965   2.874   1.217   1.179  0.2456  0.8434  0.2715
  129MPD2    C1 1966   2.995   1.238   1.239 -0.2421 -0.7024  0.2743
  129MPD2    C2 1967   3.101   1.293   1.168 -0.0108 -0.2859  0.1170
  129MPD2    C3 1968   3.082   1.320   1.032  0.9083 -0.1110  0.8158
  129MPD2    C4 1969   2.961   1.304   0.973  0.3196 -0.8035 -0.2969
  129MPD2    C5 1970   2.860   1.252   1.046  0.3141  0.1424 -0.0173
  129MPD2     H 1971   3.198   1.300   1.216  0.1149 -1.0208 -0.0347
  129MPD2    H1 1972   2.947   1.327   0.868 -0.3726 -1.8753 -0.4314
  129MPD2    H2 1973   2.786   1.176   1.228 -0.3342 -0.6642 -2.0117
  129MPD2    H3 1974   2.760   1.242   1.005 -0.4032  1.0774  1.5429
  129MPD2     N 1975   3.207   1.349   0.958  0.4183  0.1330 -0.1957
  129MPD2    H5 1976   3.297   1.337   1.003  0.5915 -0.0726 -0.5977
  129MPD2    N1 1977   3.016   1.221   1.377  0.0273 -0.0035 -0.8653
  129MPD2    H7 1978   3.099   1.261   1.419 -0.5493  1.3366 -1.0228
  130TCq2    C1 1979   2.934   1.143   1.454  0.7783  0.0637 -0.2126
  130TCq2    O2 1980   2.843   1.070   1.420  0.1032 -0.4692 -0.1353
  130TCq2    C2 1981   3.006   1.121   1.584  0.1181  0.0741 -0.5486
  130TCq2    C3 1982   3.115   1.195   1.618  0.6233  0.1545  0.2338
  130TCq2    C4 1983   3.198   1.146   1.713  0.0996 -0.0554  0.0178
  130TCq2    C5 1984   3.169   1.030   1.783 -0.1769 -0.6730 -0.0341
  130TCq2    C6 1985   3.056   0.961   1.745 -0.3646  0.1936  0.4886
  130TCq2    C7 1986   2.977   1.008   1.644 -0.0542 -0.1727 -0.2168
  130TCq2    C8 1987   3.019   0.831   1.807  1.0116  0.0828  0.2554
  130TCq2    O4 1988   2.922   0.771   1.765 -0.2316  0.6191 -0.5797
  130TCq2    C9 1989   3.313   1.222   1.753  0.4870 -0.0571 -0.4966
  130TCq2    O5 1990   3.318   1.345   1.715 -0.4901  0.0936  0.4488
  130TCq2    O6 1991   3.375   1.171   1.850  0.6882  0.0801  0.6746
  130TCq2    H2 1992   3.133   1.296   1.582 -0.7593  0.2467 -0.1736
  130TCq2    H3 1993   3.226   1.010   1.873  0.5916  0.5297 -0.2552
  130TCq2    H4 1994   2.886   0.955   1.620 -0.0376  1.1523 -3.2468
  131MPD2     C 1995   2.803   0.136   9.005  0.0296 -0.3477 -0.3512
  131MPD2    C1 1996   2.866   0.107   9.122  0.9111 -0.0089  0.3780
  131MPD2    C2 1997   2.853   4.699   9.168 -0.1725  0.1889 -1.0618
  131MPD2    C3 1998   2.753   4.613   9.126  0.1602  0.9023  0.2104
  131MPD2    C4 1999   2.683   4.643   9.008  0.9554 -0.0205 -0.5284
  131MPD2    C5 2000   2.716   0.038   8.942 -0.7381 -0.1482  0.4564
  131MPD2     H 2001   2.907   4.661   9.254  1.1024 -0.3294 -2.0777
  131MPD2    H1 2002   2.624   4.573   8.950 -0.1053  0.6419 -0.2416
  131MPD2    H2 2003   2.809   0.234   8.960 -0.7514 -0.3933 -0.5660
  131MPD2    H3 2004   2.675   0.057   8.844 -1.2121 -1.3679  0.4112
  131MPD2     N 2005   2.741   4.489   9.192  0.3435  0.0677  0.1372
  131MPD2    H5 2006   2.799   4.480   9.275 -1.3978  3.0435  1.6811
  131MPD2    N1 2007   2.964   0.199   9.173  0.9986 -0.0180 -0.3558
  131MPD2    H7 2008   2.959   0.293   9.135 -2.2730 -0.8178 -1.9835
  132TCq2    C1 2009   3.323   0.540   9.093  0.0846  0.7015 -0.2877
  132TCq2    O2 2010   3.272   0.530   8.981 -0.2996 -0.0374  0.3102
  132TCq2    C2 2011   3.253   0.477   9.204  0.6929  0.3718  0.5139
  132TCq2    C3 2012   3.281   0.522   9.336  0.3208  0.2170 -0.2064
  132TCq2    C4 2013   3.253   0.437   9.439  0.0409 -0.0270 -0.5424
  132TCq2    C5 2014   3.184   0.322   9.413  0.2202  0.0732 -0.1681
  132TCq2    C6 2015   3.132   0.300   9.290 -0.4850 -0.3924 -0.9120
  132TCq2    C7 2016   3.172   0.374   9.184  0.9538 -0.0662 -0.4428
  132TCq2    C8 2017   3.062   0.171   9.265  0.2777 -0.4700  0.9190
  132TCq2    O4 2018   3.078   0.075   9.339  0.3668  0.1592 -0.5205
  132TCq2    C9 2019   3.296   0.458   9.581 -0.7799 -0.3225  0.0323
  132TCq2    O5 2020   3.357   0.567   9.597 -0.0929  0.2835  0.1932
  132TCq2    O6 2021   3.274   0.361   9.662  0.0499  0.1106  0.2533
  132TCq2    H2 2022   3.331   0.616   9.358 -1.5506  1.0957  0.2856
  132TCq2    H3 2023   3.163   0.250   9.492 -1.2661 -1.7454 -2.2355
  132TCq2    H4 2024   3.145   0.347   9.082  0.8152  0.9888 -0.6899
  133MPD2     C 2025   1.801   0.803   9.200 -0.4266 -0.1874 -0.6136
  133MPD2    C1 2026   1.928   0.778   9.252 -0.2264 -0.6532  0.3967
  133MPD2    C2 2027   1.984   0.650   9.225  0.0647 -0.6183 -0.8102
  133MPD2    C3 2028   1.909   0.556   9.159 -0.1850 -0.2412 -0.3893
  133MPD2    C4 2029   1.780   0.580   9.121  1.0006 -0.2420  0.0615
  133MPD2    C5 2030   1.722   0.707   9.145 -0.1285  0.2315 -0.2491
  133MPD2     H 2031   2.084   0.626   9.260  0.8497  0.7198 -2.1338
  133MPD2    H1 2032   1.720   0.504   9.071  2.0858  0.0258 -1.6263
  133MPD2    H2 2033   1.751   0.897   9.216  0.6634 -0.0627  2.0775
  133MPD2    H3 2034   1.622   0.726   9.108 -0.3358  0.1422  0.2618
  133MPD2     N 2035   1.951   0.422   9.148 -0.2483  0.2183  0.4137
  133MPD2    H5 2036   1.885   0.351   9.118 -0.9536  2.5840 -3.6977
  133MPD2    N1 2037   1.993   0.886   9.313  0.2246  0.3099  0.0748
  133MPD2    H7 2038   1.939   0.970   9.334  0.2649  0.4113 -0.2338
  134TCq2    C1 2039   2.123   0.877   9.354  0.4956 -0.6030  0.0586
  134TCq2    O2 2040   2.208   0.789   9.352  0.1072  0.0899  0.4633
  134TCq2    C2 2041   2.174   1.006   9.410  0.4931 -0.9703 -0.6020
  134TCq2    C3 2042   2.130   1.121   9.355  0.4477  0.4015 -0.5042
  134TCq2    C4 2043   2.174   1.243   9.409 -0.7255  0.6809 -0.1716
  134TCq2    C5 2044   2.261   1.241   9.514  0.0828 -0.2758  0.2635
  134TCq2    C6 2045   2.317   1.114   9.549  0.6003  0.5141  0.1086
  134TCq2    C7 2046   2.281   1.000   9.498 -0.5261 -0.2171 -0.9181
  134TCq2    C8 2047   2.389   1.099   9.677 -0.4282  0.3089 -0.1603
  134TCq2    O4 2048   2.372   0.994   9.741 -0.0851  0.1174  0.1863
  134TCq2    C9 2049   2.141   1.371   9.343 -0.6022 -0.0187  0.6011
  134TCq2    O5 2050   2.148   1.473   9.415 -0.0833  0.0341  0.3356
  134TCq2    O6 2051   2.093   1.367   9.223 -0.4012 -1.2623 -0.5420
  134TCq2    H2 2052   2.058   1.114   9.274 -0.4652  0.4480  0.3063
  134TCq2    H3 2053   2.302   1.333   9.553 -2.9507  1.0289  0.3385
  134TCq2    H4 2054   2.314   0.904   9.535  0.0740  0.4786  0.3623
  135MPD2     C 2055   0.066   2.044   8.946 -0.2055  0.3590  0.0773
  135MPD2    C1 2056   0.166   2.000   9.027 -0.6910 -0.0115 -0.0022
  135MPD2    C2 2057   0.264   1.917   8.974 -0.0437  0.9047 -0.2451
  135MPD2    C3 2058   0.262   1.885   8.840 -0.0373  0.6742 -0.4925
  135MPD2    C4 2059   0.174   1.948   8.758  0.3668 -0.5197  0.2006
  135MPD2    C5 2060   0.075   2.026   8.810 -0.2621  0.1599 -0.4670
  135MPD2     H 2061   0.325   1.870   9.051 -2.1095  0.4506  1.1262
  135MPD2    H1 2062   0.171   1.935   8.651 -0.3288 -0.1278  0.1745
  135MPD2    H2 2063   4.704   2.098   8.986 -0.2933 -0.6721  1.2815
  135MPD2    H3 2064   0.003   2.072   8.743 -0.0915  3.4008  1.5547
  135MPD2     N 2065   0.340   1.775   8.786  0.2079  0.5012  0.5531
  135MPD2    H5 2066   0.325   1.755   8.687  0.8066  2.7332  0.0064
  135MPD2    N1 2067   0.168   2.003   9.167 -0.7130  0.4561  0.6213
  135MPD2    H7 2068   0.232   1.937   9.209 -2.3771 -1.4075  0.2517
  136TCq2    C1 2069   0.104   2.103   9.239  0.6368 -0.3608 -0.1829
  136TCq2    O2 2070   0.026   2.184   9.196  0.2157  0.4053  0.5557
  136TCq2    C2 2071   0.127   2.102   9.380  0.4434  0.3196 -0.2552
  136TCq2    C3 2072   0.065   2.207   9.448 -0.3900  0.3449 -0.3887
  136TCq2    C4 2073   0.077   2.213   9.587 -0.4913 -0.3419 -0.3564
  136TCq2    C5 2074   0.139   2.112   9.657 -0.1343  0.0718 -0.1142
  136TCq2    C6 2075   0.190   2.002   9.589  0.3494 -0.5468  1.0033
  136TCq2    C7 2076   0.184   1.995   9.450 -0.0971  0.8642  0.5706
  136TCq2    C8 2077   0.258   1.892   9.659 -0.3630 -0.6087 -0.4362
  136TCq2    O4 2078   0.339   1.825   9.599 -0.1883  0.0929  0.4621
  136TCq2    C9 2079   0.045   2.337   9.651  0.0318 -0.3088  0.4075
  136TCq2    O5 2080   0.041   2.342   9.776 -0.4550  0.6679  0.2941
  136TCq2    O6 2081   0.016   2.431   9.575 -0.0209 -0.2535  0.1606
  136TCq2    H2 2082   0.005   2.282   9.398  1.2565  0.4750 -2.1601
  136TCq2    H3 2083   0.150   2.120   9.764 -0.0944  0.0587 -0.1173
  136TCq2    H4 2084   0.208   1.898   9.410 -3.7410 -0.4731  1.6225
  137MPD2     C 2085   4.354   0.278   8.875  0.3732  0.0182 -0.0703
  137MPD2    C1 2086   4.433   0.394   8.878  0.1964 -0.4857  0.0962
  137MPD2    C2 2087   4.480   0.446   8.995 -0.5543  0.4146  0.4555
  137MPD2    C3 2088   4.459   0.368   9.106 -0.6088  0.1293 -0.2459
  137MPD2    C4 2089   4.383   0.250   9.104 -0.3763  0.5281  0.4806
  137MPD2    C5 2090   4.335   0.207   8.982  0.0352 -1.0236 -0.7591
  137MPD2     H 2091   4.534   0.539   8.994  0.8692 -0.3736  3.2268
  137MPD2    H1 2092   4.363   0.198   9.197  0.5141  0.4236  0.6097
  137MPD2    H2 2093   4.320   0.237   8.780  0.9247  0.4873 -0.4692
  137MPD2    H3 2094   4.281   0.113   8.979  0.3589 -1.1651 -2.0223
  137MPD2     N 2095   4.505   0.421   9.226  0.1989  0.1753  0.5690
  137MPD2    H5 2096   4.545   0.514   9.219  0.1207  0.3114  2.0192
  137MPD2    N1 2097   4.464   0.462   8.759 -0.2430  0.0788  0.5451
  137MPD2    H7 2098   4.536   0.533   8.756  1.5951 -1.7459  1.1328
  138TCq2    C1 2099   4.427   0.425   8.628  1.0665 -0.1402 -0.0514
  138TCq2    O2 2100   4.372   0.325   8.587  0.0759 -0.1333 -0.4776
  138TCq2    C2 2101   4.478   0.526   8.530 -0.2848 -0.6425 -0.0581
  138TCq2    C3 2102   4.541   0.471   8.419 -0.1711 -0.6001  0.2689
  138TCq2    C4 2103   4.649   0.536   8.368  0.7843 -0.7957 -0.2004
  138TCq2    C5 2104   4.683   0.663   8.409 -0.5320  0.1015 -0.3363
  138TCq2    C6 2105   4.607   0.710   8.514 -0.7823 -0.0931 -0.1173
  138TCq2    C7 2106   4.502   0.650   8.577 -0.3618  0.0256 -0.0420
  138TCq2    C8 2107   4.668   0.826   8.585  0.7129 -0.2235  0.1383
  138TCq2    O4 2108   0.066   0.836   8.581 -0.2570  0.3939 -0.8011
  138TCq2    C9 2109   0.012   0.472   8.276 -0.2575 -0.2290 -0.7427
  138TCq2    O5 2110   0.105   0.534   8.220 -0.3898  0.1873  0.2525
  138TCq2    O6 2111   4.711   0.347   8.260  0.0291  0.3413 -1.2360
  138TCq2    H2 2112   4.497   0.377   8.387 -0.7436 -0.6217  1.1148
  138TCq2    H3 2113   0.048   0.705   8.361 -0.4447  0.9478  0.5659
  138TCq2    H4 2114   4.444   0.698   8.655  0.5646  0.0520  0.6395
  139TMC2    C1 2115   4.699   3.698  13.485  0.2583 -0.5516 -0.5091
  139TMC2    C2 2116   4.612   3.669  13.382  0.4854  0.6371 -0.1091
  139TMC2    C3 2117   4.556   3.773  13.313 -0.2742  0.7924  0.7669
  139TMC2    C4 2118   4.716   3.832  13.523 -0.0629  0.1396 -0.0959
  139TMC2    C5 2119   4.649   3.930  13.468  0.1490 -0.5922 -0.0250
  139TMC2    C6 2120   4.574   3.904  13.358  0.1006  0.3094 -0.3789
  139TMC2     C 2121   0.066   3.600  13.534 -0.7800  0.0415  0.9312
  139TMC2     O 2122   0.170   3.646  13.584  0.2751  0.0028 -0.3286
  139TMC2     H 2123   4.605   3.571  13.337  0.6745  0.7612 -0.4041
  139TMC2    H1 2124   0.043   3.850  13.618  0.9470 -2.0633 -0.2056
  139TMC2    H2 2125   4.537   3.994  13.311 -0.5022  0.3516  0.1783
  139TMC2    C7 2126   4.696   4.068  13.486  0.1205  0.5420  0.5995
  139TMC2    C8 2127   4.438   3.735  13.242  0.0026  0.3462  0.7111
  139TMC2    O1 2128   4.631   4.158  13.433  0.3939  0.5437 -0.1863
  139TMC2    O2 2129   4.386   3.632  13.282  0.4003 -0.2850 -0.3271
  139TMC2    O5 2130   4.375   3.851  13.202  0.4928 -0.3522 -0.1294
  139TMC2    H5 2131   4.435   3.922  13.172 -0.0980 -0.9685 -2.8390
  140MPD2     C 2132   0.008   3.241  13.588 -0.3836 -0.1975 -0.8306
  140MPD2    C1 2133   0.076   3.363  13.583  0.0137 -0.3170 -0.2841
  140MPD2    C2 2134   0.213   3.350  13.593  1.1928  0.2926  0.7286
  140MPD2    C3 2135   0.284   3.229  13.581 -0.0617  0.6559  0.3729
  140MPD2    C4 2136   0.207   3.111  13.595 -0.6226 -0.5323  0.0858
  140MPD2    C5 2137   0.070   3.123  13.605 -0.8204  0.1038  0.4132
  140MPD2     H 2138   0.272   3.441  13.591 -0.0696  1.1005  0.2859
  140MPD2    H1 2139   0.252   3.013  13.601  2.1941  0.8293  1.1034
  140MPD2    H2 2140   4.623   3.236  13.580 -0.3922 -2.0287  0.4727
  140MPD2    H3 2141   0.016   3.030  13.595  0.5488 -0.5961 -0.5351
  140MPD2     N 2142   0.423   3.230  13.537 -0.2447 -0.3787  0.2287
  140MPD2    H5 2143   0.465   3.318  13.507 -0.9587  0.5418  1.9484
  140MPD2    N1 2144   0.004   3.482  13.557  0.0967  0.2510 -1.2233
  140MPD2    H7 2145   4.627   3.482  13.538 -0.2118 -0.2967  0.3853
  141TCq2    C1 2146   0.773   0.117  14.983  0.3234 -0.2381  0.2213
  141TCq2    O2 2147   0.801   0.219  14.921  0.2326 -0.2190 -0.0067
  141TCq2    C2 2148   0.730   0.130  15.121 -0.4885  0.2872  0.1800
  141TCq2    C3 2149   0.697   0.015  15.182  0.1050  0.9754  0.9737
  141TCq2    C4 2150   0.731   4.717  15.316 -1.0437 -0.2165 -0.2320
  141TCq2    C5 2151   0.785   0.099  15.393 -0.5806 -0.3686 -0.3836
  141TCq2    C6 2152   0.809   0.216  15.326  0.2070  0.3696 -0.1888
  141TCq2    C7 2153   0.778   0.234  15.193 -0.0192  0.4698 -0.3905
  141TCq2    C8 2154   0.858   0.332  15.398 -0.2973 -0.2855 -0.2059
  141TCq2    O4 2155   0.938   0.315  15.488  0.1935 -0.2216 -0.3186
  141TCq2    C9 2156   0.696   4.597  15.376 -0.3449 -0.2131  0.3471
  141TCq2    O5 2157   0.737   4.578  15.497  0.0097  0.1149  0.1567
  141TCq2    O6 2158   0.638   4.511  15.305 -0.0160 -0.1600  0.5894
  141TCq2    H2 2159   0.631   4.668  15.133 -0.2049  0.3752  2.2441
  141TCq2    H3 2160   0.804   0.086  15.499 -1.3837 -1.0777 -0.3330
  141TCq2    H4 2161   0.816   0.320  15.138  2.0454 -1.3818 -1.8795
  142MPD2     C 2162   3.279   3.451  10.554  0.3517 -0.8934  0.4885
  142MPD2    C1 2163   3.262   3.387  10.432 -0.1678 -0.1177 -0.9275
  142MPD2    C2 2164   3.353   3.435  10.331  0.8026  0.2252  0.7372
  142MPD2    C3 2165   3.460   3.524  10.360  0.3171 -0.0693  0.2033
  142MPD2    C4 2166   3.479   3.566  10.492  0.1613 -0.6449 -0.4151
  142MPD2    C5 2167   3.378   3.540  10.576 -0.5936  0.9656 -0.2223
  142MPD2     H 2168   3.339   3.414  10.225 -2.4532  0.8057  1.0610
  142MPD2    H1 2169   3.566   3.624  10.523 -2.5183  1.5203  3.0650
  142MPD2    H2 2170   3.204   3.434  10.631 -0.0171 -0.0336  0.3156
  142MPD2    H3 2171   3.388   3.591  10.671 -0.9912 -0.2771  0.4907
  142MPD2     N 2172   3.559   3.566  10.270 -0.0748 -0.1916 -0.2313
  142MPD2    H5 2173   3.629   3.625  10.314  0.5194  2.1096 -4.2908
  142MPD2    N1 2174   3.163   3.290  10.417  0.2558 -0.4235 -0.1330
  142MPD2    H7 2175   3.107   3.256  10.494 -0.0473  0.4779  0.0472
  143TCq2    C1 2176   3.555   3.560  10.134  0.4947 -0.1593  0.1430
  143TCq2    O2 2177   3.466   3.527  10.055  0.1761 -0.2164 -0.1341
  143TCq2    C2 2178   3.682   3.611  10.077  0.3685 -0.3464  0.0041
  143TCq2    C3 2179   3.787   3.625  10.160 -0.5106 -0.1097  0.6580
  143TCq2    C4 2180   3.906   3.664  10.104  0.0051 -0.6106 -0.2639
  143TCq2    C5 2181   3.912   3.690   9.969  0.4712 -0.7069 -0.1800
  143TCq2    C6 2182   3.802   3.676   9.884  0.3792  0.7332  0.2553
  143TCq2    C7 2183   3.687   3.636   9.942  0.2193  0.5060  0.5325
  143TCq2    C8 2184   3.798   3.754   9.765 -0.2899  0.3313 -0.4589
  143TCq2    O4 2185   3.889   3.835   9.755  0.5439 -0.2192 -0.7611
  143TCq2    C9 2186   4.026   3.665  10.187  0.6811  0.3119 -0.4897
  143TCq2    O5 2187   4.124   3.738  10.153 -0.8535 -0.0588  0.0101
  143TCq2    O6 2188   4.016   3.616  10.303 -0.0016  0.1342 -0.0494
  143TCq2    H2 2189   3.795   3.582  10.259 -2.5039 -0.1491  0.7991
  143TCq2    H3 2190   4.007   3.714   9.923 -0.7318  0.0767 -2.2339
  143TCq2    H4 2191   3.597   3.659   9.885 -1.0471  0.9797  2.7257
  144MPD2     C 2192   1.325   2.938   0.563  1.1366  0.4053  1.5388
  144MPD2    C1 2193   1.318   2.804   0.600  0.7760  0.4155 -0.0973
  144MPD2    C2 2194   1.432   2.745   0.640  0.0042  0.3532 -0.4402
  144MPD2    C3 2195   1.554   2.804   0.638  0.5241  0.2390 -0.1631
  144MPD2    C4 2196   1.561   2.937   0.606  0.8676 -0.8604 -0.8299
  144MPD2    C5 2197   1.448   3.005   0.571  0.2588 -0.0422 -0.1058
  144MPD2     H 2198   1.405   2.648   0.681 -2.0392  1.1091  0.0192
  144MPD2    H1 2199   1.661   2.981   0.608  0.1504  0.7739 -1.0776
  144MPD2    H2 2200   1.235   2.989   0.530  3.2558  2.1028 -1.5919
  144MPD2    H3 2201   1.455   3.108   0.538  0.2269  0.6342  1.9982
  144MPD2     N 2202   1.676   2.739   0.677 -0.2199  0.3143  0.5109
  144MPD2    H5 2203   1.756   2.797   0.700 -0.6284  0.6276  1.1351
  144MPD2    N1 2204   1.203   2.723   0.594  0.1885  0.5227 -0.0027
  144MPD2    H7 2205   1.207   2.624   0.619 -0.8305  0.1264 -1.4069
  145TCq2    C1 2206   1.699   2.601   0.691 -0.1179  0.1185 -0.1240
  145TCq2    O2 2207   1.613   2.514   0.684  0.1551 -0.2392 -0.4458
  145TCq2    C2 2208   1.829   2.566   0.750  1.2213 -0.0792  0.1419
  145TCq2    C3 2209   1.896   2.460   0.692  0.8037  0.0889  0.1627
  145TCq2    C4 2210   2.014   2.429   0.758  0.0211 -0.2321  0.4295
  145TCq2    C5 2211   2.060   2.490   0.869  0.4541 -0.6312 -0.5118
  145TCq2    C6 2212   1.988   2.595   0.917  0.0435 -0.8051  0.4380
  145TCq2    C7 2213   1.871   2.635   0.858 -0.1912 -1.1062  0.2683
  145TCq2    C8 2214   2.044   2.654   1.040  0.2613 -0.1502 -0.2349
  145TCq2    O4 2215   2.157   2.637   1.078 -0.3499 -0.2298  0.0363
  145TCq2    C9 2216   2.088   2.325   0.697  1.0632 -0.0204 -0.5536
  145TCq2    O5 2217   2.047   2.288   0.583  0.3482 -0.0435  0.2411
  145TCq2    O6 2218   2.202   2.300   0.741  0.1454  0.2933  0.5642
  145TCq2    H2 2219   1.859   2.410   0.603  0.3422 -2.2028  1.6474
  145TCq2    H3 2220   2.152   2.464   0.920 -1.1773 -0.1733  2.6918
  145TCq2    H4 2221   1.797   2.707   0.891 -0.0754 -2.4115  3.4042
  146TMC2    C1 2222   1.910   1.085  12.644 -0.3100 -0.2962  0.5936
  146TMC2    C2 2223   1.841   0.994  12.577  0.3069  0.8425 -0.2131
  146TMC2    C3 2224   1.902   0.939  12.465  0.1116 -0.3300 -0.1070
  146TMC2    C4 2225   2.043   1.107  12.619 -0.0358  0.1385  0.5806
  146TMC2    C5 2226   2.105   1.039  12.517  0.3675  0.0168  0.0750
  146TMC2    C6 2227   2.035   0.958  12.434  0.2781  0.4087  0.1112
  146TMC2     C 2228   1.837   1.178  12.739 -0.5223  0.1934 -0.9841
  146TMC2     O 2229   1.718   1.201  12.717  0.8004 -0.3363 -0.1507
  146TMC2     H 2230   1.736   0.988  12.602  0.2743  0.7722 -0.3638
  146TMC2    H1 2231   2.098   1.183  12.672  0.5185 -0.2038  0.4941
  146TMC2    H2 2232   2.080   0.891  12.361  1.5095  2.2222 -0.8130
  146TMC2    C7 2233   2.239   1.054  12.466  0.7389  0.0402 -0.0462
  146TMC2    C8 2234   1.833   0.839  12.383  0.0436 -0.1298  0.4365
  146TMC2    O1 2235   2.266   1.009  12.354 -0.1463 -0.6230 -0.0278
  146TMC2    O2 2236   1.746   0.767  12.424  0.0362  0.0686  0.2620
  146TMC2    O5 2237   1.845   0.892  12.257  0.3265 -0.3604  0.5188
  146TMC2    H5 2238   1.901   0.972  12.262 -0.6414  0.3500 -0.1880
  147MPD2     C 2239   2.709   1.234  12.551 -1.0153  0.1533 -0.0361
  147MPD2    C1 2240   2.629   1.255  12.662  0.0383  0.2229 -0.4731
  147MPD2    C2 2241   2.500   1.216  12.660 -0.1215 -0.5073 -0.2289
  147MPD2    C3 2242   2.455   1.144  12.552  0.0211 -0.0568  0.3372
  147MPD2    C4 2243   2.532   1.128  12.441 -0.7049 -0.0961  0.2449
  147MPD2    C5 2244   2.662   1.170  12.439 -0.4419  0.4531 -0.1135
  147MPD2     H 2245   2.438   1.213  12.748  0.6543 -1.1424  0.3018
  147MPD2    H1 2246   2.497   1.085  12.347 -0.4142  1.2048 -0.4578
  147MPD2    H2 2247   2.813   1.264  12.554 -1.1749  0.7785 -1.0567
  147MPD2    H3 2248   2.725   1.154  12.352 -1.3281 -0.5091 -0.5782
  147MPD2     N 2249   2.317   1.112  12.559 -0.4873  0.5028  0.0925
  147MPD2    H5 2250   2.271   1.134  12.647  0.7974 -0.3653  0.9836
  147MPD2    N1 2251   2.695   1.311  12.775  0.4095  0.0442  0.4403
  147MPD2    H7 2252   2.796   1.318  12.768  0.3188  0.9954  0.0271
  148MPD2     C 2253   3.081   0.427  10.236  0.4821  0.2363  0.7138
  148MPD2    C1 2254   3.127   0.306  10.211  0.7360 -0.5489 -0.2379
  148MPD2    C2 2255   3.037   0.201  10.181 -0.1888 -0.7329 -0.5761
  148MPD2    C3 2256   2.903   0.224  10.194 -0.2357  0.9313  0.7131
  148MPD2    C4 2257   2.862   0.351  10.228  0.4600 -0.3836 -0.4070
  148MPD2    C5 2258   2.953   0.456  10.245  0.5068  0.3745 -0.0196
  148MPD2     H 2259   3.079   0.107  10.147 -0.6782 -1.2195  0.1504
  148MPD2    H1 2260   2.755   0.368  10.231  1.0740  3.3703  0.1042
  148MPD2    H2 2261   3.143   0.513  10.256  0.4563  0.4378 -0.0761
  148MPD2    H3 2262   2.916   0.556  10.266  1.5568  0.4390  1.5117
  148MPD2     N 2263   2.813   0.116  10.185 -0.2399  0.2638 -0.4655
  148MPD2    H5 2264   2.719   0.145  10.161 -0.3735 -0.2513 -0.5655
  148MPD2    N1 2265   3.256   0.280  10.170 -0.2620  0.1236  0.5025
  148MPD2    H7 2266   3.282   0.213  10.099 -1.2547  0.2868 -0.0101
  149TCq2    C1 2267   3.370   0.353  10.204  0.1156 -0.3138  0.2124
  149TCq2    O2 2268   3.383   0.450  10.282  0.6402  0.3213 -0.1842
  149TCq2    C2 2269   3.490   0.277  10.175 -0.3616 -1.1669 -0.4863
  149TCq2    C3 2270   3.586   0.333  10.103  0.7294 -0.5550  0.7856
  149TCq2    C4 2271   3.662   0.249  10.029  0.2747 -0.0857  0.5186
  149TCq2    C5 2272   3.667   0.115  10.055  0.1011 -0.3735 -0.8068
  149TCq2    C6 2273   3.578   0.061  10.144 -0.4261  0.3649 -0.5669
  149TCq2    C7 2274   3.486   0.145  10.206 -0.3604  0.9540  1.0880
  149TCq2    C8 2275   3.563   4.644  10.163  0.4126 -0.6072 -0.1295
  149TCq2    O4 2276   3.571   4.578  10.061 -0.6715 -0.2017  0.2551
  149TCq2    C9 2277   3.774   0.309   9.961 -0.5517 -1.0737  0.6769
  149TCq2    O5 2278   3.837   0.227   9.889  0.0708 -0.4244  0.1480
  149TCq2    O6 2279   3.821   0.415  10.016 -0.0466 -0.4341 -0.7117
  149TCq2    H2 2280   3.595   0.440  10.091  0.9001 -0.4417  1.9158
  149TCq2    H3 2281   3.748   0.054  10.017  1.0002  0.4852 -0.2483
  149TCq2    H4 2282   3.412   0.104  10.274  0.8760 -1.1454  1.1677
  150MPD2     C 2283   4.400   4.157  12.166  0.2902 -0.1925 -0.0563
  150MPD2    C1 2284   4.388   4.276  12.094 -0.2009 -0.4039  0.7184
  150MPD2    C2 2285   4.486   4.377  12.121  0.1519 -0.1862 -0.3696
  150MPD2    C3 2286   4.584   4.359  12.219  1.2414 -0.1965 -0.1315
  150MPD2    C4 2287   4.599   4.228  12.276 -0.3443 -0.3606  0.1811
  150MPD2    C5 2288   4.501   4.137  12.252  0.4476 -0.8928 -0.3857
  150MPD2     H 2289   4.476   4.477  12.080 -3.8009 -0.9317 -1.2252
  150MPD2    H1 2290   4.682   4.200  12.339 -0.4190  1.2265  0.9743
  150MPD2    H2 2291   4.348   4.067  12.134 -0.9809  0.8489 -0.9269
  150MPD2    H3 2292   4.496   4.038  12.297  0.6085 -0.6277  0.2176
  150MPD2     N 2293   4.665   4.468  12.247  0.0911 -0.7013  0.0708
  150MPD2    H5 2294   4.654   4.558  12.202 -1.2727 -0.3764  1.0675
  150MPD2    N1 2295   4.279   4.287  11.999 -0.6251  0.0939 -0.2248
  150MPD2    H7 2296   4.212   4.211  11.999  0.2722 -0.6991  0.9122
  151TCq2    C1 2297   0.057   4.472  12.328  0.4349  0.1849  0.2888
  151TCq2    O2 2298   0.120   4.377  12.372 -0.1045 -0.8428 -0.2967
  151TCq2    C2 2299   0.089   4.610  12.368  0.5701  0.1708  0.6996
  151TCq2    C3 2300   0.039   0.001  12.310 -0.4289 -1.1766  0.1567
  151TCq2    C4 2301   0.072   0.122  12.365 -0.4379  0.0973  0.0217
  151TCq2    C5 2302   0.154   0.137  12.471  0.5327 -0.2332  0.4691
  151TCq2    C6 2303   0.206   0.025  12.529  0.0399  0.8428 -0.4135
  151TCq2    C7 2304   0.159   4.625  12.488  0.7326  0.0421  0.1154
  151TCq2    C8 2305   0.319   0.035  12.628 -1.0256 -0.4853 -0.2965
  151TCq2    O4 2306   0.330   0.145  12.679  0.6755  0.0457 -0.0438
  151TCq2    C9 2307   0.032   0.236  12.294 -0.0346 -0.2377 -0.0600
  151TCq2    O5 2308   0.041   0.232  12.173  0.2782 -0.2156 -0.5108
  151TCq2    O6 2309   4.720   0.339  12.359 -0.2376  0.5646 -0.2327
  151TCq2    H2 2310   4.689   4.720  12.230  0.8852  0.0288 -1.1293
  151TCq2    H3 2311   0.180   0.234  12.512 -0.1795  0.8492 -1.5830
  151TCq2    H4 2312   0.192   4.534  12.537  0.9087  1.5281  2.7683
  152MPD2     C 2313   3.978   3.948  12.709  0.0158  0.0395 -0.5787
  152MPD2    C1 2314   4.007   4.048  12.620 -0.4612 -0.2161  0.5569
  152MPD2    C2 2315   3.902   4.099  12.541  0.1406 -0.0223  0.4124
  152MPD2    C3 2316   3.778   4.040  12.543  0.9071 -0.5869  0.3116
  152MPD2    C4 2317   3.751   3.932  12.624 -0.6767 -0.5991 -1.0709
  152MPD2    C5 2318   3.851   3.888  12.709  0.2672 -0.7051 -0.2919
  152MPD2     H 2319   3.915   4.178  12.468 -0.6581 -0.3108 -0.0476
  152MPD2    H1 2320   3.654   3.884  12.632 -1.4859  0.9753 -1.4929
  152MPD2    H2 2321   4.045   3.919  12.789  0.6989  1.6334 -0.5767
  152MPD2    H3 2322   3.827   3.819  12.789  0.8307 -0.6518 -0.0781
  152MPD2     N 2323   3.681   4.106  12.464  0.1544  0.3268  0.9445
  152MPD2    H5 2324   3.716   4.196  12.434 -1.8675  0.8427  0.1215
  152MPD2    N1 2325   4.143   4.088  12.615  0.3651  0.6264  0.2146
  152MPD2    H7 2326   4.208   4.049  12.682  1.8287  0.6393 -1.2033
  153TCq2    C1 2327   4.194   4.175  12.526  0.2783 -0.2860 -0.3927
  153TCq2    O2 2328   4.138   4.270  12.470  0.0170  0.1623  0.1383
  153TCq2    C2 2329   4.329   4.194  12.579  0.4156  0.4378  0.5486
  153TCq2    C3 2330   4.413   4.087  12.625  0.2491  0.1294  0.1713
  153TCq2    C4 2331   4.540   4.111  12.665  0.2554 -0.3325 -0.6417
  153TCq2    C5 2332   4.592   4.235  12.633 -0.4407  1.0220 -0.0946
  153TCq2    C6 2333   4.511   4.340  12.595  1.1051  0.1895  0.1982
  153TCq2    C7 2334   4.379   4.319  12.564 -0.1776  0.2530 -0.3818
  153TCq2    C8 2335   4.545   4.481  12.640  0.0781 -0.2501  0.0137
  153TCq2    O4 2336   4.488   4.573  12.587  0.2312  0.0121 -0.0365
  153TCq2    C9 2337   4.628   3.996  12.680 -0.7656 -0.0492 -0.3630
  153TCq2    O5 2338   4.583   3.883  12.647 -0.5514 -0.7090 -0.3757
  153TCq2    O6 2339   0.024   4.012  12.706  0.8320  0.4860  0.3921
  153TCq2    H2 2340   4.375   3.985  12.625  1.1474 -0.2138  3.6425
  153TCq2    H3 2341   4.697   4.257  12.649 -0.3141  0.9959 -0.8884
  153TCq2    H4 2342   4.321   4.397  12.517 -2.4963 -1.9109 -1.0784
  154MPD2     C 2343   1.345   4.708   0.898 -0.8383 -0.7664  0.2938
  154MPD2    C1 2344   1.380   4.612   0.993 -0.3023 -0.2127  0.6142
  154MPD2    C2 2345   1.287   4.570   1.091  0.2283 -0.1887  0.2411
  154MPD2    C3 2346   1.155   4.617   1.089 -0.0807 -0.6806 -0.5060
  154MPD2    C4 2347   1.113   4.707   0.993  0.1964  0.3398  0.1987
  154MPD2    C5 2348   1.207   0.021   0.895 -0.7919 -0.5938 -0.1924
  154MPD2     H 2349   1.326   4.501   1.165  1.4408 -0.8481 -1.0273
  154MPD2    H1 2350   1.013   0.023   0.981  0.8898  3.2982  4.1124
  154MPD2    H2 2351   1.424   0.033   0.841 -0.9348 -0.0038  0.8103
  154MPD2    H3 2352   1.172   0.082   0.813 -0.4586 -2.2006 -1.5382
  154MPD2     N 2353   1.071   4.572   1.195  0.5853 -0.2373  0.6619
  154MPD2    H5 2354   1.104   4.505   1.264 -1.3869 -1.5776  0.2959
  154MPD2    N1 2355   1.501   4.548   0.980 -0.5730 -0.0462 -0.3723
  154MPD2    H7 2356   1.556   4.564   0.896 -0.9774 -3.2318 -1.2579
  155TCq2    C1 2357   1.550   4.461   1.072 -0.2222 -0.4565  0.1160
  155TCq2    O2 2358   1.514   4.411   1.179  0.1232 -0.4559 -0.0791
  155TCq2    C2 2359   1.685   4.421   1.022  0.1283 -0.1342  0.1362
  155TCq2    C3 2360   1.714   4.419   0.885  0.0423 -0.3418  0.2795
  155TCq2    C4 2361   1.839   4.378   0.847 -0.1774  0.5564 -0.1126
  155TCq2    C5 2362   1.937   4.340   0.944  0.7002 -0.2131  0.6051
  155TCq2    C6 2363   1.906   4.354   1.077  0.2254  0.5656  0.0066
  155TCq2    C7 2364   1.785   4.394   1.114 -0.2522 -0.2080  0.0487
  155TCq2    C8 2365   2.015   4.343   1.168  0.4876  0.0636  0.1356
  155TCq2    O4 2366   2.130   4.320   1.127 -0.3442  0.7937  0.3599
  155TCq2    C9 2367   1.873   4.346   0.708  0.0550 -0.8164 -0.2888
  155TCq2    O5 2368   1.990   4.307   0.683 -0.9955 -0.2922  0.4144
  155TCq2    O6 2369   1.781   4.362   0.617 -0.2053 -0.4597 -0.4870
  155TCq2    H2 2370   1.651   4.425   0.798 -0.2538  1.8658  0.6600
  155TCq2    H3 2371   2.036   4.306   0.918  0.6452  2.2809 -2.9284
  155TCq2    H4 2372   1.756   4.396   1.219 -0.5361  1.3086 -0.0601
  156MPD2     C 2373   4.635   1.303  12.503 -0.1893 -0.5094  0.1565
  156MPD2    C1 2374   4.573   1.332  12.385  0.1899  0.1572  0.6966
  156MPD2    C2 2375   4.436   1.337  12.379 -0.2510 -0.4448 -0.1250
  156MPD2    C3 2376   4.368   1.301  12.492  0.8911 -0.2077 -0.8179
  156MPD2    C4 2377   4.438   1.267  12.612  0.5498 -0.3514  0.3557
  156MPD2    C5 2378   4.572   1.274  12.624  0.1265  0.1190  0.2972
  156MPD2     H 2379   4.385   1.361  12.287 -1.5598  1.2421  1.0339
  156MPD2    H1 2380   4.378   1.220  12.690 -0.0038 -0.5372 -0.1747
  156MPD2    H2 2381   0.018   1.322  12.501 -0.1026 -1.1989 -1.6384
  156MPD2    H3 2382   4.617   1.251  12.720  1.2371 -0.8044 -0.4470
  156MPD2     N 2383   4.225   1.298  12.495 -0.9869 -0.4359 -0.2768
  156MPD2    H5 2384   4.181   1.288  12.586  0.7042 -0.0863  0.5893
  156MPD2    N1 2385   4.652   1.365  12.277  0.1092  0.1136  0.3884
  156MPD2    H7 2386   0.029   1.366  12.291  0.3520 -0.1616 -1.3335
  157TCq2    C1 2387   4.611   1.414  12.151  0.1252  0.1580 -0.4433
  157TCq2    O2 2388   4.496   1.434  12.115 -0.2016 -0.7215  0.8049
  157TCq2    C2 2389   0.000   1.459  12.067 -0.0105 -0.2811 -0.0583
  157TCq2    C3 2390   0.135   1.440  12.098 -0.2480  0.9008 -0.2469
  157TCq2    C4 2391   0.229   1.509  12.032  0.6222 -0.2671 -0.4143
  157TCq2    C5 2392   0.189   1.607  11.946 -0.0870  0.1031  0.0406
  157TCq2    C6 2393   0.059   1.623  11.911 -0.0041 -0.2986  0.6607
  157TCq2    C7 2394   4.684   1.544  11.965 -0.6330  0.7449 -0.2505
  157TCq2    C8 2395   0.020   1.717  11.807  0.5954 -0.0110  0.1436
  157TCq2    O4 2396   0.097   1.810  11.788  0.1828  0.0912 -0.4695
  157TCq2    C9 2397   0.370   1.495  12.061 -1.1101 -0.6060  0.5347
  157TCq2    O5 2398   0.393   1.388  12.127 -0.0057 -0.2178 -0.5431
  157TCq2    O6 2399   0.448   1.592  12.040 -0.2707  0.7079 -0.9333
  157TCq2    H2 2400   0.159   1.364  12.171 -2.0697  0.3209 -0.2540
  157TCq2    H3 2401   0.263   1.669  11.897 -0.0318 -2.2376 -2.8122
  157TCq2    H4 2402   4.580   1.556  11.936 -0.2487  1.3895 -1.3642
  158TMC2    C1 2403   0.712   0.627  13.976  0.8946 -0.4129 -0.3824
  158TMC2    C2 2404   0.842   0.667  13.940  0.8201 -0.1129  0.1786
  158TMC2    C3 2405   0.853   0.701  13.808  0.1090 -0.5560  0.3459
  158TMC2    C4 2406   0.605   0.628  13.896 -0.4219  0.4374 -0.2763
  158TMC2    C5 2407   0.631   0.659  13.768  0.1446  0.0492 -0.5327
  158TMC2    C6 2408   0.748   0.701  13.717  0.2130 -0.5769 -0.5825
  158TMC2     C 2409   0.716   0.543  14.089 -0.3592  0.1003  0.5626
  158TMC2     O 2410   0.809   0.568  14.162 -0.1568 -0.2471 -0.1988
  158TMC2     H 2411   0.927   0.677  14.007  0.3169 -1.6032  1.0520
  158TMC2    H1 2412   0.505   0.603  13.931 -0.1598 -0.6971 -0.3281
  158TMC2    H2 2413   0.761   0.713  13.610 -0.0086 -1.0226 -0.6615
  158TMC2    C7 2414   0.515   0.675  13.677 -0.6442  0.1603 -0.4689
  158TMC2    C8 2415   0.993   0.728  13.766  0.0288 -0.0499 -0.6541
  158TMC2    O1 2416   0.523   0.752  13.585  0.0334  0.8321  0.1998
  158TMC2    O2 2417   1.085   0.697  13.843  0.0978  0.1880  0.5350
  158TMC2    O5 2418   0.990   0.834  13.686  0.0332 -0.6041 -0.6366
  158TMC2    H5 2419   0.918   0.843  13.620 -0.4471 -1.5010 -0.2260
  159MPD2     C 2420   0.570   0.135  14.365 -0.1010 -0.2926  0.1218
  159MPD2    C1 2421   0.506   0.132  14.240  0.3058 -0.0876  0.0440
  159MPD2    C2 2422   0.546   0.224  14.145 -0.0037  0.4389  0.3952
  159MPD2    C3 2423   0.623   0.333  14.176  0.5224 -0.1788  0.2938
  159MPD2    C4 2424   0.667   0.340  14.308  0.4916 -0.2929 -0.6673
  159MPD2    C5 2425   0.651   0.243  14.400 -0.2310 -0.3186  0.2440
  159MPD2     H 2426   0.509   0.212  14.044  0.7376  0.2563  0.1438
  159MPD2    H1 2427   0.730   0.426  14.328 -1.5080  0.3741  2.6714
  159MPD2    H2 2428   0.554   0.062  14.444 -0.5103 -0.2099  0.1130
  159MPD2    H3 2429   0.713   0.248  14.488  1.7140 -0.9244 -1.1127
  159MPD2     N 2430   0.638   0.431  14.069  0.0165 -0.4647 -0.1303
  159MPD2    H5 2431   0.588   0.415  13.982 -0.5035 -0.5349  0.1830
  159MPD2    N1 2432   0.405   0.035  14.216  0.3799  0.4122 -0.1699
  159MPD2    H7 2433   0.390   4.690  14.290  0.4253  0.8422  0.2387
  160TMC2    C1 2434   4.160   3.421   1.296  0.5177  0.2907  0.2797
  160TMC2    C2 2435   4.169   3.291   1.334  0.4788 -0.1344 -0.2972
  160TMC2    C3 2436   4.268   3.207   1.275  0.0115 -0.4349  0.5324
  160TMC2    C4 2437   4.230   3.470   1.189 -0.1265 -0.7158 -0.0177
  160TMC2    C5 2438   4.311   3.374   1.129  0.1391  0.0213 -0.5854
  160TMC2    C6 2439   4.332   3.247   1.164 -0.7944  0.6386 -0.3047
  160TMC2     C 2440   4.099   3.504   1.397  0.5109 -0.4434  0.3868
  160TMC2     O 2441   4.017   3.451   1.473  0.4306 -0.3513  0.2195
  160TMC2     H 2442   4.096   3.258   1.407 -0.6597 -1.8323 -2.2034
  160TMC2    H1 2443   4.213   3.570   1.153 -1.3284 -1.4036 -1.3401
  160TMC2    H2 2444   4.400   3.175   1.120  0.3911  0.3346  1.9848
  160TMC2    C7 2445   4.375   3.407   1.005  0.5611  0.0478 -0.3801
  160TMC2    C8 2446   4.271   3.068   1.300  0.6894 -0.1475 -0.6261
  160TMC2    O1 2447   4.326   3.505   0.951 -0.0697 -0.0470  0.1953
  160TMC2    O2 2448   4.309   2.991   1.212  0.5534  0.4614  1.3323
  160TMC2    O5 2449   4.182   3.045   1.396 -0.0334  0.3043  0.7556
  160TMC2    H5 2450   4.186   3.115   1.465  1.3539 -0.3534  1.3376
  161MPD2     C 2451   4.025   3.723   1.592  0.0252  0.6596  0.6159
  161MPD2    C1 2452   4.110   3.738   1.484 -0.1347 -0.1154 -0.4642
  161MPD2    C2 2453   4.160   3.865   1.457  0.2403  0.1437  0.1680
  161MPD2    C3 2454   4.128   3.983   1.523  0.1447  0.0068 -0.2562
  161MPD2    C4 2455   4.043   3.963   1.637  0.3016  0.2052 -0.0152
  161MPD2    C5 2456   3.994   3.838   1.667 -0.1426 -0.3958 -0.6608
  161MPD2     H 2457   4.239   3.867   1.383  1.3646 -0.2737  1.3376
  161MPD2    H1 2458   3.999   4.038   1.702 -1.7974  1.0731 -2.4623
  161MPD2    H2 2459   3.990   3.625   1.624  2.5290  0.2815  2.1762
  161MPD2    H3 2460   3.923   3.827   1.748  0.3276  0.5536 -0.1181
  161MPD2     N 2461   4.172   4.113   1.491  0.4573  0.1045 -0.0677
  161MPD2    H5 2462   4.141   4.189   1.550  1.1547  0.5822 -0.3148
  161MPD2    N1 2463   4.143   3.635   1.392 -0.4478  0.2759 -0.1913
  161MPD2    H7 2464   4.211   3.653   1.318  0.6901 -0.8960  0.5659
  162TMC2    C1 2465   1.944   0.372   1.243  0.7449 -0.1115 -0.1919
  162TMC2    C2 2466   1.812   0.415   1.252  0.5318 -0.3084  0.3598
  162TMC2    C3 2467   1.750   0.399   1.375  0.2575  0.6788 -0.0475
  162TMC2    C4 2468   2.007   0.324   1.355  0.0292  0.5086 -0.6638
  162TMC2    C5 2469   1.942   0.317   1.474 -0.1235  0.0636  0.1483
  162TMC2    C6 2470   1.810   0.350   1.485 -0.1453 -0.6931  0.2050
  162TMC2     C 2471   2.017   0.377   1.117 -0.5834  0.5080 -0.2830
  162TMC2     O 2472   2.127   0.323   1.118 -0.1712 -0.4023 -0.4123
  162TMC2     H 2473   1.755   0.471   1.179  1.8544  1.9634  1.0699
  162TMC2    H1 2474   2.114   0.307   1.355 -0.2558 -1.2404  1.4930
  162TMC2    H2 2475   1.757   0.343   1.579  0.8969 -3.1633  0.6040
  162TMC2    C7 2476   2.010   0.343   1.604 -0.3533  0.8391  0.3938
  162TMC2    C8 2477   1.612   0.442   1.386  0.4713 -0.4668 -0.2325
  162TMC2    O1 2478   1.947   0.381   1.701  0.1025 -0.5606  0.6584
  162TMC2    O2 2479   1.554   0.520   1.309  0.2714 -0.1686  0.4591
  162TMC2    O5 2480   1.551   0.380   1.495 -0.2176  0.2127  0.0825
  162TMC2    H5 2481   1.599   0.298   1.517 -1.6573  0.0693  2.6771
  163MPD2     C 2482   2.140   0.504   0.626 -0.3502  0.0062  0.0562
  163MPD2    C1 2483   2.181   0.395   0.708 -0.7656 -0.0934  0.4495
  163MPD2    C2 2484   2.121   0.367   0.828  0.7660  0.4711  0.0164
  163MPD2    C3 2485   2.024   0.451   0.875  0.0884  0.0977  1.0429
  163MPD2    C4 2486   1.978   0.560   0.798 -0.2123  0.7859  0.1880
  163MPD2    C5 2487   2.036   0.580   0.674  0.2687 -0.3505 -0.2853
  163MPD2     H 2488   2.149   0.286   0.894 -0.0441 -0.2075 -0.4635
  163MPD2    H1 2489   1.899   0.619   0.843 -0.2343 -0.4932  1.8369
  163MPD2    H2 2490   2.170   0.507   0.522  1.5688 -1.4185  0.5500
  163MPD2    H3 2491   1.999   0.665   0.617 -2.9939 -3.0694 -2.1863
  163MPD2     N 2492   1.962   0.447   1.006 -0.3173 -0.8868 -0.2011
  163MPD2    H5 2493   1.882   0.510   1.009  0.1025 -0.3053 -1.1448
  163MPD2    N1 2494   2.278   0.322   0.640 -0.8412 -0.4437  0.4590
  163MPD2    H7 2495   2.301   0.344   0.543 -1.1202  0.0759  0.5102
  164TCq2    C1 2496   3.172   0.317  11.048 -0.1792 -0.1322 -0.5387
  164TCq2    O2 2497   3.095   0.225  11.067  0.1138  0.3732 -0.1960
  164TCq2    C2 2498   3.198   0.398  11.165 -0.1463 -0.1264  0.0283
  164TCq2    C3 2499   3.328   0.414  11.208  0.1356 -0.6052 -0.0671
  164TCq2    C4 2500   3.343   0.460  11.334 -0.1217  1.2099  0.4530
  164TCq2    C5 2501   3.234   0.488  11.414 -0.0472  0.3315 -1.5800
  164TCq2    C6 2502   3.105   0.468  11.368  0.8862 -0.1245  0.5090
  164TCq2    C7 2503   3.084   0.430  11.239 -0.4774  0.2854 -0.3620
  164TCq2    C8 2504   2.995   0.522  11.445  0.1943  0.4941 -0.4810
  164TCq2    O4 2505   3.011   0.535  11.563  0.3550 -0.4886  0.5430
  164TCq2    C9 2506   3.475   0.484  11.387 -0.4836  0.0141 -0.8966
  164TCq2    O5 2507   3.488   0.588  11.457  0.1482 -0.2814 -0.2905
  164TCq2    O6 2508   3.571   0.439  11.316 -0.1561 -0.3403 -0.3206
  164TCq2    H2 2509   3.412   0.387  11.145 -1.3119 -1.9647 -1.4233
  164TCq2    H3 2510   3.263   0.520  11.513  1.5862  0.0489 -1.9648
  164TCq2    H4 2511   2.985   0.395  11.210  0.1858 -0.5187 -1.6204
  165MPD2     C 2512   3.693   2.653   1.664  1.3507 -0.1961  0.0831
  165MPD2    C1 2513   3.762   2.542   1.609 -0.7088  0.8754 -0.2054
  165MPD2    C2 2514   3.899   2.568   1.570  0.0562 -0.2010 -0.1948
  165MPD2    C3 2515   3.953   2.699   1.579 -0.3218 -0.1182 -0.9147
  165MPD2    C4 2516   3.868   2.804   1.613  0.3383 -0.0166 -0.0509
  165MPD2    C5 2517   3.746   2.778   1.664 -0.0041 -0.0913  0.5805
  165MPD2     H 2518   3.952   2.488   1.521 -0.5968 -1.9266  1.8924
  165MPD2    H1 2519   3.899   2.908   1.614 -1.8245  0.6461 -1.4015
  165MPD2    H2 2520   3.600   2.643   1.717  0.8731  0.7804 -0.5726
  165MPD2    H3 2521   3.684   2.857   1.707  1.1777 -0.0278  2.1812
  165MPD2     N 2522   4.083   2.729   1.546 -0.4991 -0.3195 -0.3272
  165MPD2    H5 2523   4.116   2.825   1.544 -0.6686 -0.2311  1.6400
  165MPD2    N1 2524   3.697   2.422   1.602  0.4400 -0.6271  0.2874
  165MPD2    H7 2525   3.597   2.429   1.616  0.6860  1.7789  0.9152
  166TCq2    C1 2526   4.174   2.635   1.491  0.2271  0.2853 -0.0478
  166TCq2    O2 2527   4.152   2.521   1.451 -0.2314  0.0975 -0.4939
  166TCq2    C2 2528   4.309   2.693   1.490  0.4079 -0.2883 -0.4093
  166TCq2    C3 2529   4.333   2.787   1.586 -0.2910  0.1089 -0.4037
  166TCq2    C4 2530   4.442   2.869   1.569  0.1329 -0.8244 -0.1547
  166TCq2    C5 2531   4.522   2.866   1.463 -0.5207  0.6382  0.0205
  166TCq2    C6 2532   4.496   2.768   1.362  0.5189 -0.3107  0.4246
  166TCq2    C7 2533   4.384   2.686   1.371 -0.6147  0.8516  0.0878
  166TCq2    C8 2534   4.591   2.756   1.251 -0.1520  0.0098  0.2430
  166TCq2    O4 2535   4.676   2.664   1.253  0.0277  0.0165 -0.4105
  166TCq2    C9 2536   4.473   2.960   1.677 -0.1799 -0.0393  0.3329
  166TCq2    O5 2537   4.380   2.990   1.759  0.4181 -0.3076 -0.5609
  166TCq2    O6 2538   4.581   3.026   1.655 -0.1326  0.5385 -0.1101
  166TCq2    H2 2539   4.279   2.771   1.678 -0.6629  2.2115 -0.2606
  166TCq2    H3 2540   4.608   2.932   1.463 -0.0314  0.0067  1.1410
  166TCq2    H4 2541   4.377   2.614   1.291  0.3640  2.0937 -1.1220
  167TMC2    C1 2542   1.962   0.481  12.566 -0.4453 -0.0470  0.7594
  167TMC2    C2 2543   1.899   0.560  12.660  0.1381  0.0002  0.3392
  167TMC2    C3 2544   1.862   0.514  12.777  0.3622 -0.1709 -0.3401
  167TMC2    C4 2545   1.990   0.351  12.584  0.5271  0.5956  0.0819
  167TMC2    C5 2546   1.965   0.304  12.716 -0.3236  0.6906 -0.4807
  167TMC2    C6 2547   1.903   0.381  12.811 -0.0978  0.3716  0.5514
  167TMC2     C 2548   2.040   0.548  12.462 -0.4239 -0.0492  0.1272
  167TMC2     O 2549   2.081   0.661  12.502 -0.1182  0.1482  0.4693
  167TMC2     H 2550   1.883   0.664  12.635 -1.1110 -0.4088 -0.5803
  167TMC2    H1 2551   2.019   0.286  12.503 -0.4069  0.6600 -0.3017
  167TMC2    H2 2552   1.874   0.331  12.903 -0.2217  1.5084  1.1370
  167TMC2    C7 2553   2.045   0.191  12.765  0.1950  0.1798 -0.2136
  167TMC2    C8 2554   1.762   0.581  12.859  0.1982  0.1032 -0.9890
  167TMC2    O1 2555   1.986   0.136  12.856  0.6183 -0.1315  0.8278
  167TMC2    O2 2556   1.650   0.615  12.824 -0.3627  0.5243  0.8525
  167TMC2    O5 2557   1.796   0.557  12.993  0.3207 -0.2455  0.3803
  167TMC2    H5 2558   1.892   0.542  12.984  0.4334  0.3653  0.5792
  168MPD2     C 2559   2.223   0.626  12.249  0.5519  0.7655  0.4030
  168MPD2    C1 2560   2.154   0.509  12.250 -0.1885  0.6519  0.3918
  168MPD2    C2 2561   2.180   0.412  12.160  0.2408 -0.0309 -0.2438
  168MPD2    C3 2562   2.299   0.417  12.080  0.3829 -0.0191 -0.2449
  168MPD2    C4 2563   2.370   0.533  12.077  0.7102 -0.4015  0.8926
  168MPD2    C5 2564   2.328   0.636  12.160  0.3687  0.3430  0.2207
  168MPD2     H 2565   2.115   0.326  12.164 -1.4663  1.1728 -1.6833
  168MPD2    H1 2566   2.459   0.535  12.016 -0.2167  1.9547 -0.3854
  168MPD2    H2 2567   2.199   0.708  12.315  1.8033  2.0095 -0.6636
  168MPD2    H3 2568   2.381   0.730  12.161 -1.5624  1.4020  1.2814
  168MPD2     N 2569   2.339   0.310  12.000 -0.2323 -0.2661 -0.5415
  168MPD2    H5 2570   2.431   0.310  11.956  0.1871  0.3961  0.3295
  168MPD2    N1 2571   2.057   0.475  12.348  0.1770  0.0478  0.3644
  168MPD2    H7 2572   2.008   0.388  12.332 -0.1922 -0.1823  2.7447
  169MPD1     C 2573   4.304   4.561   8.747  0.3011 -1.2924  0.0698
  169MPD1    C1 2574   4.414   4.490   8.707  0.7636 -0.3679 -0.7597
  169MPD1    C2 2575   4.469   4.395   8.799  0.5441 -0.0049 -0.1751
  169MPD1    C3 2576   4.421   4.397   8.929  0.6160 -0.2272  0.0770
  169MPD1    C4 2577   4.310   4.477   8.969 -0.0743  0.3521  0.4420
  169MPD1    C5 2578   4.248   4.552   8.872 -0.5906 -0.3210  0.0146
  169MPD1     H 2579   4.560   4.340   8.776 -0.1872 -1.6751  0.8935
  169MPD1    H1 2580   4.273   4.489   9.071 -3.1830  1.7972 -0.8541
  169MPD1    H2 2581   4.268   4.634   8.676 -0.6647 -2.0527 -0.2308
  169MPD1    H3 2582   4.159   4.610   8.893  0.4668  0.5253  2.1385
  169MPD1     N 2583   4.504   4.341   9.031 -0.6339  0.4269  0.1934
  169MPD1    H5 2584   4.592   4.296   9.007 -0.0844  1.2606  0.6419
  169MPD1    N1 2585   4.455   4.499   8.572 -0.3839 -0.5071  0.0707
  169MPD1    H6 2586   4.553   4.472   8.562  0.1425  1.1386  0.6801
  169MPD1    H7 2587   4.462   4.598   8.548  2.8020 -1.7305 -4.1185
  170MPD1     C 2588   2.713   2.452  12.970  0.0087  0.6100 -0.1160
  170MPD1    C1 2589   2.774   2.572  12.973  0.3473  0.4033 -0.2944
  170MPD1    C2 2590   2.849   2.591  13.088  0.2891  0.0153  0.4524
  170MPD1    C3 2591   2.869   2.493  13.187  0.7276 -0.0397  0.0978
  170MPD1    C4 2592   2.820   2.367  13.166  0.7737  0.4069 -0.5864
  170MPD1    C5 2593   2.738   2.349  13.055  0.4434 -0.8536  0.0276
  170MPD1     H 2594   2.881   2.692  13.109 -0.3968  0.2030  0.6057
  170MPD1    H1 2595   2.837   2.293  13.242  0.0801  0.0248 -0.8044
  170MPD1    H2 2596   2.643   2.445  12.888  2.0427  3.0759 -2.0594
  170MPD1    H3 2597   2.686   2.256  13.034  1.0720 -1.2158  0.0820
  170MPD1     N 2598   2.948   2.522  13.301  0.2927 -0.1427 -0.1233
  170MPD1    H5 2599   2.992   2.613  13.302  0.6511 -0.3331  0.9532
  170MPD1    N1 2600   2.748   2.677  12.888 -0.5220 -0.0292  0.8980
  170MPD1    H6 2601   2.825   2.743  12.892  1.1874 -2.2176  3.9303
  170MPD1    H7 2602   2.733   2.634  12.796 -3.0403  1.5368  0.5820
  171MPD1     C 2603   2.238   3.749  15.591 -0.0176 -0.1678 -0.4418
  171MPD1    C1 2604   2.225   3.646  15.502 -0.1254 -0.3227 -0.5244
  171MPD1    C2 2605   2.253   3.513  15.544 -0.5497  0.0119  0.2945
  171MPD1    C3 2606   2.284   3.488  15.673  0.7009 -0.1119  0.1234
  171MPD1    C4 2607   2.290   3.597  15.758  0.1075 -0.5753 -0.1188
  171MPD1    C5 2608   2.271   3.718  15.719  0.0969 -0.0486 -0.3486
  171MPD1     H 2609   2.245   3.432  15.472 -0.0074  0.2267 -0.0070
  171MPD1    H1 2610   2.306   3.580  15.863 -0.3561 -1.8711 -0.2627
  171MPD1    H2 2611   2.210   3.851  15.567  1.7074  0.4062  0.0589
  171MPD1    H3 2612   2.280   3.805  15.783  0.6416 -1.5419  1.6073
  171MPD1     N 2613   2.305   3.354  15.725  0.3250  0.3118 -0.1608
  171MPD1    H5 2614   2.316   3.346  15.826 -0.7827 -0.8285 -0.1293
  171MPD1    N1 2615   2.205   3.669  15.363 -0.3932  0.2090 -0.1499
  171MPD1    H6 2616   2.162   3.755  15.330  0.8155  0.6420 -0.5987
  171MPD1    H7 2617   2.163   3.590  15.315  1.4904 -0.6178 -0.4113
  172MPD1     C 2618   1.142   2.031   0.402  0.2537 -0.1879 -0.5842
  172MPD1    C1 2619   1.097   2.147   0.344 -0.0954 -0.0638 -0.4282
  172MPD1    C2 2620   1.183   2.251   0.335 -0.2694 -0.8929  0.6553
  172MPD1    C3 2621   1.322   2.229   0.338  0.0012  0.6202  0.5045
  172MPD1    C4 2622   1.367   2.105   0.376 -0.2728 -0.1374 -0.0848
  172MPD1    C5 2623   1.276   2.007   0.409 -0.4463  0.5170 -0.2174
  172MPD1     H 2624   1.140   2.345   0.305  1.7999 -0.8822 -2.2271
  172MPD1    H1 2625   1.469   2.075   0.396 -0.6149 -1.9066 -0.9895
  172MPD1    H2 2626   1.074   1.951   0.430  0.4766  0.4213  1.6349
  172MPD1    H3 2627   1.307   1.910   0.443 -0.2604 -0.0286 -1.9360
  172MPD1     N 2628   1.418   2.329   0.298 -0.4497 -0.3969  0.1235
  172MPD1    H5 2629   1.512   2.294   0.279  0.3179  1.4281  0.5414
  172MPD1    N1 2630   0.957   2.164   0.349 -0.9016  0.7018 -0.3510
  172MPD1    H6 2631   0.905   2.077   0.340  0.5726 -0.3956  1.5662
  172MPD1    H7 2632   0.919   2.230   0.282  1.0492  2.0702 -0.1167
  173MPD1     C 2633   2.289   2.819  13.888  0.0305  0.2411  0.2499
  173MPD1    C1 2634   2.189   2.794  13.981  0.7684 -0.6983 -0.5385
  173MPD1    C2 2635   2.175   2.664  14.023  0.3790  0.9598  0.0033
  173MPD1    C3 2636   2.243   2.561  13.974 -0.1861 -0.1321  0.4892
  173MPD1    C4 2637   2.317   2.582  13.861  0.0820 -0.2513 -0.4062
  173MPD1    C5 2638   2.339   2.709  13.820 -0.4188  0.2270  0.3740
  173MPD1     H 2639   2.103   2.648  14.102 -0.0321 -0.4198 -0.6630
  173MPD1    H1 2640   2.362   2.497  13.810 -1.7249 -2.0146  0.9071
  173MPD1    H2 2641   2.310   2.918  13.848  0.8612 -0.4045 -0.9122
  173MPD1    H3 2642   2.397   2.728  13.730 -2.4423 -3.4929 -1.7326
  173MPD1     N 2643   2.199   2.434  14.018 -0.1298 -0.8833  0.4392
  173MPD1    H5 2644   2.122   2.433  14.085 -0.1323 -0.6172  0.4400
  173MPD1    N1 2645   2.123   2.900  14.044  0.6168 -0.2666  0.1092
  173MPD1    H6 2646   2.144   2.990  14.001  0.8668 -0.4085 -0.0628
  173MPD1    H7 2647   2.028   2.892  14.080  0.7833  1.1709  0.8953
  174MPD1     C 2648   2.781   2.387  14.400 -0.2062 -0.3029  0.3840
  174MPD1    C1 2649   2.729   2.283  14.475 -0.1501 -0.2055 -0.0742
  174MPD1    C2 2650   2.637   2.200  14.416  0.2583 -0.0386  0.3192
  174MPD1    C3 2651   2.610   2.208  14.280  0.2975 -0.0524  0.0528
  174MPD1    C4 2652   2.674   2.302  14.206 -1.1603 -0.9590  0.1539
  174MPD1    C5 2653   2.762   2.396  14.261 -0.1270  0.7213  0.1614
  174MPD1     H 2654   2.577   2.134  14.478 -1.2947  1.5756  0.5367
  174MPD1    H1 2655   2.650   2.318  14.101  1.6037 -0.4156 -0.4220
  174MPD1    H2 2656   2.838   2.469  14.440 -0.6035 -0.7419  1.8345
  174MPD1    H3 2657   2.814   2.472  14.204  1.5682  0.5949  1.5300
  174MPD1     N 2658   2.500   2.141  14.218 -0.1040 -0.6190 -0.1393
  174MPD1    H5 2659   2.480   2.176  14.125  1.2033 -3.3818 -1.4380
  174MPD1    N1 2660   2.737   2.299  14.614 -0.2718  0.1807  0.4128
  174MPD1    H6 2661   2.736   2.208  14.659 -2.1090  0.3863  0.7646
  174MPD1    H7 2662   2.821   2.351  14.640  0.3964 -0.2109 -0.9482
  175MPD1     C 2663   0.929   3.532  15.385  0.6073  0.8753 -0.7149
  175MPD1    C1 2664   1.038   3.483  15.447 -0.3786  0.1732 -0.3262
  175MPD1    C2 2665   1.028   3.457  15.584 -0.5065  0.1099 -0.1547
  175MPD1    C3 2666   0.912   3.476  15.655  0.0452  0.6652 -0.4769
  175MPD1    C4 2667   0.798   3.497  15.587  0.4018 -0.0996  0.2760
  175MPD1    C5 2668   0.811   3.524  15.453  0.0106  0.3476 -0.3668
  175MPD1     H 2669   1.115   3.415  15.635 -1.1495 -1.4195 -0.3038
  175MPD1    H1 2670   0.703   3.496  15.640  1.3045 -0.0878  1.8984
  175MPD1    H2 2671   0.926   3.567  15.282  1.2358 -0.0859 -1.0564
  175MPD1    H3 2672   0.719   3.549  15.401 -0.3753  0.6969  0.4890
  175MPD1     N 2673   0.898   3.458  15.791 -0.8370 -0.1712 -0.3471
  175MPD1    H5 2674   0.803   3.477  15.818 -1.0204 -1.5760 -0.0113
  175MPD1    N1 2675   1.154   3.439  15.374  0.2043  0.2852 -0.1729
  175MPD1    H6 2676   1.173   3.466  15.278  0.6367  2.4638  0.5237
  175MPD1    H7 2677   1.226   3.382  15.418 -2.8180 -1.1453  2.9484
  176MPD1     C 2678   2.834   0.551  16.465  0.3221 -0.4219  0.0234
  176MPD1    C1 2679   2.872   0.675  16.525  0.6378 -0.0492  0.6892
  176MPD1    C2 2680   2.827   0.698  16.656 -0.5978 -0.2773  0.2507
  176MPD1    C3 2681   2.742   0.615  16.722 -0.8686  0.2293 -0.4145
  176MPD1    C4 2682   2.704   0.497  16.660  0.8904  0.1586 -0.6629
  176MPD1    C5 2683   2.748   0.471  16.534 -0.1565 -0.2251 -0.4421
  176MPD1     H 2684   2.873   0.782  16.707 -2.4404 -0.4848  2.2259
  176MPD1    H1 2685   2.629   0.431  16.701  4.3525 -2.3660  1.5600
  176MPD1    H2 2686   2.874   0.514  16.372 -3.5431 -1.8348 -1.0619
  176MPD1    H3 2687   2.724   0.374  16.491  0.2557 -0.6734  0.3451
  176MPD1     N 2688   2.692   0.666  16.844 -0.3989  0.2902  0.0118
  176MPD1    H5 2689   2.735   0.752  16.877 -0.9944  0.7495 -0.4124
  176MPD1    N1 2690   2.971   0.754  16.460 -0.2655 -0.4240 -0.2263
  176MPD1    H6 2691   2.967   0.747  16.359 -0.4956  0.0336 -0.2495
  176MPD1    H7 2692   2.970   0.852  16.488  0.3413 -1.3558  3.0847
  177MPD1     C 2693   0.898   0.863   9.816 -0.2034 -0.9561 -0.9332
  177MPD1    C1 2694   0.799   0.780   9.768  0.2401 -0.1748  0.2272
  177MPD1    C2 2695   0.731   0.817   9.659 -0.3396 -0.0909 -0.5477
  177MPD1    C3 2696   0.748   0.941   9.593  0.2088  0.5443 -0.0398
  177MPD1    C4 2697   0.839   1.029   9.652 -0.1724 -0.0564  0.1924
  177MPD1    C5 2698   0.915   0.987   9.761 -0.7157  0.2269 -0.1306
  177MPD1     H 2699   0.658   0.748   9.618 -0.0955 -0.6700  0.0083
  177MPD1    H1 2700   0.874   1.125   9.615  0.6729  0.0186  1.1696
  177MPD1    H2 2701   0.972   0.835   9.890  0.2538  0.2196 -0.9544
  177MPD1    H3 2702   0.992   1.048   9.807 -0.3807 -1.5080  1.6392
  177MPD1     N 2703   0.677   0.959   9.471 -0.4194 -0.0205 -0.0945
  177MPD1    H5 2704   0.630   0.882   9.424 -0.2347 -0.7513  0.9218
  177MPD1    N1 2705   0.792   0.646   9.814  0.1417 -0.0243  0.5314
  177MPD1    H6 2706   0.695   0.619   9.800 -0.4875  1.8523  1.2504
  177MPD1    H7 2707   0.813   0.628   9.912 -0.9044  0.3763  0.8301
  178MPD1     C 2708   3.353   1.805   0.649  0.1312  0.0751 -0.2383
  178MPD1    C1 2709   3.274   1.689   0.653 -0.0201  0.1325  0.0408
  178MPD1    C2 2710   3.262   1.625   0.531 -0.2413  0.4844 -0.2665
  178MPD1    C3 2711   3.338   1.648   0.422  0.2392 -0.8025 -0.0470
  178MPD1    C4 2712   3.422   1.754   0.421  0.1986 -1.0556 -0.1848
  178MPD1    C5 2713   3.424   1.837   0.533  0.0456 -0.2462  0.3276
  178MPD1     H 2714   3.185   1.549   0.535  0.1957  0.0438 -0.1973
  178MPD1    H1 2715   3.481   1.781   0.334  0.2723  0.1914  0.2655
  178MPD1    H2 2716   3.359   1.864   0.740 -1.2749  1.2274 -0.8881
  178MPD1    H3 2717   3.492   1.921   0.536 -0.4779  0.1884  0.1705
  178MPD1     N 2718   3.319   1.585   0.295 -0.5470  0.3633  0.2002
  178MPD1    H5 2719   3.388   1.607   0.224 -4.4211  1.0383 -3.3908
  178MPD1    N1 2720   3.186   1.676   0.764 -0.2347 -0.3282  0.1780
  178MPD1    H6 2721   3.230   1.695   0.854 -1.7705  0.2667  0.7898
  178MPD1    H7 2722   3.149   1.581   0.765  0.3089 -0.5263  0.9746
  179MPD1     C 2723   3.561   4.299  15.291  0.3054  0.3221  0.2400
  179MPD1    C1 2724   3.594   4.200  15.377  0.6071  0.2467 -0.0402
  179MPD1    C2 2725   3.507   4.156  15.476 -0.0525 -0.1605  0.6284
  179MPD1    C3 2726   3.386   4.224  15.488  0.4106  0.1520  0.0264
  179MPD1    C4 2727   3.357   4.334  15.407 -0.3714  0.2711 -0.1854
  179MPD1    C5 2728   3.445   4.371  15.308  0.0094 -0.1995  0.2957
  179MPD1     H 2729   3.540   4.083  15.548  0.6187 -1.0969 -0.6493
  179MPD1    H1 2730   3.261   4.382  15.424 -0.2396 -0.3687  2.4826
  179MPD1    H2 2731   3.614   4.330  15.202 -0.0181 -0.0975 -0.0974
  179MPD1    H3 2732   3.399   4.438  15.237 -1.3231 -2.8998 -1.3948
  179MPD1     N 2733   3.282   4.181  15.581 -0.4111 -0.7944  0.0559
  179MPD1    H5 2734   3.201   4.240  15.593 -0.0779 -0.0756 -1.1810
  179MPD1    N1 2735   3.713   4.125  15.354  0.5018 -0.1467 -0.6190
  179MPD1    H6 2736   3.744   4.082  15.441 -1.3740 -0.1629  0.0321
  179MPD1    H7 2737   3.781   4.191  15.318 -1.3140  1.7126 -0.6622
  180MPD1     C 2738   3.459   1.409  14.880  0.0244  0.1997 -0.5300
  180MPD1    C1 2739   3.463   1.387  14.743  0.8818  0.6615 -0.2330
  180MPD1    C2 2740   3.340   1.379  14.679  0.1265  0.2040 -0.8731
  180MPD1    C3 2741   3.220   1.370  14.751  0.0863 -0.0526 -0.1200
  180MPD1    C4 2742   3.223   1.386  14.887 -0.2291 -0.4456 -0.3413
  180MPD1    C5 2743   3.340   1.412  14.954  0.4147 -0.6443  0.0636
  180MPD1     H 2744   3.340   1.351  14.574  0.2057  0.4503 -0.9394
  180MPD1    H1 2745   3.140   1.371  14.955  1.5825  1.9362  2.3908
  180MPD1    H2 2746   3.549   1.391  14.937 -1.3991 -0.9656  1.3092
  180MPD1    H3 2747   3.336   1.422  15.062 -3.1325  0.6167 -0.2052
  180MPD1     N 2748   3.106   1.338  14.675  0.0776  0.1308  0.3519
  180MPD1    H5 2749   3.122   1.346  14.575 -1.6703 -0.9352 -0.0130
  180MPD1    N1 2750   3.580   1.335  14.691 -0.1454 -0.2110 -0.3773
  180MPD1    H6 2751   3.563   1.355  14.592  1.9219 -0.1456 -0.7291
  180MPD1    H7 2752   3.657   1.384  14.736  0.0770 -0.8595 -0.0617
  181MPD1     C 2753   4.605   2.343  10.441  0.3590  0.1460 -0.5793
  181MPD1    C1 2754   4.658   2.448  10.512 -0.1151 -0.3035  0.6710
  181MPD1    C2 2755   0.024   2.526  10.444  0.0518  0.8191 -0.1842
  181MPD1    C3 2756   0.049   2.513  10.308 -0.8851 -0.1169 -0.0918
  181MPD1    C4 2757   4.717   2.402  10.248  0.6816  0.1522  0.3492
  181MPD1    C5 2758   4.638   2.321  10.306 -0.1141  0.8665 -0.4835
  181MPD1     H 2759   0.080   2.599  10.502 -0.0158  1.2676 -0.6880
  181MPD1    H1 2760   0.022   2.384  10.145 -1.3540 -0.0035 -0.1697
  181MPD1    H2 2761   4.523   2.284  10.481  0.2453 -0.0107 -1.0326
  181MPD1    H3 2762   4.590   2.250  10.240  0.3463  1.2353 -1.2206
  181MPD1     N 2763   0.138   2.590  10.230  0.3848 -0.0340  0.2266
  181MPD1    H5 2764   0.143   2.566  10.132 -1.0814 -2.7126  0.7911
  181MPD1    N1 2765   4.665   2.446  10.649 -0.3361  0.3104  0.2707
  181MPD1    H6 2766   4.683   2.536  10.692  0.6018 -0.1282  0.8019
  181MPD1    H7 2767   4.573   2.414  10.680 -1.1470 -0.1132 -2.5244
  182MPD1     C 2768   1.362   1.880   1.591  0.6332 -0.1064  0.4799
  182MPD1    C1 2769   1.379   1.931   1.465  0.5265 -0.0306  0.0868
  182MPD1    C2 2770   1.260   1.976   1.403 -0.0218  0.5813  0.3244
  182MPD1    C3 2771   1.140   1.994   1.471  0.4476 -0.4697  0.2953
  182MPD1    C4 2772   1.134   1.943   1.599  0.3231  0.2321  0.5343
  182MPD1    C5 2773   1.243   1.886   1.656 -0.2039 -0.2220 -0.7459
  182MPD1     H 2774   1.261   2.003   1.299 -0.9256  0.5324  0.3063
  182MPD1    H1 2775   1.038   1.941   1.649 -0.7420 -1.3172 -1.5793
  182MPD1    H2 2776   1.444   1.823   1.633 -0.3915 -1.1215  1.1236
  182MPD1    H3 2777   1.238   1.825   1.745 -0.2032  0.0554 -0.5543
  182MPD1     N 2778   1.029   2.067   1.429 -0.0926 -0.2670  0.0666
  182MPD1    H5 2779   0.955   2.084   1.496  1.5717 -0.9898  2.0805
  182MPD1    N1 2780   1.500   1.897   1.404 -0.5263  0.2241  0.0306
  182MPD1    H6 2781   1.529   1.954   1.325  0.5319  0.0776  0.3121
  182MPD1    H7 2782   1.585   1.907   1.459 -0.7394  1.3560  0.1478
  183MPD1     C 2783   1.786   2.658   8.965  0.3492 -0.4046 -0.2145
  183MPD1    C1 2784   1.743   2.558   9.052 -0.2774  0.0444  0.3460
  183MPD1    C2 2785   1.614   2.574   9.097 -0.4739  0.2329  0.1641
  183MPD1    C3 2786   1.521   2.664   9.045  0.3952 -0.4414  0.4753
  183MPD1    C4 2787   1.559   2.753   8.949 -0.9155  0.7118 -0.5139
  183MPD1    C5 2788   1.692   2.743   8.911  0.8280 -0.3538 -0.6371
  183MPD1     H 2789   1.568   2.513   9.173 -2.1204  1.7669  0.4014
  183MPD1    H1 2790   1.492   2.821   8.899 -0.8304  0.5828 -0.8088
  183MPD1    H2 2791   1.882   2.665   8.915 -0.5222  0.8141 -1.7352
  183MPD1    H3 2792   1.718   2.812   8.831  0.0224 -0.5812 -1.0897
  183MPD1     N 2793   1.390   2.660   9.102 -0.2761 -0.1378  0.0820
  183MPD1    H5 2794   1.380   2.584   9.168  0.0161  0.9100  1.3299
  183MPD1    N1 2795   1.844   2.473   9.115 -0.0053  0.0813 -1.1303
  183MPD1    H6 2796   1.811   2.381   9.146  1.0509 -0.0505 -0.3946
  183MPD1    H7 2797   1.918   2.458   9.046  1.3857  0.2307  0.3367
  184MPD1     C 2798   4.379   4.583   9.939 -0.4539  0.3463  0.4516
  184MPD1    C1 2799   4.502   4.594   9.992  0.2343 -0.2962  0.2941
  184MPD1    C2 2800   4.591   4.684   9.928 -0.0218 -0.1127  1.0270
  184MPD1    C3 2801   4.556   0.017   9.808 -0.2311 -0.4599 -0.1737
  184MPD1    C4 2802   4.438   4.710   9.747  0.0128  0.3968 -0.4972
  184MPD1    C5 2803   4.349   4.629   9.812 -0.1071  0.7443  0.0974
  184MPD1     H 2804   4.689   4.716   9.959  0.5862 -0.3609 -0.6385
  184MPD1    H1 2805   4.413   0.029   9.650  0.7176 -0.9060 -1.2442
  184MPD1    H2 2806   4.304   4.521   9.986  2.4264 -2.4560  1.3614
  184MPD1    H3 2807   4.257   4.602   9.761  0.4608  1.2117 -1.1650
  184MPD1     N 2808   4.643   0.099   9.733 -0.2669 -0.0521  0.1809
  184MPD1    H5 2809   4.611   0.115   9.638 -0.1460  0.7489  0.2739
  184MPD1    N1 2810   4.534   4.540  10.122  0.2742  0.4245  0.3582
  184MPD1    H6 2811   4.500   4.445  10.135 -1.6796  1.1584  0.6850
  184MPD1    H7 2812   4.635   4.543  10.131  0.0321  1.4144  2.6752
  185MPD1     C 2813   4.650   0.049   8.873 -0.5054  0.5052  0.1957
  185MPD1    C1 2814   4.706   0.169   8.899  0.0565 -0.8101  0.3402
  185MPD1    C2 2815   0.023   0.202   9.028 -0.8635  0.5309 -0.3187
  185MPD1    C3 2816   4.722   0.121   9.138 -0.1259 -0.2436  0.0734
  185MPD1    C4 2817   4.667   4.717   9.111 -0.2008 -0.0836 -0.0801
  185MPD1    C5 2818   4.630   4.695   8.983  0.3701  0.1477  0.7341
  185MPD1     H 2819   0.085   0.292   9.031  0.6664 -0.4661 -2.0073
  185MPD1    H1 2820   4.656   4.639   9.186 -1.0146  0.4735  0.3792
  185MPD1    H2 2821   4.630   0.012   8.773 -1.5268  1.9193 -0.1172
  185MPD1    H3 2822   4.577   4.603   8.962  0.5515  0.8132 -2.6930
  185MPD1     N 2823   0.043   0.150   9.269  0.4553 -0.1650 -0.4986
  185MPD1    H5 2824   0.021   0.074   9.332 -1.3714  0.3687 -0.4973
  185MPD1    N1 2825   0.036   0.250   8.799 -0.3420  0.0924  0.5944
  185MPD1    H6 2826   4.704   0.233   8.714 -1.5056  0.9478  1.1749
  185MPD1    H7 2827   0.022   0.347   8.826 -2.2822 -0.1171  0.3508
  186MPD1     C 2828   3.500   4.155  15.951  0.2978 -0.1811  0.2435
  186MPD1    C1 2829   3.533   4.128  16.082  0.6025  0.3791 -0.1378
  186MPD1    C2 2830   3.499   4.219  16.181 -0.2491  0.5347 -0.8268
  186MPD1    C3 2831   3.411   4.321  16.159  0.4312 -0.1906 -0.0105
  186MPD1    C4 2832   3.364   4.337  16.026  0.1063 -0.6980 -0.2155
  186MPD1    C5 2833   3.410   4.255  15.929 -0.1964 -0.2625  0.0832
  186MPD1     H 2834   3.529   4.204  16.285 -0.0217  0.6523 -0.8748
  186MPD1    H1 2835   3.274   4.397  16.013 -0.0625 -0.4920  1.9844
  186MPD1    H2 2836   3.524   4.091  15.868  1.7442 -0.1246  0.6102
  186MPD1    H3 2837   3.372   4.260  15.828 -0.6399 -1.4388  0.1843
  186MPD1     N 2838   3.353   4.405  16.260  0.1570 -0.8250 -0.5619
  186MPD1    H5 2839   3.288   4.473  16.223  0.6711 -0.2385 -0.3925
  186MPD1    N1 2840   3.631   4.038  16.111 -0.6710 -0.0369 -0.0241
  186MPD1    H6 2841   3.632   3.963  16.043 -1.3688 -0.9986  1.0412
  186MPD1    H7 2842   3.642   4.004  16.206  1.3216 -0.1901 -0.3093
  187MPD1     C 2843   2.777   1.133   0.320 -0.7142  0.8571 -0.5960
  187MPD1    C1 2844   2.637   1.129   0.309  0.0852 -0.1196 -0.2070
  187MPD1    C2 2845   2.567   1.194   0.210  0.5740 -0.7020 -0.2640
  187MPD1    C3 2846   2.632   1.288   0.129  0.5146 -0.1771  0.6972
  187MPD1    C4 2847   2.769   1.307   0.150  0.2799  0.4792 -0.0984
  187MPD1    C5 2848   2.837   1.223   0.235  0.6729  0.2053  0.5981
  187MPD1     H 2849   2.459   1.186   0.210  0.4205  1.3047  1.5530
  187MPD1    H1 2850   2.829   1.381   0.099  0.9906 -0.0805 -0.0718
  187MPD1    H2 2851   2.833   1.073   0.392 -0.8473 -0.4026 -1.5428
  187MPD1    H3 2852   2.942   1.244   0.249  0.7407 -2.0057  3.5609
  187MPD1     N 2853   2.570   1.388   0.050  0.4421 -0.5039  0.2027
  187MPD1    H5 2854   2.626   1.467   0.020  0.4653  0.1398  1.9617
  187MPD1    N1 2855   2.573   1.040   0.389  0.3481  0.5529 -0.3043
  187MPD1    H6 2856   2.622   1.017   0.475 -0.9662 -0.2964  0.2144
  187MPD1    H7 2857   2.476   1.063   0.409  0.4764 -0.2417  1.2252
  188MPD1     C 2858   2.006   1.888   9.994  0.5368 -0.2219 -0.2874
  188MPD1    C1 2859   2.044   1.810  10.101 -0.3541 -0.0381  0.2925
  188MPD1    C2 2860   2.101   1.694  10.080  0.1946  0.4100 -0.6643
  188MPD1    C3 2861   2.093   1.633   9.956 -0.0417 -0.0934  0.4031
  188MPD1    C4 2862   2.046   1.703   9.842 -0.0547  0.7327 -0.5912
  188MPD1    C5 2863   1.991   1.829   9.869 -0.6124  0.3944 -0.0491
  188MPD1     H 2864   2.148   1.641  10.163  0.3779  0.7337 -0.5600
  188MPD1    H1 2865   2.032   1.657   9.745 -1.9838 -0.6273  0.3280
  188MPD1    H2 2866   1.957   1.984  10.003  1.0552 -0.1253  1.6066
  188MPD1    H3 2867   1.962   1.887   9.783 -1.4012 -0.0413 -0.0679
  188MPD1     N 2868   2.131   1.497   9.943  0.4412  0.5322  0.5726
  188MPD1    H5 2869   2.115   1.465   9.847  0.6453 -1.5041  1.2064
  188MPD1    N1 2870   2.057   1.867  10.228 -0.2176  0.2920  0.4587
  188MPD1    H6 2871   1.989   1.942  10.220  1.7191  1.9396 -0.5656
  188MPD1    H7 2872   2.040   1.805  10.307  0.9826  2.0589  2.0964
  189MPD1     C 2873   4.085   2.285   0.864  0.0199  0.3391  0.1025
  189MPD1    C1 2874   3.962   2.225   0.853  0.1922 -0.1097 -0.3619
  189MPD1    C2 2875   3.876   2.256   0.753 -0.5794 -0.2265  0.0213
  189MPD1    C3 2876   3.891   2.377   0.698 -0.4664  0.3960  0.2521
  189MPD1    C4 2877   4.005   2.453   0.716 -0.1762  0.1925  0.3811
  189MPD1    C5 2878   4.102   2.402   0.794  0.0656 -0.0145 -0.1904
  189MPD1     H 2879   3.782   2.201   0.740 -0.7795 -0.0823  0.8406
  189MPD1    H1 2880   4.027   2.538   0.652  0.8269 -0.0716  0.3817
  189MPD1    H2 2881   4.163   2.247   0.929  0.9908 -1.1013 -1.9049
  189MPD1    H3 2882   4.194   2.459   0.797  0.6228 -0.9782  1.0641
  189MPD1     N 2883   3.794   2.416   0.606 -0.0631 -0.7852  0.2008
  189MPD1    H5 2884   3.735   2.345   0.564  0.6398 -1.5716  0.5513
  189MPD1    N1 2885   3.943   2.099   0.906 -0.3364  0.2353  0.6857
  189MPD1    H6 2886   3.988   2.092   0.997 -0.8653  1.0558  1.0055
  189MPD1    H7 2887   3.844   2.079   0.925 -0.1609 -3.3769 -2.0828
  190MPD1     C 2888   2.660   1.440  15.502 -0.2975  0.5452 -0.1593
  190MPD1    C1 2889   2.671   1.397  15.630 -0.5163  0.2039 -0.2661
  190MPD1    C2 2890   2.788   1.333  15.663  0.2152 -0.3070  0.5708
  190MPD1    C3 2891   2.888   1.311  15.570  0.8386  0.1068 -0.2079
  190MPD1    C4 2892   2.874   1.359  15.441  0.2781 -0.2179  0.0950
  190MPD1    C5 2893   2.760   1.429  15.414 -0.4673  0.6068 -0.4503
  190MPD1     H 2894   2.799   1.292  15.763  0.9145 -0.8921  0.2498
  190MPD1    H1 2895   2.937   1.334  15.357  0.4031 -0.0877  0.1512
  190MPD1    H2 2896   2.570   1.491  15.470 -0.7603 -0.8727 -1.1047
  190MPD1    H3 2897   2.742   1.451  15.309 -0.3346  1.2508 -0.3399
  190MPD1     N 2898   2.995   1.231  15.615 -0.2960 -0.1744  0.6989
  190MPD1    H5 2899   2.985   1.192  15.709 -1.2392  0.7544  0.9879
  190MPD1    N1 2900   2.562   1.405  15.724 -0.7313  0.4479  0.3610
  190MPD1    H6 2901   2.488   1.471  15.701 -0.2019  0.4388 -1.2964
  190MPD1    H7 2902   2.591   1.415  15.821 -0.7478 -1.6500  0.5844
  191MPD1     C 2903   2.270   2.492  12.668  0.0537  0.4362  0.1881
  191MPD1    C1 2904   2.243   2.439  12.543  0.0111 -0.8440  0.2283
  191MPD1    C2 2905   2.313   2.493  12.437  0.2051 -0.8286  0.0059
  191MPD1    C3 2906   2.386   2.610  12.446 -0.3262 -0.3375  0.1843
  191MPD1    C4 2907   2.410   2.671  12.573 -0.3225  0.2515  0.0146
  191MPD1    C5 2908   2.354   2.604  12.682 -0.7883 -0.0708  0.1531
  191MPD1     H 2909   2.301   2.454  12.337 -3.2811 -0.8362  0.4451
  191MPD1    H1 2910   2.463   2.764  12.589 -0.3029  0.8678 -3.5106
  191MPD1    H2 2911   2.222   2.451  12.756 -0.9548  1.2852  0.0362
  191MPD1    H3 2912   2.366   2.645  12.782 -0.6401 -0.6196  0.3613
  191MPD1     N 2913   2.433   2.662  12.323  0.8352 -0.9132 -0.0511
  191MPD1    H5 2914   2.381   2.632  12.241 -0.0831 -1.7645  0.8481
  191MPD1    N1 2915   2.183   2.316  12.514 -0.8763 -0.2117 -0.0184
  191MPD1    H6 2916   2.115   2.293  12.587 -0.4907  2.2988  1.1246
  191MPD1    H7 2917   2.129   2.313  12.428  3.1146 -1.1971 -2.4962
  192MPD1     C 2918   2.143   2.478  11.587  0.3496  0.9299 -0.0800
  192MPD1    C1 2919   2.244   2.563  11.539 -0.6429 -0.3440  0.3112
  192MPD1    C2 2920   2.323   2.617  11.634 -0.0374  0.2513 -0.0798
  192MPD1    C3 2921   2.314   2.587  11.768 -0.2863  0.3120  0.1468
  192MPD1    C4 2922   2.219   2.490  11.806  0.6712 -0.2718  0.6861
  192MPD1    C5 2923   2.125   2.451  11.714  0.3023 -0.2065  0.2591
  192MPD1     H 2924   2.403   2.683  11.600 -0.4541  1.1288  0.6382
  192MPD1    H1 2925   2.204   2.460  11.909  1.5550 -1.2875  0.5165
  192MPD1    H2 2926   2.071   2.436  11.518  1.7462 -1.2665 -0.1772
  192MPD1    H3 2927   2.049   2.379  11.743 -0.1961 -0.2612 -1.2084
  192MPD1     N 2928   2.400   2.649  11.867 -0.0617  0.2378 -0.3933
  192MPD1    H5 2929   2.393   2.616  11.962  0.0160 -2.4434 -1.3025
  192MPD1    N1 2930   2.280   2.559  11.400  0.0882  0.1868 -0.3482
  192MPD1    H6 2931   2.206   2.537  11.334 -0.1019 -2.2900  0.6858
  192MPD1    H7 2932   2.333   2.640  11.369 -0.5290  0.7068 -0.0432
  193MPD1     C 2933   2.260   2.427  16.834  0.0703  0.1449 -0.3282
  193MPD1    C1 2934   2.176   2.540  16.852  0.2494 -0.0550  0.1112
  193MPD1    C2 2935   2.235   2.659  16.875 -0.1263  0.0844 -0.3953
  193MPD1    C3 2936   2.369   2.677  16.865  0.0348 -0.8602  0.0159
  193MPD1    C4 2937   2.450   2.572  16.839 -0.1313 -0.0608  1.0875
  193MPD1    C5 2938   2.400   2.446  16.820  0.3010 -0.0811  0.1760
  193MPD1     H 2939   2.173   2.746  16.894 -0.5300 -0.0416 -1.1714
  193MPD1    H1 2940   2.558   2.584  16.841  0.0382 -0.5269 -3.8582
  193MPD1    H2 2941   2.213   2.330  16.823  0.5594 -0.0226 -0.9989
  193MPD1    H3 2942   2.468   2.363  16.813  0.4191  0.1231 -1.0183
  193MPD1     N 2943   2.429   2.807  16.868  0.3327 -0.6169 -0.1387
  193MPD1    H5 2944   2.530   2.808  16.854  0.5879  0.9631  1.9281
  193MPD1    N1 2945   2.041   2.515  16.890  0.1625 -0.3326  0.4518
  193MPD1    H6 2946   1.977   2.593  16.876 -2.1051 -2.3989 -0.5259
  193MPD1    H7 2947   2.011   2.450  16.819  1.2165  0.0048 -0.3047
  194MPD1     C 2948   0.296   0.683  16.711  0.2605  0.7134  0.2089
  194MPD1    C1 2949   0.241   0.569  16.648  0.1751  0.0487 -0.5531
  194MPD1    C2 2950   0.227   0.447  16.717  0.4214 -1.0217  0.0671
  194MPD1    C3 2951   0.255   0.442  16.851  0.3359  0.0745  0.2050
  194MPD1    C4 2952   0.311   0.545  16.916  0.5490 -0.3719 -0.1291
  194MPD1    C5 2953   0.335   0.662  16.841  0.8723  0.4526 -0.2029
  194MPD1     H 2954   0.193   0.356  16.669 -0.8934 -1.1395  1.2295
  194MPD1    H1 2955   0.353   0.543  17.016 -1.8039 -0.5599  0.8548
  194MPD1    H2 2956   0.323   0.783  16.680  0.5632  0.8218  0.8254
  194MPD1    H3 2957   0.382   0.749  16.885  0.7815  1.1544 -1.5063
  194MPD1     N 2958   0.227   0.327  16.925  0.0825 -0.2083  0.2173
  194MPD1    H5 2959   0.259   0.327  17.021  0.5112  0.0183  0.0688
  194MPD1    N1 2960   0.214   0.579  16.514  0.5311  0.1651  0.3683
  194MPD1    H6 2961   0.175   0.669  16.484  0.9461  0.7155  1.4981
  194MPD1    H7 2962   0.164   0.498  16.479  0.7456 -0.2313  0.9825
  195MPD1     C 2963   2.269   1.560   0.995 -0.1470  0.3809  0.3372
  195MPD1    C1 2964   2.324   1.436   1.000  0.3429  0.3810 -0.2096
  195MPD1    C2 2965   2.289   1.348   0.901 -0.3113  0.3185  0.2016
  195MPD1    C3 2966   2.210   1.392   0.793 -0.0070  0.5572  0.3753
  195MPD1    C4 2967   2.171   1.524   0.784  0.5769 -0.2236 -0.1426
  195MPD1    C5 2968   2.204   1.605   0.887  0.4951  0.2663  0.2897
  195MPD1     H 2969   2.315   1.244   0.919  1.1927  0.1875 -2.7624
  195MPD1    H1 2970   2.113   1.555   0.698  3.5299  2.7809 -1.0416
  195MPD1    H2 2971   2.288   1.634   1.072  0.6519  0.5660 -0.0372
  195MPD1    H3 2972   2.149   1.698   0.892 -1.1148 -0.7727  1.6805
  195MPD1     N 2973   2.178   1.308   0.677  0.1270  1.0398 -0.0848
  195MPD1    H5 2974   2.113   1.340   0.606  0.6865  0.7263 -0.7347
  195MPD1    N1 2975   2.397   1.394   1.113 -0.0444  0.0715  0.9217
  195MPD1    H6 2976   2.457   1.471   1.141 -0.1916  0.0932  1.1795
  195MPD1    H7 2977   2.463   1.318   1.095  1.5713  1.9435 -1.0218
  196MPD1     C 2978   1.931   0.931   0.770 -0.1266 -0.1038  0.1167
  196MPD1    C1 2979   1.845   1.034   0.779  0.5830  0.0614  0.3661
  196MPD1    C2 2980   1.861   1.130   0.878 -0.1660 -0.0401 -0.5393
  196MPD1    C3 2981   1.976   1.131   0.954  0.3226  0.3931  0.5983
  196MPD1    C4 2982   2.061   1.029   0.938 -0.4704 -0.5552 -0.3210
  196MPD1    C5 2983   2.046   0.928   0.846 -0.2186 -0.2160  0.2412
  196MPD1     H 2984   1.789   1.210   0.889 -0.0341  0.2338 -1.6784
  196MPD1    H1 2985   2.158   1.025   0.987  0.0083 -1.6058 -1.3684
  196MPD1    H2 2986   1.925   0.861   0.688  1.1854  0.6643 -0.6218
  196MPD1    H3 2987   2.111   0.841   0.851 -1.8664 -1.4720 -0.4127
  196MPD1     N 2988   2.011   1.228   1.052 -0.0009  0.3308 -0.2011
  196MPD1    H5 2989   2.103   1.214   1.093 -0.1808 -0.6825 -0.1393
  196MPD1    N1 2990   1.730   1.033   0.697 -0.0175 -0.1267  0.5836
  196MPD1    H6 2991   1.744   0.999   0.602  2.2051 -0.8642  1.1677
  196MPD1    H7 2992   1.675   1.118   0.704 -1.8753 -1.3100  0.4449
  197MPD1     C 2993   1.593   4.096   0.029 -0.4335 -0.4430  0.2183
  197MPD1    C1 2994   1.504   4.203   0.042 -0.7581 -0.1495 -0.1174
  197MPD1    C2 2995   1.426   4.238  17.628  0.1375 -0.1406  0.3006
  197MPD1    C3 2996   1.421   4.156  17.517  0.0718 -0.0361 -0.3825
  197MPD1    C4 2997   1.513   4.056  17.505 -0.1034  0.4916 -0.2380
  197MPD1    C5 2998   1.598   4.026  17.606  0.0774 -0.3731  0.3166
  197MPD1     H 2999   1.360   4.324  17.633 -1.1017 -1.0271 -0.8691
  197MPD1    H1 3000   1.510   3.995  17.415 -2.6134 -0.8637  0.7341
  197MPD1    H2 3001   1.663   4.080   0.110  0.1827 -1.2051 -0.4555
  197MPD1    H3 3002   1.671   3.945  17.600  1.8344  1.3596 -2.0436
  197MPD1     N 3003   1.329   4.166  17.410 -0.2717 -0.5485 -0.4454
  197MPD1    H5 3004   1.333   4.096  17.337 -1.6050 -1.6151  0.5277
  197MPD1    N1 3005   1.517   4.297   0.150  0.4254 -0.1648  0.2429
  197MPD1    H6 3006   1.436   4.357   0.162  0.0810 -0.2447 -1.7206
  197MPD1    H7 3007   1.554   4.251   0.234  2.2649  1.4041  0.2913
  198MPD1     C 3008   2.547   2.428  15.805  0.0587  0.0562 -0.3117
  198MPD1    C1 3009   2.613   2.337  15.881  0.1658 -0.2168 -0.1337
  198MPD1    C2 3010   2.748   2.340  15.879 -0.3342 -0.4671  0.1393
  198MPD1    C3 3011   2.822   2.415  15.793  1.0746 -0.4612  0.1846
  198MPD1    C4 3012   2.749   2.498  15.711  0.3352 -0.0688 -0.1572
  198MPD1    C5 3013   2.611   2.504  15.711 -0.0954 -0.1472 -0.2906
  198MPD1     H 3014   2.806   2.276  15.944  0.4026  0.3937  0.3361
  198MPD1    H1 3015   2.794   2.568  15.642  0.2258  1.5235  1.4095
  198MPD1    H2 3016   2.439   2.441  15.816  0.1769  1.3138 -0.6861
  198MPD1    H3 3017   2.560   2.573  15.646 -1.0199 -0.8162 -0.2894
  198MPD1     N 3018   2.965   2.397  15.802 -0.1761  0.2495  0.0047
  198MPD1    H5 3019   3.008   2.330  15.864  1.3841 -1.1659 -2.6052
  198MPD1    N1 3020   2.538   2.287  15.988  0.1938 -0.2754 -0.0654
  198MPD1    H6 3021   2.594   2.211  16.025 -0.9424 -1.8320 -1.5579
  198MPD1    H7 3022   2.444   2.256  15.964  0.9233 -0.5581 -2.5152
  199MPD1     C 3023   1.343   3.408   9.594 -0.1036 -0.5741 -0.0300
  199MPD1    C1 3024   1.272   3.514   9.642 -0.3504 -0.4534 -0.2523
  199MPD1    C2 3025   1.133   3.501   9.666  0.1232  0.2550 -0.3821
  199MPD1    C3 3026   1.065   3.387   9.626 -0.3239 -0.4588  0.1538
  199MPD1    C4 3027   1.133   3.290   9.563 -0.1037 -0.4744  0.3799
  199MPD1    C5 3028   1.275   3.294   9.562 -0.1583 -0.1047 -0.5593
  199MPD1     H 3029   1.082   3.587   9.709 -2.3127 -1.9235  1.0964
  199MPD1    H1 3030   1.079   3.208   9.518  0.7721 -0.7797 -0.1267
  199MPD1    H2 3031   1.451   3.399   9.587 -0.1490 -3.1800  2.5511
  199MPD1    H3 3032   1.322   3.210   9.511  0.6072  0.8719 -1.4618
  199MPD1     N 3033   0.926   3.375   9.630  0.2499 -0.1539  0.2535
  199MPD1    H5 3034   0.891   3.283   9.605  2.0480 -0.6224 -0.5430
  199MPD1    N1 3035   1.341   3.639   9.674  0.5569  0.1458 -0.3972
  199MPD1    H6 3036   1.427   3.657   9.622 -0.4885  1.5485 -1.6362
  199MPD1    H7 3037   1.278   3.719   9.668  0.8190  0.5156  1.5293
  200MPD1     C 3038   2.823   3.453  13.659 -0.2582  0.1937  0.4293
  200MPD1    C1 3039   2.917   3.487  13.565  0.1931 -0.2089 -0.2485
  200MPD1    C2 3040   3.049   3.471  13.600 -0.4850  0.1591  0.6110
  200MPD1    C3 3041   3.097   3.437  13.726 -0.0883  0.0073  1.1628
  200MPD1    C4 3042   3.002   3.402  13.823 -0.3560  0.2318 -0.4034
  200MPD1    C5 3043   2.870   3.414  13.782 -0.1523 -0.2280  0.1462
  200MPD1     H 3044   3.120   3.483  13.519 -0.6586  0.5185  0.5112
  200MPD1    H1 3045   3.018   3.368  13.924 -0.8788  0.6181 -0.1919
  200MPD1    H2 3046   2.715   3.453  13.648 -0.2149 -1.4502  0.0628
  200MPD1    H3 3047   2.794   3.373  13.847  0.6383  0.2632  1.3788
  200MPD1     N 3048   3.235   3.422  13.741 -0.6095  0.0944 -0.8550
  200MPD1    H5 3049   3.288   3.456  13.660 -0.5770 -2.8388 -2.0550
  200MPD1    N1 3050   2.878   3.498  13.434  0.0090  0.1621 -0.2599
  200MPD1    H6 3051   2.939   3.555  13.376  1.5400 -1.0562  0.1465
  200MPD1    H7 3052   2.783   3.532  13.425  0.1005  1.0063  1.9327
  201MPD1     C 3053   1.012   2.676  13.645  0.0023 -0.8533  0.5015
  201MPD1    C1 3054   1.127   2.717  13.592 -0.0250  0.4936 -0.4023
  201MPD1    C2 3055   1.215   2.625  13.541  0.0377  0.2034  0.0334
  201MPD1    C3 3056   1.183   2.493  13.531 -0.3232 -0.5643 -0.1436
  201MPD1    C4 3057   1.052   2.453  13.579 -0.0743 -0.1059 -0.2595
  201MPD1    C5 3058   0.973   2.549  13.642 -0.2376 -0.8352  0.5698
  201MPD1     H 3059   1.318   2.649  13.516  0.7063 -1.5210  1.0772
  201MPD1    H1 3060   1.008   2.354  13.572 -0.2553 -0.0628  0.2856
  201MPD1    H2 3061   0.939   2.745  13.686  0.4411  0.5085 -1.0314
  201MPD1    H3 3062   0.874   2.533  13.683  0.4656  0.4663  2.8008
  201MPD1     N 3063   1.268   2.404  13.463  0.5007 -0.4649  0.4198
  201MPD1    H5 3064   1.354   2.447  13.431  1.6715 -2.9191  0.2855
  201MPD1    N1 3065   1.172   2.847  13.621 -0.1849 -0.2611 -0.0881
  201MPD1    H6 3066   1.094   2.912  13.631  0.6156  0.5861  0.4890
  201MPD1    H7 3067   1.219   2.888  13.541  0.2077  1.5122  1.0695
  202MPD1     C 3068   1.152   1.636   8.903  0.1996 -0.0209  0.6067
  202MPD1    C1 3069   1.129   1.532   8.995 -0.1367 -0.6475 -0.1432
  202MPD1    C2 3070   1.176   1.556   9.124 -0.1668 -0.0560 -0.0150
  202MPD1    C3 3071   1.260   1.661   9.153  0.0664 -0.2249 -0.4585
  202MPD1    C4 3072   1.291   1.756   9.059  0.0493 -0.7421  0.5358
  202MPD1    C5 3073   1.231   1.746   8.940  0.1627 -0.4695  0.1284
  202MPD1     H 3074   1.158   1.478   9.196 -0.4642  1.5503  1.6422
  202MPD1    H1 3075   1.338   1.851   9.085  0.9891 -1.3160  0.9524
  202MPD1    H2 3076   1.100   1.632   8.808  2.0411 -1.3688 -0.3383
  202MPD1    H3 3077   1.241   1.827   8.868  0.0142 -2.5368 -2.2051
  202MPD1     N 3078   1.315   1.680   9.279 -0.2268 -0.7566  0.0175
  202MPD1    H5 3079   1.352   1.773   9.298 -0.7056 -0.4490 -0.5334
  202MPD1    N1 3080   1.019   1.454   8.980  0.8378 -0.0048 -0.3290
  202MPD1    H6 3081   1.001   1.425   8.884  1.5847  0.2344 -0.5470
  202MPD1    H7 3082   1.030   1.371   9.038 -2.8053 -0.6458 -0.5957
  203MPD1     C 3083   0.592   3.113  12.741 -0.2541  0.0863  0.1919
  203MPD1    C1 3084   0.511   3.057  12.646 -0.4479  0.2999 -0.5117
  203MPD1    C2 3085   0.532   2.917  12.630  0.4785 -0.2178  0.2488
  203MPD1    C3 3086   0.647   2.848  12.681  0.5388 -0.2538  0.0828
  203MPD1    C4 3087   0.708   2.902  12.783 -0.7865  0.2934 -0.4062
  203MPD1    C5 3088   0.684   3.035  12.820 -0.0449  0.0326 -0.2318
  203MPD1     H 3089   0.465   2.863  12.565 -1.8965  1.1403  1.5857
  203MPD1    H1 3090   0.777   2.853  12.850  0.4067  0.0910 -1.7778
  203MPD1    H2 3091   0.586   3.219  12.764  0.9326  0.0913  0.4590
  203MPD1    H3 3092   0.744   3.082  12.897  1.5944  0.1841 -1.5972
  203MPD1     N 3093   0.653   2.714  12.640  0.0077 -0.3112 -0.0858
  203MPD1    H5 3094   0.595   2.676  12.566  1.0654 -1.6533 -0.2132
  203MPD1    N1 3095   0.408   3.131  12.588 -0.0333 -0.0348  0.1477
  203MPD1    H6 3096   0.377   3.098  12.497  0.0392 -0.2360  0.1961
  203MPD1    H7 3097   0.420   3.232  12.580 -1.1938 -0.2310 -4.3656
  204MPD1     C 3098   4.133   4.193   0.004 -0.1357  0.8287 -0.2070
  204MPD1    C1 3099   4.101   4.079   0.071 -0.0293 -0.0841 -0.9267
  204MPD1    C2 3100   4.141   3.966   0.002  0.0988  0.2877 -0.3152
  204MPD1    C3 3101   4.225   3.963  17.588 -0.0030  0.7287 -0.1404
  204MPD1    C4 3102   4.273   4.084  17.535 -0.1654 -0.4929 -1.3954
  204MPD1    C5 3103   4.211   4.199  17.584 -0.7539 -0.3895 -0.3288
  204MPD1     H 3104   4.104   3.875   0.048  0.2283 -0.2275 -1.2242
  204MPD1    H1 3105   4.339   4.095  17.450  0.3325  1.6664 -0.7107
  204MPD1    H2 3106   4.098   4.292   0.032 -0.9156  1.0158 -1.8270
  204MPD1    H3 3107   4.246   4.295  17.548  0.1865 -1.3788 -2.0556
  204MPD1     N 3108   4.264   3.838  17.531 -0.5854 -0.1840  0.8308
  204MPD1    H5 3109   4.216   3.760  17.573 -0.0900 -0.2491  1.2736
  204MPD1    N1 3110   4.015   4.068   0.177  0.1602  0.4144 -0.4915
  204MPD1    H6 3111   4.014   3.975   0.218  0.0370  0.5518 -0.1862
  204MPD1    H7 3112   4.026   4.147   0.239 -0.4216 -0.7225  1.0471
  205MPD1     C 3113   0.448   2.258  17.518 -0.1204 -0.0088  0.5140
  205MPD1    C1 3114   0.341   2.299  17.440 -0.5882 -0.0463 -0.2293
  205MPD1    C2 3115   0.222   2.364  17.483  0.1315 -0.2609 -0.5797
  205MPD1    C3 3116   0.224   2.401  17.614 -0.3546  0.1513  0.3898
  205MPD1    C4 3117   0.327   2.361   0.003 -0.1793 -0.1437 -0.3719
  205MPD1    C5 3118   0.436   2.293  17.651  0.2699 -0.0620 -0.4898
  205MPD1     H 3119   0.138   2.381  17.416  0.5409 -0.0887 -1.0461
  205MPD1    H1 3120   0.318   2.376   0.110 -0.4369 -0.0685 -0.4067
  205MPD1    H2 3121   0.534   2.206  17.478 -0.4542  1.3648 -1.9987
  205MPD1    H3 3122   0.518   2.255   0.018 -1.3245  1.3566  2.5119
  205MPD1     N 3123   0.112   2.468  17.678 -0.0876 -0.1250  0.2573
  205MPD1    H5 3124   0.120   2.488   0.083  1.4630 -1.5783  0.4251
  205MPD1    N1 3125   0.341   2.243  17.314 -0.3010 -0.0053  0.4248
  205MPD1    H6 3126   0.300   2.299  17.239 -0.7561 -0.7817  0.0974
  205MPD1    H7 3127   0.432   2.210  17.284 -1.9218 -0.0044 -4.5603
  206MPD1     C 3128   4.634   0.465  16.584  1.1446  0.2144 -0.2342
  206MPD1    C1 3129   4.580   0.577  16.520 -0.0295  0.3672  0.5472
  206MPD1    C2 3130   4.536   0.563  16.390  0.3044 -0.0706 -0.1833
  206MPD1    C3 3131   4.573   0.449  16.319 -0.5922 -0.3331  0.0325
  206MPD1    C4 3132   4.639   0.350  16.380  0.4750 -0.8670  0.5642
  206MPD1    C5 3133   4.665   0.353  16.519 -0.1054 -0.8346  0.2272
  206MPD1     H 3134   4.479   0.643  16.345  1.5748  0.3404 -1.0823
  206MPD1    H1 3135   4.659   0.262  16.320 -1.1007  0.6993 -2.2231
  206MPD1    H2 3136   4.654   0.471  16.691  0.5070  1.3578 -0.1726
  206MPD1    H3 3137   4.698   0.260  16.563  1.1482 -1.4071 -1.9445
  206MPD1     N 3138   4.535   0.433  16.185 -0.1690 -0.1679  0.6007
  206MPD1    H5 3139   4.551   0.338  16.152  0.4366 -1.0943  3.5381
  206MPD1    N1 3140   4.536   0.687  16.599  0.1980  0.0378 -0.4774
  206MPD1    H6 3141   4.583   0.703  16.688 -0.1487  0.3057 -0.3438
  206MPD1    H7 3142   4.537   0.778  16.552 -0.1099  0.6292  0.6657
  207MPD1     C 3143   2.454   2.718   9.809  0.7392 -0.2007  0.2393
  207MPD1    C1 3144   2.505   2.848   9.787  0.5762 -0.7793  0.6661
  207MPD1    C2 3145   2.601   2.892   9.878  0.5842 -0.6986  0.1885
  207MPD1    C3 3146   2.639   2.823   9.987 -0.0186  0.3359  0.1787
  207MPD1    C4 3147   2.586   2.699   9.999  0.0561  0.7329 -0.3550
  207MPD1    C5 3148   2.489   2.652   9.921 -0.0798  0.6455  0.8367
  207MPD1     H 3149   2.640   2.992   9.859  3.7159 -1.9882 -0.2241
  207MPD1    H1 3150   2.626   2.632  10.074 -0.0229  0.6947 -0.3477
  207MPD1    H2 3151   2.385   2.669   9.741  1.1661  0.4911 -0.6941
  207MPD1    H3 3152   2.446   2.555   9.945 -0.1274  1.2903  3.3807
  207MPD1     N 3153   2.730   2.866  10.083 -0.3639 -0.3656 -0.0227
  207MPD1    H5 3154   2.755   2.798  10.155 -1.1226 -0.7265 -0.0978
  207MPD1    N1 3155   2.465   2.932   9.680 -0.3694  0.0208  0.2888
  207MPD1    H6 3156   2.475   3.031   9.702 -0.5663  0.6592 -2.4156
  207MPD1    H7 3157   2.366   2.920   9.661  0.3698 -2.5938 -1.8848
  208MPD1     C 3158   0.239   0.952   0.762  0.5150 -0.6585  0.8852
  208MPD1    C1 3159   0.336   1.043   0.717 -0.3016  0.4293  0.4599
  208MPD1    C2 3160   0.302   1.177   0.707 -0.4276 -0.5093 -0.1658
  208MPD1    C3 3161   0.178   1.221   0.748 -0.3787  0.3279 -0.4059
  208MPD1    C4 3162   0.081   1.131   0.787 -0.4502  0.1882  0.4623
  208MPD1    C5 3163   0.113   0.996   0.783  0.3938 -0.2646 -0.5429
  208MPD1     H 3164   0.380   1.235   0.659 -0.7985 -1.2670 -1.7030
  208MPD1    H1 3165   4.701   1.154   0.809 -1.0407 -1.0039 -1.1168
  208MPD1    H2 3166   0.263   0.847   0.772 -1.6658 -1.1697  0.7471
  208MPD1    H3 3167   0.036   0.928   0.815 -0.2816  0.4855 -0.5833
  208MPD1     N 3168   0.158   1.360   0.744  0.5857  0.0624 -0.5174
  208MPD1    H5 3169   0.245   1.413   0.743 -0.3705  1.7048  2.4193
  208MPD1    N1 3170   0.445   0.999   0.639  0.3185  0.7931 -0.4407
  208MPD1    H6 3171   0.476   0.907   0.670 -1.2978  0.2767 -0.3656
  208MPD1    H7 3172   0.527   1.059   0.645  1.6880 -1.1868  0.6462
  209MPD1     C 3173   2.973   2.128  11.852 -0.4589  0.2837  0.0573
  209MPD1    C1 3174   2.978   2.267  11.878  0.6539 -0.3633  0.4134
  209MPD1    C2 3175   3.000   2.352  11.775 -0.0284  0.1042 -0.0785
  209MPD1    C3 3176   3.009   2.303  11.643  0.2536  1.1923 -0.4443
  209MPD1    C4 3177   3.021   2.168  11.625  0.0695 -0.1236  0.2426
  209MPD1    C5 3178   2.989   2.080  11.726 -0.7263  0.1015 -0.7502
  209MPD1     H 3179   3.000   2.458  11.800 -0.4073  0.8700 -3.2381
  209MPD1    H1 3180   3.040   2.117  11.531 -3.0952 -3.1022  1.2322
  209MPD1    H2 3181   2.957   2.066  11.939  0.9198 -0.6699 -0.3620
  209MPD1    H3 3182   2.986   1.973  11.711 -0.6720  0.3202 -2.3145
  209MPD1     N 3183   3.001   2.391  11.536 -0.0434  0.2721 -0.1273
  209MPD1    H5 3184   3.003   2.488  11.566 -1.9368  0.8613 -1.8767
  209MPD1    N1 3185   2.985   2.313  12.010  0.3936 -0.2171  0.2324
  209MPD1    H6 3186   2.947   2.406  12.026 -0.4100 -0.7875  1.5809
  209MPD1    H7 3187   2.934   2.253  12.074  0.6167 -2.9312 -2.1335
  210MPD1     C 3188   3.506   3.221  11.414 -0.0236  0.1696 -0.0010
  210MPD1    C1 3189   3.423   3.176  11.519  0.8265  0.1459  0.8004
  210MPD1    C2 3190   3.337   3.061  11.491  0.3879 -0.0836 -0.1488
  210MPD1    C3 3191   3.330   3.019  11.361  0.0142 -0.4927 -0.6218
  210MPD1    C4 3192   3.414   3.074  11.264  0.3985  0.1087  0.0912
  210MPD1    C5 3193   3.508   3.165  11.291  0.2392 -0.5406  0.3511
  210MPD1     H 3194   3.267   3.023  11.565  0.6192 -0.7693 -0.2849
  210MPD1    H1 3195   3.406   3.033  11.164  1.0575  2.2578 -0.8486
  210MPD1    H2 3196   3.576   3.303  11.426 -0.2013  0.0993  1.3960
  210MPD1    H3 3197   3.569   3.210  11.213 -1.4460 -0.2859 -0.8302
  210MPD1     N 3198   3.251   2.911  11.311  0.6054 -0.1829  0.2585
  210MPD1    H5 3199   3.269   2.889  11.214  1.9777 -1.1675  0.7406
  210MPD1    N1 3200   3.446   3.224  11.646  0.5209 -0.0430  0.2295
  210MPD1    H6 3201   3.357   3.228  11.695  0.2382  0.7457 -0.3323
  210MPD1    H7 3202   3.484   3.318  11.654 -1.5709  0.7657  0.4424
  211MPD1     C 3203   1.130   2.448  16.867 -0.1952  0.7668 -0.3825
  211MPD1    C1 3204   1.062   2.519  16.767 -0.0842 -0.0883  0.7784
  211MPD1    C2 3205   0.927   2.494  16.740  0.1416 -0.8113  0.5736
  211MPD1    C3 3206   0.864   2.399  16.812 -0.4901  0.4643  0.7550
  211MPD1    C4 3207   0.927   2.335  16.920 -0.2131 -0.0190 -0.7661
  211MPD1    C5 3208   1.054   2.369  16.950  0.8757 -0.4155  0.1642
  211MPD1     H 3209   0.874   2.534  16.654 -0.8072  0.1989  1.6402
  211MPD1    H1 3210   0.873   2.262  16.979 -1.6254  0.8557 -0.9611
  211MPD1    H2 3211   1.235   2.461  16.890  0.0916 -4.0090  0.8795
  211MPD1    H3 3212   1.103   2.325  17.036  0.5895  0.4561  0.7793
  211MPD1     N 3213   0.725   2.378  16.781 -0.1406 -0.2520  0.3298
  211MPD1    H5 3214   0.683   2.441  16.714  1.1522 -2.2038 -2.3211
  211MPD1    N1 3215   1.135   2.576  16.665 -0.8568 -0.2950  0.2958
  211MPD1    H6 3216   1.081   2.652  16.624 -0.4500 -1.4879 -2.4734
  211MPD1    H7 3217   1.221   2.612  16.705 -0.3327  0.8912 -1.8634
  212MPD1     C 3218   4.396   0.793  17.089 -0.2304  0.0896  0.8521
  212MPD1    C1 3219   4.343   0.771  16.961 -0.6318 -0.0284 -0.0642
  212MPD1    C2 3220   4.215   0.717  16.954 -0.0932 -0.0495 -0.6615
  212MPD1    C3 3221   4.144   0.666  17.061  0.2968 -1.2164 -0.2475
  212MPD1    C4 3222   4.206   0.687  17.185 -0.4450 -0.1953  0.1143
  212MPD1    C5 3223   4.332   0.745  17.200 -0.2813  0.0908  0.6325
  212MPD1     H 3224   4.166   0.709  16.857 -0.4295 -1.9334 -0.3399
  212MPD1    H1 3225   4.152   0.648  17.270 -0.6710  0.3654  0.2243
  212MPD1    H2 3226   4.498   0.828  17.098 -0.2253  0.5257 -0.9579
  212MPD1    H3 3227   4.384   0.757  17.294  0.0385 -1.0764  0.6053
  212MPD1     N 3228   4.017   0.609  17.056 -0.4914 -0.2214  0.6102
  212MPD1    H5 3229   3.963   0.586  17.138 -1.4880 -1.7682 -0.4677
  212MPD1    N1 3230   4.415   0.823  16.857  0.2449 -0.1631 -0.1346
  212MPD1    H6 3231   4.383   0.783  16.770  0.9216  0.1906 -0.5469
  212MPD1    H7 3232   4.516   0.809  16.864  0.2195 -1.0726 -1.7420
  213MPD1     C 3233   2.619   2.164  15.595 -0.3246  0.3013  0.2059
  213MPD1    C1 3234   2.523   2.235  15.520  1.2707  0.1814 -0.2855
  213MPD1    C2 3235   2.413   2.160  15.483  0.4712 -0.3598 -0.1370
  213MPD1    C3 3236   2.380   2.040  15.530 -0.2377 -0.4058 -0.2303
  213MPD1    C4 3237   2.469   1.984  15.620  1.0749 -0.1147  0.1445
  213MPD1    C5 3238   2.584   2.043  15.658 -0.4113 -0.0433  0.4324
  213MPD1     H 3239   2.350   2.208  15.409 -0.8574 -0.9939  0.5817
  213MPD1    H1 3240   2.458   1.887  15.667  1.2738 -0.4677 -0.5390
  213MPD1    H2 3241   2.702   2.218  15.638  1.0052  0.1282 -2.1631
  213MPD1    H3 3242   2.650   2.000  15.733  1.7246  0.3285 -1.2433
  213MPD1     N 3243   2.272   1.969  15.476 -0.5829  0.3657 -0.0604
  213MPD1    H5 3244   2.230   2.006  15.391  0.1828  0.0582 -0.5717
  213MPD1    N1 3245   2.565   2.336  15.431  0.8003 -0.1016  0.2810
  213MPD1    H6 3246   2.484   2.387  15.397  1.6192  0.6767 -0.5312
  213MPD1    H7 3247   2.628   2.393  15.487 -0.5889  0.1539  1.5738
  214MPD1     C 3248   1.515   1.231  15.332  0.3586  0.0011  0.1885
  214MPD1    C1 3249   1.566   1.298  15.443 -0.0444 -0.3374 -0.4079
  214MPD1    C2 3250   1.685   1.364  15.422 -0.0084 -0.5708 -0.5435
  214MPD1    C3 3251   1.772   1.331  15.320  1.0501 -0.3741 -0.1708
  214MPD1    C4 3252   1.730   1.237  15.227 -0.0148  0.4097 -0.1988
  214MPD1    C5 3253   1.601   1.196  15.233  0.4618  0.4179  0.1577
  214MPD1     H 3254   1.710   1.438  15.498  0.4040 -2.5929  1.2688
  214MPD1    H1 3255   1.800   1.196  15.156 -1.1161 -2.4551  0.3238
  214MPD1    H2 3256   1.411   1.201  15.330  1.1745 -2.7876 -0.6952
  214MPD1    H3 3257   1.566   1.122  15.162  3.4563 -1.6571  0.8279
  214MPD1     N 3258   1.893   1.402  15.294 -0.2305  0.0717 -0.3640
  214MPD1    H5 3259   1.945   1.378  15.211  1.3235  0.3771  0.5075
  214MPD1    N1 3260   1.483   1.340  15.543  0.0390  1.0276  0.2975
  214MPD1    H6 3261   1.532   1.367  15.628 -1.0889 -0.7841  1.5367
  214MPD1    H7 3262   1.410   1.272  15.566  1.1022 -0.4564 -0.6935
  215MPD1     C 3263   2.491   1.848  10.722 -0.4416 -0.1961 -0.8635
  215MPD1    C1 3264   2.529   1.870  10.850 -0.7417  0.0028  0.7373
  215MPD1    C2 3265   2.568   1.996  10.882  0.5233 -0.7936 -0.7465
  215MPD1    C3 3266   2.569   2.105  10.797  0.0253  0.5005  0.0019
  215MPD1    C4 3267   2.527   2.080  10.673 -0.0891  1.0475 -0.4203
  215MPD1    C5 3268   2.489   1.953  10.633 -0.1628  0.1471  0.4867
  215MPD1     H 3269   2.597   2.000  10.987 -1.1310 -0.7339 -0.2918
  215MPD1    H1 3270   2.505   2.159  10.602 -0.2367  1.8131  0.4758
  215MPD1    H2 3271   2.460   1.752  10.684  0.3894 -0.4038 -1.0066
  215MPD1    H3 3272   2.437   1.928  10.541 -0.7779  0.7493  0.6700
  215MPD1     N 3273   2.624   2.226  10.854 -0.0595 -0.0251  0.4355
  215MPD1    H5 3274   2.643   2.222  10.953  3.5370  0.4185 -0.2140
  215MPD1    N1 3275   2.559   1.766  10.933 -0.1938  0.3711 -0.1247
  215MPD1    H6 3276   2.551   1.790  11.031  1.2873 -0.1390  0.1254
  215MPD1    H7 3277   2.508   1.680  10.916  0.0957  0.2039 -0.1528
  216MPD1     C 3278   4.420   0.062  17.363 -0.7753  0.0760  0.2563
  216MPD1    C1 3279   4.536   4.709  17.393 -0.2915  0.4016 -0.3744
  216MPD1    C2 3280   4.550   4.588  17.326  0.6310  0.4873  0.9927
  216MPD1    C3 3281   4.454   4.535  17.241 -0.3809  0.0418 -0.6075
  216MPD1    C4 3282   4.346   4.616  17.216 -0.6599  0.3799 -0.4594
  216MPD1    C5 3283   4.324   0.018  17.272 -0.1887 -0.5993  0.2137
  216MPD1     H 3284   4.640   4.530  17.343 -0.2971 -0.8985  1.1986
  216MPD1    H1 3285   4.264   4.584  17.154 -0.8814 -1.4593  0.7802
  216MPD1    H2 3286   4.414   0.163  17.401 -0.3670 -0.3758  1.5531
  216MPD1    H3 3287   4.243   0.088  17.252 -0.2913 -0.6274  0.5290
  216MPD1     N 3288   4.460   4.404  17.192 -0.2918 -0.0601  0.4452
  216MPD1    H5 3289   4.546   4.352  17.178 -1.3426 -1.3282 -1.3166
  216MPD1    N1 3290   4.646   0.041  17.466  0.4053 -0.6272 -0.1376
  216MPD1    H6 3291   4.692   4.688  17.515  1.3631 -0.9248 -1.4910
  216MPD1    H7 3292   4.617   0.116  17.529 -1.5155 -1.5424  0.0597
  217MPD1     C 3293   0.063   1.439   8.077  0.5645 -0.4804  0.1482
  217MPD1    C1 3294   0.119   1.322   8.127  0.4894  0.7913  0.3896
  217MPD1    C2 3295   0.201   1.334   8.238 -0.5751 -0.7200 -0.2809
  217MPD1    C3 3296   0.199   1.452   8.312 -0.0451 -0.4420  0.2807
  217MPD1    C4 3297   0.127   1.562   8.275 -0.3344 -0.2619  1.0835
  217MPD1    C5 3298   0.067   1.558   8.150  0.7987 -0.5282  0.9957
  217MPD1     H 3299   0.261   1.250   8.271  1.1290  1.5397  2.3408
  217MPD1    H1 3300   0.124   1.650   8.338  0.6507  1.3138 -1.0720
  217MPD1    H2 3301   4.723   1.441   7.989  1.3702 -0.7832 -0.4341
  217MPD1    H3 3302   0.006   1.642   8.120 -0.2924 -1.8542 -0.4616
  217MPD1     N 3303   0.276   1.464   8.434 -0.2854  0.8811  0.0998
  217MPD1    H5 3304   0.268   1.556   8.474  0.7973  2.1302 -2.5531
  217MPD1    N1 3305   0.127   1.205   8.059 -0.8424  0.2318  0.3480
  217MPD1    H6 3306   0.048   1.185   7.998 -1.4563  1.0311  0.8757
  217MPD1    H7 3307   0.131   1.132   8.129 -1.6165 -0.1361  0.0102
  218MPD1     C 3308   1.091   3.244  12.115  0.9014  0.2292 -0.4034
  218MPD1    C1 3309   1.114   3.329  12.219 -0.3163 -0.2147 -0.1951
  218MPD1    C2 3310   1.204   3.293  12.315 -0.0505  0.2893 -0.3828
  218MPD1    C3 3311   1.256   3.168  12.328  0.4925  0.4750 -0.6539
  218MPD1    C4 3312   1.213   3.076  12.234 -0.2531 -0.0685 -0.2482
  218MPD1    C5 3313   1.133   3.114  12.127  0.0756  0.3264 -0.0952
  218MPD1     H 3314   1.244   3.379  12.369 -0.5646  1.7874 -2.3950
  218MPD1    H1 3315   1.254   2.976  12.226 -1.1215 -0.6274  2.2022
  218MPD1    H2 3316   1.031   3.273  12.030  1.4526 -2.5127 -1.7625
  218MPD1    H3 3317   1.107   3.045  12.048 -0.3907 -0.3630  0.6586
  218MPD1     N 3318   1.333   3.141  12.437  0.0918  0.2411  0.3737
  218MPD1    H5 3319   1.389   3.209  12.488 -1.8085  1.2956  1.0736
  218MPD1    N1 3320   1.074   3.460  12.204 -0.6336  0.1564 -0.0016
  218MPD1    H6 3321   1.056   3.507  12.292  1.4161 -1.3580  1.2229
  218MPD1    H7 3322   0.996   3.451  12.139  0.6195  0.7620 -1.5788
  219MPD1     C 3323   2.202   3.294  12.897  0.2816  1.2445  0.4028
  219MPD1    C1 3324   2.151   3.332  12.772  0.3772  0.4526 -0.6442
  219MPD1    C2 3325   2.037   3.268  12.735  0.0569  0.2013  0.1966
  219MPD1    C3 3326   1.990   3.156  12.804 -0.3086 -0.6829 -0.0615
  219MPD1    C4 3327   2.041   3.116  12.928  0.8187 -0.5504  0.3578
  219MPD1    C5 3328   2.153   3.188  12.968  0.1342 -0.8068 -0.2776
  219MPD1     H 3329   1.995   3.300  12.640  2.3309 -0.1341 -0.9096
  219MPD1    H1 3330   2.004   3.035  12.989 -1.6838 -0.4323 -0.9936
  219MPD1    H2 3331   2.286   3.343  12.945  1.6650 -0.2381 -0.4968
  219MPD1    H3 3332   2.214   3.166  13.054 -1.3991 -0.0055  1.0126
  219MPD1     N 3333   1.866   3.094  12.769  0.1450 -0.2033 -0.0151
  219MPD1    H5 3334   1.835   3.024  12.835 -2.2566  0.2214 -0.6822
  219MPD1    N1 3335   2.189   3.453  12.704  0.2320  0.2535 -0.6268
  219MPD1    H6 3336   2.290   3.465  12.708  0.1021  1.9686 -3.0063
  219MPD1    H7 3337   2.169   3.458  12.605 -1.2593  0.8582 -0.2895
  220MPD1     C 3338   1.732   3.354   9.623 -0.0307  0.0393 -0.2449
  220MPD1    C1 3339   1.723   3.219   9.620  0.2685  0.3323  0.0056
  220MPD1    C2 3340   1.817   3.146   9.688 -0.2199  0.5973 -0.0935
  220MPD1    C3 3341   1.926   3.203   9.748  0.6890  0.4878  0.7340
  220MPD1    C4 3342   1.931   3.341   9.746 -0.2593  0.7076  0.4767
  220MPD1    C5 3343   1.823   3.419   9.698  0.7381  0.4112 -0.0063
  220MPD1     H 3344   1.821   3.038   9.701  2.5002  0.8093  0.9149
  220MPD1    H1 3345   2.016   3.395   9.786  0.8670 -0.0820 -0.8531
  220MPD1    H2 3346   1.667   3.427   9.577  1.3560  0.7248 -1.1118
  220MPD1    H3 3347   1.833   3.526   9.698 -3.1394  0.7886  0.0386
  220MPD1     N 3348   2.019   3.122   9.820 -0.1813 -0.6309  0.4417
  220MPD1    H5 3349   2.009   3.021   9.820  1.3670 -0.7867  0.0082
  220MPD1    N1 3350   1.608   3.156   9.556  0.2561 -1.2021 -0.3990
  220MPD1    H6 3351   1.589   3.215   9.475  1.3310  1.0380  0.9787
  220MPD1    H7 3352   1.616   3.057   9.537  1.4121 -1.5874  2.0433
  221MPD1     C 3353   3.957   1.889  16.598 -0.1282 -0.3968  0.6534
  221MPD1    C1 3354   4.009   1.785  16.678  0.2565 -0.6011  0.5543
  221MPD1    C2 3355   4.147   1.758  16.662  0.3882  0.1024 -0.9711
  221MPD1    C3 3356   4.229   1.838  16.583 -0.4663 -0.0589 -0.4188
  221MPD1    C4 3357   4.175   1.938  16.516  0.5078 -0.3004 -0.2680
  221MPD1    C5 3358   4.042   1.962  16.526  0.5942  0.2929 -0.0147
  221MPD1     H 3359   4.184   1.675  16.721 -2.2986  0.2693  0.9228
  221MPD1    H1 3360   4.229   2.008  16.452  0.1762  0.6405  0.4744
  221MPD1    H2 3361   3.850   1.905  16.588 -0.4338 -2.1800  1.0906
  221MPD1    H3 3362   4.009   2.046  16.466  1.2703 -0.0480 -0.8588
  221MPD1     N 3363   4.372   1.814  16.560  0.7868 -0.7979  0.1456
  221MPD1    H5 3364   4.424   1.878  16.502  1.1054  0.4121  1.7569
  221MPD1    N1 3365   3.926   1.689  16.733  0.0052  0.0303 -0.0101
  221MPD1    H6 3366   3.850   1.735  16.782  0.1226 -0.2788  0.4626
  221MPD1    H7 3367   3.970   1.645  16.813  0.0894  1.3007  0.6350
  222MPD1     C 3368   4.649   0.435  17.114  0.8586 -0.2144  0.2139
  222MPD1    C1 3369   4.631   0.301  17.159 -0.3790  0.4860  1.3893
  222MPD1    C2 3370   4.546   0.226  17.083  0.4998  0.2725 -0.8004
  222MPD1    C3 3371   4.486   0.283  16.968  0.4668 -0.1882  0.2494
  222MPD1    C4 3372   4.506   0.415  16.923 -0.2743  1.2954  0.3519
  222MPD1    C5 3373   4.598   0.491  16.993  0.4056 -0.7176  0.7320
  222MPD1     H 3374   4.530   0.124  17.115 -0.5414  0.0260 -2.0993
  222MPD1    H1 3375   4.447   0.462  16.845 -2.1520  1.0606  1.6359
  222MPD1    H2 3376   4.705   0.504  17.175  3.1606 -0.0344 -2.1548
  222MPD1    H3 3377   4.608   0.597  16.972  0.8575 -0.6439  1.3053
  222MPD1     N 3378   4.394   0.204  16.891 -0.0473  0.4212 -0.4497
  222MPD1    H5 3379   4.328   0.249  16.829 -1.3746  0.3633  0.9047
  222MPD1    N1 3380   4.698   0.254  17.276 -0.1775 -0.1747  0.1050
  222MPD1    H6 3381   4.718   0.324  17.348  2.3407 -0.4308 -0.3391
  222MPD1    H7 3382   4.671   0.166  17.319  1.6446 -2.1360 -2.7728
  223MPD1     C 3383   4.095   3.996  16.626  0.4124  0.1960  0.5346
  223MPD1    C1 3384   4.148   4.088  16.542  0.4040 -0.8156  0.1048
  223MPD1    C2 3385   4.150   4.217  16.594 -0.2624  0.5834 -0.0909
  223MPD1    C3 3386   4.100   4.250  16.719  0.0230  0.8115 -0.8110
  223MPD1    C4 3387   4.047   4.155  16.800 -0.5984  0.0524  0.0877
  223MPD1    C5 3388   4.037   4.028  16.745 -0.2123  0.5567  0.2464
  223MPD1     H 3389   4.189   4.302  16.538  0.0147 -0.1700 -1.0287
  223MPD1    H1 3390   3.986   4.166  16.889 -0.8480 -0.6263  0.0030
  223MPD1    H2 3391   4.086   3.894  16.591  2.3354  0.1058  0.2895
  223MPD1    H3 3392   3.987   3.946  16.795  2.4239 -0.9443  0.4336
  223MPD1     N 3393   4.117   4.382  16.766  0.0166 -0.0480 -0.4711
  223MPD1    H5 3394   4.154   4.452  16.702  1.8428 -1.1971 -0.6649
  223MPD1    N1 3395   4.225   4.060  16.432 -0.8699  0.1970 -0.3200
  223MPD1    H6 3396   4.219   4.116  16.347 -0.9266  1.0676  0.2582
  223MPD1    H7 3397   4.216   3.962  16.407 -0.4387 -0.2539  1.2662
  224MPD1     C 3398   0.902   2.569   8.861  0.0388  0.2076  0.2237
  224MPD1    C1 3399   1.018   2.499   8.896 -0.2650  0.3418  0.0819
  224MPD1    C2 3400   1.017   2.429   9.013  1.0357 -0.1994  0.3833
  224MPD1    C3 3401   0.907   2.427   9.094  0.3571 -0.2400  0.5186
  224MPD1    C4 3402   0.795   2.506   9.060 -0.5294 -1.1093 -0.3857
  224MPD1    C5 3403   0.793   2.573   8.946  0.3795  0.6228  0.5858
  224MPD1     H 3404   1.106   2.383   9.053 -0.0054 -3.3983 -1.0018
  224MPD1    H1 3405   0.714   2.509   9.133 -1.8333  0.7254 -1.9151
  224MPD1    H2 3406   0.902   2.637   8.777  1.4332  0.2507  0.2659
  224MPD1    H3 3407   0.704   2.629   8.919  0.1801 -0.4412 -0.9514
  224MPD1     N 3408   0.893   2.357   9.213 -0.5174  0.2197  0.1326
  224MPD1    H5 3409   0.803   2.371   9.258  0.0127 -0.7803  1.4825
  224MPD1    N1 3410   1.140   2.539   8.835 -0.7945  0.8990  0.0659
  224MPD1    H6 3411   1.209   2.466   8.821 -0.8860  0.6832  0.7359
  224MPD1    H7 3412   1.137   2.576   8.740 -0.3634 -2.0284 -1.0829
  225MPD1     C 3413   2.293   3.245  12.353  0.1578 -1.3286  0.1239
  225MPD1    C1 3414   2.309   3.346  12.267  0.4884  0.0690 -0.2900
  225MPD1    C2 3415   2.199   3.397  12.199  0.8376 -1.0048  0.2316
  225MPD1    C3 3416   2.072   3.350  12.231 -0.0589 -0.3733  0.5441
  225MPD1    C4 3417   2.058   3.255  12.328  0.8348  0.2052 -0.9635
  225MPD1    C5 3418   2.166   3.210  12.389  0.0331  0.4110  0.2082
  225MPD1     H 3419   2.223   3.473  12.126  3.1761 -0.6073  1.4092
  225MPD1    H1 3420   1.959   3.217  12.354 -0.0858  1.6846 -2.2891
  225MPD1    H2 3421   2.366   3.186  12.406 -1.6851 -2.1952  1.7171
  225MPD1    H3 3422   2.164   3.140  12.472 -2.0850  0.6466  0.3702
  225MPD1     N 3423   1.956   3.405  12.169  0.0924  0.5980 -0.2624
  225MPD1    H5 3424   1.865   3.368  12.192  1.6977 -0.5347  4.3105
  225MPD1    N1 3425   2.435   3.387  12.227 -0.3091 -0.0150 -0.1991
  225MPD1    H6 3426   2.430   3.477  12.181 -1.6740  0.2083  0.3801
  225MPD1    H7 3427   2.497   3.391  12.308  1.2944  0.9561 -1.4678
  226MPD1     C 3428   4.404   2.974   9.687  0.4339  0.2779 -0.6221
  226MPD1    C1 3429   4.364   3.102   9.672  0.1882  0.1840 -0.0069
  226MPD1    C2 3430   4.457   3.194   9.613  0.0364  0.0136  0.4642
  226MPD1    C3 3431   4.584   3.158   9.588 -0.1601  0.6719  0.1088
  226MPD1    C4 3432   4.632   3.035   9.623 -0.6914  0.4724 -0.2384
  226MPD1    C5 3433   4.540   2.938   9.664  1.0506 -0.0089  0.8085
  226MPD1     H 3434   4.429   3.291   9.574 -1.0774 -0.4762  0.0583
  226MPD1    H1 3435   0.013   3.011   9.607 -0.4897  0.6492  0.8416
  226MPD1    H2 3436   4.344   2.897   9.735  0.7712  0.2071 -0.3118
  226MPD1    H3 3437   4.571   2.836   9.682  0.7773 -0.4565 -1.2531
  226MPD1     N 3438   4.672   3.252   9.517  0.7228 -0.3036  0.1745
  226MPD1    H5 3439   4.646   3.350   9.514 -0.4630 -0.6292 -0.5690
  226MPD1    N1 3440   4.234   3.140   9.702  0.2763 -0.2770  0.1115
  226MPD1    H6 3441   4.224   3.236   9.735 -0.2217 -0.1376 -0.4339
  226MPD1    H7 3442   4.197   3.071   9.767  0.9801 -1.0811 -0.3372
  227MPD1     C 3443   4.377   3.954   9.174 -0.3185 -0.2713 -0.3868
  227MPD1    C1 3444   4.363   3.884   9.290  0.0074  0.5894  0.5208
  227MPD1    C2 3445   4.470   3.810   9.341  0.5505  0.5770 -0.7659
  227MPD1    C3 3446   4.575   3.771   9.256  0.7275  0.5498  0.6470
  227MPD1    C4 3447   4.580   3.825   9.127  0.2154  0.5704 -0.5426
  227MPD1    C5 3448   4.487   3.925   9.092  0.2955 -0.7331 -0.3904
  227MPD1     H 3449   4.470   3.763   9.439  0.3800 -1.5064 -1.7611
  227MPD1    H1 3450   4.655   3.804   9.052  1.7630 -0.4700  1.3029
  227MPD1    H2 3451   4.311   4.037   9.151  0.7323  1.1550  1.7809
  227MPD1    H3 3452   4.485   3.963   8.990 -0.3788 -0.6958 -0.3643
  227MPD1     N 3453   4.668   3.678   9.303  0.1961  0.7583 -0.3823
  227MPD1    H5 3454   4.674   3.644   9.398 -1.1045 -2.0835 -1.3132
  227MPD1    N1 3455   4.252   3.914   9.379 -0.1494 -0.0408 -0.5807
  227MPD1    H6 3456   4.173   3.954   9.328  0.6963  1.4318 -0.7330
  227MPD1    H7 3457   4.228   3.836   9.439 -2.8128 -0.8934 -2.7748
  228MPD1     C 3458   3.434   1.628  13.098 -0.3485  0.7513  1.2940
  228MPD1    C1 3459   3.312   1.688  13.065  0.1520 -0.3862  0.6353
  228MPD1    C2 3460   3.191   1.616  13.069 -0.8939  0.1812 -0.4861
  228MPD1    C3 3461   3.196   1.479  13.102 -0.4468  0.3650 -0.5280
  228MPD1    C4 3462   3.318   1.422  13.135  0.0606  0.4447  0.3950
  228MPD1    C5 3463   3.438   1.495  13.140  1.1425  0.4675 -0.4962
  228MPD1     H 3464   3.097   1.663  13.046 -0.9992  0.0639 -0.3041
  228MPD1    H1 3465   3.332   1.321  13.174  0.6880  0.1238 -0.6718
  228MPD1    H2 3466   3.529   1.680  13.107  0.1070  0.4689 -1.6534
  228MPD1    H3 3467   3.532   1.453  13.173  0.8241  0.7505  0.7686
  228MPD1     N 3468   3.083   1.405  13.088 -0.2079  0.4111  0.4173
  228MPD1    H5 3469   3.009   1.462  13.048  1.1723  1.3621 -0.8001
  228MPD1    N1 3470   3.319   1.829  13.041  0.2467  0.8920  0.4970
  228MPD1    H6 3471   3.408   1.851  12.997 -0.5563 -0.8663 -1.9938
  228MPD1    H7 3472   3.242   1.858  12.981 -0.7926  1.4186  2.0882
  229MPD1     C 3473   2.422   4.436  15.083 -0.1150 -0.2499 -0.9922
  229MPD1    C1 3474   2.517   4.406  15.181 -0.0972  0.2687 -0.0701
  229MPD1    C2 3475   2.622   4.320  15.155 -0.4527  0.2156  0.5115
  229MPD1    C3 3476   2.627   4.262  15.029 -0.4121 -0.7295 -1.1653
  229MPD1    C4 3477   2.546   4.292  14.936  0.0575 -0.6872 -0.3530
  229MPD1    C5 3478   2.442   4.382  14.958  0.2642  0.1662  0.1151
  229MPD1     H 3479   2.702   4.304  15.228  1.6868 -3.3325 -2.6055
  229MPD1    H1 3480   2.534   4.228  14.849  0.2235 -1.8959  0.5184
  229MPD1    H2 3481   2.338   4.505  15.092  0.4107  0.3941 -1.0289
  229MPD1    H3 3482   2.371   4.402  14.879  0.1619  2.3305  0.7472
  229MPD1     N 3483   2.722   4.162  15.001 -0.1751  0.0351  0.3709
  229MPD1    H5 3484   2.739   4.140  14.904  0.7003 -2.7141  1.1630
  229MPD1    N1 3485   2.480   4.448  15.310 -0.2924 -0.6347  0.4580
  229MPD1    H6 3486   2.459   4.547  15.303  2.3036 -0.1120  0.1303
  229MPD1    H7 3487   2.561   4.445  15.371 -0.4336 -1.5087  0.6038
  230MPD1     C 3488   2.877   3.209  15.211  0.2381  0.9426 -0.5896
  230MPD1    C1 3489   2.769   3.278  15.145 -0.4293 -0.7099 -0.2817
  230MPD1    C2 3490   2.792   3.413  15.122  0.1412  0.5883 -0.1387
  230MPD1    C3 3491   2.897   3.485  15.169  0.8729 -0.5933  0.3693
  230MPD1    C4 3492   2.994   3.412  15.239 -0.0512  0.6759  0.1583
  230MPD1    C5 3493   2.982   3.280  15.267  1.0910  0.0090 -0.4197
  230MPD1     H 3494   2.714   3.464  15.067  2.0336  1.8507 -1.6553
  230MPD1    H1 3495   3.084   3.458  15.278 -0.1204  1.5864 -0.7668
  230MPD1    H2 3496   2.859   3.105  15.237 -1.4872  1.0232 -1.4810
  230MPD1    H3 3497   3.058   3.229  15.326  0.2227  0.1193  0.7990
  230MPD1     N 3498   2.908   3.622  15.142 -0.4834  0.1463 -0.4550
  230MPD1    H5 3499   2.845   3.668  15.077 -2.1576 -0.1128  0.9820
  230MPD1    N1 3500   2.665   3.209  15.081 -0.5000 -0.0907  0.7690
  230MPD1    H6 3501   2.651   3.122  15.133 -0.1782 -0.8406 -0.4036
  230MPD1    H7 3502   2.571   3.247  15.088 -1.4335 -2.2395 -0.1404
  231MPD1     C 3503   1.490   1.817  15.935  0.3800  0.1409 -0.2488
  231MPD1    C1 3504   1.396   1.789  15.837 -0.1490  0.5117 -0.1680
  231MPD1    C2 3505   1.439   1.760  15.708 -0.1613 -0.1924 -0.2209
  231MPD1    C3 3506   1.573   1.794  15.677 -0.3053  0.1155 -1.3821
  231MPD1    C4 3507   1.663   1.829  15.774  0.7650 -0.3750 -0.2667
  231MPD1    C5 3508   1.622   1.836  15.904 -0.5103 -0.9909 -0.5419
  231MPD1     H 3509   1.367   1.748  15.628  1.4916  0.3582 -1.7887
  231MPD1    H1 3510   1.767   1.849  15.753  0.5779 -0.3529 -1.1843
  231MPD1    H2 3511   1.462   1.831  16.039  0.9955  0.8755 -0.1782
  231MPD1    H3 3512   1.699   1.868  15.974 -0.0065 -3.1386 -0.1418
  231MPD1     N 3513   1.602   1.789  15.540 -0.1200  0.7883 -0.2232
  231MPD1    H5 3514   1.536   1.744  15.477  2.3368 -1.2045 -1.3864
  231MPD1    N1 3515   1.268   1.757  15.876  0.3526  0.0926  0.0082
  231MPD1    H6 3516   1.245   1.823  15.949 -0.2425 -1.4388  1.2106
  231MPD1    H7 3517   1.207   1.773  15.796  0.2169 -2.4991 -0.4281
  232MPD1     C 3518   4.162   4.459   0.294 -0.7564 -0.3151 -0.6708
  232MPD1    C1 3519   4.192   4.381   0.401  0.1066 -0.5821  0.8379
  232MPD1    C2 3520   4.086   4.304   0.453  0.5866 -0.3454 -0.7747
  232MPD1    C3 3521   3.953   4.312   0.410 -0.1616  0.5103 -0.5836
  232MPD1    C4 3522   3.927   4.398   0.305  0.3366  0.2924  0.0967
  232MPD1    C5 3523   4.031   4.466   0.258  0.1599 -0.0146 -0.3023
  232MPD1     H 3524   4.099   4.240   0.540 -0.3765  0.8973  0.2824
  232MPD1    H1 3525   3.823   4.411   0.276  0.2743  2.2888  1.1861
  232MPD1    H2 3526   4.235   4.518   0.240 -2.3758  1.2148 -1.2244
  232MPD1    H3 3527   4.012   4.521   0.166  1.4577 -0.2499 -0.7144
  232MPD1     N 3528   3.856   4.232   0.472  0.1859  0.4121  0.1217
  232MPD1    H5 3529   3.898   4.163   0.534  2.4993 -0.3073 -2.2625
  232MPD1    N1 3530   4.328   4.363   0.443  0.2027 -0.3370 -0.2764
  232MPD1    H6 3531   4.388   4.443   0.432 -2.0574  1.3628 -0.2270
  232MPD1    H7 3532   4.326   4.345   0.544 -1.0393 -1.4330 -0.4910
  233MPD1     C 3533   4.127   2.222   2.244 -0.1080 -0.4861  0.0320
  233MPD1    C1 3534   4.184   2.341   2.244  0.2615  1.1052  0.0966
  233MPD1    C2 3535   4.318   2.353   2.208 -0.3435  1.0144 -0.6307
  233MPD1    C3 3536   4.385   2.235   2.154 -0.1264 -0.0966  0.3846
  233MPD1    C4 3537   4.314   2.117   2.142 -0.3951 -0.2973 -0.1609
  233MPD1    C5 3538   4.187   2.113   2.195  0.0204  0.6026 -0.2700
  233MPD1     H 3539   4.362   2.451   2.192 -0.7412  0.8840 -2.5210
  233MPD1    H1 3540   4.370   2.037   2.094  0.8858  0.4006  0.1577
  233MPD1    H2 3541   4.025   2.209   2.278 -0.5354  2.4231 -0.0830
  233MPD1    H3 3542   4.131   2.022   2.175  0.4207  0.0217  1.2111
  233MPD1     N 3543   4.516   2.232   2.116  0.2484 -0.4093  0.0992
  233MPD1    H5 3544   4.561   2.142   2.102  1.0319  0.1853 -1.2427
  233MPD1    N1 3545   4.115   2.444   2.308 -0.2594 -0.0424  0.7556
  233MPD1    H6 3546   4.117   2.532   2.257 -1.5998 -1.1854 -1.2320
  233MPD1    H7 3547   4.015   2.429   2.320  0.0335 -3.2136 -0.9263
  234MPD1     C 3548   1.417   0.366   9.326 -0.4348  0.4385 -0.3524
  234MPD1    C1 3549   1.319   0.410   9.242 -0.8373  0.3252  0.4583
  234MPD1    C2 3550   1.280   0.545   9.256  0.6117  0.1889  0.1803
  234MPD1    C3 3551   1.320   0.625   9.365  0.4646 -0.1975 -0.3187
  234MPD1    C4 3552   1.420   0.579   9.446  0.1341  0.5156 -0.0699
  234MPD1    C5 3553   1.470   0.450   9.428 -0.1456 -0.1208  0.7389
  234MPD1     H 3554   1.208   0.597   9.194  1.0249  1.0784  0.4518
  234MPD1    H1 3555   1.465   0.638   9.524 -0.7094  2.9359 -1.4134
  234MPD1    H2 3556   1.460   0.266   9.331 -2.2498 -0.3245 -0.2213
  234MPD1    H3 3557   1.557   0.421   9.484 -0.6937  0.0812  1.6944
  234MPD1     N 3558   1.265   0.753   9.372 -0.2403  0.1998  0.2098
  234MPD1    H5 3559   1.201   0.780   9.298  1.2768  0.5270 -0.9688
  234MPD1    N1 3560   1.284   0.338   9.125  0.2642 -0.0338  0.4351
  234MPD1    H6 3561   1.299   0.239   9.143  2.7395  0.5683  1.7192
  234MPD1    H7 3562   1.194   0.359   9.082  2.1094  3.4273 -1.8068
  235MPD1     C 3563   2.095   3.793   9.756  0.0369  1.0533 -0.3662
  235MPD1    C1 3564   2.225   3.754   9.750  0.1453 -0.4570  0.0629
  235MPD1    C2 3565   2.309   3.822   9.659 -0.0351 -0.7556  0.0309
  235MPD1    C3 3566   2.276   3.941   9.600 -0.5673  0.4969  0.0200
  235MPD1    C4 3567   2.144   3.982   9.614  0.4294 -0.2908  0.9046
  235MPD1    C5 3568   2.054   3.890   9.667  0.2143 -0.7068 -0.3979
  235MPD1     H 3569   2.407   3.780   9.638 -0.9325 -2.1555 -1.4137
  235MPD1    H1 3570   2.108   4.077   9.575  0.9633 -1.0139 -1.3746
  235MPD1    H2 3571   2.035   3.733   9.824  2.3334  0.5427  1.1982
  235MPD1    H3 3572   1.952   3.923   9.685  0.4641 -1.4207  2.3607
  235MPD1     N 3573   2.382   4.003   9.528  0.2495 -0.2989 -0.0220
  235MPD1    H5 3574   2.472   3.958   9.520  0.1689 -0.3823 -0.4952
  235MPD1    N1 3575   2.269   3.637   9.816 -0.3657 -0.8565  0.1969
  235MPD1    H6 3576   2.370   3.633   9.832  0.2134  1.3261 -3.0001
  235MPD1    H7 3577   2.218   3.631   9.904 -0.6545  0.1871  0.0964
  236MPD1     C 3578   2.062   0.246   9.906 -0.4588  0.1569  0.4763
  236MPD1    C1 3579   2.056   0.109   9.893 -0.3792 -0.0144  0.3335
  236MPD1    C2 3580   2.159   0.030   9.954 -0.0130 -0.3439 -0.5870
  236MPD1    C3 3581   2.272   0.089  10.003  0.1729 -0.2807  0.4019
  236MPD1    C4 3582   2.283   0.227   9.997  0.0677  0.2493  0.1908
  236MPD1    C5 3583   2.180   0.299   9.947  0.4449 -0.5764 -0.2601
  236MPD1     H 3584   2.146   4.647   9.971  2.5091 -0.6458 -0.5404
  236MPD1    H1 3585   2.363   0.292  10.031 -1.3107  1.8300  0.4750
  236MPD1    H2 3586   2.002   0.323   9.859  2.1096  2.2487  0.6475
  236MPD1    H3 3587   2.200   0.405   9.958 -1.7558 -0.3146  1.2736
  236MPD1     N 3588   2.380   0.013  10.054 -0.1762  0.4352  0.5136
  236MPD1    H5 3589   2.462   0.064  10.086  1.3138 -1.7549  0.2155
  236MPD1    N1 3590   1.940   0.048   9.851 -0.0383  0.0576 -0.1770
  236MPD1    H6 3591   1.880   0.106   9.793 -2.5030 -0.3927  1.9720
  236MPD1    H7 3592   1.954   4.682   9.803  0.4395  0.2526 -0.4058
  237MPD1     C 3593   2.103   2.985  15.370  1.0913 -0.1985 -0.0479
  237MPD1    C1 3594   1.999   3.011  15.463  0.5820  0.0603 -0.0977
  237MPD1    C2 3595   1.879   2.936  15.460 -0.4192 -0.1715 -0.0138
  237MPD1    C3 3596   1.863   2.832  15.374 -0.2209 -0.5696 -0.4018
  237MPD1    C4 3597   1.965   2.806  15.284  0.3373 -0.2873 -0.4459
  237MPD1    C5 3598   2.083   2.873  15.294  0.2444  0.2955  0.6393
  237MPD1     H 3599   1.809   2.962  15.538  0.4122 -1.3290  1.1197
  237MPD1    H1 3600   1.956   2.728  15.209  0.2437  0.4961 -1.2520
  237MPD1    H2 3601   2.195   3.041  15.362  0.5969  0.2805 -2.5144
  237MPD1    H3 3602   2.159   2.851  15.220  0.4407  0.5907  0.7521
  237MPD1     N 3603   1.742   2.757  15.366  0.4409  0.1251  0.3381
  237MPD1    H5 3604   1.731   2.699  15.283  1.4434 -1.3726  1.2577
  237MPD1    N1 3605   1.991   3.139  15.524 -0.0713 -0.2828  0.3227
  237MPD1    H6 3606   1.948   3.139  15.616  0.0056 -0.3677  0.3584
  237MPD1    H7 3607   2.086   3.172  15.544  0.6284 -2.0583 -0.1224
  238MPD1     C 3608   3.448   1.819  15.273 -0.1178 -0.5297  0.9439
  238MPD1    C1 3609   3.487   1.739  15.171 -0.4242 -0.9699  0.5295
  238MPD1    C2 3610   3.399   1.730  15.067  0.9953  0.8156 -0.6598
  238MPD1    C3 3611   3.267   1.768  15.078  0.0190  0.2824  0.2703
  238MPD1    C4 3612   3.234   1.849  15.188 -0.2717  0.3996  0.7313
  238MPD1    C5 3613   3.325   1.867  15.288 -0.6522  0.4939  0.5098
  238MPD1     H 3614   3.427   1.658  14.990  0.4174  0.5997 -0.6742
  238MPD1    H1 3615   3.136   1.886  15.215 -0.9934 -0.7377 -0.3238
  238MPD1    H2 3616   3.517   1.858  15.347  0.7858 -1.7892  0.7703
  238MPD1    H3 3617   3.304   1.933  15.372  1.2507  0.5365  0.9583
  238MPD1     N 3618   3.168   1.735  14.984 -0.5172  0.4173  0.3684
  238MPD1    H5 3619   3.068   1.747  15.001 -0.5403 -0.1614  0.6533
  238MPD1    N1 3620   3.620   1.696  15.162 -0.0408 -0.2770  0.0467
  238MPD1    H6 3621   3.667   1.684  15.252 -0.7899  0.4945  0.5492
  238MPD1    H7 3622   3.643   1.625  15.093  0.7257  0.3912 -0.3847
  239MPD1     C 3623   3.404   2.160  15.057  0.0904 -0.1829 -0.0518
  239MPD1    C1 3624   3.291   2.218  15.007  0.1222 -0.0174  0.6724
  239MPD1    C2 3625   3.299   2.327  14.922 -0.0931 -0.2096 -0.1773
  239MPD1    C3 3626   3.420   2.361  14.859 -0.5067 -0.4699  0.0502
  239MPD1    C4 3627   3.532   2.288  14.900  0.0087  0.2207  0.1663
  239MPD1    C5 3628   3.525   2.193  14.998  0.0732  0.5151 -0.0289
  239MPD1     H 3629   3.204   2.371  14.896 -0.1316  1.4521  2.7832
  239MPD1    H1 3630   3.630   2.306  14.857  0.6651 -1.2946  1.0050
  239MPD1    H2 3631   3.406   2.078  15.128  0.1317 -0.1772 -0.0459
  239MPD1    H3 3632   3.620   2.150  15.029 -0.6654 -0.8484  0.3519
  239MPD1     N 3633   3.439   2.467  14.762 -0.4905 -0.3252  0.0047
  239MPD1    H5 3634   3.535   2.492  14.738  0.2350 -2.3541  0.7892
  239MPD1    N1 3635   3.174   2.171  15.061  0.8920  0.8907 -0.0594
  239MPD1    H6 3636   3.089   2.191  15.008 -1.1688 -3.7925  1.5214
  239MPD1    H7 3637   3.169   2.070  15.067  2.1757  0.9087  1.1690
  240MPD1     C 3638   2.840   2.709  13.850 -0.7919  0.4562  0.8705
  240MPD1    C1 3639   2.970   2.666  13.879  0.6192  0.2513  0.6451
  240MPD1    C2 3640   2.986   2.530  13.894 -0.4246  0.3136  0.1092
  240MPD1    C3 3641   2.881   2.443  13.873 -0.1399  0.2754 -0.1866
  240MPD1    C4 3642   2.752   2.499  13.870  0.0576 -0.0677 -0.1846
  240MPD1    C5 3643   2.730   2.631  13.864 -0.0198 -0.0236 -1.1091
  240MPD1     H 3644   3.084   2.487  13.912 -0.1175  1.6441  1.5908
  240MPD1    H1 3645   2.666   2.433  13.876  0.7612 -1.1570 -1.8475
  240MPD1    H2 3646   2.820   2.814  13.837  1.8423  0.7600 -0.7702
  240MPD1    H3 3647   2.632   2.676  13.850  0.9546  0.9681 -4.6847
  240MPD1     N 3648   2.905   2.304  13.881  0.1480 -0.3959 -0.5409
  240MPD1    H5 3649   3.000   2.269  13.887 -0.5857 -1.8790  2.1546
  240MPD1    N1 3650   3.076   2.760  13.879  0.1095 -0.8677 -0.2745
  240MPD1    H6 3651   3.161   2.721  13.920 -2.4973 -5.3149  0.8591
  240MPD1    H7 3652   3.050   2.849  13.923  0.2538 -1.1904  0.4641
  241MPD1     C 3653   3.229   2.040  14.732 -0.0323  0.5325  0.3262
  241MPD1    C1 3654   3.282   2.065  14.611 -0.2770 -0.4061 -0.0585
  241MPD1    C2 3655   3.210   2.055  14.497  0.0770  0.6052  0.8838
  241MPD1    C3 3656   3.071   2.032  14.506  1.2293 -0.1618  0.1077
  241MPD1    C4 3657   3.015   2.018  14.630 -0.6224 -0.6378 -0.3667
  241MPD1    C5 3658   3.095   2.021  14.740  0.6692  0.3057  0.1313
  241MPD1     H 3659   3.260   2.084  14.405  2.2169  1.2800  2.2489
  241MPD1    H1 3660   2.908   2.009  14.644 -0.7923  0.1296 -1.1398
  241MPD1    H2 3661   3.281   2.028  14.827  0.5583 -0.5686 -0.1425
  241MPD1    H3 3662   3.060   2.024  14.842  1.3611  1.6117  0.3297
  241MPD1     N 3663   2.997   2.018  14.390  0.6081  0.0504 -0.6304
  241MPD1    H5 3664   2.906   1.973  14.395  2.2661 -3.1655  1.1300
  241MPD1    N1 3665   3.420   2.084  14.612  0.3943 -0.0761 -0.1559
  241MPD1    H6 3666   3.443   2.137  14.696 -2.3085 -2.4264  2.0640
  241MPD1    H7 3667   3.450   2.134  14.528 -0.9548  2.8273  1.0808
  242MPD1     C 3668   2.358   0.655  16.073 -0.8343 -0.5548 -0.5270
  242MPD1    C1 3669   2.366   0.737  15.961  0.6370 -0.0417 -0.9597
  242MPD1    C2 3670   2.389   0.684  15.837  0.3601 -0.3381 -0.5839
  242MPD1    C3 3671   2.404   0.551  15.825  0.1876 -0.8323  0.3235
  242MPD1    C4 3672   2.407   0.468  15.935 -0.3469  0.5801 -0.7112
  242MPD1    C5 3673   2.381   0.521  16.057  0.0438  0.4770 -0.0259
  242MPD1     H 3674   2.408   0.749  15.752  0.3397  0.9363  0.3734
  242MPD1    H1 3675   2.412   0.362  15.914  0.3471  0.8469 -1.9132
  242MPD1    H2 3676   2.338   0.690  16.174  0.8813 -1.6340  0.1899
  242MPD1    H3 3677   2.383   0.453  16.141 -1.0743 -1.1668 -1.3177
  242MPD1     N 3678   2.448   0.496  15.704  0.3554  0.1123 -0.4006
  242MPD1    H5 3679   2.512   0.418  15.705  0.5509  0.2629 -1.3070
  242MPD1    N1 3680   2.360   0.876  15.972 -0.3343  0.2902 -0.5451
  242MPD1    H6 3681   2.310   0.907  16.055  2.2730 -0.7696  1.4313
  242MPD1    H7 3682   2.301   0.912  15.898  1.5348  1.6392 -1.3815
  243MPD1     C 3683   3.557   3.241   0.036 -0.2355 -0.5706 -0.2317
  243MPD1    C1 3684   3.650   3.334  17.683 -0.3614 -0.7848  0.1761
  243MPD1    C2 3685   3.755   3.268  17.627 -0.4902 -0.1870  0.8179
  243MPD1    C3 3686   3.787   3.134  17.651  0.5892 -0.2182  0.0320
  243MPD1    C4 3687   3.698   3.054   0.020 -0.4104 -1.5501  0.1530
  243MPD1    C5 3688   3.582   3.109   0.054 -0.2027  0.3662 -0.3301
  243MPD1     H 3689   3.829   3.330  17.577  0.1480 -1.1157  0.6183
  243MPD1    H1 3690   3.703   2.949   0.043  0.1429 -1.3827  0.8109
  243MPD1    H2 3691   3.461   3.266   0.080  1.0751  1.1332  1.6351
  243MPD1    H3 3692   3.504   3.055   0.107  0.2010  0.8450  0.7521
  243MPD1     N 3693   3.900   3.081  17.598 -0.0438 -0.4530 -0.4261
  243MPD1    H5 3694   3.967   3.138  17.547  0.7787 -0.0442  1.1168
  243MPD1    N1 3695   3.610   3.462  17.660  0.6238  0.1403 -0.4631
  243MPD1    H6 3696   3.544   3.499   0.034  0.1748 -0.0966 -0.7668
  243MPD1    H7 3697   3.673   3.539  17.637  0.8832  0.0601 -0.0222
  244MPD1     C 3698   4.446   2.219  17.690 -0.6348 -0.5731  0.0286
  244MPD1    C1 3699   4.341   2.271   0.070  0.9775 -0.0283 -0.0664
  244MPD1    C2 3700   4.278   2.387   0.024  0.6726 -0.8310 -0.0278
  244MPD1    C3 3701   4.330   2.457  17.609  0.2694  0.0820  0.1364
  244MPD1    C4 3702   4.443   2.414  17.550  0.4511 -0.6327  0.3035
  244MPD1    C5 3703   4.493   2.292  17.585  0.4407  0.2407  0.7152
  244MPD1     H 3704   4.186   2.415   0.074  0.1256 -2.8919  0.0975
  244MPD1    H1 3705   4.481   2.465  17.462  1.0028  0.4004  1.1441
  244MPD1    H2 3706   4.485   2.118   0.004 -2.4668 -1.3097 -0.5234
  244MPD1    H3 3707   4.569   2.245  17.523  0.2158  0.2658  0.4205
  244MPD1     N 3708   4.270   2.580  17.576 -0.0315 -0.1237  0.4057
  244MPD1    H5 3709   4.188   2.597  17.632  0.1734  2.9728 -0.2161
  244MPD1    N1 3710   4.281   2.194   0.169 -0.5336  0.0600  0.0906
  244MPD1    H6 3711   4.351   2.137   0.216 -0.0418  1.4291  1.0200
  244MPD1    H7 3712   4.227   2.245   0.238  0.2844 -0.2111  0.9259
  245MPD1     C 3713   1.246   4.414  13.249 -0.1348 -0.1821 -0.2011
  245MPD1    C1 3714   1.202   4.531  13.302 -0.2646 -0.5416  0.1555
  245MPD1    C2 3715   1.300   4.627  13.329 -0.2364  0.0670 -0.1241
  245MPD1    C3 3716   1.439   4.600  13.323  0.2140  0.5126  0.2571
  245MPD1    C4 3717   1.478   4.477  13.267  0.1218  0.1981  0.0450
  245MPD1    C5 3718   1.382   4.388  13.227  0.8161 -0.2423  0.7367
  245MPD1     H 3719   1.267   4.722  13.369 -0.8572 -0.5186  0.7348
  245MPD1    H1 3720   1.583   4.451  13.258 -0.0636 -1.0870  1.5890
  245MPD1    H2 3721   1.175   4.339  13.213 -2.5408  2.0772 -0.1538
  245MPD1    H3 3722   1.410   4.301  13.169  1.1689 -1.1238  2.2506
  245MPD1     N 3723   1.530   4.699  13.372 -0.9598  0.0834  0.0105
  245MPD1    H5 3724   1.489   0.057  13.415  0.1985 -0.0306  1.3201
  245MPD1    N1 3725   1.071   4.572  13.314 -0.4452  0.0278  0.1348
  245MPD1    H6 3726   1.011   4.500  13.354 -2.1098  0.2186 -2.0730
  245MPD1    H7 3727   1.069   4.646  13.384  0.3345 -0.5739  0.7925
  246MPD1     C 3728   2.703   1.265  10.050  0.3525 -0.3983  0.1915
  246MPD1    C1 3729   2.641   1.373   9.990 -0.4827  0.5082 -0.7631
  246MPD1    C2 3730   2.560   1.353   9.880  0.2168  0.3152 -0.6601
  246MPD1    C3 3731   2.535   1.227   9.827 -0.2820  0.1716 -0.3910
  246MPD1    C4 3732   2.605   1.120   9.882 -0.0556 -0.2461 -0.3036
  246MPD1    C5 3733   2.682   1.141   9.995 -0.4894 -0.0322  0.5420
  246MPD1     H 3734   2.515   1.436   9.826 -0.4907  0.0738 -0.4314
  246MPD1    H1 3735   2.588   1.015   9.862 -3.7529  0.7720 -2.4606
  246MPD1    H2 3736   2.750   1.270  10.148  0.8598 -0.9039 -0.0227
  246MPD1    H3 3737   2.732   1.057  10.041  3.9270  1.3962 -1.6728
  246MPD1     N 3738   2.446   1.220   9.722  0.0846  0.1256 -0.2540
  246MPD1    H5 3739   2.417   1.307   9.679 -1.5258 -0.5628 -0.5676
  246MPD1    N1 3740   2.658   1.504  10.037  0.9888  0.2235  0.2268
  246MPD1    H6 3741   2.662   1.576   9.964 -3.2841  1.3312  1.0990
  246MPD1    H7 3742   2.735   1.513  10.103  1.7363 -0.2305 -0.5887
  247MPD1     C 3743   0.810   0.450  15.903  0.1698 -0.4555 -0.4492
  247MPD1    C1 3744   0.778   0.420  16.035 -0.4409  0.0708  0.6723
  247MPD1    C2 3745   0.808   0.295  16.075  0.4554 -0.0645  0.5057
  247MPD1    C3 3746   0.882   0.205  15.995  0.2306  0.2972  0.3068
  247MPD1    C4 3747   0.917   0.246  15.869  0.4245  0.2093 -0.2272
  247MPD1    C5 3748   0.882   0.369  15.822 -0.4426 -0.1764  0.4953
  247MPD1     H 3749   0.768   0.260  16.169  2.6539 -0.2941  1.3639
  247MPD1    H1 3750   0.973   0.181  15.803 -0.8819 -2.1291  0.9648
  247MPD1    H2 3751   0.802   0.550  15.861  0.3465 -1.3212 -2.5302
  247MPD1    H3 3752   0.916   0.398  15.724 -0.0646 -0.6988  0.4770
  247MPD1     N 3753   0.913   0.076  16.030 -0.4787  0.3097 -0.0410
  247MPD1    H5 3754   0.959   0.022  15.957 -1.5330 -0.5294 -0.0907
  247MPD1    N1 3755   0.694   0.495  16.115  0.6048 -0.2728  0.0705
  247MPD1    H6 3756   0.703   0.475  16.214  0.9322 -2.5510 -0.4330
  247MPD1    H7 3757   0.704   0.596  16.106  1.4886 -0.5998 -2.5090
  248MPD1     C 3758   2.197   4.341   1.656  0.3097  0.3266 -1.2083
  248MPD1    C1 3759   2.060   4.327   1.658  0.0418  0.2031  0.4226
  248MPD1    C2 3760   1.989   4.317   1.540  1.0200  0.5359 -0.0516
  248MPD1    C3 3761   2.053   4.323   1.417  0.3358  0.5334  0.5617
  248MPD1    C4 3762   2.192   4.341   1.416 -0.2631 -0.2229  0.2584
  248MPD1    C5 3763   2.263   4.338   1.538  0.6530 -0.1071 -0.3797
  248MPD1     H 3764   1.880   4.316   1.541  1.0059  1.5440 -0.3606
  248MPD1    H1 3765   2.250   4.344   1.324 -1.9403 -1.6398 -0.8651
  248MPD1    H2 3766   2.262   4.342   1.744  1.7606 -1.4077 -2.2584
  248MPD1    H3 3767   2.371   4.347   1.542  0.7561 -2.3090  1.6761
  248MPD1     N 3768   1.972   4.332   1.299 -0.2149 -0.1243 -0.7629
  248MPD1    H5 3769   1.872   4.333   1.320  0.0756 -1.1674  0.6033
  248MPD1    N1 3770   2.000   4.340   1.780  0.6879 -0.2698 -0.2031
  248MPD1    H6 3771   1.928   4.269   1.794 -0.0505  0.6366  0.6062
  248MPD1    H7 3772   2.068   4.319   1.853  0.3263  0.5350  0.3624
  249MPD1     C 3773   2.694   2.147   9.324 -0.1484  0.3974  0.0030
  249MPD1    C1 3774   2.632   2.153   9.443  0.1684 -0.7903 -0.2649
  249MPD1    C2 3775   2.672   2.253   9.529  0.3574  0.2015 -0.0707
  249MPD1    C3 3776   2.779   2.340   9.496  0.8041 -0.2509  0.9229
  249MPD1    C4 3777   2.840   2.321   9.377  0.5125 -0.2815 -0.3595
  249MPD1    C5 3778   2.801   2.225   9.295  0.5336 -0.1949  0.7315
  249MPD1     H 3779   2.626   2.249   9.627 -0.3452  1.0073 -0.3639
  249MPD1    H1 3780   2.928   2.379   9.349  0.2487  0.2031 -0.1744
  249MPD1    H2 3781   2.658   2.072   9.255 -1.9239 -0.4529  1.8315
  249MPD1    H3 3782   2.852   2.206   9.201 -0.7093 -0.8547  0.1984
  249MPD1     N 3783   2.830   2.422   9.604  0.4946 -0.5604  0.1266
  249MPD1    H5 3784   2.782   2.417   9.694 -1.1155  0.7681 -0.6354
  249MPD1    N1 3785   2.527   2.066   9.473  0.2545  0.2167  0.1382
  249MPD1    H6 3786   2.549   1.970   9.446  2.7244  1.1161 -1.0355
  249MPD1    H7 3787   2.488   2.064   9.567  1.0454 -2.1177  0.4260
  250MPD2     C 3788   4.359   2.753  13.174  0.6209  0.1104 -0.3688
  250MPD2    C1 3789   4.314   2.811  13.062 -0.1897  0.2837  0.0089
  250MPD2    C2 3790   4.210   2.743  12.996  0.5178 -0.2070  0.3286
  250MPD2    C3 3791   4.148   2.631  13.045 -0.0829  0.0063 -0.9436
  250MPD2    C4 3792   4.192   2.584  13.169  0.4618  0.4037 -0.3542
  250MPD2    C5 3793   4.297   2.646  13.236 -0.1072 -0.9118  0.1546
  250MPD2     H 3794   4.192   2.777  12.895  1.4748 -0.3676  0.1106
  250MPD2    H1 3795   4.151   2.493  13.212  1.6965  1.1207  2.3670
  250MPD2    H2 3796   4.437   2.805  13.228  0.3359  1.9188 -1.6855
  250MPD2    H3 3797   4.332   2.598  13.326  0.6533  0.9128  0.8357
  250MPD2     N 3798   4.040   2.565  12.981  0.2978 -0.2609  0.1824
  250MPD2    H5 3799   4.022   2.469  13.009 -0.7567  0.3848  1.6933
  250MPD2    N1 3800   4.361   2.939  13.020 -0.1709 -0.2813 -0.9512
  250MPD2    H7 3801   4.448   2.968  13.062 -0.1779  0.0784 -1.1881
  251TMC3    C1 3802   4.373   3.144  12.900  0.9275  0.0078 -0.0093
  251TMC3    C2 3803   4.291   3.257  12.895  0.9349  0.2133  0.6316
  251TMC3    C3 3804   4.346   3.384  12.892 -0.3038  0.8995 -1.0591
  251TMC3    C4 3805   4.504   3.161  12.916 -0.3486  0.0252  0.4151
  251TMC3    C5 3806   4.555   3.285  12.908 -0.1963  0.2352  0.5626
  251TMC3    C6 3807   4.484   3.401  12.893  0.2404 -0.1535  0.6493
  251TMC3     C 3808   4.305   3.021  12.921 -0.2862  0.7214 -0.2948
  251TMC3     O 3809   4.195   3.015  12.863 -0.2194 -0.3897  0.0831
  251TMC3     H 3810   4.186   3.237  12.908  0.9429  0.0993  0.5152
  251TMC3    H1 3811   4.567   3.073  12.909  0.2034  0.5012 -0.6476
  251TMC3    H2 3812   4.529   3.499  12.901 -0.7829  0.2953  0.8264
  251TMC3    C7 3813   4.700   3.282  12.912 -0.0963 -0.2239  0.1904
  251TMC3    C8 3814   4.265   3.507  12.906  0.2832  0.4402  0.5202
  251TMC3    O1 3815   0.020   3.190  12.978 -0.3498 -0.1029  0.4708
  251TMC3    O2 3816   4.332   3.611  12.903 -0.1173  0.7887  0.0154
  252TMC3    C1 3817   4.584   4.288   9.242 -0.6621 -0.1742  0.8400
  252TMC3    C2 3818   4.702   4.336   9.198 -0.1395  0.3311 -0.2915
  252TMC3    C3 3819   0.089   4.278   9.264 -0.3443  0.2708 -0.0196
  252TMC3    C4 3820   4.560   4.192   9.336 -0.6679 -0.8107  0.3335
  252TMC3    C5 3821   4.672   4.143   9.399 -0.7355  0.2530 -1.0705
  252TMC3    C6 3822   0.074   4.182   9.367 -0.4219  0.0095 -0.5233
  252TMC3     C 3823   4.471   4.326   9.163 -0.7096  0.2920  0.0269
  252TMC3     O 3824   4.356   4.332   9.214 -0.0093 -0.2674  0.5948
  252TMC3     H 3825   4.711   4.405   9.115  0.3539 -1.2212 -1.5481
  252TMC3    H1 3826   4.457   4.173   9.362 -1.3603  3.0474  0.4290
  252TMC3    H2 3827   0.162   4.150   9.423 -0.8663 -0.2980 -0.0040
  252TMC3    C7 3828   4.646   4.053   9.511  0.0700 -0.0028 -0.5915
  252TMC3    C8 3829   0.216   4.347   9.242  0.3122  0.4540 -0.3750
  252TMC3    O1 3830   4.532   4.043   9.548 -0.5636  0.2741  0.3398
  252TMC3    O2 3831   0.227   4.409   9.139  0.0018 -0.5077  0.1978
  253MPD2     C 3832   0.866   2.776  14.965  0.1366  0.4362  0.4374
  253MPD2    C1 3833   0.742   2.796  15.006  0.0733  0.3842  0.0830
  253MPD2    C2 3834   0.719   2.847  15.138 -0.0251  0.4671 -0.7485
  253MPD2    C3 3835   0.826   2.860  15.229 -0.2271  0.1688  0.1180
  253MPD2    C4 3836   0.951   2.830  15.186  0.4352  0.3622 -0.3110
  253MPD2    C5 3837   0.969   2.797  15.058  0.4741 -0.3902 -0.1272
  253MPD2     H 3838   0.618   2.873  15.169 -0.5309  0.0305 -2.0324
  253MPD2    H1 3839   1.031   2.840  15.259 -1.0584  0.4104  1.3008
  253MPD2    H2 3840   0.889   2.747  14.863  0.3876  0.8127  0.3863
  253MPD2    H3 3841   1.076   2.793  15.038  0.1406 -1.1906 -1.7395
  253MPD2     N 3842   0.809   2.900  15.361  0.1535  0.5139  0.1485
  253MPD2    H5 3843   0.888   2.891  15.424  1.9171  1.7318 -1.9140
  253MPD2    N1 3844   0.625   2.768  14.924  0.3009 -1.1520  0.7268
  253MPD2    H7 3845   0.533   2.786  14.964  0.2483 -0.1075  0.1436
  254TMC3    C1 3846   0.720   3.016  15.550 -0.3733  0.7725  0.2257
  254TMC3    C2 3847   0.618   3.092  15.604 -0.1918  0.5021 -0.5446
  254TMC3    C3 3848   0.639   3.163  15.719 -0.1113 -0.8338 -0.1026
  254TMC3    C4 3849   0.840   2.998  15.621  0.3433  0.2750  0.3891
  254TMC3    C5 3850   0.855   3.067  15.735 -0.1969  0.4589 -0.0061
  254TMC3    C6 3851   0.763   3.152  15.790  0.3168  0.1239  0.6626
  254TMC3     C 3852   0.701   2.960  15.415 -0.0366 -0.3064  0.0757
  254TMC3     O 3853   0.591   2.974  15.360 -0.2147 -0.7481 -0.2406
  254TMC3     H 3854   0.535   3.116  15.539  0.8788  3.1968 -0.8820
  254TMC3    H1 3855   0.921   2.936  15.586 -1.7072 -2.5486  0.5791
  254TMC3    H2 3856   0.780   3.206  15.883 -1.0120  0.0166  0.9738
  254TMC3    C7 3857   0.976   3.035  15.805  0.1843 -0.3042 -0.1025
  254TMC3    C8 3858   0.538   3.153  15.818 -0.0873  0.1199 -0.4987
  254TMC3    O1 3859   1.074   3.019  15.731 -0.2072  0.3438 -0.0601
  254TMC3    O2 3860   0.543   3.228  15.916 -0.0012 -0.2438  0.0018
  255MPD2     C 3861   4.443   0.671  10.262  0.6054 -0.5378 -1.0832
  255MPD2    C1 3862   4.509   0.765  10.196  0.3582  0.9023 -0.0085
  255MPD2    C2 3863   4.564   0.738  10.072 -0.1533  0.3705 -0.0760
  255MPD2    C3 3864   4.555   0.615  10.015  0.6608 -0.1220 -0.0250
  255MPD2    C4 3865   4.500   0.508  10.090  0.1605 -0.4340 -0.3034
  255MPD2    C5 3866   4.450   0.541  10.214 -0.4803  0.5559  0.4797
  255MPD2     H 3867   4.616   0.815  10.016 -0.3049  0.2836 -0.3361
  255MPD2    H1 3868   4.487   0.406  10.058 -1.5638  0.7501 -3.3639
  255MPD2    H2 3869   4.402   0.684  10.362 -0.1470  0.4909 -1.5270
  255MPD2    H3 3870   4.421   0.451  10.267  1.0081 -1.7098 -2.5448
  255MPD2     N 3871   4.611   0.605   9.890  0.6971 -0.2085  0.0577
  255MPD2    H5 3872   4.653   0.690   9.852  0.2528 -0.5193 -1.1192
  255MPD2    N1 3873   4.516   0.890  10.256  0.0295  0.2087  0.0828
  255MPD2    H7 3874   4.452   0.902  10.334  0.2739 -3.9235  0.8772
  256TMC3    C1 3875   4.560   1.118  10.260 -0.2885 -1.0404 -0.6975
  256TMC3    C2 3876   4.663   1.210  10.253  0.4034 -0.4005 -0.4551
  256TMC3    C3 3877   4.635   1.330  10.194  0.8647 -0.6649  0.1324
  256TMC3    C4 3878   4.432   1.144  10.216  0.0797 -0.1650  0.3808
  256TMC3    C5 3879   4.421   1.257  10.135 -1.0108 -0.1905  0.7080
  256TMC3    C6 3880   4.523   1.352  10.125 -0.6868  0.4738  0.2972
  256TMC3     C 3881   4.601   0.990  10.219  0.2532  0.6278  0.0310
  256TMC3     O 3882   4.711   0.972  10.164 -0.5266 -0.6144 -0.1029
  256TMC3     H 3883   0.040   1.183  10.284  0.7476 -0.2710 -1.4550
  256TMC3    H1 3884   4.355   1.068  10.216  1.1354 -1.2471  1.2197
  256TMC3    H2 3885   4.519   1.431  10.051 -0.3218 -0.8474 -1.1398
  256TMC3    C7 3886   4.342   1.248  10.015  1.0771 -0.6953 -0.5082
  256TMC3    C8 3887   0.034   1.406  10.160 -0.4781  0.5162  0.6902
  256TMC3    O1 3888   4.401   1.288   9.913  0.2448 -0.2290 -0.1857
  256TMC3    O2 3889   0.141   1.366  10.211  0.2331  0.1075 -0.6379
  257MPD2     C 3890   3.397   3.230  13.350 -0.5098 -0.1430  0.2730
  257MPD2    C1 3891   3.347   3.148  13.253 -0.0073 -0.5754 -0.1968
  257MPD2    C2 3892   3.324   3.016  13.285 -0.1622  0.1804  0.3910
  257MPD2    C3 3893   3.325   2.976  13.418 -0.3503  0.7955  1.1780
  257MPD2    C4 3894   3.364   3.063  13.514  0.2409 -0.7810 -0.1987
  257MPD2    C5 3895   3.406   3.186  13.478 -0.1679  0.1159  0.0710
  257MPD2     H 3896   3.299   2.945  13.206 -1.0265  2.3141 -1.2605
  257MPD2    H1 3897   3.370   3.038  13.619  1.8288  0.1517 -0.0667
  257MPD2    H2 3898   3.414   3.333  13.320 -0.2182 -0.6491 -1.2979
  257MPD2    H3 3899   3.429   3.256  13.557 -0.5734  0.9870 -0.5763
  257MPD2     N 3900   3.283   2.845  13.448  0.0827  0.5780  0.5473
  257MPD2    H5 3901   3.226   2.793  13.382  1.4293  0.3656 -0.4313
  257MPD2    N1 3902   3.349   3.189  13.120 -0.3776 -1.0221 -0.2518
  257MPD2    H7 3903   3.409   3.270  13.102  1.1391 -1.7782  1.4407
  258TMC3    C1 3904   3.227   2.652  13.584 -0.9335 -0.1806 -0.6664
  258TMC3    C2 3905   3.128   2.616  13.502  0.0570 -0.6698  1.2148
  258TMC3    C3 3906   3.072   2.492  13.505  0.1483 -0.9430 -0.1402
  258TMC3    C4 3907   3.268   2.561  13.674  0.2323 -0.7612  0.6999
  258TMC3    C5 3908   3.224   2.433  13.671 -0.2269 -0.2216 -0.1513
  258TMC3    C6 3909   3.128   2.394  13.580  0.1868  0.6483 -0.9813
  258TMC3     C 3910   3.298   2.780  13.570  0.4005  0.3844  0.2349
  258TMC3     O 3911   3.386   2.814  13.649 -0.0080  0.0068 -0.2336
  258TMC3     H 3912   3.089   2.695  13.439  0.5300 -1.0617  0.4382
  258TMC3    H1 3913   3.342   2.580  13.750  1.1978 -1.1213 -0.1458
  258TMC3    H2 3914   3.096   2.291  13.581 -0.4535  0.8462 -1.1541
  258TMC3    C7 3915   3.264   2.335  13.772 -0.1903 -0.0477  0.0126
  258TMC3    C8 3916   2.969   2.443  13.416  0.2748  0.5574  0.1597
  258TMC3    O1 3917   3.181   2.252  13.806 -0.4137  0.3610 -0.9485
  258TMC3    O2 3918   2.938   2.325  13.441  0.1099  0.1931 -0.1741
  259MPD2     C 3919   1.947   3.997   1.081  0.1992  0.3821  0.2638
  259MPD2    C1 3920   2.056   3.924   1.120 -0.0299 -0.4699  0.0245
  259MPD2    C2 3921   2.145   3.879   1.021  0.2315  0.0478  0.4044
  259MPD2    C3 3922   2.129   3.900   0.883 -0.4468  0.5377  0.3670
  259MPD2    C4 3923   2.011   3.964   0.844 -0.0265 -0.0713 -0.9112
  259MPD2    C5 3924   1.925   4.013   0.938 -0.7910 -0.0881 -0.1007
  259MPD2     H 3925   2.235   3.828   1.053  0.4572  0.5223  0.5311
  259MPD2    H1 3926   1.983   3.970   0.740  0.2748 -0.1809 -0.9973
  259MPD2    H2 3927   1.872   4.023   1.155  2.4640  0.0580  2.6345
  259MPD2    H3 3928   1.828   4.048   0.904 -0.3458 -0.8524 -2.0969
  259MPD2     N 3929   2.229   3.855   0.791 -0.6711  0.3918 -0.7373
  259MPD2    H5 3930   2.299   3.792   0.827 -0.5616 -0.2429 -2.0910
  259MPD2    N1 3931   2.088   3.926   1.260 -0.2866 -0.5994  0.1086
  259MPD2    H7 3932   2.018   3.953   1.328  1.3509  0.8686  1.2148
  260TMC3    C1 3933   2.353   3.865   0.589 -0.0853 -0.7359  0.6691
  260TMC3    C2 3934   2.420   3.965   0.518 -0.0087 -0.2129 -0.6819
  260TMC3    C3 3935   2.550   3.941   0.495  0.1258  0.0575  0.0377
  260TMC3    C4 3936   2.421   3.758   0.644 -0.3663  0.1006 -0.2157
  260TMC3    C5 3937   2.552   3.736   0.610 -0.1543  0.4501 -0.5809
  260TMC3    C6 3938   2.621   3.832   0.535 -0.4255 -0.5464  0.7158
  260TMC3     C 3939   2.231   3.897   0.660 -0.7865 -0.2295  0.0148
  260TMC3     O 3940   2.168   3.988   0.610  0.5484  0.2643 -0.1141
  260TMC3     H 3941   2.378   4.060   0.485 -1.6601 -0.3561  0.9865
  260TMC3    H1 3942   2.368   3.673   0.684 -0.3004 -1.0533 -2.5354
  260TMC3    H2 3943   2.726   3.817   0.509 -0.7800 -0.6765 -0.6395
  260TMC3    C7 3944   2.598   3.601   0.610  0.0551  0.4521 -1.3003
  260TMC3    C8 3945   2.621   4.060   0.446 -0.1876  0.0531  0.6477
  260TMC3    O1 3946   2.553   3.524   0.695  0.7908  0.5711  0.4346
  260TMC3    O2 3947   2.560   4.149   0.384  0.2085  0.1792 -0.2809
  261MPD2     C 3948   3.494   2.814  12.416 -0.0618 -0.5325 -0.2201
  261MPD2    C1 3949   3.615   2.830  12.467 -0.3195  0.1693  0.4029
  261MPD2    C2 3950   3.684   2.951  12.450 -0.1245 -0.1146 -0.1514
  261MPD2    C3 3951   3.630   3.049  12.369 -0.7144  0.2311 -0.3747
  261MPD2    C4 3952   3.509   3.032  12.308 -0.3859  0.0313  0.5929
  261MPD2    C5 3953   3.445   2.914  12.339  0.0521 -0.0635  0.4555
  261MPD2     H 3954   3.787   2.962  12.481 -0.5302  0.4030  0.9838
  261MPD2    H1 3955   3.467   3.108  12.242 -0.1671  0.0996  0.5302
  261MPD2    H2 3956   3.424   2.733  12.432 -0.3777 -0.0876  0.5991
  261MPD2    H3 3957   3.344   2.903  12.303 -0.3324 -1.6530  2.0339
  261MPD2     N 3958   3.706   3.164  12.347 -0.8411 -0.6729 -0.5413
  261MPD2    H5 3959   3.799   3.167  12.389 -0.5153  3.7341 -1.6039
  261MPD2    N1 3960   3.664   2.725  12.547 -0.0571 -0.0016  0.5202
  261MPD2    H7 3961   3.746   2.747  12.603 -0.0743 -1.7613  1.2238
  262TMC3    C1 3962   3.762   3.373  12.266  0.3057  0.6286  0.6487
  262TMC3    C2 3963   3.726   3.504  12.279  0.4395 -0.3515 -0.0780
  262TMC3    C3 3964   3.825   3.589  12.281 -0.0195  0.4658  0.4183
  262TMC3    C4 3965   3.893   3.333  12.243  0.0437  0.0724 -0.3943
  262TMC3    C5 3966   3.991   3.423  12.253  0.8376 -0.7374  0.6014
  262TMC3    C6 3967   3.958   3.550  12.276 -0.5012 -0.3760  0.0776
  262TMC3     C 3968   3.660   3.272  12.274  0.1472  0.8736  0.0709
  262TMC3     O 3969   3.545   3.310  12.246  0.7671  0.5801 -0.1766
  262TMC3     H 3970   3.622   3.532  12.294  0.4123  0.7818 -2.3213
  262TMC3    H1 3971   3.909   3.226  12.234 -1.1697 -0.0930 -0.5564
  262TMC3    H2 3972   4.036   3.626  12.276 -0.7510 -0.1169  2.0391
  262TMC3    C7 3973   4.126   3.395  12.219  0.3147 -0.1581 -0.0150
  262TMC3    C8 3974   3.811   3.733  12.259 -0.1650 -0.2986 -0.0875
  262TMC3    O1 3975   4.165   3.282  12.233 -0.2561 -0.0237  0.3059
  262TMC3    O2 3976   3.908   3.809  12.260 -0.0495  0.6814 -0.3960
  263MPD2     C 3977   0.313   2.092  11.262 -0.4197  0.2691  0.2326
  263MPD2    C1 3978   0.439   2.132  11.285  0.2607  0.2463  0.0949
  263MPD2    C2 3979   0.505   2.203  11.185 -0.2363 -0.6447 -0.1264
  263MPD2    C3 3980   0.449   2.214  11.062  0.1238  0.1314  0.2480
  263MPD2    C4 3981   0.327   2.154  11.034  0.4420 -0.1903  0.3328
  263MPD2    C5 3982   0.261   2.093  11.139  0.3081 -0.4666  0.7468
  263MPD2     H 3983   0.605   2.240  11.204  0.0452 -1.1255 -0.6843
  263MPD2    H1 3984   0.282   2.150  10.936  0.9829  3.1191 -0.0756
  263MPD2    H2 3985   0.248   2.050  11.338 -1.0614 -0.0287 -0.4791
  263MPD2    H3 3986   0.158   2.060  11.124 -0.3979  1.4402  1.3875
  263MPD2     N 3987   0.530   2.268  10.965 -0.5147  0.1302 -0.2912
  263MPD2    H5 3988   0.616   2.311  10.996 -0.3160 -1.1571  0.9144
  263MPD2    N1 3989   0.498   2.092  11.407  0.2369 -0.1183  0.1318
  263MPD2    H7 3990   0.447   2.031  11.469 -3.6085  1.1973 -1.7564
  264TMC3    C1 3991   0.599   2.374  10.776  0.6241 -0.2860 -0.2157
  264TMC3    C2 3992   0.605   2.498  10.833  0.0372 -0.1553  0.0499
  264TMC3    C3 3993   0.705   2.586  10.795  0.6345 -0.5537 -0.4642
  264TMC3    C4 3994   0.690   2.332  10.685 -0.1636  0.4266 -0.5947
  264TMC3    C5 3995   0.796   2.419  10.652 -0.0081 -0.2507  0.5894
  264TMC3    C6 3996   0.799   2.547  10.702  0.0137 -0.0919  0.0814
  264TMC3     C 3997   0.505   2.277  10.833 -0.7395  0.6485 -0.7332
  264TMC3     O 3998   0.445   2.201  10.756 -0.0359  0.1935  0.2774
  264TMC3     H 3999   0.530   2.538  10.901  0.8693 -0.4180  1.1258
  264TMC3    H1 4000   0.689   2.233  10.640 -1.9962  1.2662 -2.4024
  264TMC3    H2 4001   0.870   2.622  10.671  1.4058 -1.3333  0.2285
  264TMC3    C7 4002   0.885   2.394  10.536  0.0599  0.0372  0.2660
  264TMC3    C8 4003   0.709   2.721  10.842  0.8004 -0.9339 -0.1154
  264TMC3    O1 4004   0.906   2.279  10.499  0.2088  0.4783 -0.6263
  264TMC3    O2 4005   0.779   2.800  10.777  0.3930  0.4562  0.4964
  265MPD2     C 4006   2.184   2.534  15.550  0.5466 -0.0804 -0.0240
  265MPD2    C1 4007   2.247   2.641  15.499 -0.0961 -0.5151  0.3570
  265MPD2    C2 4008   2.274   2.649  15.360 -0.4474 -0.0061  0.6315
  265MPD2    C3 4009   2.249   2.545  15.273 -0.0366 -0.5040  0.2404
  265MPD2    C4 4010   2.194   2.435  15.330  0.2655  0.1223  0.2620
  265MPD2    C5 4011   2.160   2.431  15.464 -0.0362  1.0551  0.0764
  265MPD2     H 4012   2.322   2.741  15.329  0.0187 -0.4630 -0.0145
  265MPD2    H1 4013   2.174   2.344  15.275  3.6249 -0.4749  0.0202
  265MPD2    H2 4014   2.144   2.517  15.649  0.6653  0.3415  0.0934
  265MPD2    H3 4015   2.118   2.336  15.494  2.6559 -0.2608 -0.2939
  265MPD2     N 4016   2.284   2.542  15.138 -0.3518  0.7957 -0.6194
  265MPD2    H5 4017   2.287   2.448  15.099  1.1506 -0.5638  2.8060
  265MPD2    N1 4018   2.272   2.753  15.582 -0.3338  0.8332  0.1438
  265MPD2    H7 4019   2.325   2.828  15.539  0.8010 -1.2835 -2.2054
  266TMC3    C1 4020   2.298   2.896  15.764  0.3450 -0.4699  0.1335
  266TMC3    C2 4021   2.317   2.901  15.899  0.0781 -0.0393  0.2839
  266TMC3    C3 4022   2.346   3.023  15.951  0.8832  0.5323  0.1281
  266TMC3    C4 4023   2.303   3.000  15.682 -0.6275  0.0258  0.6909
  266TMC3    C5 4024   2.340   3.123  15.733  0.1553 -0.6380  0.3696
  266TMC3    C6 4025   2.361   3.133  15.870  0.6652 -0.4203 -0.0445
  266TMC3     C 4026   2.257   2.763  15.714 -0.3986 -0.2453  0.6008
  266TMC3     O 4027   2.239   2.678  15.805  0.0141  0.2209 -0.1191
  266TMC3     H 4028   2.320   2.811  15.960 -0.6848 -0.4775 -0.3293
  266TMC3    H1 4029   2.254   2.982  15.587 -1.5146 -0.5976  1.2776
  266TMC3    H2 4030   2.409   3.217  15.918 -0.6032 -0.9240  2.1030
  266TMC3    C7 4031   2.295   3.236  15.654  0.5447 -0.2418  0.1341
  266TMC3    C8 4032   2.387   3.026  16.090 -0.5689 -0.7060 -0.4747
  266TMC3    O1 4033   2.266   3.216  15.534 -0.1817  0.3670 -0.0941
  266TMC3    O2 4034   2.400   2.915  16.137  0.3224 -0.3916  0.5944
  267MPD2     C 4035   0.267   3.575  17.165 -0.6999 -0.2060  0.8156
  267MPD2    C1 4036   0.279   3.703  17.215 -0.0558 -0.0040 -0.6913
  267MPD2    C2 4037   0.192   3.799  17.165  0.0003 -0.3337 -0.0992
  267MPD2    C3 4038   0.097   3.771  17.068 -0.0486  0.0880 -0.3494
  267MPD2    C4 4039   0.097   3.647  17.012  0.2893  0.4144  0.1265
  267MPD2    C5 4040   0.183   3.555  17.060 -0.2322 -0.7296 -0.1661
  267MPD2     H 4041   0.185   3.891  17.222  1.5727  0.0765 -0.5580
  267MPD2    H1 4042   0.027   3.621  16.934  2.2567 -0.8046 -1.2308
  267MPD2    H2 4043   0.335   3.500  17.203  0.0077  0.2237  0.3912
  267MPD2    H3 4044   0.185   3.451  17.028 -2.1991 -0.8687  0.2234
  267MPD2     N 4045   4.717   3.862  17.018  0.0853 -0.6085  0.1589
  267MPD2    H5 4046   4.660   3.833  16.939 -0.5765 -2.7019  1.3848
  267MPD2    N1 4047   0.356   3.743  17.327 -0.0292  0.0962  0.2063
  267MPD2    H7 4048   0.335   3.839  17.355  0.1618  0.5578 -1.2381
  268TMC3    C1 4049   0.537   3.758  17.478 -0.2904  0.1387 -0.2251
  268TMC3    C2 4050   0.550   3.894  17.455 -0.7795  0.1006  0.2253
  268TMC3    C3 4051   0.641   3.951  17.542 -0.8050  0.1466  0.5523
  268TMC3    C4 4052   0.585   3.690  17.582 -0.7745  0.6445 -0.3132
  268TMC3    C5 4053   0.667   3.755  17.666  0.6054 -0.0913  0.2673
  268TMC3    C6 4054   0.704   3.885  17.645 -0.2538  0.2038 -0.6959
  268TMC3     C 4055   0.463   3.680  17.381 -0.2893 -0.0395 -0.0435
  268TMC3     O 4056   0.495   3.565  17.362 -0.2993  0.3430  0.2357
  268TMC3     H 4057   0.518   3.947  17.367 -1.2813 -0.5666  0.0131
  268TMC3    H1 4058   0.565   3.584  17.590 -0.5693  0.7288  1.2555
  268TMC3    H2 4059   0.772   3.935   0.017 -0.9508 -2.2986  1.8746
  268TMC3    C7 4060   0.687   3.684   0.093 -0.3600 -0.2973 -0.4124
  268TMC3    C8 4061   0.691   4.083  17.509 -0.9887  0.1398 -0.9705
  268TMC3    O1 4062   0.599   3.611   0.136 -0.4032  0.0279  0.2795
  268TMC3    O2 4063   0.786   4.125  17.571 -0.1764  0.1541  0.9027
  269MPD2     C 4064   0.086   3.116  15.735  0.0442 -0.3127 -0.6642
  269MPD2    C1 4065   4.713   3.146  15.822  0.7853  0.2421 -0.0818
  269MPD2    C2 4066   4.708   3.281  15.872  0.2537 -0.0068  0.3820
  269MPD2    C3 4067   0.073   3.377  15.831  0.3334 -0.1385 -0.2629
  269MPD2    C4 4068   0.165   3.338  15.741  0.1124  0.2396 -0.9806
  269MPD2    C5 4069   0.170   3.210  15.693 -0.6803 -0.2907  0.4091
  269MPD2     H 4070   4.645   3.312  15.955 -0.5013 -1.5287  0.3873
  269MPD2    H1 4071   0.230   3.415  15.699  0.5662 -0.5834 -1.7914
  269MPD2    H2 4072   0.095   3.010  15.711  1.7621 -0.3480  0.0939
  269MPD2    H3 4073   0.251   3.194  15.622 -0.0450 -2.4195  1.6311
  269MPD2     N 4074   0.054   3.504  15.873  0.3842 -0.2984 -0.3347
  269MPD2    H5 4075   4.685   3.523  15.909  1.0659  0.9510  0.7550
  269MPD2    N1 4076   4.619   3.048  15.855  0.0063  0.0924  0.3530
  269MPD2    H7 4077   4.636   2.953  15.823 -1.4782 -0.2222  0.5135
  270TMC3    C1 4078   4.444   2.940  15.962  0.0934  0.6251  0.7569
  270TMC3    C2 4079   4.319   2.945  15.906 -0.0042 -0.3169  0.0552
  270TMC3    C3 4080   4.262   2.831  15.852 -0.1172  0.9332  0.0440
  270TMC3    C4 4081   4.513   2.826  15.969  0.1029 -0.0225  0.0368
  270TMC3    C5 4082   4.449   2.714  15.926  0.9463  0.8883  0.3239
  270TMC3    C6 4083   4.320   2.713  15.881 -0.4613  0.3960  0.3938
  270TMC3     C 4084   4.518   3.057  15.947  0.2634  0.4513 -0.4988
  270TMC3     O 4085   4.487   3.155  16.021 -0.0939 -0.2132 -0.1155
  270TMC3     H 4086   4.289   3.045  15.878 -3.0268 -1.4431 -0.6767
  270TMC3    H1 4087   4.610   2.829  16.017 -1.1313  0.9165  2.4567
  270TMC3    H2 4088   4.268   2.625  15.846  0.3770 -0.0737  0.3152
  270TMC3    C7 4089   4.527   2.595  15.950 -0.5847 -1.0194 -0.0978
  270TMC3    C8 4090   4.245   2.830  15.709 -0.4205 -0.4237  0.0694
  270TMC3    O1 4091   4.646   2.611  15.965 -0.1076 -0.0038 -0.3964
  270TMC3    O2 4092   4.329   2.890  15.640  0.3691  0.1749  0.1562
  271MPD2     C 4093   3.817   2.927  14.079  0.2591 -0.4930 -0.3042
  271MPD2    C1 4094   3.766   2.929  14.211 -0.6277  0.0177  0.5679
  271MPD2    C2 4095   3.641   2.981  14.233 -0.2035 -0.1656  0.0736
  271MPD2    C3 4096   3.558   3.000  14.124 -0.2228 -0.1464  0.7174
  271MPD2    C4 4097   3.602   2.985  13.994  0.1725  0.5085  0.6987
  271MPD2    C5 4098   3.732   2.950  13.972  0.1710 -0.0100 -0.1970
  271MPD2     H 4099   3.597   2.977  14.332 -0.4556 -1.8100 -0.0978
  271MPD2    H1 4100   3.553   3.002  13.899  0.8666  0.0778  0.2599
  271MPD2    H2 4101   3.916   2.892  14.050 -0.5136 -2.6215 -0.3346
  271MPD2    H3 4102   3.776   2.948  13.873 -0.3733 -1.4243 -0.4020
  271MPD2     N 4103   3.427   3.044  14.134  0.6040  0.3698 -0.3910
  271MPD2    H5 4104   3.367   3.042  14.052  0.1913 -3.6422 -0.0070
  271MPD2    N1 4105   3.844   2.872  14.315  0.2077  1.0994  0.1470
  271MPD2    H7 4106   3.803   2.867  14.408 -0.0397 -2.5155 -0.1585
  272TMC3    C1 4107   4.014   2.736  14.424  0.5895  0.0110  0.5190
  272TMC3    C2 4108   4.095   2.632  14.402 -0.8000 -0.4946  0.1470
  272TMC3    C3 4109   4.143   2.562  14.511  0.4129  0.2433  1.0835
  272TMC3    C4 4110   3.998   2.790  14.541 -0.1651  0.1567  0.8323
  272TMC3    C5 4111   4.053   2.731  14.655 -0.4012  0.0517  0.0066
  272TMC3    C6 4112   4.113   2.608  14.636  0.6405 -0.4628  0.5978
  272TMC3     C 4113   3.963   2.807  14.302  0.5031  0.3245 -0.2839
  272TMC3     O 4114   4.030   2.786  14.202 -0.3047 -0.0514  0.7345
  272TMC3     H 4115   4.116   2.599  14.300 -0.7039 -1.7412  0.5739
  272TMC3    H1 4116   3.953   2.889  14.543  0.2446  0.3651 -0.7795
  272TMC3    H2 4117   4.127   2.543  14.721  0.7882 -0.1835  0.7866
  272TMC3    C7 4118   4.045   2.777  14.792 -0.2159  0.1111 -0.0594
  272TMC3    C8 4119   4.266   2.484  14.492 -0.2121  0.5493 -0.2084
  272TMC3    O1 4120   4.044   2.689  14.882  0.2481 -0.3702  0.2660
  272TMC3    O2 4121   4.301   2.472  14.378  0.8415  0.4177 -0.8558
  273MPD2     C 4122   0.645   1.252  11.848  0.0940 -0.1442 -0.2852
  273MPD2    C1 4123   0.768   1.287  11.815 -0.1257  0.3859 -0.5988
  273MPD2    C2 4124   0.810   1.248  11.688  0.0213  0.6537 -0.1564
  273MPD2    C3 4125   0.739   1.170  11.601  0.7344  0.7169 -0.7352
  273MPD2    C4 4126   0.610   1.139  11.643  0.0111  0.1874 -0.8949
  273MPD2    C5 4127   0.568   1.178  11.767  0.3166 -0.0154  0.3775
  273MPD2     H 4128   0.913   1.266  11.662 -0.0103  2.1783  0.7868
  273MPD2    H1 4129   0.534   1.087  11.585 -1.1389  2.1270 -1.1283
  273MPD2    H2 4130   0.610   1.268  11.950 -1.4588  0.4178 -0.9233
  273MPD2    H3 4131   0.467   1.144  11.789 -0.4200  0.7816 -1.7540
  273MPD2     N 4132   0.788   1.112  11.479  0.2212 -0.1938 -0.3544
  273MPD2    H5 4133   0.717   1.096  11.408  0.2361 -0.8709 -0.2166
  273MPD2    N1 4134   0.845   1.364  11.914  0.5710  0.2153 -0.0973
  273MPD2    H7 4135   0.802   1.388  12.003 -2.0235  1.8044 -1.7781
  274TMC3    C1 4136   0.947   1.110  11.311  0.6571  0.1628  0.1148
  274TMC3    C2 4137   0.856   1.084  11.210  0.1001 -0.4999 -0.5695
  274TMC3    C3 4138   0.863   1.160  11.099  0.9073  0.1711  0.5607
  274TMC3    C4 4139   1.058   1.185  11.287 -0.3575 -0.0038 -0.3800
  274TMC3    C5 4140   1.056   1.267  11.179 -0.0490  0.1344 -0.1306
  274TMC3    C6 4141   0.965   1.245  11.077  0.6317  0.0466 -0.1515
  274TMC3     C 4142   0.918   1.100  11.451  0.1558  0.8738 -0.8832
  274TMC3     O 4143   1.011   1.111  11.533 -0.1067 -0.0085  0.1012
  274TMC3     H 4144   0.779   1.008  11.221 -0.9170  0.5737 -0.2673
  274TMC3    H1 4145   1.132   1.206  11.363 -0.1623 -2.3846  0.0807
  274TMC3    H2 4146   0.959   1.315  10.995  0.3081 -1.0670 -1.0750
  274TMC3    C7 4147   1.049   1.407  11.221  0.1535  0.2315  1.4124
  274TMC3    C8 4148   0.746   1.174  11.010 -0.3864  0.3175 -0.3357
  274TMC3    O1 4149   0.960   1.483  11.193  0.1093  0.1516  0.0918
  274TMC3    O2 4150   0.640   1.124  11.055 -0.1524 -0.5482  0.0532
  275MPD2     C 4151   0.693   3.856  14.127  0.5068  0.5494  0.2414
  275MPD2    C1 4152   0.698   3.754  14.215  0.3372  0.4680  0.0737
  275MPD2    C2 4153   0.599   3.655  14.212 -0.3693  0.4342 -0.2999
  275MPD2    C3 4154   0.494   3.663  14.115 -0.0866  0.2660  0.4321
  275MPD2    C4 4155   0.499   3.767  14.021 -0.2433 -0.9375  0.5146
  275MPD2    C5 4156   0.596   3.864  14.028 -0.1901  0.3752 -0.4644
  275MPD2     H 4157   0.600   3.573  14.283  1.6043 -0.2258 -1.0919
  275MPD2    H1 4158   0.439   3.776  13.931  1.4189 -0.2431 -0.5139
  275MPD2    H2 4159   0.770   3.932  14.123 -0.4035  1.5226  1.3230
  275MPD2    H3 4160   0.599   3.939  13.949 -1.4417  1.2714  0.3213
  275MPD2     N 4161   0.398   3.567  14.098 -0.6626  0.0314  0.0813
  275MPD2    H5 4162   0.342   3.559  14.014 -1.6376  2.0546  0.5296
  275MPD2    N1 4163   0.784   3.761  14.323  0.1746  0.0891  0.1623
  275MPD2    H7 4164   0.778   3.688  14.394 -1.1750 -0.1500 -0.1991
  276TMC3    C1 4165   0.961   3.815  14.465  0.1302 -0.7398  0.5191
  276TMC3    C2 4166   0.980   3.682  14.502 -0.0310  0.2569  0.3345
  276TMC3    C3 4167   1.039   3.661  14.618  0.4603  0.2590 -0.2467
  276TMC3    C4 4168   1.019   3.917  14.532 -0.3486  0.4774 -0.1119
  276TMC3    C5 4169   1.089   3.885  14.647 -0.5930 -0.3097 -0.5751
  276TMC3    C6 4170   1.096   3.757  14.693  0.5062  0.0571 -0.7896
  276TMC3     C 4171   0.885   3.857  14.350 -0.2759 -0.1055  0.3209
  276TMC3     O 4172   0.907   3.963  14.293  0.1777 -0.4633  0.0256
  276TMC3     H 4173   0.936   3.597  14.450  0.7454  0.3771 -0.5138
  276TMC3    H1 4174   0.997   4.019  14.500 -0.2203  0.0924 -1.4100
  276TMC3    H2 4175   1.153   3.738  14.784 -2.2181 -1.1356  0.6586
  276TMC3    C7 4176   1.122   3.985  14.736  1.2315  0.4500  0.4623
  276TMC3    C8 4177   1.051   3.530  14.670 -0.2695  0.0348  0.7620
  276TMC3    O1 4178   1.108   3.949  14.852  0.4752  0.2193  0.5335
  276TMC3    O2 4179   1.141   3.511  14.746  0.4084  0.4276 -0.2486
  277MPD2     C 4180   2.648   3.426  13.189 -0.1142  0.0443  0.2584
  277MPD2    C1 4181   2.515   3.454  13.219 -0.1913  0.1113  0.1932
  277MPD2    C2 4182   2.450   3.352  13.282 -0.7407 -0.5956  0.0986
  277MPD2    C3 4183   2.498   3.235  13.323  0.0905 -0.2083 -0.4983
  277MPD2    C4 4184   2.629   3.209  13.295 -0.5829 -0.5907 -1.1284
  277MPD2    C5 4185   2.696   3.304  13.223  0.2419 -0.1081  0.5195
  277MPD2     H 4186   2.347   3.366  13.315 -0.8884 -0.1502 -0.5579
  277MPD2    H1 4187   2.680   3.120  13.328 -0.7178 -0.4624 -0.5662
  277MPD2    H2 4188   2.709   3.494  13.132 -1.7591  1.9276  0.6971
  277MPD2    H3 4189   2.798   3.279  13.198  0.6717  1.7698  0.3980
  277MPD2     N 4190   2.404   3.147  13.381 -0.3752 -0.0667 -0.1031
  277MPD2    H5 4191   2.304   3.167  13.381  0.3484  3.5520 -0.2063
  277MPD2    N1 4192   2.439   3.562  13.169 -0.9656  0.0464  1.2089
  277MPD2    H7 4193   2.501   3.629  13.125  0.9767 -2.3093  0.3680
  278TMC3    C1 4194   2.311   2.949  13.470 -0.5170  0.5758 -0.0422
  278TMC3    C2 4195   2.307   2.815  13.462  0.4488 -0.4780  0.0030
  278TMC3    C3 4196   2.200   2.746  13.512 -0.0699 -0.8628  0.3437
  278TMC3    C4 4197   2.209   3.018  13.533 -0.0333  0.5949 -0.2145
  278TMC3    C5 4198   2.106   2.941  13.589  0.0748 -0.0997  0.7778
  278TMC3    C6 4199   2.099   2.806  13.576 -0.1773 -0.1333  0.0525
  278TMC3     C 4200   2.425   3.013  13.406 -0.5835  0.0617  0.0939
  278TMC3     O 4201   2.529   2.948  13.388  0.3496  0.4413 -0.1066
  278TMC3     H 4202   2.376   2.771  13.392  2.8596  0.8109  1.5736
  278TMC3    H1 4203   2.220   3.126  13.539  1.2145  0.3270  2.1409
  278TMC3    H2 4204   2.004   2.757  13.594 -0.8510  1.3833  0.6571
  278TMC3    C7 4205   1.998   3.018  13.653  0.0771 -0.1519 -0.0152
  278TMC3    C8 4206   2.188   2.606  13.458 -1.2624  0.2444 -0.4341
  278TMC3    O1 4207   2.013   3.141  13.638  0.1151  0.4307  0.0006
  278TMC3    O2 4208   2.289   2.564  13.403  0.2762  0.8949  0.1480
  279MPD2     C 4209   2.160   2.634   0.033  0.0545  0.5534  0.2057
  279MPD2    C1 4210   2.025   2.639   0.023 -0.7266 -0.7342 -0.1342
  279MPD2    C2 4211   1.966   2.729  17.632  0.4286 -0.2728  0.3507
  279MPD2    C3 4212   2.036   2.797  17.540  0.1741 -0.8656  0.6959
  279MPD2    C4 4213   2.174   2.781  17.541 -0.3779 -0.3157  0.2816
  279MPD2    C5 4214   2.235   2.695  17.636 -0.1280  0.3855  0.2080
  279MPD2     H 4215   1.860   2.751  17.635  1.1722  3.2075  1.6081
  279MPD2    H1 4216   2.238   2.836  17.473 -0.9293 -1.6384 -1.3295
  279MPD2    H2 4217   2.208   2.560   0.096 -1.1972  0.9578  1.6436
  279MPD2    H3 4218   2.339   2.675  17.611  0.3585  2.5152  0.5090
  279MPD2     N 4219   1.970   2.896  17.458  0.3056 -0.2793 -0.7740
  279MPD2    H5 4220   1.871   2.902  17.479  1.0368  0.6103  2.4637
  279MPD2    N1 4221   1.949   2.566   0.114 -0.2242 -0.5619 -0.3571
  279MPD2    H7 4222   1.991   2.529   0.198  1.2441  2.4606  0.2371
  280TMC3    C1 4223   1.750   2.546   0.229 -0.2195  0.7308  0.3635
  280TMC3    C2 4224   1.638   2.470   0.230  0.2420 -0.0944  0.1298
  280TMC3    C3 4225   1.526   2.535   0.261 -0.4749  1.1533  0.1217
  280TMC3    C4 4226   1.749   2.679   0.270  0.0072  0.2091 -0.2186
  280TMC3    C5 4227   1.638   2.741   0.305 -0.1808 -0.3997  0.0669
  280TMC3    C6 4228   1.520   2.672   0.295  0.2673 -0.0872 -0.3394
  280TMC3     C 4229   1.819   2.549   0.106 -0.1943 -0.1347 -0.5834
  280TMC3     O 4230   1.747   2.553   0.009 -0.1103 -0.0353 -0.3350
  280TMC3     H 4231   1.630   2.376   0.176 -0.3667 -0.9012  1.6432
  280TMC3    H1 4232   1.839   2.738   0.255  1.0450 -0.9084  1.5899
  280TMC3    H2 4233   1.433   2.711   0.345 -0.4349 -0.3480 -1.3514
  280TMC3    C7 4234   1.647   2.887   0.297  0.1989  0.5203 -0.1765
  280TMC3    C8 4235   1.403   2.463   0.285  0.8242 -0.0025  0.8003
  280TMC3    O1 4236   1.758   2.935   0.292  0.0922  0.2390  0.3685
  280TMC3    O2 4237   1.304   2.526   0.306  0.1778 -0.1357 -0.2349
  281TMC3    C1 4238   0.606   3.148  13.412  0.1815 -0.3898  0.1395
  281TMC3    C2 4239   0.569   3.230  13.309 -0.2618 -1.2344 -0.4255
  281TMC3    C3 4240   0.647   3.227  13.198 -0.1694  0.2230 -0.1853
  281TMC3    C4 4241   0.692   3.043  13.388  0.1502  0.1193 -0.0988
  281TMC3    C5 4242   0.777   3.059  13.283  0.1955  0.2309  0.2825
  281TMC3    C6 4243   0.759   3.156  13.188  0.3968  0.9745 -0.1945
  281TMC3     C 4244   0.499   3.119  13.514 -0.0129  0.5848  0.1260
  281TMC3     O 4245   0.500   3.012  13.572  0.6384  0.4179 -0.7154
  281TMC3     H 4246   0.480   3.291  13.308 -0.6582 -1.8222 -0.5438
  281TMC3    H1 4247   0.707   2.957  13.452 -2.0430  0.4736  0.8712
  281TMC3    H2 4248   0.820   3.153  13.099 -1.8854 -0.9566 -1.6829
  281TMC3    C7 4249   0.855   2.943  13.241  0.4970  0.3956  0.0179
  281TMC3    C8 4250   0.608   3.299  13.077 -0.1439 -0.8750  1.0478
  281TMC3    O1 4251   0.956   2.965  13.177 -0.3754  0.0331  0.4428
  281TMC3    O2 4252   0.698   3.308  12.988  0.1522  0.1036  0.0563
  282MPD2     C 4253   2.490   0.076  15.405 -0.2546 -0.1522  0.0449
  282MPD2    C1 4254   2.359   0.127  15.421 -0.2412  0.6143  0.1298
  282MPD2    C2 4255   2.286   0.150  15.302 -0.3554  0.1956  0.0827
  282MPD2    C3 4256   2.331   0.103  15.179  0.0906  0.7414  0.6948
  282MPD2    C4 4257   2.450   0.041  15.169 -0.2845 -0.3805  0.3618
  282MPD2    C5 4258   2.529   0.029  15.284  0.0996 -0.1543 -0.7150
  282MPD2     H 4259   2.190   0.201  15.303  0.6673  2.1422  0.0945
  282MPD2    H1 4260   2.500   0.010  15.077  0.7220 -1.1606  1.1720
  282MPD2    H2 4261   2.558   0.055  15.487 -1.4411 -2.2642  0.4841
  282MPD2    H3 4262   2.627   4.716  15.256  0.3756 -0.6656  0.9120
  282MPD2     N 4263   2.245   0.116  15.067 -0.1529 -0.0535  0.6794
  282MPD2    H5 4264   2.164   0.171  15.093  1.0144  1.1279  1.7920
  282MPD2    N1 4265   2.295   0.156  15.544 -0.1370 -0.2806 -0.0517
  282MPD2    H7 4266   2.209   0.208  15.552 -0.6206 -1.0293 -0.3884
  283TMC3    C1 4267   2.253   0.119  15.768 -0.3997  0.0096  0.1116
  283TMC3    C2 4268   2.194   0.244  15.782  0.3047 -0.0077  0.4911
  283TMC3    C3 4269   2.081   0.254  15.860  0.4606  0.0137 -0.0991
  283TMC3    C4 4270   2.197   0.015  15.827 -0.6136 -0.0089  0.0193
  283TMC3    C5 4271   2.081   0.034  15.903  0.1714 -0.5172 -0.2864
  283TMC3    C6 4272   2.015   0.152  15.920 -0.2497  0.4694  0.0991
  283TMC3     C 4273   2.343   0.101  15.657 -1.0587  0.2036  0.1401
  283TMC3     O 4274   2.428   0.013  15.676  0.2357 -0.6883 -0.1126
  283TMC3     H 4275   2.238   0.326  15.726  2.8633 -0.8429  1.2986
  283TMC3    H1 4276   2.230   4.642  15.790  0.9387 -0.1369  1.7788
  283TMC3    H2 4277   1.921   0.157  15.973 -1.2684  0.0011 -1.6710
  283TMC3    C7 4278   2.015   4.643  15.972  0.0142 -0.0282 -0.3777
  283TMC3    C8 4279   2.027   0.381  15.890  0.1519  0.1432 -0.1690
  283TMC3    O1 4280   1.910   4.658  16.033 -0.2413 -0.2730  0.2889
  283TMC3    O2 4281   1.972   0.401  15.995 -0.0141  0.4247  0.3902
  284MPD2     C 4282   0.568   3.928  11.895  0.7334  0.9902  0.1445
  284MPD2    C1 4283   0.678   3.850  11.853 -0.1530  0.4766  0.6181
  284MPD2    C2 4284   0.662   3.718  11.821 -0.2964 -0.1515 -0.2032
  284MPD2    C3 4285   0.539   3.657  11.809 -0.0521  0.1021  0.2008
  284MPD2    C4 4286   0.424   3.731  11.845 -0.6157  0.2572 -1.4280
  284MPD2    C5 4287   0.448   3.863  11.883  0.1991 -0.2328  0.2822
  284MPD2     H 4288   0.748   3.670  11.777  0.6537  0.1361  1.3298
  284MPD2    H1 4289   0.322   3.696  11.838 -0.6174 -0.2745  1.2686
  284MPD2    H2 4290   0.577   4.028  11.936  0.0737  0.9105  0.4852
  284MPD2    H3 4291   0.357   3.912  11.915 -0.0121  1.4386 -2.8812
  284MPD2     N 4292   0.524   3.534  11.744 -0.3749 -0.1460 -0.1047
  284MPD2    H5 4293   0.429   3.500  11.730 -0.9619  0.9522  1.2349
  284MPD2    N1 4294   0.804   3.900  11.839 -0.2887 -0.4563  0.7268
  284MPD2    H7 4295   0.876   3.834  11.813  2.7790  2.7427  1.1514
  285TMC3    C1 4296   0.976   4.036  11.809  0.8009 -0.3327  0.4444
  285TMC3    C2 4297   0.998   3.994  11.679  0.1336 -0.0540 -0.3439
  285TMC3    C3 4298   1.125   3.997  11.629 -0.8609  0.0778  0.1200
  285TMC3    C4 4299   1.080   4.082  11.891 -0.0784 -0.4689  0.5666
  285TMC3    C5 4300   1.204   4.081  11.834 -0.4766  1.2585  0.8619
  285TMC3    C6 4301   1.229   4.047  11.705 -0.1192 -0.1814 -0.1347
  285TMC3     C 4302   0.846   4.024  11.864 -0.3008 -0.7400 -0.5255
  285TMC3     O 4303   0.804   4.097  11.953  0.0395  0.1896 -0.1863
  285TMC3     H 4304   0.916   3.965  11.614 -0.1604  0.4245 -0.1876
  285TMC3    H1 4305   1.059   4.122  11.989  0.8620 -1.9634  1.3869
  285TMC3    H2 4306   1.326   4.063  11.659 -0.1741 -0.0258 -0.1962
  285TMC3    C7 4307   1.273   4.203  11.875  0.1465  0.6872 -0.0620
  285TMC3    C8 4308   1.141   3.943  11.488  0.3379  0.0602  0.1549
  285TMC3    O1 4309   1.207   4.289  11.928  0.2347  0.3552  0.0245
  285TMC3    O2 4310   1.037   3.896  11.439 -0.5347 -0.8759 -0.0521
  286MPD2     C 4311   0.762   2.686   1.428 -0.1758  0.6775 -0.5767
  286MPD2    C1 4312   0.827   2.669   1.309 -0.3496 -0.2184  0.0950
  286MPD2    C2 4313   0.949   2.607   1.298 -0.3640  0.1389 -0.0471
  286MPD2    C3 4314   1.014   2.552   1.408 -0.3606  0.5685 -0.1823
  286MPD2    C4 4315   0.950   2.577   1.531  0.4493 -0.2906  0.3149
  286MPD2    C5 4316   0.829   2.643   1.543 -0.2619  0.1462  0.2263
  286MPD2     H 4317   0.986   2.583   1.199 -2.0384 -0.4201 -0.5305
  286MPD2    H1 4318   0.996   2.545   1.623  0.4116 -0.2908  0.3339
  286MPD2    H2 4319   0.667   2.732   1.452 -1.1321 -0.6782 -1.7213
  286MPD2    H3 4320   0.780   2.653   1.640 -0.3864 -0.4399  0.2234
  286MPD2     N 4321   1.119   2.465   1.405  0.2840 -0.1256 -0.4186
  286MPD2    H5 4322   1.141   2.416   1.491  1.1308 -0.3114 -0.7400
  286MPD2    N1 4323   0.761   2.718   1.188  0.1683 -0.9919  0.2867
  286MPD2    H7 4324   0.819   2.708   1.105 -1.6087  0.7885 -1.1433
  287TMC3    C1 4325   1.317   2.352   1.329  0.2317 -0.8822  0.2165
  287TMC3    C2 4326   1.378   2.307   1.220  0.7043  0.1676  0.3937
  287TMC3    C3 4327   1.492   2.234   1.249 -0.1309  0.2680  0.0564
  287TMC3    C4 4328   1.358   2.327   1.458  0.2075 -0.1836 -0.3895
  287TMC3    C5 4329   1.474   2.252   1.478  0.4579 -0.1455 -0.4148
  287TMC3    C6 4330   1.537   2.192   1.373  0.3526  0.0011  0.2360
  287TMC3     C 4331   1.206   2.448   1.299 -0.2388 -0.3646 -0.4104
  287TMC3     O 4332   1.182   2.482   1.183 -0.4247 -0.4591 -0.2084
  287TMC3     H 4333   1.344   2.338   1.122  1.1867 -2.6540 -0.6359
  287TMC3    H1 4334   1.324   2.379   1.547 -1.9577  1.2929 -2.0769
  287TMC3    H2 4335   1.627   2.135   1.393 -0.0897 -0.6651  0.3277
  287TMC3    C7 4336   1.544   2.268   1.609  0.2795  0.1164  0.1583
  287TMC3    C8 4337   1.532   2.140   1.145 -0.8045 -0.1709  0.3342
  287TMC3    O1 4338   1.487   2.322   1.699  0.2626  0.2798 -0.0932
  287TMC3    O2 4339   1.564   2.026   1.171  0.0418  0.0204 -0.1844
  288TMC3    C1 4340   2.308   2.025  14.196 -0.1641  0.2532  0.5095
  288TMC3    C2 4341   2.202   2.034  14.280  0.0393  0.2839  0.2521
  288TMC3    C3 4342   2.104   2.132  14.257 -0.7029 -0.8626  0.5003
  288TMC3    C4 4343   2.299   2.096  14.076  0.4166  1.0272  0.1490
  288TMC3    C5 4344   2.209   2.194  14.055  0.3108 -0.2999  0.6793
  288TMC3    C6 4345   2.105   2.210  14.144 -0.2281 -0.1351 -0.2931
  288TMC3     C 4346   2.426   2.044  14.271 -0.3108 -0.4222  0.1654
  288TMC3     O 4347   2.451   1.976  14.371  0.3692 -0.1420 -0.6138
  288TMC3     H 4348   2.213   1.983  14.375  0.9412 -3.2846 -1.7722
  288TMC3    H1 4349   2.379   2.083  14.004  0.9423 -0.0297  0.9268
  288TMC3    H2 4350   2.037   2.294  14.136 -0.5290 -0.1725  1.8704
  288TMC3    C7 4351   2.254   2.314  13.980  0.1674  0.5469  0.4725
  288TMC3    C8 4352   2.046   2.195  14.379 -0.3824 -0.0823  0.8177
  288TMC3    O1 4353   2.353   2.299  13.909  0.4597 -0.5079  0.4034
  288TMC3    O2 4354   2.038   2.320  14.377 -0.0816  0.0605  0.0654
  289MPD2     C 4355   2.544   1.569  14.339  0.0313 -0.1452  0.7103
  289MPD2    C1 4356   2.525   1.664  14.238  0.0753  0.1980  0.2122
  289MPD2    C2 4357   2.398   1.690  14.193  0.3898 -0.2166 -0.1831
  289MPD2    C3 4358   2.292   1.616  14.243  0.2167 -0.2975  0.4401
  289MPD2    C4 4359   2.315   1.516  14.339  0.6578 -0.2872  0.3652
  289MPD2    C5 4360   2.441   1.501  14.390 -0.5324  0.3330 -0.3612
  289MPD2     H 4361   2.379   1.774  14.128 -2.4250 -0.6637  0.0812
  289MPD2    H1 4362   2.232   1.456  14.373 -0.8619  0.9647 -1.0992
  289MPD2    H2 4363   2.639   1.555  14.390  0.3393  1.9737  0.6871
  289MPD2    H3 4364   2.458   1.428  14.469  1.6196 -0.7549 -1.8222
  289MPD2     N 4365   2.158   1.633  14.207  0.0938 -0.8752 -0.5325
  289MPD2    H5 4366   2.098   1.570  14.261 -1.9235 -0.3133 -2.1061
  289MPD2    N1 4367   2.638   1.736  14.200  0.3587  0.3961  0.2903
  289MPD2    H7 4368   2.725   1.708  14.245  0.3119  0.7485  0.6047
  290TMC3    C1 4369   1.953   1.701  14.111 -0.1849  0.1168  0.0580
  290TMC3    C2 4370   1.894   1.819  14.081  0.0221  0.0844  0.0715
  290TMC3    C3 4371   1.770   1.855  14.121  0.1120  0.9350 -0.2830
  290TMC3    C4 4372   1.893   1.619  14.203  0.9878 -0.5089 -0.0788
  290TMC3    C5 4373   1.767   1.653  14.249  0.3063 -0.2153 -0.2680
  290TMC3    C6 4374   1.700   1.770  14.209  0.2325 -0.7279  0.1049
  290TMC3     C 4375   2.100   1.698  14.104  0.6451 -1.7249 -0.0892
  290TMC3     O 4376   2.156   1.753  14.009 -0.1730 -0.1027  0.1943
  290TMC3     H 4377   1.950   1.884  14.015  2.1955 -1.2813  0.5691
  290TMC3    H1 4378   1.941   1.523  14.216 -0.6092 -1.2615  0.1837
  290TMC3    H2 4379   1.612   1.808  14.260  1.0030  0.2638  0.6948
  290TMC3    C7 4380   1.675   1.556  14.317  0.0529 -0.5301 -0.5453
  290TMC3    C8 4381   1.723   1.992  14.083 -0.0894 -0.2942 -0.8804
  290TMC3    O1 4382   1.571   1.607  14.363  0.0929  0.6129 -0.4240
  290TMC3    O2 4383   1.739   2.022  13.965 -0.3431 -0.2142 -0.0946
  291MPD2     C 4384   1.404   1.340   0.316  0.0704  0.4105  0.4820
  291MPD2    C1 4385   1.434   1.206   0.322 -0.8952 -0.1007 -0.2680
  291MPD2    C2 4386   1.565   1.160   0.327  0.2971 -1.2441  0.0338
  291MPD2    C3 4387   1.668   1.255   0.342  0.6407 -0.7416  0.0387
  291MPD2    C4 4388   1.641   1.389   0.337  0.2823  0.3136 -0.1889
  291MPD2    C5 4389   1.510   1.427   0.326 -0.4489 -0.3184 -0.7702
  291MPD2     H 4390   1.578   1.055   0.348  2.7157 -1.1155 -0.7720
  291MPD2    H1 4391   1.720   1.464   0.344 -1.3160  2.1283 -1.7375
  291MPD2    H2 4392   1.303   1.380   0.317  0.5790  1.7097 -0.3741
  291MPD2    H3 4393   1.482   1.532   0.324  0.9632  0.0244 -1.8424
  291MPD2     N 4394   1.802   1.227   0.359 -0.1208  0.5050  0.2551
  291MPD2    H5 4395   1.865   1.300   0.391 -1.7123  2.5299 -1.1952
  291MPD2    N1 4396   1.329   1.114   0.315 -0.4311 -0.1428  0.0736
  291MPD2    H7 4397   1.358   1.017   0.313  1.5608  0.4279  0.6292
  292TMC3    C1 4398   1.117   1.019   0.322 -0.1747  0.6003 -0.7356
  292TMC3    C2 4399   0.999   1.008   0.397 -0.6263  0.2394  0.1479
  292TMC3    C3 4400   0.936   0.886   0.385  1.1445 -0.1814 -0.0725
  292TMC3    C4 4401   1.146   0.926   0.224 -0.3050 -0.1911 -0.6240
  292TMC3    C5 4402   1.054   0.828   0.201  0.2384 -0.6005 -0.0394
  292TMC3    C6 4403   0.958   0.792   0.285 -0.5353  0.3799  0.4506
  292TMC3     C 4404   1.199   1.140   0.338 -0.4514 -0.2948 -0.5659
  292TMC3     O 4405   1.143   1.236   0.387  0.0279 -0.3475 -0.3058
  292TMC3     H 4406   0.973   1.083   0.471  1.3107  1.1671 -0.1349
  292TMC3    H1 4407   1.231   0.945   0.159 -1.2387 -1.1676 -2.1136
  292TMC3    H2 4408   0.909   0.696   0.267  0.8691 -0.3367  0.4878
  292TMC3    C7 4409   1.073   0.762   0.076  0.1049  0.3643 -0.0296
  292TMC3    C8 4410   0.833   0.864   0.482  0.7335 -0.1714 -0.5027
  292TMC3    O1 4411   1.183   0.738   0.028  0.3494  0.0069 -0.3221
  292TMC3    O2 4412   0.836   0.933   0.587 -0.5788  0.0448  0.0559
  293MPD2     C 4413   3.351   2.765  12.743 -0.2202  0.3866  0.1705
  293MPD2    C1 4414   3.322   2.677  12.839 -0.2391 -0.0819 -0.8470
  293MPD2    C2 4415   3.385   2.693  12.959  0.0973 -0.2618 -0.0445
  293MPD2    C3 4416   3.481   2.790  12.983  0.1171 -0.2969  1.0917
  293MPD2    C4 4417   3.519   2.866  12.877  0.0782  0.6964  0.0409
  293MPD2    C5 4418   3.451   2.856  12.763 -0.2345 -0.3558 -0.8846
  293MPD2     H 4419   3.350   2.633  13.042  0.3085  1.4934  1.3234
  293MPD2    H1 4420   3.596   2.943  12.874  0.5350  0.2494  0.4835
  293MPD2    H2 4421   3.295   2.767  12.650  0.3959  1.4940 -0.1825
  293MPD2    H3 4422   3.484   2.925  12.687  0.1170  0.8394  0.3647
  293MPD2     N 4423   3.530   2.807  13.114  0.5958 -0.2402 -0.8674
  293MPD2    H5 4424   3.500   2.745  13.188 -1.7895 -1.3086 -2.7396
  293MPD2    N1 4425   3.232   2.581  12.799 -0.2094 -0.0741  0.7535
  293MPD2    H7 4426   3.208   2.578  12.701  0.1229 -0.0148  0.6701
  294TMC3    C1 4427   3.094   2.397  12.806 -1.3960  0.4774 -0.4013
  294TMC3    C2 4428   3.052   2.285  12.872 -0.2541 -0.9343 -0.2992
  294TMC3    C3 4429   2.951   2.211  12.812 -0.5256  0.3131  0.3360
  294TMC3    C4 4430   3.032   2.441  12.697 -0.3983 -0.0092 -0.0790
  294TMC3    C5 4431   2.925   2.372  12.652 -0.3543 -0.4400  0.4628
  294TMC3    C6 4432   2.885   2.253  12.701 -0.3015 -0.2857 -0.1478
  294TMC3     C 4433   3.193   2.471  12.876  0.0464  0.1166  0.5002
  294TMC3     O 4434   3.212   2.459  12.999 -0.4151  0.1813  0.2245
  294TMC3     H 4435   3.085   2.249  12.969  2.9336 -0.2666 -1.1495
  294TMC3    H1 4436   3.024   2.546  12.670 -0.3729 -0.6884 -2.7773
  294TMC3    H2 4437   2.802   2.199  12.656 -0.3444  0.2692 -0.7266
  294TMC3    C7 4438   2.879   2.397  12.518 -0.1246 -0.7865  0.0036
  294TMC3    C8 4439   2.898   2.096  12.886  0.7750  0.0413 -0.5881
  294TMC3    O1 4440   2.763   2.375  12.495 -0.1563 -0.3011 -0.5484
  294TMC3    O2 4441   2.945   2.063  12.991 -0.2110  0.8270 -0.5819
  295MPD2     C 4442   3.304   0.946   0.081 -0.0475 -0.4048 -0.5032
  295MPD2    C1 4443   3.432   0.994   0.108  0.8869 -0.5706  0.0302
  295MPD2    C2 4444   3.453   1.081   0.212 -0.1858 -0.0114 -0.6321
  295MPD2    C3 4445   3.346   1.118   0.291 -1.2549  0.3773  0.2103
  295MPD2    C4 4446   3.224   1.076   0.263 -0.3719 -0.6417 -0.2623
  295MPD2    C5 4447   3.200   0.997   0.158 -0.8074  0.2320 -0.3413
  295MPD2     H 4448   3.554   1.111   0.238 -0.7603 -0.4569  2.1775
  295MPD2    H1 4449   3.137   1.116   0.314  0.8849 -0.4473  1.7198
  295MPD2    H2 4450   3.278   0.887  17.689  1.8663 -2.4822  0.3370
  295MPD2    H3 4451   3.095   0.974   0.148 -0.7878  0.4055 -0.9132
  295MPD2     N 4452   3.358   1.202   0.402 -0.1304 -0.0132  0.2001
  295MPD2    H5 4453   3.270   1.210   0.452 -1.3801  2.0580 -2.3467
  295MPD2    N1 4454   3.540   0.955   0.035 -0.0413 -0.6979 -0.3466
  295MPD2    H7 4455   3.631   0.991   0.062  0.1895 -0.5798 -1.2573
  296TMC3    C1 4456   3.454   1.331   0.574  0.0814  0.3527  0.0096
  296TMC3    C2 4457   3.551   1.419   0.612 -0.3128 -0.2554 -0.2552
  296TMC3    C3 4458   3.540   1.469   0.736 -0.7935 -0.6503  0.1272
  296TMC3    C4 4459   3.347   1.300   0.645  0.1501 -0.1389  0.0068
  296TMC3    C5 4460   3.339   1.354   0.770 -0.0375  0.0578 -1.6077
  296TMC3    C6 4461   3.433   1.442   0.824 -0.0147  0.0610  0.0841
  296TMC3     C 4462   3.463   1.278   0.443 -0.4183 -0.4599  0.4399
  296TMC3     O 4463   3.566   1.289   0.378  0.1142  0.0345 -0.5566
  296TMC3     H 4464   3.637   1.438   0.548 -0.1898  0.3716  0.1051
  296TMC3    H1 4465   3.261   1.238   0.621 -0.3980  0.6682 -0.1051
  296TMC3    H2 4466   3.409   1.486   0.920 -2.1260 -0.0230 -0.4067
  296TMC3    C7 4467   3.203   1.369   0.820  0.1715  0.4593 -0.6130
  296TMC3    C8 4468   3.658   1.546   0.795 -0.5009 -0.5692 -0.3000
  296TMC3    O1 4469   3.111   1.381   0.739 -0.0604  0.4605 -0.0514
  296TMC3    O2 4470   3.756   1.550   0.724 -0.1060  0.1625  0.9087
  297MPD2     C 4471   1.400   3.399  16.501  0.5099 -0.4328 -0.0456
  297MPD2    C1 4472   1.358   3.475  16.388 -0.2768 -0.4968 -0.4357
  297MPD2    C2 4473   1.449   3.579  16.360  0.7151 -0.0358  0.0132
  297MPD2    C3 4474   1.565   3.606  16.435  0.1845 -0.0301  0.1602
  297MPD2    C4 4475   1.605   3.517  16.541 -0.0821 -0.1256 -1.0746
  297MPD2    C5 4476   1.515   3.415  16.571 -0.6185  0.0279 -0.7273
  297MPD2     H 4477   1.424   3.649  16.280  2.4894 -1.1853 -1.5577
  297MPD2    H1 4478   1.689   3.545  16.605 -0.5270 -1.6682  0.1876
  297MPD2    H2 4479   1.344   3.314  16.536 -1.2974 -0.2981 -2.5922
  297MPD2    H3 4480   1.534   3.353  16.657  1.0203  0.0909 -1.0329
  297MPD2     N 4481   1.645   3.711  16.385  0.1359  0.1392  0.3885
  297MPD2    H5 4482   1.596   3.774  16.322  0.6153 -1.1421 -1.2696
  297MPD2    N1 4483   1.238   3.459  16.317 -1.1929 -0.4214 -0.5081
  297MPD2    H7 4484   1.217   3.521  16.240  0.4407  1.4688  0.5476
  298TMC3    C1 4485   1.057   3.338  16.238 -0.0698 -0.2537 -0.2622
  298TMC3    C2 4486   1.082   3.390  16.111 -0.6731  1.2350  0.0474
  298TMC3    C3 4487   0.966   3.404  16.028  0.1625  0.2641  1.3258
  298TMC3    C4 4488   0.924   3.302  16.273  0.2825  0.0279  0.6241
  298TMC3    C5 4489   0.819   3.326  16.183  0.2148  0.4263  1.1664
  298TMC3    C6 4490   0.836   3.373  16.060  0.0696 -0.0799 -0.7948
  298TMC3     C 4491   1.149   3.361  16.343  0.2824  0.4637  0.5986
  298TMC3     O 4492   1.131   3.297  16.448 -0.3242  0.1411  0.0258
  298TMC3     H 4493   1.182   3.392  16.070 -1.1382 -0.1638 -1.1168
  298TMC3    H1 4494   0.901   3.252  16.366  0.1626  1.0101  1.1246
  298TMC3    H2 4495   0.758   3.398  15.989  0.7330  0.4971 -1.3149
  298TMC3    C7 4496   0.693   3.334  16.247 -0.2515 -0.3985  0.6839
  298TMC3    C8 4497   1.002   3.439  15.884 -0.0294 -0.3035  0.7120
  298TMC3    O1 4498   0.691   3.323  16.369  0.1180 -0.3326 -0.2828
  298TMC3    O2 4499   1.125   3.429  15.865  0.7476  0.6557  0.0036
  299MPD2     C 4500   2.186   2.925  10.574  0.5436 -0.1642 -0.3113
  299MPD2    C1 4501   2.200   3.057  10.542 -0.0648  0.4112  0.2596
  299MPD2    C2 4502   2.134   3.106  10.429  0.0597 -0.1473 -0.6716
  299MPD2    C3 4503   2.058   3.021  10.349  1.1388  0.2265  0.6127
  299MPD2    C4 4504   2.052   2.889  10.377 -0.0612  0.7582  0.4340
  299MPD2    C5 4505   2.111   2.840  10.491 -0.6579 -0.1484  0.2267
  299MPD2     H 4506   2.154   3.207  10.396 -1.9826  0.5130  0.0583
  299MPD2    H1 4507   1.985   2.814  10.338 -0.4421  1.2078  0.2317
  299MPD2    H2 4508   2.238   2.897  10.665 -0.9152 -0.2170  0.5060
  299MPD2    H3 4509   2.104   2.737  10.522 -0.7638 -1.3776 -3.8450
  299MPD2     N 4510   1.977   3.079  10.250  0.1064 -0.8931  0.4085
  299MPD2    H5 4511   1.965   3.180  10.246  0.0193 -0.9186  0.0904
  299MPD2    N1 4512   2.258   3.151  10.637  0.0017  0.3201  0.3124
  299MPD2    H7 4513   2.293   3.112  10.725 -4.1206 -0.6961  1.4825
  300TMC3    C1 4514   1.802   3.096  10.078  0.6780  0.4004 -0.1606
  300TMC3    C2 4515   1.814   3.230  10.079 -0.3750 -0.7256  0.4712
  300TMC3    C3 4516   1.702   3.306  10.083  0.1772  0.1134 -1.2508
  300TMC3    C4 4517   1.679   3.036  10.103 -0.0848  0.7843 -0.1509
  300TMC3    C5 4518   1.571   3.113  10.121  0.3522  0.3990  0.0853
  300TMC3    C6 4519   1.577   3.249  10.102  0.0828 -0.2672  0.0517
  300TMC3     C 4520   1.901   3.010  10.157 -0.0833  0.6533  0.3393
  300TMC3     O 4521   1.889   2.887  10.138 -0.0041  0.2049  0.1634
  300TMC3     H 4522   1.910   3.281  10.083  0.0850 -1.6488  1.3416
  300TMC3    H1 4523   1.679   2.932  10.130  1.1235  0.4171 -1.5494
  300TMC3    H2 4524   1.492   3.316  10.106 -0.6031 -0.9951 -2.3083
  300TMC3    C7 4525   1.462   3.037  10.184 -0.6343 -0.4363 -0.4066
  300TMC3    C8 4526   1.730   3.448  10.124  0.0686  0.7895  0.0873
  300TMC3    O1 4527   1.458   2.916  10.169 -0.2738 -0.4603 -0.0934
  300TMC3    O2 4528   1.838   3.479  10.180  0.7010  0.2298 -0.1878
  301MPD2     C 4529   3.875   0.053   1.931 -0.3710  0.5914  0.0306
  301MPD2    C1 4530   3.813   0.035   1.811  0.2621  0.5217  0.3391
  301MPD2    C2 4531   3.887   4.701   1.709 -0.1190  0.5414 -0.4154
  301MPD2    C3 4532   4.018   4.654   1.726  0.1961  0.3402 -0.4607
  301MPD2    C4 4533   4.074   4.680   1.848  0.0920 -0.2281 -0.0018
  301MPD2    C5 4534   4.003   0.013   1.950  0.3276 -0.6992  0.3167
  301MPD2     H 4535   3.840   4.690   1.612  0.4908 -0.1164 -0.6366
  301MPD2    H1 4536   4.167   4.629   1.873 -0.1258 -0.0919  1.0978
  301MPD2    H2 4537   3.820   0.090   2.017  0.3253  0.8624  0.3608
  301MPD2    H3 4538   4.050   0.019   2.047  1.1851  0.2359 -0.1607
  301MPD2     N 4539   4.094   4.581   1.621 -0.0263 -0.1490  0.4521
  301MPD2    H5 4540   4.169   4.519   1.650  0.8166  0.1709 -1.0721
  301MPD2    N1 4541   3.674   0.053   1.791  0.9479 -0.3295  0.0291
  301MPD2    H7 4542   3.645   0.020   1.700  2.0651  0.5787 -0.6541
  302TMC3    C1 4543   4.142   4.500   1.397  0.2161  0.1828 -0.2695
  302TMC3    C2 4544   4.199   4.380   1.436  0.1901 -0.1585 -0.6876
  302TMC3    C3 4545   4.236   4.284   1.341  0.0857  0.5578 -0.1316
  302TMC3    C4 4546   4.135   4.533   1.259  0.3264  0.4805 -0.0291
  302TMC3    C5 4547   4.184   4.448   1.168 -0.0262  0.5251  0.1294
  302TMC3    C6 4548   4.222   4.319   1.205 -0.5253 -0.0990 -0.3272
  302TMC3     C 4549   4.067   4.590   1.486  0.7729  0.5021 -0.1883
  302TMC3     O 4550   3.989   4.671   1.436  0.4858  0.5551 -0.0588
  302TMC3     H 4551   4.226   4.359   1.539  2.0755  0.6455 -1.0101
  302TMC3    H1 4552   4.093   4.627   1.226  0.9043  0.7588  0.0183
  302TMC3    H2 4553   4.246   4.250   1.125  0.5885  1.1130 -1.0405
  302TMC3    C7 4554   4.121   4.454   1.039 -0.1558  0.0162 -0.5406
  302TMC3    C8 4555   4.242   4.148   1.371 -0.2702  0.3632  0.1166
  302TMC3    O1 4556   4.192   4.485   0.943  0.2615  0.4460  0.0106
  302TMC3    O2 4557   4.284   4.075   1.282  0.1062  0.2059  0.0139
  303MPD2     C 4558   4.641   2.705  10.880 -0.3558 -0.2234 -0.4605
  303MPD2    C1 4559   4.526   2.676  10.823 -0.7074 -0.2268  0.4007
  303MPD2    C2 4560   4.492   2.732  10.698  0.2366  0.6064 -0.0936
  303MPD2    C3 4561   4.585   2.814  10.634 -0.0507  0.4692 -0.5191
  303MPD2    C4 4562   4.701   2.836  10.698 -1.2177 -0.3396 -0.2625
  303MPD2    C5 4563   0.011   2.787  10.825 -0.3285  0.1526 -0.0244
  303MPD2     H 4564   4.393   2.708  10.659  0.1870 -1.9836  1.6542
  303MPD2    H1 4565   0.059   2.883  10.644  0.2674 -2.5094  0.0902
  303MPD2    H2 4566   4.664   2.657  10.975  0.3027  0.6892 -0.1552
  303MPD2    H3 4567   0.096   2.816  10.885 -0.1674 -0.0249 -0.1664
  303MPD2     N 4568   4.569   2.865  10.501 -0.1013  0.0589  0.2947
  303MPD2    H5 4569   4.649   2.898  10.449  1.9097 -3.1431  1.2991
  303MPD2    N1 4570   4.447   2.581  10.896 -0.1020  0.5117  0.1436
  303MPD2    H7 4571   4.473   2.561  10.992 -0.7495  1.7856  0.5977
  304TMC3    C1 4572   4.268   2.449  10.952  0.7029 -0.1035 -0.3399
  304TMC3    C2 4573   4.234   2.528  11.059  0.1110  0.1307 -0.6178
  304TMC3    C3 4574   4.133   2.487  11.139  0.3750  0.6901 -0.3787
  304TMC3    C4 4575   4.203   2.340  10.914  0.5249 -0.3140  0.1110
  304TMC3    C5 4576   4.097   2.305  10.990  0.4487  1.3738  0.2125
  304TMC3    C6 4577   4.070   2.373  11.097 -0.4622  0.0259  0.2798
  304TMC3     C 4578   4.336   2.517  10.848  0.0753 -0.2662  0.8634
  304TMC3     O 4579   4.293   2.496  10.735 -0.3777 -0.2986 -0.1269
  304TMC3     H 4580   4.280   2.626  11.070 -0.9240  0.8083 -2.2645
  304TMC3    H1 4581   4.233   2.289  10.824 -1.6833 -1.6604  0.1361
  304TMC3    H2 4582   3.997   2.322  11.159 -0.7213  1.0546  0.8212
  304TMC3    C7 4583   3.985   2.273  10.913 -0.2914 -0.1262  0.0441
  304TMC3    C8 4584   4.034   2.586  11.166  0.4673  0.1368 -0.3406
  304TMC3    O1 4585   3.880   2.322  10.940  0.1947 -0.5655 -0.5982
  304TMC3    O2 4586   4.069   2.692  11.225 -0.3359 -1.0810 -0.3288
  305MPD2     C 4587   1.806   0.015  14.078  0.1107 -0.0371  0.6343
  305MPD2    C1 4588   1.921   4.663  14.088 -1.4368  0.0839  0.0266
  305MPD2    C2 4589   1.953   4.572  13.994  0.1451 -0.2745 -0.0235
  305MPD2    C3 4590   1.879   4.559  13.879 -0.3776 -0.0933  0.0917
  305MPD2    C4 4591   1.763   4.630  13.861  0.0134  0.2112  0.8006
  305MPD2    C5 4592   1.731   4.714  13.966 -0.2306  0.3453  0.4961
  305MPD2     H 4593   2.050   4.524  14.001  0.5592  0.6204  0.2465
  305MPD2    H1 4594   1.692   4.607  13.783  1.7157 -0.8380 -0.4537
  305MPD2    H2 4595   1.779   0.094  14.147 -1.2817 -0.1964  0.2748
  305MPD2    H3 4596   1.635   0.042  13.966 -0.2198  0.3623 -0.1419
  305MPD2     N 4597   1.920   4.489  13.773  0.0886  0.0866  0.0734
  305MPD2    H5 4598   1.867   4.498  13.687  0.1404 -0.4208 -0.0149
  305MPD2    N1 4599   2.002   4.705  14.194  0.3142  0.0189  0.7101
  305MPD2    H7 4600   1.954   0.058  14.242  0.0747 -0.8403  1.8180
  306TMC3    C1 4601   2.199   4.717  14.333  0.5329 -0.4207 -0.2331
  306TMC3    C2 4602   2.315   4.652  14.377 -0.4550 -0.9328  0.0500
  306TMC3    C3 4603   2.374   4.707  14.491 -0.7609 -0.5282 -0.6068
  306TMC3    C4 4604   2.159   0.110  14.393  0.2043 -0.7471  0.0707
  306TMC3    C5 4605   2.216   0.154  14.509 -0.6037 -0.4710  0.4596
  306TMC3    C6 4606   2.327   0.089  14.560 -0.2507  0.0067  0.0507
  306TMC3     C 4607   2.127   4.651  14.225 -0.1497 -0.1534 -0.2876
  306TMC3     O 4608   2.181   4.551  14.183 -0.2776 -0.1162 -0.2735
  306TMC3     H 4609   2.348   4.573  14.310  0.5962 -1.3471  1.0533
  306TMC3    H1 4610   2.077   0.160  14.343  0.0732 -0.5820  0.4427
  306TMC3    H2 4611   2.364   0.105  14.661 -1.0439 -0.3954  0.4095
  306TMC3    C7 4612   2.168   0.283  14.569  0.4888  0.2015 -0.3282
  306TMC3    C8 4613   2.511   4.661  14.520  0.1192 -0.2749 -0.5335
  306TMC3    O1 4614   2.071   0.343  14.523 -0.1721 -0.2499  0.5594
  306TMC3    O2 4615   2.557   4.571  14.446  0.0563  0.3834  0.4697
  307MPD2     C 4616   4.576   2.353   1.032 -0.7677  0.3073  0.2822
  307MPD2    C1 4617   4.516   2.462   0.963  0.9856 -0.0789  0.8839
  307MPD2    C2 4618   4.388   2.493   0.998 -0.0967 -0.6253  0.1153
  307MPD2    C3 4619   4.313   2.417   1.085  0.4375  0.2509  0.1322
  307MPD2    C4 4620   4.371   2.320   1.153  0.1399  0.1264 -0.1202
  307MPD2    C5 4621   4.499   2.288   1.124 -0.5847  0.6142 -0.4067
  307MPD2     H 4622   4.334   2.571   0.946  0.3896 -1.1370 -1.1437
  307MPD2    H1 4623   4.329   2.266   1.238  0.1676  2.7510  1.5549
  307MPD2    H2 4624   4.680   2.323   1.019 -1.2516 -0.8485 -0.9293
  307MPD2    H3 4625   4.549   2.205   1.174  0.1712  0.5581 -1.2537
  307MPD2     N 4626   4.181   2.462   1.119 -0.0530 -0.7916 -0.0469
  307MPD2    H5 4627   4.159   2.553   1.081 -0.2856 -0.7909  0.0893
  307MPD2    N1 4628   4.580   2.534   0.859 -0.1667  0.6044  0.4782
  307MPD2    H7 4629   4.523   2.601   0.808 -0.4847  1.3314  1.7682
  308TMC3    C1 4630   3.730   2.438   1.138  0.1825  0.5041 -0.0042
  308TMC3    C2 4631   3.708   2.569   1.168 -0.1520 -0.1350 -0.6849
  308TMC3    C3 4632   3.814   2.640   1.204  0.9695 -0.0164 -0.4874
  308TMC3    C4 4633   3.851   2.373   1.153 -0.5015  0.2410  0.3217
  308TMC3    C5 4634   3.954   2.454   1.185  0.3677  0.3286  0.4124
  308TMC3    C6 4635   3.941   2.587   1.204 -0.0634  0.2239 -0.1711
  308TMC3     C 4636   3.650   2.384   1.034  0.3735 -0.0955 -0.1367
  308TMC3     O 4637   3.651   2.264   1.018  0.1472 -0.1424 -0.6776
  308TMC3     H 4638   3.607   2.602   1.188 -0.5942 -0.9046 -1.6182
  308TMC3    H1 4639   3.860   2.266   1.140 -1.1430  0.2450 -0.1418
  308TMC3    H2 4640   4.020   2.642   1.255  0.5697  0.7070 -1.6728
  308TMC3    C7 4641   4.082   2.392   1.184  0.5711 -0.0663 -0.0892
  308TMC3    C8 4642   3.796   2.776   1.251 -0.1530  0.2727 -0.0020
  308TMC3    O1 4643   4.091   2.275   1.218  0.3190  0.4813  0.4036
  308TMC3    O2 4644   3.686   2.800   1.300 -0.5904 -0.1878  0.0901
  309MPD2     C 4645   3.849   2.854  17.240  0.0133  0.5541 -0.5607
  309MPD2    C1 4646   3.826   2.949  17.140  0.5003  0.2526  0.1739
  309MPD2    C2 4647   3.718   3.042  17.148  0.2604  0.2638  0.2005
  309MPD2    C3 4648   3.630   3.029  17.253  0.3480 -0.6192 -0.4404
  309MPD2    C4 4649   3.658   2.937  17.351  0.9204 -0.0638 -0.1726
  309MPD2    C5 4650   3.767   2.852  17.351  0.0812 -0.1354  0.1319
  309MPD2     H 4651   3.707   3.102  17.058 -2.6742 -2.8634 -1.5440
  309MPD2    H1 4652   3.597   2.939  17.441  1.6125 -2.7056  0.3325
  309MPD2    H2 4653   3.931   2.784  17.242  0.0819  0.6996  1.7110
  309MPD2    H3 4654   3.770   2.765  17.414 -1.9172 -0.8895 -0.7977
  309MPD2     N 4655   3.518   3.110  17.261  0.3250 -0.0996  0.0684
  309MPD2    H5 4656   3.482   3.118  17.356 -0.0779 -2.3265  0.1043
  309MPD2    N1 4657   3.908   2.955  17.023 -0.3926  0.3674  0.2934
  309MPD2    H7 4658   3.889   3.030  16.957 -1.3075  0.8233  1.0816
  310TMC3    C1 4659   4.079   2.906  16.857 -0.4626 -0.5378  0.0927
  310TMC3    C2 4660   4.036   3.010  16.774  0.2644  0.4231  0.2451
  310TMC3    C3 4661   4.120   3.044  16.664  0.3373  0.0424 -0.2009
  310TMC3    C4 4662   4.199   2.840  16.828 -0.4899 -0.1356 -0.0577
  310TMC3    C5 4663   4.275   2.878  16.721 -1.4416 -0.5191  0.5856
  310TMC3    C6 4664   4.235   2.981  16.639 -0.5955  0.2789 -0.2709
  310TMC3     C 4665   4.018   2.879  16.990  0.1062 -0.0401  0.4409
  310TMC3     O 4666   4.061   2.781  17.055  0.1151 -0.1266  0.0629
  310TMC3     H 4667   3.939   3.056  16.781 -0.8069 -1.6140 -1.2303
  310TMC3    H1 4668   4.231   2.760  16.894  1.7269 -1.2457 -2.4383
  310TMC3    H2 4669   4.301   3.011  16.558 -2.7333 -0.1520 -2.1629
  310TMC3    C7 4670   4.395   2.802  16.692  0.2239  0.1892  0.2748
  310TMC3    C8 4671   4.077   3.140  16.564 -0.5547  0.6685 -0.2318
  310TMC3    O1 4672   4.427   2.738  16.787  0.1126  0.2919 -0.0186
  310TMC3    O2 4673   4.121   3.123  16.450 -0.0854 -0.4541  0.0778
  311MPD2     C 4674   1.248   4.240  12.853 -0.2273  0.2829 -0.0709
  311MPD2    C1 4675   1.232   4.374  12.875 -1.1660 -0.2163 -0.1065
  311MPD2    C2 4676   1.114   4.424  12.928 -0.4450  0.2359  0.1752
  311MPD2    C3 4677   1.015   4.335  12.967  0.1636 -0.2800 -0.5828
  311MPD2    C4 4678   1.032   4.202  12.947 -0.0841 -0.4255 -0.4707
  311MPD2    C5 4679   1.149   4.153  12.901  0.1822 -0.4778  0.0638
  311MPD2     H 4680   1.108   4.532  12.925  3.1727  0.4854  1.0218
  311MPD2    H1 4681   0.957   4.132  12.982 -1.1023  1.1681  0.5371
  311MPD2    H2 4682   1.333   4.188  12.811 -0.7350  0.0811 -0.8353
  311MPD2    H3 4683   1.165   4.046  12.901 -3.4518 -1.0187  0.6264
  311MPD2     N 4684   0.898   4.393  13.032 -0.7249 -0.1158 -0.0898
  311MPD2    H5 4685   0.904   4.494  13.041 -3.5370 -0.0725  1.2968
  311MPD2    N1 4686   1.320   4.476  12.816 -0.4811  0.2511 -0.2392
  311MPD2    H7 4687   1.313   4.573  12.842 -3.3852 -0.2526  0.8786
  312TMC3    C1 4688   0.673   4.413  13.118  0.0665 -0.0089  0.3196
  312TMC3    C2 4689   0.559   4.423  13.055 -0.7454  0.4758 -0.3655
  312TMC3    C3 4690   0.473   4.532  13.083 -0.0209 -0.4290  0.3140
  312TMC3    C4 4691   0.717   4.520  13.198 -0.6842 -0.6343 -0.7153
  312TMC3    C5 4692   0.626   4.620  13.233  0.4346  0.9629 -0.0693
  312TMC3    C6 4693   0.501   4.628  13.177 -0.6742  0.5489  0.1836
  312TMC3     C 4694   0.771   4.332  13.050  0.1787 -0.1766 -0.3326
  312TMC3     O 4695   0.738   4.222  13.010 -0.3084  0.3287 -0.0914
  312TMC3     H 4696   0.529   4.350  12.980 -0.5177 -0.1715  0.1688
  312TMC3    H1 4697   0.816   4.507  13.242 -0.7916 -0.7167 -0.4971
  312TMC3    H2 4698   0.435   4.710  13.200 -0.6808  0.0900  1.7709
  312TMC3    C7 4699   0.679   0.015  13.303  0.0719  0.2572 -0.1252
  312TMC3    C8 4700   0.372   4.547  12.982 -0.3082  0.1759  0.0305
  312TMC3    O1 4701   0.657   0.122  13.252  0.0094  0.2125  0.3425
  312TMC3    O2 4702   0.357   4.453  12.912 -0.2058  0.0573  0.5383
  313MPD2     C 4703   1.380   3.771  10.752 -0.3123  0.3433  0.1391
  313MPD2    C1 4704   1.261   3.801  10.684 -0.7768  0.1773  0.1236
  313MPD2    C2 4705   1.243   3.753  10.561 -0.3385 -0.6510 -0.9970
  313MPD2    C3 4706   1.344   3.686  10.499  0.3199 -0.3361 -0.6409
  313MPD2    C4 4707   1.470   3.664  10.558 -0.0328  0.6011  0.3544
  313MPD2    C5 4708   1.483   3.712  10.682 -0.2464 -0.7171 -0.2975
  313MPD2     H 4709   1.144   3.757  10.517  0.0479  0.6506 -1.7423
  313MPD2    H1 4710   1.555   3.614  10.512 -0.6601  0.3590 -0.5275
  313MPD2    H2 4711   1.410   3.807  10.850 -0.4508 -1.6074  0.8929
  313MPD2    H3 4712   1.568   3.687  10.745  0.0721  1.2908  0.0763
  313MPD2     N 4713   1.322   3.610  10.380 -0.0586  0.5644 -0.1299
  313MPD2    H5 4714   1.390   3.543  10.348 -2.0383 -1.4766 -0.0780
  313MPD2    N1 4715   1.150   3.865  10.748  0.2128  0.7860 -0.5872
  313MPD2    H7 4716   1.062   3.856  10.699  1.5730 -0.3179 -2.7948
  314TMC3    C1 4717   1.053   4.023  10.899  0.8248 -0.1416 -0.1532
  314TMC3    C2 4718   1.064   4.086  11.029 -0.6652 -0.0424 -0.7529
  314TMC3    C3 4719   0.966   4.179  11.065  0.0583 -0.2717  0.6133
  314TMC3    C4 4720   0.944   4.044  10.813 -0.1035  0.0966  0.6790
  314TMC3    C5 4721   0.845   4.135  10.858 -0.0864 -0.2069  0.4118
  314TMC3    C6 4722   0.852   4.184  10.987 -0.1266  0.1511  0.3626
  314TMC3     C 4723   1.165   3.943  10.862  0.2796 -0.4428  0.6051
  314TMC3     O 4724   1.266   3.974  10.921  0.1282 -0.1362 -0.0689
  314TMC3     H 4725   1.143   4.067  11.101 -1.4401 -1.5653 -0.3095
  314TMC3    H1 4726   0.934   3.980  10.727  1.2042 -1.3989  1.6487
  314TMC3    H2 4727   0.776   4.253  11.023  0.7781  1.0334  0.5706
  314TMC3    C7 4728   0.745   4.184  10.768 -0.2739  0.3331  0.4523
  314TMC3    C8 4729   0.979   4.263  11.183  0.4413  0.3540  0.5888
  314TMC3    O1 4730   0.634   4.215  10.814 -0.2704  0.2889  0.2535
  314TMC3    O2 4731   0.891   4.347  11.202 -0.3666 -0.5202 -0.2098
  315MPD2     C 4732   0.539   3.009   0.327  0.2165  0.5885  0.2382
  315MPD2    C1 4733   0.650   2.941   0.273  0.1650 -0.9838 -0.7212
  315MPD2    C2 4734   0.720   3.010   0.174 -0.2395  0.1734  0.7624
  315MPD2    C3 4735   0.689   3.137   0.133  0.1709 -0.7747  0.7001
  315MPD2    C4 4736   0.576   3.194   0.181  0.1547  0.6879 -0.2371
  315MPD2    C5 4737   0.504   3.130   0.278 -0.2642  0.1343 -0.4440
  315MPD2     H 4738   0.815   2.969   0.140 -0.5875 -2.0945  2.5424
  315MPD2    H1 4739   0.542   3.294   0.154 -0.0637  0.7373  0.2100
  315MPD2    H2 4740   0.481   2.967   0.409  2.2485 -0.9269  0.9156
  315MPD2    H3 4741   0.416   3.172   0.326  1.0709  1.6449  0.6930
  315MPD2     N 4742   0.781   3.207   0.053  0.2355 -0.7468  0.2799
  315MPD2    H5 4743   0.867   3.156   0.041  0.5739 -0.4605  1.4389
  315MPD2    N1 4744   0.706   2.827   0.333  0.0140 -0.1542  0.0089
  315MPD2    H7 4745   0.783   2.788   0.280  1.0580 -0.8332  1.9998
  316TMC3    C1 4746   0.886   3.378  17.623 -0.4852  0.4145 -0.1645
  316TMC3    C2 4747   1.003   3.366   0.003  0.2596  0.1152  0.3328
  316TMC3    C3 4748   1.107   3.448  17.668  0.4357  0.3659 -0.4178
  316TMC3    C4 4749   0.874   3.463  17.514 -0.3924  0.1884  0.2599
  316TMC3    C5 4750   0.981   3.541  17.476 -0.3139  0.3729 -0.2449
  316TMC3    C6 4751   1.097   3.536  17.558 -0.7535 -0.2087  0.1771
  316TMC3     C 4752   0.763   3.331  17.686  0.0868  0.6265  0.5455
  316TMC3     O 4753   0.659   3.381  17.647 -0.7903  0.2067  0.0121
  316TMC3     H 4754   0.989   3.323   0.101  0.9492  0.3363  0.5318
  316TMC3    H1 4755   0.776   3.472  17.469 -0.8229 -2.6660  0.6497
  316TMC3    H2 4756   1.186   3.591  17.532 -0.4167 -0.7971  0.0818
  316TMC3    C7 4757   0.962   3.662  17.402 -0.7180  0.1924 -0.0702
  316TMC3    C8 4758   1.229   3.440   0.043 -0.2321 -0.0246  0.3224
  316TMC3    O1 4759   1.021   3.760  17.444  0.1898 -0.5726  1.0584
  316TMC3    O2 4760   1.289   3.546   0.059 -0.2455 -0.3003  0.1684
  317MPD2     C 4761   1.747   1.393  12.925 -0.3909  0.1398 -0.0140
  317MPD2    C1 4762   1.876   1.335  12.924  0.3688  0.5391 -1.6532
  317MPD2    C2 4763   1.967   1.374  13.015 -0.8444 -0.2527  0.2633
  317MPD2    C3 4764   1.939   1.465  13.119  0.3834  0.2664 -0.6493
  317MPD2    C4 4765   1.811   1.522  13.120 -0.0367  0.1012  0.3672
  317MPD2    C5 4766   1.720   1.483  13.023  0.6844 -0.1948  0.7659
  317MPD2     H 4767   2.056   1.314  13.000  0.0046  1.0658  0.0197
  317MPD2    H1 4768   1.786   1.599  13.192  1.0988  1.7760 -1.0029
  317MPD2    H2 4769   1.665   1.366  12.859  0.4216 -0.7249 -0.6682
  317MPD2    H3 4770   1.621   1.527  13.026  1.4664  1.9136 -4.6502
  317MPD2     N 4771   2.036   1.491  13.217  0.3565 -0.4733  0.1239
  317MPD2    H5 4772   2.127   1.450  13.197 -0.0597 -0.7255 -1.2176
  317MPD2    N1 4773   1.920   1.233  12.840 -0.1565  0.6827 -0.1939
  317MPD2    H7 4774   2.014   1.196  12.848 -0.9057 -1.7415 -2.7350
  318TMC3    C1 4775   2.129   1.527  13.411 -0.2486  0.0160 -0.4240
  318TMC3    C2 4776   2.096   1.406  13.462 -0.3941 -0.5264 -0.1572
  318TMC3    C3 4777   2.202   1.310  13.475  0.3119 -0.2348 -0.3787
  318TMC3    C4 4778   2.255   1.550  13.365  0.0712  0.3208 -0.3062
  318TMC3    C5 4779   2.354   1.458  13.390 -1.0142 -0.4643 -0.4486
  318TMC3    C6 4780   2.337   1.338  13.453 -0.1659 -0.3204  0.5466
  318TMC3     C 4781   2.023   1.569  13.328  0.2366 -0.4783  0.5571
  318TMC3     O 4782   1.922   1.612  13.385 -0.2735 -0.1591 -0.9265
  318TMC3     H 4783   1.992   1.386  13.486 -0.3460 -0.4252  0.1318
  318TMC3    H1 4784   2.267   1.651  13.330 -0.3213  0.6503  0.5044
  318TMC3    H2 4785   2.400   1.251  13.447 -1.5554 -1.3019  0.0297
  318TMC3    C7 4786   2.488   1.505  13.377 -0.1537  1.1243  0.1081
  318TMC3    C8 4787   2.173   1.176  13.454  0.1821  0.5138 -0.7924
  318TMC3    O1 4788   2.492   1.626  13.353  0.2538  0.1240 -0.0527
  318TMC3    O2 4789   2.251   1.080  13.477 -0.1698 -0.0616 -0.9457
  319MPD2     C 4790   3.895   2.660  16.617  0.2365  0.5658  0.1865
  319MPD2    C1 4791   3.812   2.583  16.705 -0.3757 -0.1358  0.2932
  319MPD2    C2 4792   3.675   2.566  16.678  0.6754 -0.7020 -0.2008
  319MPD2    C3 4793   3.628   2.610  16.556 -0.0387  0.3441 -0.1453
  319MPD2    C4 4794   3.709   2.678  16.472  0.2005  0.2458  0.0714
  319MPD2    C5 4795   3.837   2.710  16.505 -0.0085 -0.2851  0.8698
  319MPD2     H 4796   3.605   2.517  16.744 -1.4281  4.0697  1.1202
  319MPD2    H1 4797   3.668   2.722  16.382  0.5905  1.7647  0.6324
  319MPD2    H2 4798   3.987   2.707  16.648  1.3524 -0.0624 -2.1748
  319MPD2    H3 4799   3.898   2.773  16.440 -0.5803 -0.8280 -0.2047
  319MPD2     N 4800   3.498   2.582  16.498  0.5960 -0.5845  0.2193
  319MPD2    H5 4801   3.486   2.614  16.403  1.9690 -0.4926  0.0696
  319MPD2    N1 4802   3.867   2.537  16.826 -0.1175 -0.5807 -0.6425
  319MPD2    H7 4803   3.803   2.483  16.885  1.5288 -2.7661 -0.8491
  320TMC3    C1 4804   3.266   2.516  16.486 -0.4500 -0.8364 -0.5439
  320TMC3    C2 4805   3.246   2.607  16.385 -0.0307  0.1970 -0.0066
  320TMC3    C3 4806   3.111   2.627  16.340 -0.2189  0.5550 -0.0224
  320TMC3    C4 4807   3.168   2.447  16.550 -0.3307 -0.2531 -0.4098
  320TMC3    C5 4808   3.039   2.475  16.506  0.2345  0.7385 -0.2498
  320TMC3    C6 4809   3.008   2.564  16.405  0.1004 -0.6195  0.0870
  320TMC3     C 4810   3.396   2.512  16.558 -0.0813 -0.1657  0.4753
  320TMC3     O 4811   3.394   2.463  16.669  0.2230 -0.8976  0.4481
  320TMC3     H 4812   3.334   2.644  16.334 -0.4568  0.9275 -0.2104
  320TMC3    H1 4813   3.196   2.379  16.629  1.5469 -0.6883 -1.4565
  320TMC3    H2 4814   2.904   2.570  16.374 -0.4293 -1.1737  1.7330
  320TMC3    C7 4815   2.960   2.356  16.504  0.3273  0.4358  0.1596
  320TMC3    C8 4816   3.080   2.716  16.229 -0.3696 -0.3651 -0.1134
  320TMC3    O1 4817   2.874   2.342  16.419  0.0743 -0.4216 -0.9102
  320TMC3    O2 4818   3.170   2.785  16.184 -0.1939 -0.1941  0.3202
  321TMC3    C1 4819   4.023   2.478  17.001 -0.3792 -0.2877 -0.1170
  321TMC3    C2 4820   3.922   2.494  17.092  0.0075  0.2470  0.5877
  321TMC3    C3 4821   3.961   2.492  17.224 -0.3924 -0.2870 -1.1200
  321TMC3    C4 4822   4.157   2.474  17.024 -0.0662 -0.0702  0.0971
  321TMC3    C5 4823   4.190   2.465  17.155  0.1324 -0.7038 -0.2809
  321TMC3    C6 4824   4.089   2.464  17.255  0.2529 -0.2633  0.2808
  321TMC3     C 4825   3.996   2.538  16.868  0.2179  0.0365  0.0931
  321TMC3     O 4826   4.097   2.559  16.801  0.2428  0.1706  0.2572
  321TMC3     H 4827   3.823   2.530  17.068  0.6146  1.5519  0.0283
  321TMC3    H1 4828   4.229   2.454  16.944 -1.6206 -2.9646 -0.5658
  321TMC3    H2 4829   4.126   2.461  17.357 -0.1161 -0.1311  0.4196
  321TMC3    C7 4830   4.245   2.336  17.187  0.3011 -1.0454 -0.0996
  321TMC3    C8 4831   3.868   2.432  17.319 -0.3700  0.0280 -0.0395
  321TMC3    O1 4832   4.170   2.254  17.234 -0.0536 -0.3258 -0.5088
  321TMC3    O2 4833   3.747   2.448  17.303  0.5027 -0.0704 -0.0485
  322MPD2     C 4834   1.984   4.018  13.856 -0.0710  0.4574  0.3963
  322MPD2    C1 4835   2.044   3.988  13.971  0.3953  0.3778 -0.2632
  322MPD2    C2 4836   2.043   3.862  14.019 -0.3339  0.4413  0.2245
  322MPD2    C3 4837   1.987   3.758  13.946  0.3569 -0.3540 -0.2404
  322MPD2    C4 4838   1.914   3.798  13.834 -0.2139  0.0726 -0.1492
  322MPD2    C5 4839   1.920   3.927  13.782  0.2344 -0.2696 -0.6232
  322MPD2     H 4840   2.095   3.842  14.112 -1.6139  0.6181  0.9865
  322MPD2    H1 4841   1.864   3.731  13.765  0.3482  1.6682 -2.1045
  322MPD2    H2 4842   1.981   4.121  13.822 -0.5627  0.0591 -0.7754
  322MPD2    H3 4843   1.873   3.963  13.691 -1.0159 -0.8778 -0.2059
  322MPD2     N 4844   1.979   3.625  13.999 -0.2963 -0.4067 -0.5815
  322MPD2    H5 4845   2.039   3.610  14.080 -0.4022 -1.6664 -0.7391
  322MPD2    N1 4846   2.105   4.102  14.035  0.3226  0.1861  0.0082
  322MPD2    H7 4847   2.110   4.187  13.980  1.5794  0.6072  0.7685
  323TMC3    C1 4848   2.207   4.232  14.203  0.6360  0.4288 -0.6098
  323TMC3    C2 4849   2.302   4.281  14.115  0.2759 -0.5988 -0.2805
  323TMC3    C3 4850   2.425   4.322  14.158 -0.0910 -0.2066  0.2164
  323TMC3    C4 4851   2.238   4.232  14.337  0.0134 -0.1500 -0.0696
  323TMC3    C5 4852   2.364   4.255  14.383  0.7975 -0.2473 -0.8772
  323TMC3    C6 4853   2.461   4.304  14.291  0.1581 -0.4097 -0.1195
  323TMC3     C 4854   2.137   4.110  14.171  0.1401 -0.2878  0.5402
  323TMC3     O 4855   2.122   4.027  14.256  0.0081 -0.2317  0.2630
  323TMC3     H 4856   2.295   4.275  14.007 -0.0976 -1.3652 -0.2120
  323TMC3    H1 4857   2.158   4.202  14.404 -0.2675 -1.1201 -0.8411
  323TMC3    H2 4858   2.561   4.337  14.320 -0.1857  1.2278 -0.8180
  323TMC3    C7 4859   2.408   4.151  14.473 -0.2506  0.2816  0.3058
  323TMC3    C8 4860   2.505   4.403  14.066  0.6923 -0.0045 -0.1300
  323TMC3    O1 4861   2.332   4.058  14.498 -0.2374 -0.2105 -0.5076
  323TMC3    O2 4862   2.625   4.411  14.082 -0.1469 -0.1527 -0.0638
  324MPD2     C 4863   3.759   4.685  14.262 -0.1697 -0.2890 -0.2828
  324MPD2    C1 4864   3.815   0.051  14.171  0.8981 -0.3187 -0.8210
  324MPD2    C2 4865   3.730   0.135  14.102 -0.4968  0.3247 -0.3611
  324MPD2    C3 4866   3.593   0.132  14.116 -0.8893  0.0950 -0.4956
  324MPD2    C4 4867   3.538   0.028  14.193 -0.0565 -0.7600 -1.0249
  324MPD2    C5 4868   3.623   4.668  14.263 -0.6693  0.5940 -0.3351
  324MPD2     H 4869   3.777   0.199  14.028 -0.0188  0.7163  0.2896
  324MPD2    H1 4870   3.431   0.010  14.198  0.3499 -2.6544  0.8160
  324MPD2    H2 4871   3.813   4.616  14.325  2.4882  0.2747 -1.9530
  324MPD2    H3 4872   3.578   4.589  14.322 -2.1177  0.5244 -1.5232
  324MPD2     N 4873   3.505   0.207  14.038  0.2089  0.2285 -0.5230
  324MPD2    H5 4874   3.413   0.167  14.026  0.4206 -0.0697 -1.1233
  324MPD2    N1 4875   3.953   0.069  14.160 -0.4202  0.3941 -0.2780
  324MPD2    H7 4876   3.990   0.159  14.132 -0.2483  1.1291  2.2619
  325TMC3    C1 4877   3.414   0.372  13.887 -0.4160  0.3402 -0.2247
  325TMC3    C2 4878   3.292   0.308  13.894  1.1987  0.4456 -0.0725
  325TMC3    C3 4879   3.186   0.396  13.896 -0.9685  0.2716 -0.3241
  325TMC3    C4 4880   3.423   0.511  13.880 -0.0166  0.7733 -0.7349
  325TMC3    C5 4881   3.311   0.592  13.865  0.4697  0.1911 -0.1439
  325TMC3    C6 4882   3.191   0.535  13.876 -0.0153 -0.0846 -0.6587
  325TMC3     C 4883   3.535   0.318  13.954  0.4012  0.3240 -0.1316
  325TMC3     O 4884   3.641   0.380  13.950 -0.1488 -0.1630  0.3390
  325TMC3     H 4885   3.279   0.200  13.897 -1.4750  0.8068  1.2860
  325TMC3    H1 4886   3.521   0.554  13.867  0.3638 -0.2283 -1.2461
  325TMC3    H2 4887   3.102   0.593  13.853  0.2004  0.3654 -0.3752
  325TMC3    C7 4888   3.334   0.725  13.900  0.1059 -0.0533 -0.5029
  325TMC3    C8 4889   3.057   0.347  13.846 -0.1403  0.3649  0.3194
  325TMC3    O1 4890   3.448   0.764  13.874 -0.2040  0.5259  0.3389
  325TMC3    O2 4891   3.062   0.239  13.787 -0.3791  0.5464 -0.0643
  326MPD2     C 4892   0.393   1.442  11.196 -0.3946 -0.4476  0.1691
  326MPD2    C1 4893   0.394   1.465  11.056  0.3595 -0.4207  0.6429
  326MPD2    C2 4894   0.509   1.487  11.003  0.1768  0.0185  0.4162
  326MPD2    C3 4895   0.623   1.502  11.079  0.9264 -0.4542  0.3651
  326MPD2    C4 4896   0.622   1.461  11.215 -0.3348 -0.2100  0.6718
  326MPD2    C5 4897   0.502   1.429  11.269 -0.1486 -0.0223  0.2191
  326MPD2     H 4898   0.516   1.505  10.896  2.0992 -2.9054  0.0532
  326MPD2    H1 4899   0.715   1.456  11.271  1.2115  2.1938 -1.6844
  326MPD2    H2 4900   0.299   1.418  11.243 -0.2562 -1.5207 -0.1062
  326MPD2    H3 4901   0.509   1.396  11.372 -1.4217 -0.2377  0.2400
  326MPD2     N 4902   0.747   1.539  11.032  0.4287 -0.2356  0.4744
  326MPD2    H5 4903   0.815   1.545  11.107  0.7881 -0.1636  0.1444
  326MPD2    N1 4904   0.288   1.457  10.967  0.2121 -0.5967 -0.5224
  326MPD2    H7 4905   0.311   1.477  10.870 -0.2031 -0.3949 -0.5749
  327TMC3    C1 4906   0.076   1.402  10.889 -0.4552  0.1499  0.1475
  327TMC3    C2 4907   0.039   1.511  10.813 -0.1557  0.1016  0.0508
  327TMC3    C3 4908   4.722   1.493  10.686 -0.7339  0.1371  0.6665
  327TMC3    C4 4909   0.087   1.281  10.826 -0.5243 -0.0339  0.3479
  327TMC3    C5 4910   0.074   1.272  10.691  0.2187  0.3505  0.1261
  327TMC3    C6 4911   0.008   1.370  10.621 -0.2456 -0.5373 -0.1170
  327TMC3     C 4912   0.161   1.419  11.003 -0.0790 -0.0909 -0.0611
  327TMC3     O 4913   0.122   1.353  11.101 -0.3951  0.2668  0.0941
  327TMC3     H 4914   0.039   1.610  10.857 -0.2222  0.1209  0.0066
  327TMC3    H1 4915   0.130   1.208  10.893  0.1575  0.0246 -0.0365
  327TMC3    H2 4916   0.012   1.365  10.513  0.8060 -2.6592  0.0215
  327TMC3    C7 4917   0.204   1.259  10.628 -0.5097  0.0954 -0.6432
  327TMC3    C8 4918   4.697   1.613  10.608 -0.0929  0.0120 -0.3485
  327TMC3    O1 4919   0.218   1.277  10.512 -0.4044  0.1247  0.1328
  327TMC3    O2 4920   0.000   1.722  10.653 -0.1277  0.2017  0.6725
  328MPD2     C 4921   2.696   1.232  17.389  0.4923 -0.2188  0.0422
  328MPD2    C1 4922   2.620   1.203  17.278 -0.2205 -0.2632  0.2732
  328MPD2    C2 4923   2.561   1.315  17.212 -0.1727  0.5918 -0.1059
  328MPD2    C3 4924   2.589   1.445  17.247  1.0889  0.1623  0.1465
  328MPD2    C4 4925   2.670   1.467  17.361  0.1875 -0.0485  0.5078
  328MPD2    C5 4926   2.721   1.357  17.430  0.6529  0.7529 -0.8481
  328MPD2     H 4927   2.495   1.295  17.128  2.9954 -0.2862 -2.4070
  328MPD2    H1 4928   2.704   1.563  17.398  1.1124 -0.2579  0.1848
  328MPD2    H2 4929   2.733   1.154  17.455  0.8459 -0.1629 -0.0847
  328MPD2    H3 4930   2.769   1.364  17.527 -0.4256 -1.5741 -0.1439
  328MPD2     N 4931   2.536   1.561  17.174  0.5025 -1.1590 -0.2449
  328MPD2    H5 4932   2.561   1.651  17.214 -1.4571 -0.2547 -1.0653
  328MPD2    N1 4933   2.598   1.071  17.238 -0.1179  0.3683 -0.0787
  328MPD2    H7 4934   2.635   0.998  17.297 -0.0470  0.5539  0.1062
  329TMC3    C1 4935   2.507   0.903  17.113  0.7475  0.2291 -0.1125
  329TMC3    C2 4936   2.442   0.841  17.222 -0.1839  0.0413  0.7539
  329TMC3    C3 4937   2.430   0.703  17.224  0.5600 -0.3951  0.1615
  329TMC3    C4 4938   2.548   0.832  17.003 -0.0189  0.4507 -1.1796
  329TMC3    C5 4939   2.546   0.697  17.019 -0.3348  0.6072 -0.1781
  329TMC3    C6 4940   2.487   0.628  17.125  0.3397 -0.1253  0.7405
  329TMC3     C 4941   2.543   1.041  17.119  0.0823  0.4926  0.6010
  329TMC3     O 4942   2.529   1.105  17.016  0.6192 -0.5692  0.0903
  329TMC3     H 4943   2.401   0.900  17.303 -0.4286  0.7034  0.1443
  329TMC3    H1 4944   2.594   0.884  16.919  3.3120 -1.1987 -0.3585
  329TMC3    H2 4945   2.476   0.520  17.130  3.2094 -0.5029 -1.1463
  329TMC3    C7 4946   2.582   0.616  16.911  0.4786  0.0167  0.6042
  329TMC3    C8 4947   2.417   0.640  17.352 -0.0620 -0.2311 -0.3074
  329TMC3    O1 4948   2.508   0.520  16.890  0.2114 -0.3708 -0.0637
  329TMC3    O2 4949   2.481   0.538  17.364 -0.4824  0.4096  0.1761
  330TMC3    C1 4950   0.480   1.185   9.101  0.1499  0.4722 -0.8594
  330TMC3    C2 4951   0.461   1.066   9.035  0.1718  0.3920  0.1974
  330TMC3    C3 4952   0.513   0.950   9.087 -0.7623  0.9287 -0.2164
  330TMC3    C4 4953   0.553   1.187   9.221  0.5987 -0.3678  1.0674
  330TMC3    C5 4954   0.597   1.067   9.272 -0.4436 -0.4012 -0.2196
  330TMC3    C6 4955   0.582   0.946   9.203 -0.0766  0.7387 -0.2624
  330TMC3     C 4956   0.401   1.306   9.076 -0.1106  0.0559 -0.4223
  330TMC3     O 4957   0.410   1.406   9.146 -0.7760 -0.0319 -0.0075
  330TMC3     H 4958   0.405   1.059   8.943  0.1805 -0.4736  0.2496
  330TMC3    H1 4959   0.554   1.282   9.273 -2.4886 -0.2057  0.7852
  330TMC3    H2 4960   0.630   0.856   9.242 -0.4092 -0.2231 -2.0827
  330TMC3    C7 4961   0.671   1.076   9.400 -0.1988  0.0065  0.1315
  330TMC3    C8 4962   0.485   0.826   9.015  0.3894  0.2845  0.6300
  330TMC3    O1 4963   0.707   1.186   9.440 -0.1002  0.1622 -0.5856
  330TMC3    O2 4964   0.456   0.836   8.895 -0.0140 -0.0663  0.2051
  331MPD2     C 4965   3.000   4.704  12.736  0.3460 -0.1087  1.0518
  331MPD2    C1 4966   3.119   0.012  12.665  0.3306  0.0366  0.0207
  331MPD2    C2 4967   3.164   4.636  12.573 -0.2673  0.2571 -0.6429
  331MPD2    C3 4968   3.112   4.511  12.562  0.0503  0.2194 -0.4258
  331MPD2    C4 4969   3.007   4.486  12.635 -0.2368 -0.4401  0.0109
  331MPD2    C5 4970   2.948   4.581  12.711 -0.3415 -0.1999  0.3049
  331MPD2     H 4971   3.244   4.654  12.502  0.2248 -0.7226 -0.3355
  331MPD2    H1 4972   2.962   4.387  12.630 -0.2355 -0.4709  0.6269
  331MPD2    H2 4973   2.957   0.048  12.810 -2.1131  1.3303 -1.6769
  331MPD2    H3 4974   2.859   4.554  12.767 -1.0395 -0.0887 -0.7376
  331MPD2     N 4975   3.160   4.426  12.461  0.1457 -0.7089 -0.6359
  331MPD2    H5 4976   3.227   4.477  12.405  0.1345  2.3604  2.1598
  331MPD2    N1 4977   3.185   0.135  12.674  0.1766  0.3490  0.4831
  331MPD2    H7 4978   3.130   0.213  12.708  0.0038  0.2597  0.4080
  332TMC3    C1 4979   3.259   4.247  12.368  0.7142  0.8934  0.0942
  332TMC3    C2 4980   3.302   4.339  12.269  0.7220  0.5638 -0.1850
  332TMC3    C3 4981   3.436   4.338  12.247  0.5887  0.1184 -0.7797
  332TMC3    C4 4982   3.343   4.163  12.432 -0.0017 -0.2109  0.4791
  332TMC3    C5 4983   3.471   4.170  12.397  0.4579 -0.0229  0.1054
  332TMC3    C6 4984   3.525   4.248  12.301  0.7554  0.3578  0.1540
  332TMC3     C 4985   3.152   4.291  12.458 -0.0821 -0.7377 -0.5039
  332TMC3     O 4986   3.119   4.213  12.542  0.4052 -0.3096  0.0146
  332TMC3     H 4987   3.229   4.399  12.215 -0.0155 -1.7839 -1.8115
  332TMC3    H1 4988   3.304   4.090  12.501  1.5743 -0.2627  1.3128
  332TMC3    H2 4989   3.628   4.233  12.272  0.0212 -0.4566 -2.0318
  332TMC3    C7 4990   3.552   4.066  12.458  0.2967  0.4316 -0.0298
  332TMC3    C8 4991   3.478   4.412  12.123  0.2029  0.4399 -0.1101
  332TMC3    O1 4992   3.484   3.975  12.500  0.0758  0.4864  0.6636
  332TMC3    O2 4993   3.382   4.443  12.052 -0.0598 -0.3862  0.6772
  333MPD2     C 4994   3.489   4.693  10.988  1.2271 -0.3056  0.3805
  333MPD2    C1 4995   3.568   4.588  10.960 -0.0554  0.3875 -0.0449
  333MPD2    C2 4996   3.568   4.484  11.052 -0.8155 -0.5637  0.2611
  333MPD2    C3 4997   3.489   4.479  11.161  0.6418 -0.4608 -0.9040
  333MPD2    C4 4998   3.403   4.583  11.188  0.0272 -0.0965  0.3741
  333MPD2    C5 4999   3.400   4.687  11.097 -0.3669  0.1824  0.1386
  333MPD2     H 5000   3.650   4.413  11.046 -0.5630 -0.1541 -1.0584
  333MPD2    H1 5001   3.346   4.596  11.279 -0.3161  0.2191  0.1164
  333MPD2    H2 5002   3.491   0.057  10.923 -0.3530 -2.5049 -2.5922
  333MPD2    H3 5003   3.351   0.057  11.124 -1.7743 -0.0652 -1.5568
  333MPD2     N 5004   3.525   4.377  11.256 -0.1287 -0.2147  0.0844
  333MPD2    H5 5005   3.605   4.318  11.236  0.5787  0.9912 -0.6567
  333MPD2    N1 5006   3.668   4.613  10.869 -0.0903  0.4914 -0.0174
  333MPD2    H7 5007   3.673   4.709  10.837 -0.5254  0.4040 -0.3529
  334TMC3    C1 5008   3.847   4.565  10.728  0.2068  0.0322 -0.4425
  334TMC3    C2 5009   3.914   4.465  10.659 -0.1651  0.6335 -0.4562
  334TMC3    C3 5010   4.025   4.504  10.583 -0.0084 -0.4825  0.0864
  334TMC3    C4 5011   3.893   4.701  10.729  0.2174  0.4086 -0.4997
  334TMC3    C5 5012   4.003   0.007  10.653  0.3751  0.3852 -0.0819
  334TMC3    C6 5013   4.072   4.635  10.590 -0.4535 -0.3411 -0.8732
  334TMC3     C 5014   3.756   4.521  10.826  0.4430 -0.6503 -0.1235
  334TMC3     O 5015   3.756   4.400  10.850 -0.0296 -0.7410  0.2661
  334TMC3     H 5016   3.888   4.360  10.654 -2.2179  1.0678  0.9596
  334TMC3    H1 5017   3.834   0.058  10.771  0.1924  0.0352  0.1801
  334TMC3    H2 5018   4.168   4.656  10.544  0.1369 -0.4203  0.3151
  334TMC3    C7 5019   4.087   0.120  10.687 -0.6662 -0.1893 -0.5882
  334TMC3    C8 5020   4.114   4.396  10.526  0.3308 -0.6307  0.5723
  334TMC3    O1 5021   4.161   0.154  10.595 -0.2894 -0.6330 -0.3615
  334TMC3    O2 5022   4.063   4.326  10.441 -0.0696 -0.2795 -0.0774
  335TMC3    C1 5023   3.262   1.444   0.125  0.4668  0.2759 -0.4806
  335TMC3    C2 5024   3.163   1.382   0.049 -0.3872  0.4043  0.4164
  335TMC3    C3 5025   3.204   1.300  17.642 -0.4576 -0.2535 -0.1166
  335TMC3    C4 5026   3.397   1.412   0.095  0.6037  0.2847  0.2027
  335TMC3    C5 5027   3.427   1.334  17.682  0.8667 -0.7629 -0.4713
  335TMC3    C6 5028   3.333   1.278  17.602  0.3929 -0.2067 -0.1088
  335TMC3     C 5029   3.229   1.479   0.257  0.2733 -0.1959  0.5584
  335TMC3     O 5030   3.117   1.453   0.302 -0.5140  0.7424 -0.0063
  335TMC3     H 5031   3.057   1.402   0.065 -0.4608 -1.5389  2.3131
  335TMC3    H1 5032   3.479   1.447   0.157  0.7863 -0.4019  0.3465
  335TMC3    H2 5033   3.363   1.201  17.532  1.6444  0.3866 -0.2285
  335TMC3    C7 5034   3.554   1.339  17.623  0.1157  0.8207  0.0026
  335TMC3    C8 5035   3.095   1.235  17.566  0.2150 -0.9833 -0.1771
  335TMC3    O1 5036   3.587   1.249  17.548  0.4916  0.0761  0.9261
  335TMC3    O2 5037   3.007   1.177  17.623 -0.6279  0.8335 -0.5139
  336MPD2     C 5038   3.320   3.822  16.307 -0.0368  0.4206  0.3001
  336MPD2    C1 5039   3.272   3.774  16.188  0.1988  0.3109  0.1828
  336MPD2    C2 5040   3.279   3.634  16.165  0.7092  0.0492 -0.0742
  336MPD2    C3 5041   3.330   3.542  16.260  0.4793  0.6594  0.4231
  336MPD2    C4 5042   3.379   3.592  16.376 -0.3067 -0.3046 -0.2374
  336MPD2    C5 5043   3.366   3.730  16.399  0.1454 -0.4570 -0.6564
  336MPD2     H 5044   3.235   3.593  16.076  0.7175  0.7058 -0.3798
  336MPD2    H1 5045   3.399   3.524  16.458  1.3531 -0.0030 -0.3923
  336MPD2    H2 5046   3.315   3.929  16.323 -0.1491  0.2859  1.1641
  336MPD2    H3 5047   3.406   3.776  16.489  0.3335  1.0869 -1.5185
  336MPD2     N 5048   3.339   3.398  16.248 -0.3870 -0.2483 -0.1598
  336MPD2    H5 5049   3.365   3.350  16.333 -1.3362  0.2555  0.4139
  336MPD2    N1 5050   3.212   3.856  16.088  0.1585 -0.0181  0.3203
  336MPD2    H7 5051   3.225   3.824  15.992 -3.3759 -3.1025  0.8453
  337TMC3    C1 5052   3.152   4.057  15.982  0.3479 -0.1776  0.1366
  337TMC3    C2 5053   3.048   4.145  15.977  0.5313 -0.2923 -0.9606
  337TMC3    C3 5054   3.010   4.182  15.854 -0.0814 -0.5671 -0.0881
  337TMC3    C4 5055   3.226   4.016  15.866 -0.9222  0.4183 -0.5181
  337TMC3    C5 5056   3.178   4.055  15.745  0.0146  0.2256  0.2590
  337TMC3    C6 5057   3.069   4.131  15.743 -0.3443  0.6526 -0.3687
  337TMC3     C 5058   3.177   3.990  16.105  0.2523  0.1570  0.0846
  337TMC3     O 5059   3.135   4.043  16.208  0.1677 -0.2813  0.4627
  337TMC3     H 5060   2.993   4.184  16.061  1.9553  1.4373 -0.8180
  337TMC3    H1 5061   3.316   3.957  15.877 -1.9871 -0.5961  2.6765
  337TMC3    H2 5062   3.046   4.178  15.648  1.9908  2.1903 -0.1556
  337TMC3    C7 5063   3.290   4.066  15.653 -0.2740 -0.5123 -0.1153
  337TMC3    C8 5064   2.868   4.204  15.844  0.3279 -0.6194 -0.0040
  337TMC3    O1 5065   3.373   3.976  15.640 -0.2818 -0.4233  0.4830
  337TMC3    O2 5066   2.814   4.262  15.933 -0.0836  0.1325  0.3048
  338MPD2     C 5067   2.949   3.149   0.995 -0.2657  0.5203  0.0832
  338MPD2    C1 5068   3.074   3.118   0.940  0.4875 -0.2513 -0.3709
  338MPD2    C2 5069   3.190   3.143   1.016 -0.1942  0.3176  0.6089
  338MPD2    C3 5070   3.169   3.208   1.140 -0.3483 -0.1991 -0.4889
  338MPD2    C4 5071   3.042   3.235   1.185  0.0113 -0.6822 -0.0343
  338MPD2    C5 5072   2.931   3.213   1.113  0.1393 -0.1354 -0.6419
  338MPD2     H 5073   3.293   3.128   0.985  0.4562  1.8544  2.0130
  338MPD2    H1 5074   3.022   3.276   1.284  1.3813  0.1105 -0.0905
  338MPD2    H2 5075   2.855   3.118   0.951 -0.9677  2.9265 -0.1278
  338MPD2    H3 5076   2.832   3.237   1.151  1.0140 -0.3168  1.7470
  338MPD2     N 5077   3.287   3.253   1.206 -0.1225  0.2649  0.4705
  338MPD2    H5 5078   3.378   3.236   1.162 -0.6178 -1.2983  0.0409
  338MPD2    N1 5079   3.087   3.050   0.817  0.0159 -0.1791 -0.3071
  338MPD2    H7 5080   3.181   3.018   0.796  0.6660  1.2659  0.4170
  339TMC3    C1 5081   3.423   3.346   1.383 -0.1198 -0.0983  0.5909
  339TMC3    C2 5082   3.435   3.372   1.515  1.1060  0.6554 -0.2294
  339TMC3    C3 5083   3.520   3.469   1.554  0.4284  0.7282  0.4606
  339TMC3    C4 5084   3.500   3.411   1.292 -0.1215  0.0303  0.2938
  339TMC3    C5 5085   3.593   3.504   1.336  0.4659  0.2980 -0.1054
  339TMC3    C6 5086   3.604   3.537   1.474  0.1730  0.2597  0.6480
  339TMC3     C 5087   3.290   3.301   1.338 -0.0958 -0.1800  0.3771
  339TMC3     O 5088   3.200   3.325   1.420  0.1279 -0.1312  0.5970
  339TMC3     H 5089   3.355   3.333   1.577  1.4546 -0.3997 -0.4553
  339TMC3    H1 5090   3.485   3.408   1.184  0.5589 -1.4429  0.2418
  339TMC3    H2 5091   3.665   3.621   1.503  0.6339  0.9327 -2.2429
  339TMC3    C7 5092   3.646   3.590   1.232  0.4372  0.0384 -0.3008
  339TMC3    C8 5093   3.513   3.518   1.686  0.2011 -0.6268 -0.7967
  339TMC3    O1 5094   3.608   3.572   1.121 -0.5291  0.2172 -0.1473
  339TMC3    O2 5095   3.607   3.584   1.717 -0.3780  0.0549  0.5287
  340MPD2     C 5096   3.914   1.144   9.771  0.2323  0.2248  0.2730
  340MPD2    C1 5097   4.039   1.162   9.718  0.6333 -0.2894 -0.6763
  340MPD2    C2 5098   4.148   1.189   9.805  1.2788 -0.0256  0.1247
  340MPD2    C3 5099   4.114   1.205   9.935 -0.4188  0.2416 -0.1816
  340MPD2    C4 5100   3.984   1.193   9.984  0.3364 -0.0720 -0.2890
  340MPD2    C5 5101   3.887   1.156   9.905  0.2584  0.1196  0.0136
  340MPD2     H 5102   4.249   1.185   9.767  1.4052  1.1749  0.3270
  340MPD2    H1 5103   3.953   1.196  10.088  0.4320  0.9233 -0.2905
  340MPD2    H2 5104   3.833   1.120   9.703  0.2292 -0.4760  0.5227
  340MPD2    H3 5105   3.789   1.142   9.949  0.0273 -2.0458 -1.2089
  340MPD2     N 5106   4.214   1.219  10.035 -0.0593 -0.1224  0.1322
  340MPD2    H5 5107   4.187   1.211  10.132 -0.1826 -0.9454  0.0359
  340MPD2    N1 5108   4.048   1.144   9.583 -0.2042  0.4232 -0.5267
  340MPD2    H7 5109   3.964   1.146   9.526 -0.5232  0.8166 -0.0524
  341TMC3    C1 5110   4.133   1.071   9.380 -0.0111  0.6126  0.4312
  341TMC3    C2 5111   4.007   1.024   9.358  0.3183  0.2722 -0.1616
  341TMC3    C3 5112   3.968   1.010   9.229 -0.2610 -0.7348  0.3504
  341TMC3    C4 5113   4.225   1.097   9.281  0.4937  0.4037  0.0485
  341TMC3    C5 5114   4.178   1.079   9.150 -0.7558 -0.1167  0.1661
  341TMC3    C6 5115   4.055   1.037   9.126 -0.1398  0.3010  1.0152
  341TMC3     C 5116   4.167   1.114   9.513  0.9379  0.6023 -0.9383
  341TMC3     O 5117   4.282   1.117   9.546 -0.0948 -0.6249 -0.2299
  341TMC3     H 5118   3.941   0.981   9.432 -1.3027 -1.0633 -2.3762
  341TMC3    H1 5119   4.326   1.129   9.301 -0.1754  1.1641  2.2394
  341TMC3    H2 5120   4.027   1.003   9.027  1.1857  3.4969 -0.4763
  341TMC3    C7 5121   4.272   1.066   9.042 -0.0248 -0.2013 -0.1786
  341TMC3    C8 5122   3.848   0.927   9.207 -0.7638 -0.2852 -0.5298
  341TMC3    O1 5123   4.228   1.032   8.934  0.5309  0.4878  0.0489
  341TMC3    O2 5124   3.779   0.889   9.304 -0.0777  0.1319  0.3494
  342MPD2     C 5125   1.391   4.292  16.866  0.9682 -0.5098  0.2092
  342MPD2    C1 5126   1.438   4.310  16.994  0.3438  0.2187  0.7727
  342MPD2    C2 5127   1.412   4.420  17.069  0.2933 -0.5487  0.0210
  342MPD2    C3 5128   1.349   4.533  17.015  0.4395 -0.3447  0.5003
  342MPD2    C4 5129   1.306   4.517  16.885  0.0244  0.1864  1.1460
  342MPD2    C5 5130   1.325   4.404  16.817 -0.4446  0.6529 -0.2050
  342MPD2     H 5131   1.450   4.422  17.170 -3.1339  0.4643  1.3020
  342MPD2    H1 5132   1.274   4.602  16.826 -0.3377 -0.9545 -0.2880
  342MPD2    H2 5133   1.399   4.203  16.803 -0.4663 -1.2452  1.0653
  342MPD2    H3 5134   1.305   4.402  16.711  1.1823  2.4640 -0.5322
  342MPD2     N 5135   1.350   4.657  17.082  0.0938 -0.2184  0.2873
  342MPD2    H5 5136   1.300   0.010  17.038  0.2006 -1.6678 -2.3680
  342MPD2    N1 5137   1.517   4.204  17.056  0.7697 -0.2317 -0.4712
  342MPD2    H7 5138   1.551   4.208  17.151  1.3496 -2.3420 -0.5960
  343TMC3    C1 5139   1.640   4.008  17.067 -0.0742  0.5172  0.1792
  343TMC3    C2 5140   1.773   4.008  17.046  0.1811 -0.0197 -0.0820
  343TMC3    C3 5141   1.842   3.909  17.107 -0.4779 -0.0167  0.1564
  343TMC3    C4 5142   1.574   3.921  17.147  0.6660 -1.1808 -0.1428
  343TMC3    C5 5143   1.653   3.826  17.208  0.2806  0.1535 -0.1224
  343TMC3    C6 5144   1.788   3.813  17.189  0.7609 -0.4495  0.1541
  343TMC3     C 5145   1.558   4.096  16.983 -0.5985  0.0107  0.2413
  343TMC3     O 5146   1.575   4.079  16.864 -0.1858 -0.3988  0.2859
  343TMC3     H 5147   1.821   4.073  16.973 -0.2865  1.7578  1.2098
  343TMC3    H1 5148   1.465   3.920  17.152  0.6931  0.0835  0.5389
  343TMC3    H2 5149   1.843   3.744  17.252 -0.1656 -0.7655  0.6077
  343TMC3    C7 5150   1.588   3.718  17.280 -0.5414  0.5177 -0.0102
  343TMC3    C8 5151   1.979   3.910  17.075  0.1233  0.4594 -0.5523
  343TMC3    O1 5152   1.468   3.716  17.282  0.2387 -0.5023  0.4452
  343TMC3    O2 5153   2.030   4.017  17.050 -0.2042  0.2424 -0.0315
  344MPD2     C 5154   2.936   3.606  10.684  0.0560  0.5684 -0.9457
  344MPD2    C1 5155   2.821   3.630  10.611 -0.0365  0.0855 -0.1237
  344MPD2    C2 5156   2.816   3.713  10.503  0.4074 -0.0833  0.4231
  344MPD2    C3 5157   2.934   3.775  10.462 -0.2408  0.7632 -0.4326
  344MPD2    C4 5158   3.051   3.753  10.532  0.5412 -0.4924 -0.6269
  344MPD2    C5 5159   3.048   3.678  10.644  0.1305 -0.2904  0.1111
  344MPD2     H 5160   2.726   3.730  10.445  0.9502  0.7942 -0.1508
  344MPD2    H1 5161   3.147   3.793  10.500 -0.9545  3.8438  0.3254
  344MPD2    H2 5162   2.942   3.533  10.764 -2.0440 -0.3924 -1.6649
  344MPD2    H3 5163   3.140   3.673  10.702 -0.2606 -1.5013  0.6120
  344MPD2     N 5164   2.949   3.864  10.353  0.3794  0.4499 -0.0969
  344MPD2    H5 5165   3.041   3.907  10.346 -0.9467  3.3858  0.2630
  344MPD2    N1 5166   2.699   3.569  10.660  0.3961 -0.0599  0.0360
  344MPD2    H7 5167   2.627   3.563  10.589 -0.0134  0.4426  0.4102
  345TMC3    C1 5168   2.897   4.020  10.174  0.2626 -0.0098  0.4279
  345TMC3    C2 5169   3.026   4.075  10.199  0.0732  0.2367  0.7192
  345TMC3    C3 5170   3.064   4.178  10.118 -0.1025  0.6845 -0.7573
  345TMC3    C4 5171   2.811   4.062  10.074  0.0652 -0.3907 -0.5249
  345TMC3    C5 5172   2.852   4.173  10.012  0.0112  0.1569 -0.3554
  345TMC3    C6 5173   2.978   4.226  10.023  0.1930  0.2068 -0.3035
  345TMC3     C 5174   2.859   3.902  10.258 -0.6500 -0.1867 -0.7545
  345TMC3     O 5175   2.745   3.859  10.248  0.3079 -0.0263 -0.1780
  345TMC3     H 5176   3.075   4.052  10.292 -0.3341  0.2484  0.9372
  345TMC3    H1 5177   2.716   4.016  10.048 -0.8785  1.8337 -0.9831
  345TMC3    H2 5178   3.014   4.308   9.961 -1.3050  1.7179  0.8183
  345TMC3    C7 5179   2.762   4.254   9.935 -0.4366  0.1066 -0.2387
  345TMC3    C8 5180   3.192   4.246  10.131 -0.1941 -0.0498  0.7063
  345TMC3    O1 5181   2.803   4.366   9.909 -0.1781 -0.5552  0.5950
  345TMC3    O2 5182   3.210   4.343  10.059  0.3352 -0.8132 -0.4302
  346MPD2     C 5183   2.076   1.071  14.379 -0.6256 -0.4003 -0.2063
  346MPD2    C1 5184   2.169   1.011  14.295 -0.5418  0.0893  0.3636
  346MPD2    C2 5185   2.300   1.022  14.331 -0.1037 -0.2666  0.6002
  346MPD2    C3 5186   2.338   1.084  14.452  0.5904  0.8453  0.7114
  346MPD2    C4 5187   2.243   1.142  14.536  0.4687 -0.1822  0.7786
  346MPD2    C5 5188   2.112   1.133  14.495  0.0083 -0.0590  0.4990
  346MPD2     H 5189   2.373   0.978  14.264 -0.4142 -1.4312  1.0346
  346MPD2    H1 5190   2.275   1.192  14.626 -1.1014  0.0594  1.1999
  346MPD2    H2 5191   1.973   1.082  14.347 -0.9706 -1.2973  0.5854
  346MPD2    H3 5192   2.033   1.178  14.553  0.9491  1.8099  0.3527
  346MPD2     N 5193   2.483   1.082  14.475 -0.6378  0.1159 -0.2830
  346MPD2    H5 5194   2.537   1.035  14.404 -0.2187 -0.7409  0.6009
  346MPD2    N1 5195   2.141   0.945  14.176  0.1340 -0.0169  0.3444
  346MPD2    H7 5196   2.217   0.913  14.117 -1.2287  0.0744 -1.4418
  347TMC3    C1 5197   2.693   1.117  14.571 -0.3929  0.4938 -0.0515
  347TMC3    C2 5198   2.751   1.078  14.453  0.0604 -0.2298  0.7093
  347TMC3    C3 5199   2.883   1.106  14.422  0.1065  0.0641 -0.0884
  347TMC3    C4 5200   2.771   1.189  14.659  0.0321 -0.3409  0.1278
  347TMC3    C5 5201   2.894   1.234  14.620 -0.5665 -1.4130 -0.7334
  347TMC3    C6 5202   2.956   1.188  14.503  0.3222  0.0351  0.2044
  347TMC3     C 5203   2.553   1.126  14.586  0.5717  0.7314  0.0472
  347TMC3     O 5204   2.506   1.181  14.686  0.3014  0.3301  0.3535
  347TMC3     H 5205   2.687   1.044  14.371 -0.0907  1.1549  0.2583
  347TMC3    H1 5206   2.732   1.204  14.759 -2.2834 -3.1754 -0.3617
  347TMC3    H2 5207   3.062   1.199  14.481  0.5149  0.0474  1.1446
  347TMC3    C7 5208   2.986   1.281  14.722  0.3675 -0.5988  0.5796
  347TMC3    C8 5209   2.936   1.046  14.302  0.0666  0.1920 -0.5086
  347TMC3    O1 5210   2.955   1.257  14.836  0.1506  0.0228 -0.1863
  347TMC3    O2 5211   2.881   0.944  14.260 -0.7872 -0.1215 -0.6175
  348MPD2     C 5212   0.899   0.449  12.149 -0.0029  0.4328 -0.0238
  348MPD2    C1 5213   1.038   0.477  12.122  0.6064 -0.0206 -0.1742
  348MPD2    C2 5214   1.067   0.562  12.012  0.4009  0.0525 -0.3786
  348MPD2    C3 5215   0.966   0.613  11.938 -0.6944 -0.0295  0.5472
  348MPD2    C4 5216   0.834   0.602  11.989 -0.6994 -0.5703  0.9000
  348MPD2    C5 5217   0.806   0.515  12.081 -0.2319 -0.4665  0.5386
  348MPD2     H 5218   1.165   0.595  11.978 -0.1968 -0.1851 -2.3234
  348MPD2    H1 5219   0.752   0.644  11.931  0.4541  0.4521  0.0163
  348MPD2    H2 5220   0.864   0.386  12.230  2.2148 -1.4899 -0.5447
  348MPD2    H3 5221   0.705   0.495  12.116 -0.2057 -1.1893  0.1867
  348MPD2     N 5222   0.998   0.689  11.822 -0.0846 -0.2257 -0.3407
  348MPD2    H5 5223   1.094   0.686  11.787  0.4305  2.9625  0.7920
  348MPD2    N1 5224   1.145   0.422  12.189 -0.0254 -0.7142 -0.0275
  348MPD2    H7 5225   1.239   0.448  12.161 -0.9358 -1.5838 -3.8834
  349TMC3    C1 5226   1.289   0.284  12.307 -0.4533  0.2410  0.3056
  349TMC3    C2 5227   1.308   0.152  12.320 -0.6073 -0.5657 -0.0556
  349TMC3    C3 5228   1.432   0.098  12.339 -0.0370 -0.5452 -0.1242
  349TMC3    C4 5229   1.392   0.366  12.309  0.2806 -0.6350  0.0565
  349TMC3    C5 5230   1.520   0.320  12.311 -0.6394 -0.4841  0.0762
  349TMC3    C6 5231   1.538   0.183  12.334 -0.4272 -0.0663  0.3464
  349TMC3     C 5232   1.150   0.325  12.280 -0.2053  0.6950 -1.1893
  349TMC3     O 5233   1.054   0.253  12.306 -1.1041  0.0153  0.4089
  349TMC3     H 5234   1.218   0.091  12.319 -0.6215 -0.5790  1.2732
  349TMC3    H1 5235   1.369   0.471  12.316 -1.2751 -1.0034  0.5144
  349TMC3    H2 5236   1.641   0.151  12.348  0.4250  2.3817 -0.2339
  349TMC3    C7 5237   1.636   0.407  12.323 -0.6995 -0.6365 -0.0142
  349TMC3    C8 5238   1.452   4.684  12.330 -0.0266  0.2433 -0.2723
  349TMC3    O1 5239   1.718   0.367  12.406  0.0006 -0.3370 -0.3725
  349TMC3    O2 5240   1.380   4.602  12.386  0.3212 -0.5689  0.0271
  350MPD2     C 5241   0.468   3.424  10.109 -0.1505 -0.1530  0.1776
  350MPD2    C1 5242   0.546   3.305  10.083  0.2750  0.3559 -0.6462
  350MPD2    C2 5243   0.677   3.332  10.041 -0.4793 -0.0883 -0.2827
  350MPD2    C3 5244   0.728   3.461  10.030  0.0470 -0.0660  0.4229
  350MPD2    C4 5245   0.653   3.574  10.060  0.1430 -0.0841  0.1794
  350MPD2    C5 5246   0.523   3.549  10.099 -0.2294 -0.0138 -0.1322
  350MPD2     H 5247   0.751   3.254  10.021 -0.7800  0.2164 -2.6027
  350MPD2    H1 5248   0.690   3.676  10.057  1.8929 -0.7279  0.3221
  350MPD2    H2 5249   0.371   3.415  10.156  0.1554  0.3222  0.8891
  350MPD2    H3 5250   0.466   3.633  10.138 -0.2731 -0.3227  0.4697
  350MPD2     N 5251   0.868   3.474   9.994  0.0510  0.1001  0.2867
  350MPD2    H5 5252   0.921   3.389   9.977  0.5094  0.3266  0.5806
  350MPD2    N1 5253   0.504   3.170  10.089  0.2881 -0.7664  0.3007
  350MPD2    H7 5254   0.563   3.093  10.058  2.3878  0.8684  0.1923
  351TMC3    C1 5255   0.379   2.976  10.120 -0.2312 -0.0811 -0.2836
  351TMC3    C2 5256   0.459   2.910  10.030 -0.2025  0.1989  0.0959
  351TMC3    C3 5257   0.433   2.777  10.015  0.1062  0.5739 -0.0150
  351TMC3    C4 5258   0.297   2.910  10.202 -0.5065  0.4387  0.8481
  351TMC3    C5 5259   0.274   2.776  10.186  0.5759  0.0539  0.5155
  351TMC3    C6 5260   0.350   2.704  10.099  0.3269  0.5882  0.7209
  351TMC3     C 5261   0.389   3.126  10.139  0.2163  0.6150 -0.2164
  351TMC3     O 5262   0.308   3.179  10.212 -0.0806  0.0342 -0.6370
  351TMC3     H 5263   0.532   2.959   9.967  0.5142 -0.5015  0.3854
  351TMC3    H1 5264   0.227   2.967  10.263  0.9557 -0.5758  3.4583
  351TMC3    H2 5265   0.337   2.597  10.088  0.8448  0.5162  0.8225
  351TMC3    C7 5266   0.160   2.714  10.259  0.2211  0.0182  0.6113
  351TMC3    C8 5267   0.551   2.699   9.976 -0.1787  0.1442 -0.3707
  351TMC3    O1 5268   0.105   2.782  10.349  0.5680 -0.1368  0.4772
  351TMC3    O2 5269   0.610   2.740   9.875 -0.0590  0.2349  0.1331
  352MPD2     C 5270   3.349   0.847   1.604 -0.3534 -0.4934 -0.7325
  352MPD2    C1 5271   3.257   0.769   1.536 -0.5267 -0.0621 -0.4196
  352MPD2    C2 5272   3.257   0.633   1.559 -0.7553 -0.3433 -0.0768
  352MPD2    C3 5273   3.330   0.585   1.663 -0.8827 -0.0909 -0.2840
  352MPD2    C4 5274   3.417   0.665   1.738 -0.4388  0.1864 -0.3940
  352MPD2    C5 5275   3.430   0.797   1.703  0.5166  0.1992  0.4786
  352MPD2     H 5276   3.187   0.566   1.511 -1.1967 -0.3097  0.5245
  352MPD2    H1 5277   3.479   0.619   1.814  2.2909  1.7606 -1.6689
  352MPD2    H2 5278   3.346   0.954   1.590  0.1665 -0.4462 -0.5168
  352MPD2    H3 5279   3.495   0.865   1.757  1.6000  0.0723 -0.6724
  352MPD2     N 5280   3.330   0.451   1.700  0.3834  0.2722  0.0058
  352MPD2    H5 5281   3.390   0.429   1.778  2.0562  1.4257 -0.9489
  352MPD2    N1 5282   3.188   0.827   1.435  0.1754  0.0669  0.2777
  352MPD2    H7 5283   3.213   0.924   1.418 -0.7593 -0.0328 -1.6843
  353TMC3    C1 5284   3.284   0.223   1.708 -0.0532  0.9325 -0.1504
  353TMC3    C2 5285   3.389   0.220   1.800 -0.9928 -0.0407  0.1313
  353TMC3    C3 5286   3.457   0.103   1.826  0.3762 -0.0312 -0.7478
  353TMC3    C4 5287   3.240   0.111   1.648 -0.2243  0.3383  0.1853
  353TMC3    C5 5288   3.310   4.722   1.678 -0.3058  0.5252 -0.3846
  353TMC3    C6 5289   3.422   4.714   1.761 -0.2164  0.4992  0.4847
  353TMC3     C 5290   3.262   0.347   1.641 -0.0486  0.3669  0.7885
  353TMC3     O 5291   3.201   0.340   1.530  0.1373  0.1993 -0.0196
  353TMC3     H 5292   3.424   0.299   1.865  0.4388  0.0209 -0.7080
  353TMC3    H1 5293   3.163   0.108   1.572 -0.1626  1.4338  0.0804
  353TMC3    H2 5294   3.477   4.622   1.778 -1.1473 -0.3028 -0.8031
  353TMC3    C7 5295   3.277   4.609   1.597  0.3729  0.2835  0.1509
  353TMC3    C8 5296   3.590   0.117   1.872  0.1968 -0.6316  0.8479
  353TMC3    O1 5297   3.228   4.625   1.485  0.9338  0.1001  0.1837
  353TMC3    O2 5298   3.617   0.167   1.980 -0.4458 -0.5935  0.1650
  354TMC3    C1 5299   0.332   1.565  13.352  0.1505 -0.7326  0.5248
  354TMC3    C2 5300   0.446   1.625  13.391 -0.2202 -0.0559 -0.3330
  354TMC3    C3 5301   0.542   1.658  13.299 -0.2556 -0.0351 -0.7083
  354TMC3    C4 5302   0.306   1.540  13.220  0.4887 -0.4947 -0.2479
  354TMC3    C5 5303   0.397   1.585  13.122 -0.4867  0.5521  0.1694
  354TMC3    C6 5304   0.523   1.632  13.160  0.6844  0.5074  0.1957
  354TMC3     C 5305   0.230   1.543  13.456  0.4260 -0.6899  0.1640
  354TMC3     O 5306   0.133   1.477  13.424 -0.2675 -0.4830  1.0873
  354TMC3     H 5307   0.474   1.629  13.496  1.6002  3.0048 -0.9308
  354TMC3    H1 5308   0.209   1.513  13.180  0.5828 -0.5407 -0.4445
  354TMC3    H2 5309   0.605   1.660  13.095  0.3901  1.0195  0.0424
  354TMC3    C7 5310   0.337   1.642  13.005  0.9537  0.6551  1.0200
  354TMC3    C8 5311   0.633   1.759  13.332  0.7958  0.3905 -0.2884
  354TMC3    O1 5312   0.229   1.695  13.017 -0.2784  0.0710  0.6545
  354TMC3    O2 5313   0.710   1.735  13.428  0.3281 -0.5229 -0.4793
  355MPD2     C 5314   0.597   2.400  11.550  0.5287 -0.4924 -0.1840
  355MPD2    C1 5315   0.687   2.419  11.456  0.4060 -0.0277  0.2885
  355MPD2    C2 5316   0.822   2.427  11.489  0.4340 -0.0889  0.5278
  355MPD2    C3 5317   0.864   2.425  11.619  0.5322 -0.2727 -0.0639
  355MPD2    C4 5318   0.764   2.409  11.721  0.2735  0.4987 -0.4194
  355MPD2    C5 5319   0.637   2.391  11.682  0.0937  0.5939 -0.1238
  355MPD2     H 5320   0.887   2.447  11.405 -0.4583  0.9659  0.0994
  355MPD2    H1 5321   0.780   2.391  11.826  0.8333  2.8361 -0.1041
  355MPD2    H2 5322   0.491   2.383  11.534  0.2571 -1.2507  2.3321
  355MPD2    H3 5323   0.562   2.377  11.759  1.4926  0.8502  1.2885
  355MPD2     N 5324   1.001   2.429  11.657  0.1453 -0.2757  0.1020
  355MPD2    H5 5325   1.025   2.413  11.754  0.2842  1.7674  0.4019
  355MPD2    N1 5326   0.628   2.458  11.332 -0.1013 -0.8101  0.3279
  355MPD2    H7 5327   0.527   2.451  11.339 -0.2286  0.5321 -0.3083
  356TMC3    C1 5328   1.237   2.495  11.625  0.7679 -0.0134  0.3015
  356TMC3    C2 5329   1.326   2.527  11.524  0.2870 -0.4968 -0.2820
  356TMC3    C3 5330   1.422   2.619  11.544 -0.2432 -0.7623 -0.0585
  356TMC3    C4 5331   1.236   2.555  11.743  0.3876 -0.6455  0.5058
  356TMC3    C5 5332   1.334   2.652  11.760  0.7574  0.5157 -0.4791
  356TMC3    C6 5333   1.432   2.680  11.667  0.2996  0.2344  0.6199
  356TMC3     C 5334   1.107   2.456  11.565 -0.3089 -0.8429  0.2063
  356TMC3     O 5335   1.099   2.460  11.443 -0.1644 -0.2425 -0.0591
  356TMC3     H 5336   1.320   2.476  11.428 -1.2292  0.5602 -0.7524
  356TMC3    H1 5337   1.163   2.538  11.822 -1.9751  1.3756 -1.2015
  356TMC3    H2 5338   1.516   2.739  11.701  0.1703 -0.6940  2.5712
  356TMC3    C7 5339   1.349   2.706  11.890 -1.8065 -0.0654 -0.0137
  356TMC3    C8 5340   1.475   2.684  11.422 -0.0181  0.1705  0.4382
  356TMC3    O1 5341   1.306   2.646  11.991 -0.2600 -0.7436 -0.0029
  356TMC3    O2 5342   1.447   2.629  11.319 -0.0334 -0.1629 -0.0838
  357MPD2     C 5343   0.330   2.607   1.407  0.1283 -0.5264 -0.2925
  357MPD2    C1 5344   0.417   2.517   1.471 -0.5273  0.2200  0.1234
  357MPD2    C2 5345   0.385   2.466   1.600 -0.0019  0.0887 -0.2223
  357MPD2    C3 5346   0.281   2.517   1.668 -1.0420 -0.1230  0.6261
  357MPD2    C4 5347   0.195   2.600   1.605 -0.8189 -0.3678  0.2144
  357MPD2    C5 5348   0.220   2.643   1.479  0.2725  0.4302 -0.5522
  357MPD2     H 5349   0.446   2.390   1.648  1.8337  1.2739 -0.6808
  357MPD2    H1 5350   0.112   2.646   1.656  0.6946  2.0927  0.4548
  357MPD2    H2 5351   0.358   2.637   1.307  0.5369  0.9996  0.2777
  357MPD2    H3 5352   0.149   2.716   1.442  0.1005  1.5794  2.0499
  357MPD2     N 5353   0.237   2.472   1.794  0.2331  0.1615 -0.3104
  357MPD2    H5 5354   0.141   2.499   1.816 -0.1339 -1.4851  0.1438
  357MPD2    N1 5355   0.529   2.471   1.396  0.0182 -0.0816 -0.3157
  357MPD2    H7 5356   0.542   2.522   1.309  2.1163  2.4780  1.5025
  358TMC3    C1 5357   0.699   2.311   1.339  0.0396 -0.2714 -0.1114
  358TMC3    C2 5358   0.644   2.293   1.210 -0.0680 -0.1787 -0.8049
  358TMC3    C3 5359   0.713   2.215   1.120 -0.6967  0.4886  0.3545
  358TMC3    C4 5360   0.811   2.248   1.373  0.2404 -0.0946  1.4003
  358TMC3    C5 5361   0.876   2.170   1.278  0.5962  0.4397 -0.0215
  358TMC3    C6 5362   0.830   2.154   1.150  0.0761  0.2255  0.8414
  358TMC3     C 5363   0.629   2.392   1.439  0.4393  0.1414 -0.5969
  358TMC3     O 5364   0.661   2.366   1.551 -0.6326 -0.0280  0.3938
  358TMC3     H 5365   0.556   2.345   1.174 -0.4106  0.8907  1.6313
  358TMC3    H1 5366   0.859   2.286   1.462 -0.2534  1.9351  0.8002
  358TMC3    H2 5367   0.863   2.070   1.090 -2.0332  1.0415 -1.4441
  358TMC3    C7 5368   1.009   2.114   1.302  0.7847 -0.3860  0.0432
  358TMC3    C8 5369   0.632   2.151   1.029 -0.4180 -0.0272  0.0451
  358TMC3    O1 5370   1.084   2.103   1.207  0.0498 -0.3308  0.3241
  358TMC3    O2 5371   0.522   2.125   1.070  0.0600 -0.4400  0.0990
  359MPD2     C 5372   1.015   1.410  12.600 -0.2876 -0.2493 -0.0957
  359MPD2    C1 5373   0.926   1.377  12.499  0.5111  0.2465  0.7961
  359MPD2    C2 5374   0.827   1.280  12.519 -0.1239  0.0793 -0.5342
  359MPD2    C3 5375   0.808   1.211  12.635 -0.8877  0.2982  0.3996
  359MPD2    C4 5376   0.899   1.239  12.735 -0.3017 -0.1935 -0.0213
  359MPD2    C5 5377   0.997   1.329  12.712 -0.5474  0.5497 -0.0859
  359MPD2     H 5378   0.760   1.256  12.437 -1.3446 -2.8402  1.3043
  359MPD2    H1 5379   0.899   1.185  12.829 -2.0736  0.7570  0.5256
  359MPD2    H2 5380   1.089   1.488  12.593  0.3668 -0.8952 -0.4317
  359MPD2    H3 5381   1.060   1.338  12.800  0.1829  1.4351 -0.7029
  359MPD2     N 5382   0.718   1.096  12.648  0.0156 -0.3533  0.2480
  359MPD2    H5 5383   0.727   1.041  12.733  0.8655 -0.3903  0.1379
  359MPD2    N1 5384   0.922   1.439  12.378  0.6093 -0.0159  0.9363
  359MPD2    H7 5385   0.846   1.419  12.313  2.7431 -3.0994 -0.6212
  360TMC3    C1 5386   0.985   1.595  12.212  0.5796  1.0618 -0.1113
  360TMC3    C2 5387   1.033   1.723  12.182 -0.1870  0.2580 -0.3723
  360TMC3    C3 5388   1.075   1.745  12.052 -0.8305 -0.0778 -0.0622
  360TMC3    C4 5389   0.952   1.509  12.115  0.4351 -0.1875 -0.6234
  360TMC3    C5 5390   0.978   1.547  11.985  0.4960 -0.2971 -0.2399
  360TMC3    C6 5391   1.044   1.660  11.953 -0.0548  0.0247  0.1036
  360TMC3     C 5392   1.013   1.537  12.342  0.6037 -0.4104  0.1877
  360TMC3     O 5393   1.109   1.587  12.397  0.2952 -0.3461 -0.2869
  360TMC3     H 5394   1.079   1.764  12.271  1.9845 -1.2381 -0.7849
  360TMC3    H1 5395   0.900   1.417  12.140 -0.8923  0.4391 -1.0722
  360TMC3    H2 5396   1.061   1.682  11.848  0.3259  2.1167  0.6019
  360TMC3    C7 5397   0.955   1.444  11.883 -0.2013  1.1651 -0.2536
  360TMC3    C8 5398   1.198   1.810  12.026  0.4352 -0.2075 -0.8259
  360TMC3    O1 5399   1.007   1.451  11.775  0.5311  0.3242  0.2320
  360TMC3    O2 5400   1.214   1.926  12.075  0.3673 -0.3218  0.2518
  361MPD2     C 5401   2.268   0.024  16.640 -0.0880 -0.0621 -0.9536
  361MPD2    C1 5402   2.303   0.074  16.764 -0.2101  0.5112  0.1499
  361MPD2    C2 5403   2.399   0.016  16.838  0.1746 -0.0682 -0.0160
  361MPD2    C3 5404   2.456   4.624  16.791 -0.3675 -0.1145  0.0616
  361MPD2    C4 5405   2.414   4.563  16.678  0.1661  0.2580 -0.6883
  361MPD2    C5 5406   2.312   4.622  16.608  0.3050  0.0282 -0.2326
  361MPD2     H 5407   2.436   0.057  16.931  0.0935  3.2126 -1.4182
  361MPD2    H1 5408   2.444   4.463  16.651 -0.0380  0.0924 -0.3011
  361MPD2    H2 5409   2.178   0.062  16.594 -0.2385  0.5440 -0.1687
  361MPD2    H3 5410   2.267   4.573  16.523 -0.1319  0.6215 -0.3451
  361MPD2     N 5411   2.568   4.565  16.861 -0.3181  0.5157  0.0096
  361MPD2    H5 5412   2.610   4.484  16.816 -1.2383  1.1731 -2.0540
  361MPD2    N1 5413   2.243   0.189  16.820  0.2571  0.2762 -0.1191
  361MPD2    H7 5414   2.283   0.227  16.905  0.1631  0.2191 -0.0493
  362TMC3    C1 5415   2.061   0.335  16.880  0.5970  0.0774 -0.6965
  362TMC3    C2 5416   1.924   0.336  16.874 -0.7633  0.9250  0.3432
  362TMC3    C3 5417   1.859   0.445  16.922 -0.5395  0.2001 -0.1371
  362TMC3    C4 5418   2.126   0.450  16.896 -0.1538 -0.0232  0.0621
  362TMC3    C5 5419   2.056   0.565  16.937  0.7225  0.3620 -0.7828
  362TMC3    C6 5420   1.920   0.559  16.965  0.4304 -0.1474 -0.4227
  362TMC3     C 5421   2.124   0.245  16.779 -0.2516  0.8463  1.0059
  362TMC3     O 5422   2.053   0.218  16.681 -0.2604 -0.0031 -0.0521
  362TMC3     H 5423   1.873   0.245  16.845 -0.8509  0.8732  0.6601
  362TMC3    H1 5424   2.234   0.449  16.908 -0.0972 -0.0190 -0.4303
  362TMC3    H2 5425   1.866   0.651  16.979  0.9095 -0.0878  1.1027
  362TMC3    C7 5426   2.098   0.673  16.857 -0.1846  0.2272  0.4152
  362TMC3    C8 5427   1.722   0.450  16.875  1.0447  0.5507 -0.9725
  362TMC3    O1 5428   2.018   0.764  16.844  0.2061 -0.1242  0.3779
  362TMC3    O2 5429   1.694   0.378  16.783  0.4850  0.4754  0.0780
  363TMC3    C1 5430   1.167   2.715   9.164 -0.3885 -0.1787  0.4289
  363TMC3    C2 5431   1.173   2.623   9.265 -0.6509 -1.0536 -0.2352
  363TMC3    C3 5432   1.078   2.636   9.363 -0.5272  0.2888 -0.1914
  363TMC3    C4 5433   1.052   2.787   9.140 -0.0792  0.2402  0.2785
  363TMC3    C5 5434   0.958   2.791   9.236  0.1395 -0.2081  0.0901
  363TMC3    C6 5435   0.974   2.721   9.354  0.2573  0.0563  0.0739
  363TMC3     C 5436   1.278   2.746   9.080  0.3488 -0.1331 -1.1694
  363TMC3     O 5437   1.266   2.848   9.012  0.3465 -0.5508 -0.5963
  363TMC3     H 5438   1.267   2.573   9.288 -0.9773 -0.9592  1.2978
  363TMC3    H1 5439   1.038   2.853   9.055 -2.9962  1.6153  1.8405
  363TMC3    H2 5440   0.894   2.725   9.428  1.5388  1.3672  1.3881
  363TMC3    C7 5441   0.872   2.913   9.247  0.1018  0.2401 -0.1533
  363TMC3    C8 5442   1.076   2.546   9.479  0.4163 -0.6465  0.5816
  363TMC3    O1 5443   0.757   2.895   9.276 -0.6946 -0.2379 -0.2500
  363TMC3    O2 5444   0.988   2.558   9.564 -0.5045 -0.1266 -0.1911
  364MPD2     C 5445   4.604   1.844  10.175  0.2896  0.1742 -0.2846
  364MPD2    C1 5446   4.705   1.868  10.261  0.0173  0.1266 -0.4395
  364MPD2    C2 5447   4.716   1.773  10.362 -0.0229  0.0603 -0.2515
  364MPD2    C3 5448   4.619   1.672  10.384 -1.0426 -0.0098 -0.0111
  364MPD2    C4 5449   4.519   1.651  10.293  0.2024 -0.7137  0.4219
  364MPD2    C5 5450   4.502   1.752  10.197  0.3023 -0.1078 -0.1588
  364MPD2     H 5451   0.076   1.779  10.431  1.4539 -0.4470 -1.9867
  364MPD2    H1 5452   4.447   1.570  10.306 -1.3511  0.6804  0.5043
  364MPD2    H2 5453   4.589   1.900  10.083  0.5967 -0.1070 -0.5029
  364MPD2    H3 5454   4.422   1.733  10.125  1.0852  0.0695 -1.0784
  364MPD2     N 5455   4.635   1.582  10.486  0.0719  0.1854 -0.3095
  364MPD2    H5 5456   4.577   1.499  10.477 -1.5150  1.1143  1.3260
  364MPD2    N1 5457   0.075   1.966  10.233  0.6361  0.3224 -0.4215
  364MPD2    H7 5458   0.062   2.022  10.149  2.3541 -0.8997 -1.4993
  365TMC3    C1 5459   0.247   2.124  10.284 -1.2097  0.3360  0.2279
  365TMC3    C2 5460   0.283   2.128  10.155 -0.6077 -0.1710 -0.8665
  365TMC3    C3 5461   0.357   2.230  10.107  0.3355 -0.6335  0.5774
  365TMC3    C4 5462   0.260   2.232  10.368  0.0283  0.1684  0.2482
  365TMC3    C5 5463   0.334   2.342  10.318 -0.0638 -0.1091 -0.3831
  365TMC3    C6 5464   0.377   2.339  10.186 -0.0230  0.3175  0.6025
  365TMC3     C 5465   0.177   2.005  10.322 -0.3759  0.3194 -0.1487
  365TMC3     O 5466   0.178   1.985  10.440 -0.4118  0.4742 -0.3396
  365TMC3     H 5467   0.262   2.039  10.096 -0.6525  0.3462 -1.6212
  365TMC3    H1 5468   0.243   2.221  10.475  1.4405 -0.5697  0.3950
  365TMC3    H2 5469   0.442   2.416  10.147  0.8995 -0.3165  0.8922
  365TMC3    C7 5470   0.380   2.453  10.403  0.6735 -0.6968 -0.0600
  365TMC3    C8 5471   0.413   2.237   9.977 -0.2358  0.3324  0.5527
  365TMC3    O1 5472   0.439   2.547  10.356  0.0467  0.8312 -0.5081
  365TMC3    O2 5473   0.373   2.328   9.910  0.1884 -0.4141 -0.0194
  366MPD2     C 5474   2.619   2.676  15.332  0.1984  0.2756 -0.0590
  366MPD2    C1 5475   2.723   2.730  15.406 -0.0932  0.2192 -0.1287
  366MPD2    C2 5476   2.857   2.680  15.398  0.6128 -0.7959 -0.6355
  366MPD2    C3 5477   2.884   2.588  15.298  0.5027 -0.4711  0.3041
  366MPD2    C4 5478   2.785   2.545  15.212 -0.0634 -0.0622 -0.7654
  366MPD2    C5 5479   2.655   2.585  15.232 -0.1662 -0.2493 -0.4646
  366MPD2     H 5480   2.934   2.716  15.465  0.2885 -1.0603 -0.1246
  366MPD2    H1 5481   2.804   2.469  15.138  0.8845 -1.4003  0.8456
  366MPD2    H2 5482   2.514   2.700  15.333  0.0054 -0.5760 -0.1314
  366MPD2    H3 5483   2.581   2.545  15.162  0.8422 -1.1461 -1.0253
  366MPD2     N 5484   3.026   2.557  15.277  0.0802 -0.0855 -0.0537
  366MPD2    H5 5485   3.087   2.598  15.346  0.9887  0.1625 -0.9991
  366MPD2    N1 5486   2.710   2.840  15.493  0.1540  0.2586  0.1366
  366MPD2    H7 5487   2.793   2.880  15.536  0.5806 -0.0413 -0.4174
  367TMC3    C1 5488   2.622   3.054  15.520  0.0695  0.2746 -0.0510
  367TMC3    C2 5489   2.743   3.094  15.570 -0.1899 -1.0613  0.4633
  367TMC3    C3 5490   2.792   3.220  15.545  0.8562  0.6567 -0.0376
  367TMC3    C4 5491   2.545   3.147  15.449  0.3531  0.3657 -0.0598
  367TMC3    C5 5492   2.590   3.278  15.438  0.0998  0.1418  0.3267
  367TMC3    C6 5493   2.715   3.314  15.480  0.1730  0.2942  0.2208
  367TMC3     C 5494   2.595   2.919  15.501  0.3142 -0.3177  0.0572
  367TMC3     O 5495   2.481   2.884  15.476 -0.1113  0.4089  0.3254
  367TMC3     H 5496   2.814   3.028  15.618 -1.5441 -1.1814  2.2758
  367TMC3    H1 5497   2.447   3.118  15.413 -0.1506  0.5375  1.1846
  367TMC3    H2 5498   2.760   3.404  15.439  2.8780 -1.0914  0.1864
  367TMC3    C7 5499   2.521   3.378  15.354  0.4760 -0.4329  0.3564
  367TMC3    C8 5500   2.911   3.266  15.616  0.1975  0.6584 -0.0202
  367TMC3    O1 5501   2.550   3.497  15.377  0.7720 -0.3702  0.1387
  367TMC3    O2 5502   2.999   3.178  15.635  0.4675  0.3740 -0.0917
  368MPD2     C 5503   3.655   0.881  13.270  0.4330  0.0166 -0.1326
  368MPD2    C1 5504   3.663   0.946  13.149 -0.1986  0.0278 -0.5737
  368MPD2    C2 5505   3.773   0.924  13.063 -0.3889  0.6755 -0.3635
  368MPD2    C3 5506   3.886   0.864  13.107 -0.3767 -0.8595  0.2781
  368MPD2    C4 5507   3.872   0.785  13.218  0.0550  0.1968  0.0574
  368MPD2    C5 5508   3.763   0.799  13.301  0.0759 -0.2151 -0.0731
  368MPD2     H 5509   3.776   0.970  12.965  0.9487 -0.4189 -0.8249
  368MPD2    H1 5510   3.945   0.713  13.253  0.6428  0.5094 -0.5394
  368MPD2    H2 5511   3.568   0.896  13.332 -0.8389 -0.4503 -1.8349
  368MPD2    H3 5512   3.757   0.743  13.394 -0.8341 -0.3703 -0.2210
  368MPD2     N 5513   4.008   0.845  13.037  0.8953 -0.1910  0.3001
  368MPD2    H5 5514   4.069   0.777  13.081  1.5971 -0.7439 -1.5540
  368MPD2    N1 5515   3.549   1.019  13.105  0.1197  0.2284 -0.8980
  368MPD2    H7 5516   3.473   1.023  13.171  0.1803  2.0969 -0.9385
  369TMC3    C1 5517   3.398   1.135  12.959 -0.2536  0.0860 -0.6415
  369TMC3    C2 5518   3.414   1.196  12.831  0.0200 -0.0505  0.0471
  369TMC3    C3 5519   3.326   1.146  12.729  0.2184  0.3607  0.7836
  369TMC3    C4 5520   3.302   1.035  12.983  0.2415 -0.2666  0.0613
  369TMC3    C5 5521   3.223   0.997  12.873  0.5239 -0.4720 -0.4226
  369TMC3    C6 5522   3.235   1.051  12.749  0.4416 -0.4246  0.2067
  369TMC3     C 5523   3.536   1.097  12.995 -0.7965  0.1984  0.0087
  369TMC3     O 5524   3.615   1.110  12.901 -0.2030 -0.4084  0.9349
  369TMC3     H 5525   3.489   1.273  12.816  0.7357 -0.4853  1.4286
  369TMC3    H1 5526   3.283   0.991  13.080  0.1058  0.5540  0.4068
  369TMC3    H2 5527   3.190   1.004  12.662  2.0761 -0.8992 -0.3823
  369TMC3    C7 5528   3.124   0.894  12.896  0.4760  0.1395 -0.7524
  369TMC3    C8 5529   3.391   1.138  12.607 -0.8731  1.1748 -0.4295
  369TMC3    O1 5530   3.127   0.847  13.010 -0.3470 -0.0043  0.2281
  369TMC3    O2 5531   3.331   1.104  12.502 -0.0118 -0.4658  0.1264
  370TMC3    C1 5532   3.387   0.799  16.303  0.1078  0.2705  0.0860
  370TMC3    C2 5533   3.326   0.735  16.410 -0.3376 -0.2665 -0.5360
  370TMC3    C3 5534   3.280   0.609  16.388 -0.3972  0.2642 -0.5268
  370TMC3    C4 5535   3.407   0.729  16.183 -0.1681  0.2974  1.1148
  370TMC3    C5 5536   3.358   0.602  16.169 -0.9725 -0.1028  0.4183
  370TMC3    C6 5537   3.294   0.535  16.274  0.0087  0.2922  0.0318
  370TMC3     C 5538   3.483   0.903  16.334  1.1036 -0.2910  0.1458
  370TMC3     O 5539   3.502   0.927  16.453 -0.4291  0.3201 -0.5173
  370TMC3     H 5540   3.327   0.782  16.507 -2.3667 -0.9483 -0.1895
  370TMC3    H1 5541   3.450   0.775  16.095 -2.5459 -0.3179 -0.3708
  370TMC3    H2 5542   3.264   0.431  16.267  0.3400  0.2181 -0.2878
  370TMC3    C7 5543   3.420   0.523  16.060 -0.0009 -0.1377 -0.1385
  370TMC3    C8 5544   3.242   0.530  16.503  0.8364 -0.3157  0.5801
  370TMC3    O1 5545   3.424   0.563  15.946 -0.0310  0.2280  0.0573
  370TMC3    O2 5546   3.265   0.412  16.498 -0.6415 -0.7454 -0.3217
  371TMC3    C1 5547   0.049   3.739  15.867 -0.5847 -0.8944  0.1250
  371TMC3    C2 5548   4.662   3.731  15.946  0.5829 -0.7012  0.1489
  371TMC3    C3 5549   4.564   3.828  15.936 -0.3384  0.7312  0.8500
  371TMC3    C4 5550   0.058   3.849  15.778 -0.2571 -0.2049  0.1650
  371TMC3    C5 5551   4.686   3.948  15.771  0.0174 -0.2461  0.1469
  371TMC3    C6 5552   4.569   3.932  15.839  0.4233  0.1469  0.2477
  371TMC3     C 5553   0.122   3.619  15.837 -0.1882 -1.7282 -0.7678
  371TMC3     O 5554   0.219   3.637  15.757 -0.8477 -0.3168  0.3685
  371TMC3     H 5555   4.640   3.658  16.023 -0.1625  0.0255  0.6260
  371TMC3    H1 5556   0.149   3.862  15.721  0.0383  0.6073  0.8322
  371TMC3    H2 5557   4.487   4.002  15.825  1.5852  1.1710 -1.4997
  371TMC3    C7 5558   4.670   4.016  15.653  0.3138 -0.0440  0.8660
  371TMC3    C8 5559   4.435   3.786  15.989  0.1566  0.1240  0.4608
  371TMC3    O1 5560   4.589   4.106  15.651  0.1544 -0.5210  0.3503
  371TMC3    O2 5561   4.422   3.668  16.017  0.0643  0.1654 -0.3395
  372MPD2     C 5562   0.236   0.679  13.559 -0.1353  0.2776  0.1069
  372MPD2    C1 5563   0.288   0.575  13.634  0.3118 -0.6090  0.3587
  372MPD2    C2 5564   0.210   0.465  13.665 -1.0337 -0.3548 -0.4526
  372MPD2    C3 5565   0.080   0.454  13.624  0.2781 -0.0131  0.2440
  372MPD2    C4 5566   0.028   0.553  13.539  0.0921  0.6107 -0.0052
  372MPD2    C5 5567   0.102   0.667  13.519 -0.5402 -0.3189  0.3279
  372MPD2     H 5568   0.252   0.390  13.731  0.3381  1.2121  0.4754
  372MPD2    H1 5569   4.653   0.561  13.494  0.1260 -3.0150 -0.7097
  372MPD2    H2 5570   0.285   0.776  13.549 -3.1737  1.9027  1.1486
  372MPD2    H3 5571   0.053   0.750  13.469  0.4863 -1.4152 -2.4350
  372MPD2     N 5572   0.004   0.339  13.661 -0.5848  0.0683 -0.5077
  372MPD2    H5 5573   0.047   0.253  13.693 -0.5642  0.0386 -0.6142
  372MPD2    N1 5574   0.414   0.582  13.703  0.3173 -0.3193 -0.0097
  372MPD2    H7 5575   0.434   0.517  13.778  2.1644  2.1815  1.6677
  373TMC3    C1 5576   4.530   0.209  13.670  0.1955  0.1079  0.6931
  373TMC3    C2 5577   4.396   0.215  13.688  0.1551 -0.7738  1.4300
  373TMC3    C3 5578   4.332   0.096  13.699  0.1188 -0.0025 -0.1946
  373TMC3    C4 5579   4.597   0.087  13.639 -0.2827 -1.1143  0.0162
  373TMC3    C5 5580   4.515   4.703  13.630 -0.0592 -0.2617  0.7666
  373TMC3    C6 5581   4.387   4.702  13.663 -0.1837 -0.1365 -0.0742
  373TMC3     C 5582   4.589   0.338  13.651 -0.4950  0.4523 -0.0823
  373TMC3     O 5583   4.516   0.434  13.642  0.1098  0.5593  0.2520
  373TMC3     H 5584   4.341   0.305  13.717  0.1543 -0.9593  2.0053
  373TMC3    H1 5585   4.699   0.082  13.604 -0.0318  0.6789  0.4622
  373TMC3    H2 5586   4.332   4.609  13.653  0.5503 -0.6801  0.8821
  373TMC3    C7 5587   4.579   4.573  13.611  0.5020 -0.4777  0.4924
  373TMC3    C8 5588   4.191   0.092  13.752 -0.1535 -0.2900  0.4508
  373TMC3    O1 5589   4.504   4.492  13.564  0.5987 -0.3248 -0.6638
  373TMC3    O2 5590   4.142   0.200  13.733  0.3758 -0.3972  0.1554
  374TMC3    C1 5591   0.098   0.236   9.676  0.1573 -0.6281  0.2505
  374TMC3    C2 5592   0.196   0.325   9.717  0.0544 -0.0871  0.2828
  374TMC3    C3 5593   0.275   0.390   9.626 -0.0022 -0.5792 -0.4113
  374TMC3    C4 5594   0.061   0.217   9.543  0.7447 -0.1961 -0.2550
  374TMC3    C5 5595   0.142   0.279   9.449  0.0513 -0.2141  0.2785
  374TMC3    C6 5596   0.239   0.370   9.492  0.0038  0.5483  0.0744
  374TMC3     C 5597   0.026   0.171   9.782  0.3416  0.4458 -0.0312
  374TMC3     O 5598   0.074   0.180   9.893  0.6377 -0.0569 -0.6331
  374TMC3     H 5599   0.222   0.324   9.822 -0.2645 -2.3247  0.3527
  374TMC3    H1 5600   4.699   0.158   9.510 -0.4292  0.0458  2.2809
  374TMC3    H2 5601   0.297   0.435   9.427  2.0522 -1.4813 -0.1351
  374TMC3    C7 5602   0.109   0.270   9.308 -0.6909 -0.7684 -0.7077
  374TMC3    C8 5603   0.345   0.508   9.675 -0.8656 -0.2169 -0.9714
  374TMC3    O1 5604   0.134   0.371   9.250 -0.1714 -0.5886  0.1362
  374TMC3    O2 5605   0.332   0.600   9.599  0.2978  0.3459  0.5012
  375MPD2     C 5606   4.714   1.223  16.913  0.0561 -0.2633  0.6844
  375MPD2    C1 5607   4.617   1.137  16.864 -0.7227 -0.0218 -0.0078
  375MPD2    C2 5608   4.641   1.062  16.748  0.4318 -0.9456 -0.3335
  375MPD2    C3 5609   0.029   1.094  16.674 -0.2686  0.0274  0.5066
  375MPD2    C4 5610   0.123   1.175  16.725  0.0527 -0.7684  0.2720
  375MPD2    C5 5611   0.107   1.237  16.842  0.1507  0.0467  0.2832
  375MPD2     H 5612   4.562   0.992  16.723 -0.4460 -0.5358  1.2250
  375MPD2    H1 5613   0.200   1.211  16.658  0.4634 -0.6112  0.8297
  375MPD2    H2 5614   4.709   1.287  17.000  0.6214  1.0283 -0.2231
  375MPD2    H3 5615   0.173   1.306  16.892  0.4102  0.2902 -0.3930
  375MPD2     N 5616   0.061   1.040  16.550 -0.0832 -0.1518 -0.4008
  375MPD2    H5 5617   0.154   1.065  16.519 -0.1578  1.5676  0.7264
  375MPD2    N1 5618   4.504   1.117  16.944 -0.0717 -0.4540  0.1866
  375MPD2    H7 5619   4.447   1.035  16.925  1.5259 -2.0250  2.3057
  376TMC3    C1 5620   0.048   0.894  16.369  0.5976  0.1368  0.2979
  376TMC3    C2 5621   0.172   0.853  16.400  0.0969  0.2859 -0.2508
  376TMC3    C3 5622   0.248   0.803  16.310 -0.1563  0.3746  0.8385
  376TMC3    C4 5623   4.707   0.844  16.256  0.1006 -0.2660  0.2779
  376TMC3    C5 5624   0.060   0.779  16.158 -0.0245  0.3103 -0.0397
  376TMC3    C6 5625   0.198   0.759  16.184  0.2214  0.1302  0.1361
  376TMC3     C 5626   4.701   0.966  16.475 -0.6427 -0.4939 -1.1710
  376TMC3     O 5627   4.576   0.962  16.481 -0.4919  0.4648 -0.4854
  376TMC3     H 5628   0.223   0.882  16.491  1.6436 -2.2284 -0.3234
  376TMC3    H1 5629   4.603   0.866  16.236  0.2477 -2.3259 -2.7124
  376TMC3    H2 5630   0.264   0.729  16.104 -2.6934  0.0836 -2.2531
  376TMC3    C7 5631   0.021   0.785  16.017  0.0979 -0.0946 -0.3669
  376TMC3    C8 5632   0.394   0.805  16.326  0.4610  0.6968  0.4667
  376TMC3    O1 5633   0.112   0.794  15.938  0.1687  0.2636  0.5410
  376TMC3    O2 5634   0.455   0.833  16.227  0.4291 -0.5662 -0.1788
  377MPD2     C 5635   2.763   0.804  12.401  0.0053 -0.4885 -0.1498
  377MPD2    C1 5636   2.826   0.725  12.488  0.6892 -0.1699 -0.4309
  377MPD2    C2 5637   2.760   0.654  12.586  0.0171  0.1721 -0.5587
  377MPD2    C3 5638   2.624   0.668  12.588  0.4776  0.0551  0.4705
  377MPD2    C4 5639   2.560   0.760  12.509 -0.2189  1.0748 -0.0378
  377MPD2    C5 5640   2.632   0.828  12.416  0.6088  0.1371 -0.1038
  377MPD2     H 5641   2.818   0.600  12.661 -2.4675 -0.6817  0.7536
  377MPD2    H1 5642   2.452   0.760  12.504 -0.1517 -1.7632 -1.6785
  377MPD2    H2 5643   2.814   0.849  12.316 -0.3992 -0.3619 -0.3236
  377MPD2    H3 5644   2.572   0.879  12.342  0.7324 -0.5200 -0.6519
  377MPD2     N 5645   2.541   0.597  12.677  0.2625  0.1825  0.1267
  377MPD2    H5 5646   2.445   0.628  12.679 -0.3030 -1.4824 -0.8494
  377MPD2    N1 5647   2.964   0.736  12.478  0.3106 -0.4837  0.2650
  377MPD2    H7 5648   2.994   0.801  12.406 -0.3234  1.3848  1.6833
  378TMC3    C1 5649   3.348   0.793  12.337  0.2326  0.1139  0.1738
  378TMC3    C2 5650   3.222   0.763  12.388 -0.1731 -0.1855  0.0511
  378TMC3    C3 5651   3.199   0.740  12.522 -0.4223 -0.2041 -0.0931
  378TMC3    C4 5652   3.450   0.804  12.425 -0.1151 -0.2624 -0.1781
  378TMC3    C5 5653   3.422   0.773  12.554  0.5690 -0.1771  0.4394
  378TMC3    C6 5654   3.301   0.729  12.614  0.4474 -0.3776  0.5132
  378TMC3     C 5655   3.356   0.786  12.190  0.6357 -0.0747  0.4417
  378TMC3     O 5656   3.260   0.820  12.122 -0.0714  0.5983  0.3740
  378TMC3     H 5657   3.148   0.736  12.314 -1.0121  2.8796 -0.2297
  378TMC3    H1 5658   3.551   0.820  12.389  0.1451  0.9376  1.0829
  378TMC3    H2 5659   3.270   0.704  12.715  0.8492  1.5343  1.1180
  378TMC3    C7 5660   3.529   0.761  12.649  0.0776 -0.0070 -0.2332
  378TMC3    C8 5661   3.068   0.691  12.564  0.3732 -0.2986  0.1396
  378TMC3    O1 5662   3.498   0.773  12.770 -0.1529 -0.2621  0.1454
  378TMC3    O2 5663   3.064   0.626  12.669  0.5836 -0.5970  0.0912
  379MPD2     C 5664   3.743   3.499  16.426  0.0365 -0.3390 -0.0247
  379MPD2    C1 5665   3.803   3.408  16.339  0.0918  0.3884 -0.8182
  379MPD2    C2 5666   3.877   3.306  16.401  0.3833 -0.3699  0.8816
  379MPD2    C3 5667   3.895   3.307  16.543  0.4284  0.8810 -0.2780
  379MPD2    C4 5668   3.826   3.394  16.619 -0.4735  0.1018 -0.0722
  379MPD2    C5 5669   3.752   3.485  16.557  0.0125  0.5076 -0.3286
  379MPD2     H 5670   3.928   3.229  16.344 -0.9654  1.4296 -2.7183
  379MPD2    H1 5671   3.835   3.396  16.727 -1.6853  0.5560  0.0283
  379MPD2    H2 5672   3.672   3.572  16.387  1.1746  0.3599 -0.7733
  379MPD2    H3 5673   3.699   3.551  16.625  0.5476  1.0745 -0.4559
  379MPD2     N 5674   3.976   3.221  16.617  0.1678  0.9234 -0.0544
  379MPD2    H5 5675   3.959   3.222  16.717  0.1095  0.7547 -0.0625
  379MPD2    N1 5676   3.762   3.416  16.203  0.2238  0.0471  0.3426
  379MPD2    H7 5677   3.694   3.487  16.177  0.0807 -1.3480 -3.1923
  380TMC3    C1 5678   3.738   3.342  15.980 -0.1136 -0.0752  0.6233
  380TMC3    C2 5679   3.797   3.276  15.874 -0.5289 -0.6759 -0.4996
  380TMC3    C3 5680   3.739   3.299  15.750  0.3517 -0.1641 -0.6011
  380TMC3    C4 5681   3.631   3.427  15.970 -0.3029  0.0405 -0.7559
  380TMC3    C5 5682   3.581   3.429  15.848  0.1299  0.0698  0.2575
  380TMC3    C6 5683   3.614   3.357  15.736  0.7518  0.0928  0.3603
  380TMC3     C 5684   3.812   3.332  16.106 -0.3050 -0.1503  0.7994
  380TMC3     O 5685   3.911   3.259  16.108  0.1172  0.6461 -0.3172
  380TMC3     H 5686   3.891   3.225  15.890 -0.2125  0.4569  1.3172
  380TMC3    H1 5687   3.585   3.473  16.056 -0.2586  0.9432 -1.2126
  380TMC3    H2 5688   3.575   3.377  15.637 -1.4736 -1.4715  0.9207
  380TMC3    C7 5689   3.469   3.523  15.831  0.2166  0.7610  0.6162
  380TMC3    C8 5690   3.824   3.292  15.632 -0.1281  0.5696  0.1685
  380TMC3    O1 5691   3.460   3.623  15.904 -0.1335  0.6802  0.3242
  380TMC3    O2 5692   3.787   3.343  15.530 -0.0327 -0.4318 -0.0155
  381TMC3    C1 5693   3.358   4.546  16.449  0.8508  0.0546  0.6473
  381TMC3    C2 5694   3.450   4.630  16.499  1.3344 -1.0618 -0.3177
  381TMC3    C3 5695   3.416   0.031  16.535 -0.0317  0.2145  0.5968
  381TMC3    C4 5696   3.229   4.588  16.427  0.4367  0.5101  0.4555
  381TMC3    C5 5697   3.205   0.000  16.435 -0.1410  0.5307 -0.3252
  381TMC3    C6 5698   3.294   0.088  16.495 -0.2851 -0.1718 -0.5762
  381TMC3     C 5699   3.407   4.432  16.383  0.1176  0.3912  0.8681
  381TMC3     O 5700   3.499   4.376  16.439  0.0146 -0.6191  0.9713
  381TMC3     H 5701   3.538   4.588  16.548  0.2693 -0.0917  2.4116
  381TMC3    H1 5702   3.168   4.511  16.380 -0.2401  1.8089 -0.7906
  381TMC3    H2 5703   3.261   0.188  16.519 -0.3305 -0.6017  1.2043
  381TMC3    C7 5704   3.065   0.017  16.467 -0.0556 -0.2583  0.5564
  381TMC3    C8 5705   3.524   0.125  16.530  0.2483 -0.5269 -1.0237
  381TMC3    O1 5706   2.983   4.669  16.414  0.0154  0.4471  0.0961
  381TMC3    O2 5707   3.629   0.069  16.495  0.1484  0.2846  0.5754
  382MPD2     C 5708   2.868   2.156   0.161  0.4176  0.0311 -0.8462
  382MPD2    C1 5709   2.817   2.153   0.032 -1.6481 -0.1749 -0.0058
  382MPD2    C2 5710   2.735   2.049  17.690 -0.2563 -0.8959  0.4397
  382MPD2    C3 5711   2.698   1.951   0.078  0.7487  0.2365  0.2840
  382MPD2    C4 5712   2.731   1.952   0.209 -0.5004 -0.2921 -0.7393
  382MPD2    C5 5713   2.819   2.055   0.244 -0.5418 -0.6075  0.1229
  382MPD2     H 5714   2.694   2.059  17.590 -0.6520 -1.2013  0.5693
  382MPD2    H1 5715   2.689   1.887   0.285 -0.1283  0.1655 -0.1339
  382MPD2    H2 5716   2.944   2.228   0.191  1.2168 -1.3662  0.5318
  382MPD2    H3 5717   2.836   2.069   0.350 -1.7577 -1.7993  0.4814
  382MPD2     N 5718   2.596   1.860   0.045  0.0750  0.0482  1.1061
  382MPD2    H5 5719   2.577   1.785   0.111 -0.4283 -3.0482 -2.5452
  382MPD2    N1 5720   2.847   2.255  17.631 -0.3616  0.4008  1.0831
  382MPD2    H7 5721   2.791   2.264  17.547 -0.2523 -1.9338  0.7782
  383TMC3    C1 5722   2.435   1.738  17.611 -0.7448  0.0582  0.9500
  383TMC3    C2 5723   2.338   1.740  17.511  0.5196  0.3943  0.0319
  383TMC3    C3 5724   2.276   1.622  17.483 -0.7221  0.0692 -0.7423
  383TMC3    C4 5725   2.465   1.624  17.679 -0.0998  0.7729 -0.2104
  383TMC3    C5 5726   2.399   1.507  17.644  1.0205 -0.1142 -0.7085
  383TMC3    C6 5727   2.298   1.508  17.548  0.1060 -0.1165  0.4830
  383TMC3     C 5728   2.529   1.853  17.619 -0.3075 -0.2956  0.0822
  383TMC3     O 5729   2.501   1.942  17.539  0.0180  0.7676  0.3266
  383TMC3     H 5730   2.305   1.830  17.460 -1.2007 -0.5886 -0.6027
  383TMC3    H1 5731   2.556   1.624   0.044  0.3879 -0.1584 -0.9421
  383TMC3    H2 5732   2.250   1.415  17.519 -0.3852  0.5464 -0.8279
  383TMC3    C7 5733   2.445   1.383   0.011  0.6883 -0.4547  0.1962
  383TMC3    C8 5734   2.195   1.631  17.357  0.2307  0.0770  0.1219
  383TMC3    O1 5735   2.373   1.284  17.693 -0.1301 -0.6334 -0.0337
  383TMC3    O2 5736   2.181   1.745  17.308 -0.0137 -0.1813 -0.0523
  384MPD2     C 5737   4.346   3.162  11.992  0.2853  0.2024 -0.4762
  384MPD2    C1 5738   4.419   3.059  12.060 -0.7213  0.2576  0.1337
  384MPD2    C2 5739   4.550   3.040  12.023  0.3340  0.0169 -0.1428
  384MPD2    C3 5740   4.621   3.129  11.947  0.0222  0.8344  0.4356
  384MPD2    C4 5741   4.547   3.236  11.890 -0.5969  0.1849  0.3535
  384MPD2    C5 5742   4.408   3.241  11.900  0.1985 -0.2322 -0.9893
  384MPD2     H 5743   4.608   2.964  12.074 -0.3995 -0.0824  0.5500
  384MPD2    H1 5744   4.588   3.306  11.819 -1.2392  0.2872  0.0853
  384MPD2    H2 5745   4.241   3.185  12.009 -0.0433 -1.1952 -0.6164
  384MPD2    H3 5746   4.351   3.320  11.853 -0.4951  0.0047  0.2529
  384MPD2     N 5747   0.037   3.108  11.930 -0.3327  0.1286 -0.0868
  384MPD2    H5 5748   0.073   3.030  11.985  0.3436 -0.0173 -0.7414
  384MPD2    N1 5749   4.362   3.006  12.176 -0.1061 -0.0482 -0.4424
  384MPD2    H7 5750   4.286   3.063  12.212  1.1449  1.9147 -0.9406
  385TMC3    C1 5751   0.251   3.153  11.932 -0.1729  0.0747 -0.8497
  385TMC3    C2 5752   0.270   3.023  11.906  0.1112  0.2032 -0.2973
  385TMC3    C3 5753   0.337   2.963  12.011  0.4819 -0.3204  0.1912
  385TMC3    C4 5754   0.309   3.231  12.027  0.3194 -0.0887  0.6409
  385TMC3    C5 5755   0.384   3.165  12.118  0.5185 -0.1319 -0.0651
  385TMC3    C6 5756   0.398   3.029  12.112 -0.0256  0.4293 -0.4181
  385TMC3     C 5757   0.124   3.198  11.885  0.7394 -0.1517 -0.1213
  385TMC3     O 5758   0.113   3.311  11.836  0.6377 -0.3222  0.3737
  385TMC3     H 5759   0.226   2.976  11.819  0.8001 -0.2404 -0.4023
  385TMC3    H1 5760   0.287   3.335  12.044 -0.0466  0.1820 -1.4604
  385TMC3    H2 5761   0.476   2.984  12.171  0.1706 -0.5154 -1.3915
  385TMC3    C7 5762   0.336   3.199  12.252 -0.3816  0.8860  0.4842
  385TMC3    C8 5763   0.363   2.817  12.014  0.1698  0.0678  0.5563
  385TMC3    O1 5764   0.321   3.105  12.333  0.3983  0.7601 -0.4565
  385TMC3    O2 5765   0.403   2.777  12.122  0.0457 -0.6236 -0.1124
  386TMC3    C1 5766   0.086   0.845  11.943  0.3356 -0.5586  0.3457
  386TMC3    C2 5767   0.153   0.896  11.837 -0.2575 -0.2482  0.2600
  386TMC3    C3 5768   0.083   0.915  11.720  0.0959  0.0344  0.2376
  386TMC3    C4 5769   4.679   0.802  11.932 -0.3395 -0.1312  0.1692
  386TMC3    C5 5770   4.617   0.823  11.811  0.0926 -0.0842 -0.3137
  386TMC3    C6 5771   4.678   0.877  11.704  0.5756  1.0173  0.2802
  386TMC3     C 5772   0.165   0.801  12.060  0.1814 -0.4001 -0.4044
  386TMC3     O 5773   0.127   0.695  12.110  0.1642 -0.5387  0.2522
  386TMC3     H 5774   0.261   0.907  11.827 -0.3083  0.4015  0.4159
  386TMC3    H1 5775   4.631   0.741  12.007 -0.8574 -0.2303 -0.2439
  386TMC3    H2 5776   4.629   0.934  11.626 -3.4539 -3.2107 -0.2888
  386TMC3    C7 5777   4.469   0.813  11.804 -0.1602  0.2003  0.0317
  386TMC3    C8 5778   0.154   0.983  11.612  0.0941 -0.1249 -0.0253
  386TMC3    O1 5779   4.411   0.815  11.912  0.6251  0.5266 -0.0648
  386TMC3    O2 5780   0.246   1.061  11.639  0.1487  0.0526 -0.6865
  387MPD2     C 5781   1.921   0.807   9.647 -0.1751  0.0419 -0.4282
  387MPD2    C1 5782   2.042   0.802   9.710  0.4509 -0.1909 -0.1708
  387MPD2    C2 5783   2.124   0.693   9.695  0.2349  0.5571 -0.5783
  387MPD2    C3 5784   2.086   0.594   9.611 -0.4854  0.3249  0.1496
  387MPD2    C4 5785   1.962   0.590   9.549  0.0731 -0.3428 -0.0662
  387MPD2    C5 5786   1.879   0.700   9.572 -0.5525 -0.0583 -0.7683
  387MPD2     H 5787   2.212   0.685   9.758  0.6862 -0.8636 -1.3926
  387MPD2    H1 5788   1.917   0.510   9.492  1.6166 -0.3539 -1.2558
  387MPD2    H2 5789   1.848   0.887   9.657 -1.3678 -0.7954 -2.2653
  387MPD2    H3 5790   1.777   0.712   9.538 -0.9526  1.2697  0.8594
  387MPD2     N 5791   2.179   0.491   9.611 -0.4343  0.0320 -0.2201
  387MPD2    H5 5792   2.260   0.508   9.670 -0.3134  0.7019 -0.5825
  387MPD2    N1 5793   2.090   0.909   9.789 -0.4431 -0.7876 -0.1176
  387MPD2    H7 5794   2.187   0.891   9.813 -0.5345  0.1392  0.9506
  388TMC3    C1 5795   2.108   1.087   9.914  1.0417 -0.3829  0.1369
  388TMC3    C2 5796   2.116   1.226   9.910 -0.0976  0.2603 -0.0811
  388TMC3    C3 5797   2.203   1.278  10.000  0.0549  0.0950 -0.1962
  388TMC3    C4 5798   2.190   1.012   9.994 -0.2977  0.0718  0.2543
  388TMC3    C5 5799   2.288   1.067  10.073 -0.9337  0.0231  0.0984
  388TMC3    C6 5800   2.291   1.201  10.074  0.9891  0.3354  0.0947
  388TMC3     C 5801   2.029   1.024   9.816 -0.2105 -0.0550  0.3470
  388TMC3     O 5802   1.928   1.080   9.773 -0.1516  0.3486  0.0296
  388TMC3     H 5803   2.035   1.284   9.870  0.1240  0.5786 -0.0693
  388TMC3    H1 5804   2.171   0.906  10.005  0.2466 -0.1334 -0.6951
  388TMC3    H2 5805   2.367   1.250  10.135  0.5389  1.3297 -0.1329
  388TMC3    C7 5806   2.404   0.984  10.119  0.9832 -1.2542 -0.4106
  388TMC3    C8 5807   2.199   1.419  10.037  0.2477  0.1301  0.4092
  388TMC3    O1 5808   2.452   1.004  10.226  0.0589  0.5522 -0.5254
  388TMC3    O2 5809   2.256   1.450  10.144  0.2412  0.7973  0.3471
  389MPD2     C 5810   2.099   3.891  11.168 -0.5768  0.0104  0.2505
  389MPD2    C1 5811   1.981   3.864  11.105  0.4722 -0.3928  0.6547
  389MPD2    C2 5812   1.873   3.806  11.178 -0.6913 -0.3306 -0.2261
  389MPD2    C3 5813   1.887   3.780  11.319  0.5542 -0.2902  0.1169
  389MPD2    C4 5814   2.001   3.816  11.382  0.2834 -0.9884 -0.2235
  389MPD2    C5 5815   2.111   3.864  11.308  0.0763 -0.4677 -0.0635
  389MPD2     H 5816   1.793   3.757  11.124  0.5647 -2.3999 -0.1863
  389MPD2    H1 5817   2.004   3.807  11.490 -0.0760  0.5197 -0.0894
  389MPD2    H2 5818   2.184   3.939  11.121 -1.8236  1.3173 -0.6750
  389MPD2    H3 5819   2.203   3.886  11.360 -0.6749  0.5555  0.8019
  389MPD2     N 5820   1.790   3.699  11.387  0.1821  0.8194  0.4313
  389MPD2    H5 5821   1.778   3.699  11.488 -0.6797 -0.9214  0.3279
  389MPD2    N1 5822   1.969   3.904  10.976  0.0101  0.1156 -0.2906
  389MPD2    H7 5823   2.048   3.939  10.922  0.5818 -2.0318 -0.8299
  390TMC3    C1 5824   1.619   3.567  11.448 -0.0585  0.0779 -0.5003
  390TMC3    C2 5825   1.601   3.434  11.464 -0.9843  0.1877  0.0273
  390TMC3    C3 5826   1.516   3.391  11.561 -0.0080 -0.6490 -0.2589
  390TMC3    C4 5827   1.560   3.653  11.529 -0.3098 -0.1230 -0.3141
  390TMC3    C5 5828   1.475   3.606  11.621 -0.1230 -0.4096  0.3114
  390TMC3    C6 5829   1.457   3.477  11.649  0.3803  0.5499 -0.3049
  390TMC3     C 5830   1.701   3.612  11.339 -0.3898 -0.5494  0.2707
  390TMC3     O 5831   1.700   3.552  11.236 -0.0613 -0.2537 -0.4118
  390TMC3     H 5832   1.635   3.366  11.387  2.7695  1.4724  0.5253
  390TMC3    H1 5833   1.569   3.758  11.503 -0.4359 -0.4967 -1.8970
  390TMC3    H2 5834   1.390   3.438  11.725  1.3834  0.8870  0.7415
  390TMC3    C7 5835   1.362   3.686  11.659  0.7876  0.0065 -0.2009
  390TMC3    C8 5836   1.452   3.258  11.549  0.5907  0.0284  0.2233
  390TMC3    O1 5837   1.399   3.786  11.720 -0.2996 -0.1983 -1.1137
  390TMC3    O2 5838   1.497   3.186  11.461  0.5468  0.8276 -0.2532
  391MPD2     C 5839   0.718   0.335  11.245  0.2684 -0.6569 -0.0901
  391MPD2    C1 5840   0.806   0.433  11.207  0.3932  0.0572  0.1201
  391MPD2    C2 5841   0.808   0.483  11.078 -0.0171  0.2827  0.0010
  391MPD2    C3 5842   0.723   0.433  10.986 -0.1372 -0.1305 -0.2928
  391MPD2    C4 5843   0.629   0.337  11.018 -0.2590  0.1535 -0.6934
  391MPD2    C5 5844   0.633   0.285  11.143 -0.7264  0.0434 -0.0969
  391MPD2     H 5845   0.876   0.562  11.046 -0.4945  0.1628 -1.2874
  391MPD2    H1 5846   0.550   0.308  10.950  0.4791  0.8460 -1.8304
  391MPD2    H2 5847   0.716   0.296  11.346 -3.3230  1.1033  0.5510
  391MPD2    H3 5848   0.566   0.205  11.172 -0.9574  0.5555  0.7717
  391MPD2     N 5849   0.733   0.500  10.858 -0.0332 -0.3816 -0.0564
  391MPD2    H5 5850   0.802   0.574  10.855  1.2343 -1.5133  0.7959
  391MPD2    N1 5851   0.888   0.484  11.305  0.0226  0.0762 -0.8615
  391MPD2    H7 5852   0.876   0.462  11.404  3.3288  2.3884  0.0591
  392TMC3    C1 5853   0.693   0.514  10.617  0.2672  0.1810  0.7280
  392TMC3    C2 5854   0.599   0.538  10.520 -0.3038 -0.2369  0.4726
  392TMC3    C3 5855   0.638   0.595  10.401  0.5429  0.2345 -0.3139
  392TMC3    C4 5856   0.822   0.569  10.604  0.7530 -0.0463 -0.2757
  392TMC3    C5 5857   0.858   0.607  10.478 -0.3648  0.4664  0.1249
  392TMC3    C6 5858   0.769   0.630  10.376 -0.0093 -1.1401 -0.4191
  392TMC3     C 5859   0.650   0.475  10.749  0.0465  0.4246 -0.0297
  392TMC3     O 5860   0.534   0.429  10.769 -0.5386 -0.4462 -0.0009
  392TMC3     H 5861   0.497   0.506  10.538 -0.9832  0.6330 -1.8692
  392TMC3    H1 5862   0.903   0.542  10.670  2.4647  1.6968 -1.6924
  392TMC3    H2 5863   0.794   0.674  10.280  0.1601  0.0055  0.1512
  392TMC3    C7 5864   0.991   0.662  10.463 -0.1088 -0.1530  0.2643
  392TMC3    C8 5865   0.536   0.603  10.300 -0.0290 -0.2609  0.0258
  392TMC3    O1 5866   1.054   0.681  10.569 -0.3701  0.2179 -0.1039
  392TMC3    O2 5867   0.450   0.514  10.290 -0.4030 -0.5672  0.2467
  393TMC3    C1 5868   0.441   3.279  10.670  0.6655 -0.0050  0.1411
  393TMC3    C2 5869   0.305   3.263  10.663 -0.6346  0.1102  0.2687
  393TMC3    C3 5870   0.257   3.150  10.593  0.0327  0.6569  0.2342
  393TMC3    C4 5871   0.534   3.187  10.616  0.4113 -0.4762  0.5427
  393TMC3    C5 5872   0.477   3.086  10.548 -0.0022  0.3737 -0.1716
  393TMC3    C6 5873   0.340   3.067  10.527 -0.6551 -0.2042 -0.1882
  393TMC3     C 5874   0.491   3.415  10.672  0.1993 -0.4775  0.2129
  393TMC3     O 5875   0.594   3.437  10.728 -0.2843  0.6562 -0.2588
  393TMC3     H 5876   0.242   3.341  10.704  1.8805  1.1068  2.2267
  393TMC3    H1 5877   0.640   3.194  10.638  0.1248 -1.4483  2.2587
  393TMC3    H2 5878   0.307   2.981  10.471 -0.7150 -0.8184  0.8030
  393TMC3    C7 5879   0.558   3.009  10.460  0.5669 -0.0170  0.2361
  393TMC3    C8 5880   0.110   3.142  10.559  0.9240  0.1758 -0.4027
  393TMC3    O1 5881   0.532   2.891  10.440 -0.2646  0.4445 -0.3982
  393TMC3    O2 5882   0.078   3.085  10.453 -0.2924  0.5459 -0.6042
  394TMC3    C1 5883   1.859   3.951  10.772  0.2248 -0.5717 -0.7123
  394TMC3    C2 5884   1.746   3.996  10.704  0.2273  0.7119  0.3268
  394TMC3    C3 5885   1.759   4.030  10.580 -0.0517 -0.4883 -1.2464
  394TMC3    C4 5886   1.983   3.940  10.710 -0.6309  0.0838  0.2884
  394TMC3    C5 5887   1.990   3.973  10.580  0.5050 -0.5558 -0.6487
  394TMC3    C6 5888   1.883   4.022  10.516  0.0474  0.8415 -0.4238
  394TMC3     C 5889   1.843   3.916  10.913 -0.0936  0.1242  0.0097
  394TMC3     O 5890   1.736   3.934  10.968 -0.3332 -0.2774  0.0239
  394TMC3     H 5891   1.649   3.986  10.752  0.3727 -0.9220  0.2573
  394TMC3    H1 5892   2.065   3.892  10.763 -0.0736  0.6420 -0.0614
  394TMC3    H2 5893   1.885   4.062  10.415  1.7268  1.9400  0.0429
  394TMC3    C7 5894   2.114   3.994  10.508  0.0816 -0.1784  0.0146
  394TMC3    C8 5895   1.653   4.003  10.490  0.2919  0.1915  0.3162
  394TMC3    O1 5896   2.097   4.060  10.407 -0.0470 -0.4986  0.6100
  394TMC3    O2 5897   1.560   4.077  10.482 -0.3676 -0.5047 -0.0031
  395TMC3    C1 5898   0.632   1.094  15.060 -0.1534 -0.2652  0.6456
  395TMC3    C2 5899   0.638   1.057  15.191  0.0951 -0.2468  0.2796
  395TMC3    C3 5900   0.726   1.122  15.273  0.1919 -0.2938 -0.0172
  395TMC3    C4 5901   0.716   1.185  15.008 -0.4077  0.3778 -1.7059
  395TMC3    C5 5902   0.816   1.242  15.087  0.4467 -0.4449 -0.6344
  395TMC3    C6 5903   0.824   1.220  15.226  0.4135 -0.3551  0.0319
  395TMC3     C 5904   0.538   1.039  14.966  0.5633 -0.0972 -0.0775
  395TMC3     O 5905   0.455   1.117  14.913  0.2839  0.4639  0.1040
  395TMC3     H 5906   0.557   0.993  15.224 -0.1380 -0.3200 -0.4227
  395TMC3    H1 5907   0.703   1.208  14.903 -0.1869  1.3537 -1.5206
  395TMC3    H2 5908   0.917   1.246  15.273  0.0726  0.8377  0.0346
  395TMC3    C7 5909   0.913   1.314  15.012 -0.1380 -0.2612  0.8406
  395TMC3    C8 5910   0.782   1.047  15.384  0.8713  0.5062 -0.4692
  395TMC3    O1 5911   0.901   1.329  14.888  0.2504  0.0023  0.2803
  395TMC3    O2 5912   0.849   1.105  15.470 -0.0015  0.0377  0.3214
  396MPD2     C 5913   0.651   2.450  17.225  0.6795 -0.2562 -0.5949
  396MPD2    C1 5914   0.781   2.486  17.251  0.7113 -0.3606 -0.2503
  396MPD2    C2 5915   0.845   2.588  17.175 -0.4933  0.0032  0.6144
  396MPD2    C3 5916   0.775   2.648  17.068 -0.4747 -0.2481 -0.1017
  396MPD2    C4 5917   0.641   2.604  17.050  0.9841 -0.6478 -0.0547
  396MPD2    C5 5918   0.578   2.506  17.127 -1.1168  0.0877 -0.5990
  396MPD2     H 5919   0.948   2.616  17.197 -0.0791  0.1346 -1.4996
  396MPD2    H1 5920   0.572   2.645  16.978  1.9274 -1.7916 -1.6104
  396MPD2    H2 5921   0.610   2.371  17.286  2.3271 -0.2488  0.5091
  396MPD2    H3 5922   0.478   2.472  17.106 -1.4887  0.9365 -0.2096
  396MPD2     N 5923   0.844   2.733  16.977  0.0784 -0.0123 -0.3964
  396MPD2    H5 5924   0.931   2.774  17.007  0.3210  0.4100 -1.6437
  396MPD2    N1 5925   0.844   2.420  17.361  0.1814  0.6393 -0.0402
  396MPD2    H7 5926   0.797   2.340  17.403  0.7537  0.5314  0.3973
  397TMC3    C1 5927   1.010   2.349  17.495 -0.8788  0.6564  0.2411
  397TMC3    C2 5928   1.112   2.290  17.424  0.2105  0.8557  0.6217
  397TMC3    C3 5929   1.133   2.160  17.432  0.1297 -0.2717  0.0798
  397TMC3    C4 5930   0.915   2.268  17.561 -0.2626  0.0123  0.0972
  397TMC3    C5 5931   0.929   2.136  17.545  1.3546  0.2634  0.4167
  397TMC3    C6 5932   1.033   2.077  17.487 -0.2976 -0.5268  0.5097
  397TMC3     C 5933   0.966   2.454  17.415 -0.1764 -0.1163  0.4044
  397TMC3     O 5934   1.053   2.529  17.371  0.2805 -0.0729 -0.3422
  397TMC3     H 5935   1.192   2.358  17.399 -0.2456  1.2438  0.2106
  397TMC3    H1 5936   0.830   2.309  17.615  1.1856  1.6137  1.1706
  397TMC3    H2 5937   1.037   1.969  17.476 -1.5788 -0.2924 -2.4103
  397TMC3    C7 5938   0.847   2.071  17.648 -0.3578 -0.1042  0.8643
  397TMC3    C8 5939   1.202   2.099  17.322 -0.3590  0.5291  0.4234
  397TMC3    O1 5940   0.728   2.110  17.662 -0.3651 -0.0060 -0.4048
  397TMC3    O2 5941   1.147   2.005  17.264 -0.0332 -0.6788 -0.6722
  398MPD2     C 5942   3.436   3.105   0.380  0.1868  0.6404  0.3716
  398MPD2    C1 5943   3.562   3.047   0.380 -0.1443 -0.4665  0.1210
  398MPD2    C2 5944   3.670   3.129   0.407 -0.0376 -0.3324  0.1039
  398MPD2    C3 5945   3.651   3.256   0.448  0.0277  0.3777  0.0106
  398MPD2    C4 5946   3.527   3.314   0.452  0.1290 -0.3830  0.6196
  398MPD2    C5 5947   3.424   3.234   0.422 -0.6547  0.3382  0.1720
  398MPD2     H 5948   3.770   3.090   0.390 -0.2296 -0.9288  0.3646
  398MPD2    H1 5949   3.511   3.415   0.486 -0.9681 -0.1567 -0.5789
  398MPD2    H2 5950   3.349   3.041   0.369 -0.0336  1.2217 -1.2948
  398MPD2    H3 5951   3.324   3.276   0.430 -0.5535  0.6391 -0.1657
  398MPD2     N 5952   3.769   3.331   0.481 -0.1736 -0.1761 -0.6876
  398MPD2    H5 5953   3.861   3.292   0.462 -0.5673  0.2699 -3.5003
  398MPD2    N1 5954   3.591   2.915   0.349  0.7673  0.5129  0.1545
  398MPD2    H7 5955   3.688   2.888   0.361  1.2240  1.1716 -2.0857
  399TMC3    C1 5956   3.566   2.690   0.310  0.2551  0.1707  0.5362
  399TMC3    C2 5957   3.653   2.670   0.419 -0.0344  0.5946  0.6721
  399TMC3    C3 5958   3.703   2.550   0.439 -0.4930 -1.0724 -0.0786
  399TMC3    C4 5959   3.509   2.580   0.245 -0.3049 -0.4873 -0.3788
  399TMC3    C5 5960   3.563   2.459   0.280 -0.2957  0.3101 -0.2057
  399TMC3    C6 5961   3.661   2.437   0.370 -0.0856  0.1168  0.2336
  399TMC3     C 5962   3.511   2.825   0.301 -0.0214 -0.3026 -0.4855
  399TMC3     O 5963   3.405   2.837   0.242  0.1314 -0.0954  0.1448
  399TMC3     H 5964   3.697   2.749   0.478 -0.1225 -0.4434  2.1099
  399TMC3    H1 5965   3.430   2.585   0.171 -0.0127 -0.4109 -0.6883
  399TMC3    H2 5966   3.709   2.341   0.375  1.0166  0.6940  0.7576
  399TMC3    C7 5967   3.530   2.338   0.205  0.3162  0.5448  0.4565
  399TMC3    C8 5968   3.782   2.547   0.562 -0.1116  0.0850  0.1337
  399TMC3    O1 5969   3.553   2.225   0.254 -0.2111  0.4259 -0.4163
  399TMC3    O2 5970   3.837   2.644   0.612  0.3406 -0.1339  0.2416
  400TMC3    C1 5971   2.410   1.685  17.023  0.3983 -0.1620 -0.0032
  400TMC3    C2 5972   2.295   1.669  16.950 -0.6305  0.4944 -0.3379
  400TMC3    C3 5973   2.229   1.787  16.924  0.3815  0.3145 -0.2359
  400TMC3    C4 5974   2.440   1.803  17.084  0.1147  0.5343 -0.3096
  400TMC3    C5 5975   2.371   1.913  17.050  0.4715 -0.0785 -0.2568
  400TMC3    C6 5976   2.265   1.912  16.966 -0.1882 -0.6670 -0.0640
  400TMC3     C 5977   2.451   1.551  17.067 -0.3895  0.0098  0.4839
  400TMC3     O 5978   2.447   1.460  16.982  0.0421  0.0470  0.4637
  400TMC3     H 5979   2.251   1.574  16.921  2.2627 -0.7120 -0.7757
  400TMC3    H1 5980   2.531   1.814  17.142 -0.4452 -0.2128  0.7093
  400TMC3    H2 5981   2.223   2.005  16.929  1.8564  1.0946  2.0099
  400TMC3    C7 5982   2.414   2.033  17.117 -0.7173  1.1607 -0.5209
  400TMC3    C8 5983   2.108   1.791  16.846  0.7275 -0.2571  0.0984
  400TMC3    O1 5984   2.522   2.035  17.174 -0.2705  0.1498 -0.2814
  400TMC3    O2 5985   2.044   1.895  16.833  0.5127  0.3791 -0.4605
  401MPD2     C 5986   0.244   0.335   1.429  0.3255  0.5112  1.0593
  401MPD2    C1 5987   0.372   0.369   1.406 -0.2462  0.2730  0.1256
  401MPD2    C2 5988   0.476   0.283   1.421  0.4418 -0.6922  0.6398
  401MPD2    C3 5989   0.447   0.143   1.443  1.0599  0.4377 -0.1191
  401MPD2    C4 5990   0.320   0.108   1.466  0.3494 -0.3502 -0.3322
  401MPD2    C5 5991   0.223   0.201   1.455  0.0952  0.0850  0.3479
  401MPD2     H 5992   0.579   0.316   1.428  0.0752  0.5541  0.1768
  401MPD2    H1 5993   0.288   0.005   1.481 -0.9348 -0.1229 -1.5460
  401MPD2    H2 5994   0.155   0.397   1.435  0.8213  1.2378  0.8359
  401MPD2    H3 5995   0.116   0.184   1.465 -0.1129  0.4365 -1.2762
  401MPD2     N 5996   0.553   0.049   1.431 -0.0770  0.1718  0.2609
  401MPD2    H5 5997   0.647   0.077   1.405 -0.2143  0.5708  0.1978
  401MPD2    N1 5998   0.399   0.494   1.350  0.0772  0.3315 -0.1928
  401MPD2    H7 5999   0.498   0.515   1.352 -0.1446  1.4201 -0.5828
  402TMC3    C1 6000   0.652   4.558   1.442  0.3307 -0.0907 -0.9051
  402TMC3    C2 6001   0.702   4.456   1.524 -0.7024 -0.7916  0.5479
  402TMC3    C3 6002   0.828   4.412   1.493  0.3725 -0.4053 -0.4609
  402TMC3    C4 6003   0.737   4.608   1.337 -0.1988 -0.0302 -0.1914
  402TMC3    C5 6004   0.865   4.568   1.328  0.4366 -0.1757 -0.4379
  402TMC3    C6 6005   0.909   4.461   1.393  0.1365  1.2370  0.0209
  402TMC3     C 6006   0.542   4.644   1.483 -0.3911  0.4995  0.1243
  402TMC3     O 6007   0.456   4.594   1.561 -0.0400  0.1699  0.4804
  402TMC3     H 6008   0.638   4.410   1.598 -2.0576  1.0673  0.5222
  402TMC3    H1 6009   0.711   4.692   1.274  1.9172  0.7315 -0.0449
  402TMC3    H2 6010   1.005   4.416   1.371  0.1333  1.4944 -0.5087
  402TMC3    C7 6011   0.942   4.624   1.213  0.2920 -0.0634 -0.3148
  402TMC3    C8 6012   0.860   4.276   1.534 -0.1312 -0.1306  0.6066
  402TMC3    O1 6013   0.896   4.720   1.153  0.3999  0.2813  0.4869
  402TMC3    O2 6014   0.976   4.243   1.538 -0.2865 -0.4064 -1.1231
  403MPD2     C 6015   3.887   3.428  13.333 -0.1272  0.3930  0.2053
  403MPD2    C1 6016   3.892   3.343  13.437  0.2013  0.6236 -0.2106
  403MPD2    C2 6017   3.975   3.375  13.539 -0.2929 -0.0909  0.3206
  403MPD2    C3 6018   4.052   3.494  13.528 -1.0457  0.4482 -0.0146
  403MPD2    C4 6019   4.043   3.571  13.415 -0.5112  0.1705  0.0554
  403MPD2    C5 6020   3.961   3.540  13.318  0.6746 -0.5005  0.0987
  403MPD2     H 6021   3.981   3.316  13.630  1.5508  1.2756  1.0893
  403MPD2    H1 6022   4.111   3.652  13.392  1.3049 -1.5752 -0.7287
  403MPD2    H2 6023   3.836   3.398  13.242 -1.1361 -1.3985  1.3597
  403MPD2    H3 6024   3.954   3.607  13.232  0.7368 -1.1147 -0.3818
  403MPD2     N 6025   4.152   3.510  13.624 -0.1166 -0.0696  0.7247
  403MPD2    H5 6026   4.146   3.439  13.696  2.9244 -0.7290  0.3474
  403MPD2    N1 6027   3.808   3.231  13.427 -0.5232 -0.0618  0.2879
  403MPD2    H7 6028   3.777   3.206  13.333 -2.1291  0.4389  0.6705
  404TMC3    C1 6029   3.706   3.029  13.469 -0.7513  0.1331 -0.5747
  404TMC3    C2 6030   3.698   2.921  13.545 -0.1018  0.3854  0.5792
  404TMC3    C3 6031   3.671   2.797  13.489 -0.3651 -0.0541 -0.2895
  404TMC3    C4 6032   3.678   3.022  13.332  0.2407  0.2670 -0.5874
  404TMC3    C5 6033   3.650   2.903  13.285 -0.4429 -0.0194 -0.8782
  404TMC3    C6 6034   3.659   2.779  13.357  0.1928  0.7706 -0.9751
  404TMC3     C 6035   3.782   3.135  13.527 -0.3172  0.4278  0.0392
  404TMC3     O 6036   3.811   3.136  13.644  0.1768 -0.3295  0.0042
  404TMC3     H 6037   3.727   2.918  13.649  2.1951 -1.5783 -0.0985
  404TMC3    H1 6038   3.659   3.111  13.272 -0.6788  1.4664  1.4687
  404TMC3    H2 6039   3.644   2.679  13.317  1.4977  0.1197  0.1549
  404TMC3    C7 6040   3.624   2.903  13.144  0.1435 -0.3735 -0.5533
  404TMC3    C8 6041   3.712   2.684  13.577  0.1584 -0.1590 -0.6479
  404TMC3    O1 6042   3.697   2.973  13.074 -0.3362  0.1559 -0.2854
  404TMC3    O2 6043   3.823   2.632  13.554  0.0569  0.3967 -0.4826
  405MPD2     C 6044   3.668   3.449  14.376  0.1081 -0.6653 -0.3719
  405MPD2    C1 6045   3.749   3.429  14.270 -0.5321  0.5572 -0.1391
  405MPD2    C2 6046   3.882   3.473  14.272  0.2349  0.6301 -0.0853
  405MPD2    C3 6047   3.928   3.542  14.379 -0.1262  0.0605 -0.0590
  405MPD2    C4 6048   3.845   3.556  14.482  0.7372 -0.0931  0.4183
  405MPD2    C5 6049   3.717   3.515  14.485  0.0571  0.5577 -0.0712
  405MPD2     H 6050   3.944   3.466  14.183  0.1054 -0.9861 -0.0542
  405MPD2    H1 6051   3.871   3.621  14.565  2.0407 -2.8053  2.1323
  405MPD2    H2 6052   3.564   3.420  14.372 -0.3635  0.7391  1.3964
  405MPD2    H3 6053   3.652   3.531  14.570 -1.4385 -3.3227 -0.4702
  405MPD2     N 6054   4.055   3.596  14.363 -0.3794 -0.0866  0.7839
  405MPD2    H5 6055   4.094   3.585  14.270  1.6162  1.6697  1.4245
  405MPD2    N1 6056   3.680   3.359  14.166 -0.5086  0.2811 -0.1749
  405MPD2    H7 6057   3.579   3.361  14.172 -0.5025  0.4961 -0.1452
  406TMC3    C1 6058   4.224   4.019  14.401 -0.4011  0.0425 -0.0727
  406TMC3    C2 6059   4.271   4.012  14.269  0.6176  0.2059  0.6252
  406TMC3    C3 6060   4.282   3.893  14.203 -0.8509 -0.8552 -0.4923
  406TMC3    C4 6061   4.187   3.901  14.459 -0.0855  0.0125  0.5134
  406TMC3    C5 6062   4.191   3.784  14.391  0.4397 -0.4224 -0.1332
  406TMC3    C6 6063   4.235   3.778  14.260  0.0289 -0.0277  0.0494
  406TMC3     C 6064   4.163   4.144  14.440 -0.0654 -0.3975 -0.9032
  406TMC3     O 6065   4.203   4.240  14.377  0.1504 -0.5475 -0.1495
  406TMC3     H 6066   4.300   4.109  14.231 -1.7662  0.1654 -1.2778
  406TMC3    H1 6067   4.151   3.905  14.562 -0.4487 -1.9703  0.4601
  406TMC3    H2 6068   4.264   3.679  14.226  2.5922  1.1200 -1.1415
  406TMC3    C7 6069   4.104   3.683  14.456 -0.3543  0.0949  0.8324
  406TMC3    C8 6070   4.240   3.909  14.071  0.1230  0.4468  0.8621
  406TMC3    O1 6071   4.075   3.700  14.577  0.7702 -0.1647  0.3944
  406TMC3    O2 6072   4.244   4.021  14.031  0.1424  0.8230 -0.2911
  407MPD2     C 6073   1.639   0.129   9.639  0.2287 -0.1101 -0.0271
  407MPD2    C1 6074   1.758   0.197   9.615  0.0267  0.5805  0.5839
  407MPD2    C2 6075   1.791   0.314   9.678 -0.3630  0.4297  0.6549
  407MPD2    C3 6076   1.710   0.367   9.770 -0.0510  0.0501 -0.4219
  407MPD2    C4 6077   1.584   0.302   9.795 -0.1248  0.9406 -0.1049
  407MPD2    C5 6078   1.554   0.184   9.736  0.5814  0.1290 -0.2502
  407MPD2     H 6079   1.889   0.356   9.659 -0.8760  0.3863 -2.0277
  407MPD2    H1 6080   1.514   0.337   9.870 -0.2832 -0.7638  0.5342
  407MPD2    H2 6081   1.609   0.041   9.583  1.5896 -0.5956  0.0072
  407MPD2    H3 6082   1.463   0.138   9.773  0.0183  0.6205 -1.0094
  407MPD2     N 6083   1.748   0.492   9.837 -0.2234 -0.4986  1.2363
  407MPD2    H5 6084   1.843   0.524   9.819  0.4981 -3.5334 -0.4120
  407MPD2    N1 6085   1.850   0.163   9.511  0.0683  0.3066 -0.6593
  407MPD2    H7 6086   1.926   0.226   9.487 -0.7179  0.8615 -1.6869
  408TMC3    C1 6087   1.945   0.059   9.321 -1.1937  0.5418 -0.0774
  408TMC3    C2 6088   2.051   4.697   9.326 -0.2539 -0.2317  0.0043
  408TMC3    C3 6089   2.171   0.028   9.274 -0.8256 -0.6544 -0.7068
  408TMC3    C4 6090   1.944   0.182   9.270  0.8311 -0.2735 -0.8564
  408TMC3    C5 6091   2.062   0.225   9.213  0.1575  0.2217 -0.2521
  408TMC3    C6 6092   2.173   0.153   9.214 -0.0472 -0.2379  0.6334
  408TMC3     C 6093   1.852   0.042   9.437 -0.1378  0.6726  1.2275
  408TMC3     O 6094   1.804   4.656   9.469  0.0447 -0.4945  0.1988
  408TMC3     H 6095   2.032   4.615   9.394 -1.6582  0.8409  0.9058
  408TMC3    H1 6096   1.860   0.248   9.286  2.1663  1.1055  0.4721
  408TMC3    H2 6097   2.264   0.203   9.183 -1.6841  2.0202 -0.5019
  408TMC3    C7 6098   2.076   0.364   9.177  0.4329  0.7120  0.0675
  408TMC3    C8 6099   2.294   4.688   9.317 -0.3800 -0.2146 -0.2894
  408TMC3    O1 6100   2.185   0.419   9.184  0.4597 -0.5549 -0.4163
  408TMC3    O2 6101   2.284   4.571   9.355 -0.5811  0.3713  0.4450
  409MPD2     C 6102   0.863   1.398  17.093  0.1121  0.3106  0.2748
  409MPD2    C1 6103   0.985   1.337  17.092  0.5505  0.0620  0.0763
  409MPD2    C2 6104   1.093   1.417  17.065  0.3256 -0.5863  0.4766
  409MPD2    C3 6105   1.077   1.552  17.046 -0.1970 -0.0724  0.2943
  409MPD2    C4 6106   0.955   1.611  17.038 -0.1521  0.3690 -0.2038
  409MPD2    C5 6107   0.842   1.533  17.066 -0.4404  0.2264 -0.5311
  409MPD2     H 6108   1.195   1.381  17.070  0.4104 -0.3303  0.5556
  409MPD2    H1 6109   0.933   1.711  17.001 -1.9345 -0.0387 -0.2232
  409MPD2    H2 6110   0.779   1.334  17.114 -1.6328  2.4636 -0.1190
  409MPD2    H3 6111   0.746   1.580  17.081 -1.0703 -2.0346  2.6544
  409MPD2     N 6112   1.189   1.639  17.017 -0.4266 -0.5522  0.6665
  409MPD2    H5 6113   1.162   1.735  16.997  1.7062 -0.0555  0.1863
  409MPD2    N1 6114   1.005   1.200  17.139 -0.0953  0.5933 -0.1774
  409MPD2    H7 6115   1.096   1.158  17.149 -0.0836  0.8059  0.6161
  410TMC3    C1 6116   1.423   1.709  17.001  0.1051 -0.5140  0.1862
  410TMC3    C2 6117   1.544   1.713  17.062 -0.2122 -0.3101 -0.4225
  410TMC3    C3 6118   1.641   1.795  17.010 -0.0632 -0.1331  0.0112
  410TMC3    C4 6119   1.399   1.786  16.886 -0.1849  0.0176 -0.0471
  410TMC3    C5 6120   1.500   1.865  16.841 -0.0655  0.4199  0.0220
  410TMC3    C6 6121   1.624   1.870  16.897 -0.8564  0.2494 -0.2854
  410TMC3     C 6122   1.324   1.611  17.037 -0.2091  0.2160 -0.4780
  410TMC3     O 6123   1.368   1.515  17.091 -0.2331  0.2288 -0.2252
  410TMC3     H 6124   1.569   1.651  17.148  0.6681  2.3597  1.2691
  410TMC3    H1 6125   1.306   1.771  16.832 -1.5377 -0.9163  2.5686
  410TMC3    H2 6126   1.703   1.921  16.843 -0.0553  0.8001  1.3913
  410TMC3    C7 6127   1.480   1.900  16.705  0.2593 -0.1744 -1.0526
  410TMC3    C8 6128   1.771   1.754  17.057 -0.3949  0.5693 -0.1936
  410TMC3    O1 6129   1.387   1.840  16.649  0.1635  0.1800 -0.3068
  410TMC3    O2 6130   1.859   1.831  17.094  0.1075 -0.1908  0.0173
  411MPD2     C 6131   1.153   1.962  15.018  0.5261  0.1722 -1.1703
  411MPD2    C1 6132   1.270   1.928  14.954 -0.1116 -0.2039  0.2324
  411MPD2    C2 6133   1.280   1.809  14.882 -0.2358  0.1784 -0.6105
  411MPD2    C3 6134   1.165   1.729  14.861 -0.1278 -0.8539  0.7745
  411MPD2    C4 6135   1.051   1.764  14.933 -0.0810 -0.4152  0.1974
  411MPD2    C5 6136   1.040   1.884  15.000  0.1897  0.2729 -0.1032
  411MPD2     H 6137   1.371   1.792  14.826 -0.2485  1.9417 -1.1536
  411MPD2    H1 6138   0.955   1.717  14.914 -0.1023  0.0571 -0.8404
  411MPD2    H2 6139   1.146   2.057  15.070  0.5800 -0.8092  0.6124
  411MPD2    H3 6140   0.944   1.905  15.045  0.1621 -0.0524 -0.0146
  411MPD2     N 6141   1.157   1.619  14.770 -0.2678  0.3334 -0.3488
  411MPD2    H5 6142   1.071   1.565  14.774 -0.2792  0.0732 -4.3827
  411MPD2    N1 6143   1.376   2.016  14.969  0.1380 -0.2201 -0.1527
  411MPD2    H7 6144   1.356   2.101  15.021 -0.9867 -1.6286  1.6977
  412TMC3    C1 6145   1.224   1.468  14.596 -0.0029 -0.4303  0.3302
  412TMC3    C2 6146   1.116   1.387  14.622 -0.0978  0.6833  0.0140
  412TMC3    C3 6147   1.085   1.296  14.525 -0.5141 -0.7431 -1.0357
  412TMC3    C4 6148   1.285   1.473  14.475  0.5508  0.0321 -0.2531
  412TMC3    C5 6149   1.253   1.375  14.387  0.8494 -0.0479 -0.2333
  412TMC3    C6 6150   1.161   1.279  14.409  0.1970  0.2635  0.1750
  412TMC3     C 6151   1.260   1.574  14.688 -0.0771  0.1743  0.0545
  412TMC3     O 6152   1.368   1.629  14.666  0.2202 -0.3055  0.5756
  412TMC3     H 6153   1.071   1.387  14.721 -1.2717 -2.8577 -0.5056
  412TMC3    H1 6154   1.364   1.543  14.454 -0.4744  1.3660  0.3451
  412TMC3    H2 6155   1.136   1.199  14.341  0.0373  1.8356 -1.6269
  412TMC3    C7 6156   1.238   1.417  14.245  0.3161  0.6466  0.4190
  412TMC3    C8 6157   0.944   1.264  14.508  0.1640  0.4406  0.4859
  412TMC3    O1 6158   1.150   1.353  14.185 -0.1663  0.5136  0.3701
  412TMC3    O2 6159   0.869   1.247  14.603  0.4012 -0.3579 -0.4293
  413MPD2     C 6160   2.781   4.703  15.675 -0.0960 -0.3035  0.2873
  413MPD2    C1 6161   2.833   0.066  15.587 -0.6456 -0.0270 -0.0477
  413MPD2    C2 6162   2.968   0.050  15.548 -0.1487  0.3182  0.2027
  413MPD2    C3 6163   3.045   4.681  15.616  0.3144  0.0649  0.5656
  413MPD2    C4 6164   2.985   4.594  15.702  0.1154  0.1563  0.1767
  413MPD2    C5 6165   2.849   4.597  15.726  0.3120  0.3640  0.3477
  413MPD2     H 6166   3.013   0.111  15.471  2.5198  0.7969  2.1368
  413MPD2    H1 6167   3.052   4.520  15.745  0.3560  0.0852 -0.3217
  413MPD2    H2 6168   2.679   4.711  15.711 -0.1717 -0.6640  0.1564
  413MPD2    H3 6169   2.808   4.519  15.788 -1.3385 -0.0477 -1.2743
  413MPD2     N 6170   3.182   4.674  15.583 -0.2554  0.3527 -0.9270
  413MPD2    H5 6171   3.221   0.024  15.525  1.5659 -0.7094 -1.0491
  413MPD2    N1 6172   2.763   0.180  15.544  0.1131 -0.5609 -0.0338
  413MPD2    H7 6173   2.685   0.215  15.600 -2.3113 -1.5827 -2.7543
  414TMC3    C1 6174   3.412   4.622  15.582 -0.4147  0.0918  1.1319
  414TMC3    C2 6175   3.519   4.590  15.652 -0.2228 -0.1772 -0.6466
  414TMC3    C3 6176   3.639   4.638  15.598  0.1090  0.6343 -1.1129
  414TMC3    C4 6177   3.426   4.688  15.467 -0.0506  0.2651 -0.3282
  414TMC3    C5 6178   3.541   0.016  15.425  0.4181 -0.2912  0.1127
  414TMC3    C6 6179   3.658   4.712  15.488  0.0690  0.2942  0.0277
  414TMC3     C 6180   3.279   4.590  15.634  0.4171  0.5043 -0.1295
  414TMC3     O 6181   3.272   4.508  15.723 -0.4389  0.1704 -0.5405
  414TMC3     H 6182   3.511   4.538  15.747  1.6750 -1.7775 -1.3890
  414TMC3    H1 6183   3.340   4.718  15.409 -1.3620  0.0535  1.5283
  414TMC3    H2 6184   3.751   0.043  15.471  1.8415 -2.0236  2.2768
  414TMC3    C7 6185   3.555   4.704  15.287 -0.1699  0.4258  0.6764
  414TMC3    C8 6186   3.749   4.545  15.596  0.5234  0.1876  0.3656
  414TMC3    O1 6187   3.480   0.029  15.203 -0.4621 -0.7115  0.0167
  414TMC3    O2 6188   3.798   4.537  15.484 -0.2397 -0.5066 -0.1217
  415TMC3    C1 6189   4.433   2.916  10.311 -0.1900  0.9204  0.5910
  415TMC3    C2 6190   4.538   2.886  10.229 -0.2584 -0.2427 -0.3722
  415TMC3    C3 6191   4.499   2.851  10.097  0.8928 -1.2446  0.0792
  415TMC3    C4 6192   4.302   2.917  10.271 -0.2136  0.9375 -0.0387
  415TMC3    C5 6193   4.276   2.897  10.140  0.0746 -0.0682 -0.1765
  415TMC3    C6 6194   4.375   2.866  10.051 -0.1555  0.4758 -0.2337
  415TMC3     C 6195   4.442   2.874  10.448  0.2407  0.8874  0.0884
  415TMC3     O 6196   4.341   2.865  10.509 -0.1900 -0.1487 -0.1459
  415TMC3     H 6197   4.640   2.862  10.257 -1.1114 -2.8020  0.5103
  415TMC3    H1 6198   4.226   2.967  10.329 -0.2679  0.9453 -0.1163
  415TMC3    H2 6199   4.348   2.834   9.951  0.5022  1.8803 -0.8590
  415TMC3    C7 6200   4.138   2.912  10.094 -0.9623 -0.4226 -0.1592
  415TMC3    C8 6201   4.600   2.827   9.995 -0.4629  0.0320 -0.5807
  415TMC3    O1 6202   4.115   2.954   9.982  0.4488  0.3479  0.0806
  415TMC3    O2 6203   4.586   2.728   9.928  0.6614 -0.6272  0.6313
  416MPD2     C 6204   1.212   1.734  11.581  0.6164  0.1465  0.5052
  416MPD2    C1 6205   1.089   1.722  11.516 -0.4416 -0.5552  0.1943
  416MPD2    C2 6206   1.067   1.624  11.414  0.7251  0.1306 -0.2841
  416MPD2    C3 6207   1.171   1.540  11.393  0.6111 -0.9684 -0.2559
  416MPD2    C4 6208   1.296   1.559  11.454  0.5583  0.0710  0.0079
  416MPD2    C5 6209   1.316   1.654  11.546 -0.5578  0.6638  0.3626
  416MPD2     H 6210   0.969   1.610  11.370 -0.1077  1.0402  1.2803
  416MPD2    H1 6211   1.371   1.481  11.455 -0.0362 -0.5034  0.4961
  416MPD2    H2 6212   1.235   1.800  11.663 -1.1656  0.7981  0.4845
  416MPD2    H3 6213   1.412   1.667  11.596  0.0209 -0.7934 -0.3744
  416MPD2     N 6214   1.154   1.427  11.309  0.4523  0.1173 -0.3358
  416MPD2    H5 6215   1.227   1.357  11.316  0.0987  0.0298  2.8538
  416MPD2    N1 6216   0.987   1.815  11.542 -0.1939  0.0165  0.5506
  416MPD2    H7 6217   0.905   1.812  11.483  0.0160  0.0385  0.2576
  417TMC3    C1 6218   0.881   1.987  11.647  0.5472 -0.2662  0.5202
  417TMC3    C2 6219   0.836   2.028  11.771  0.5850  0.1502  0.4903
  417TMC3    C3 6220   0.705   2.067  11.778 -0.7929 -0.4711 -0.0307
  417TMC3    C4 6221   0.808   1.991  11.537  0.0991  0.1653  0.5633
  417TMC3    C5 6222   0.678   2.029  11.549 -0.1115  0.0490 -0.0855
  417TMC3    C6 6223   0.624   2.061  11.668  0.6476  0.5837 -0.5163
  417TMC3     C 6224   0.993   1.904  11.651 -0.0762  0.4256  0.1669
  417TMC3     O 6225   1.070   1.911  11.745 -0.0965  0.1446  0.3224
  417TMC3     H 6226   0.896   2.016  11.860  0.6257  1.1693  0.5999
  417TMC3    H1 6227   0.844   1.976  11.436  0.3210  0.8354  0.5445
  417TMC3    H2 6228   0.538   2.127  11.665  0.7024  0.4544 -4.8390
  417TMC3    C7 6229   0.633   2.106  11.430  0.5237 -0.5355  0.1714
  417TMC3    C8 6230   0.659   2.091  11.908 -0.2133  0.3253  0.7179
  417TMC3    O1 6231   0.723   2.149  11.359 -0.4385 -0.0643 -0.4616
  417TMC3    O2 6232   0.741   2.119  11.994 -0.5602  0.3141  0.3166
  418TMC3    C1 6233   4.128   3.391   0.539  0.0959 -0.5400  0.1384
  418TMC3    C2 6234   4.004   3.440   0.509 -0.3518  1.0393 -0.2666
  418TMC3    C3 6235   3.909   3.455   0.611 -0.1094 -0.1423 -0.2135
  418TMC3    C4 6236   4.151   3.335   0.666 -0.3296 -0.8719  0.4447
  418TMC3    C5 6237   4.057   3.349   0.767 -0.4153 -0.2901 -0.2804
  418TMC3    C6 6238   3.934   3.417   0.741 -0.2429 -1.0923  0.5955
  418TMC3     C 6239   4.234   3.380   0.443 -0.3704 -0.2342  0.3961
  418TMC3     O 6240   4.265   3.475   0.373  0.2727 -0.3911 -0.4367
  418TMC3     H 6241   3.997   3.485   0.411  1.4790  1.1663 -0.3423
  418TMC3    H1 6242   4.244   3.286   0.693  0.3841 -0.0728 -0.5365
  418TMC3    H2 6243   3.866   3.453   0.817  0.6504  2.0164 -0.0611
  418TMC3    C7 6244   4.074   3.253   0.873 -1.3821 -0.1509 -0.3483
  418TMC3    C8 6245   3.775   3.441   0.563 -0.6841  0.3403  0.4395
  418TMC3    O1 6246   4.129   3.146   0.848  0.6384  0.0635  0.0539
  418TMC3    O2 6247   3.684   3.485   0.630 -0.1348  0.2360 -0.3642
  419MPD2     C 6248   1.850   1.537  12.523  0.9406 -0.3923 -0.5078
  419MPD2    C1 6249   1.962   1.534  12.606 -0.0257 -0.0889 -0.2937
  419MPD2    C2 6250   1.960   1.597  12.726  0.5574 -0.5318  0.5189
  419MPD2    C3 6251   1.847   1.666  12.756  0.4830 -0.9810  0.4184
  419MPD2    C4 6252   1.729   1.666  12.677 -0.5493  0.1666  0.1870
  419MPD2    C5 6253   1.734   1.592  12.566 -0.2623 -0.2131  0.9112
  419MPD2     H 6254   2.040   1.591  12.799 -0.2432 -3.0642  1.1682
  419MPD2    H1 6255   1.634   1.709  12.707 -1.7768 -2.6238  0.3392
  419MPD2    H2 6256   1.846   1.492  12.425 -1.1896  1.9252 -1.4782
  419MPD2    H3 6257   1.643   1.569  12.513  0.4674 -1.0812  0.0464
  419MPD2     N 6258   1.858   1.730  12.876 -0.4221  0.1647 -0.0962
  419MPD2    H5 6259   1.944   1.704  12.924 -1.0339  1.1322  1.5186
  419MPD2    N1 6260   2.087   1.482  12.566  0.4344 -0.0370 -0.1385
  419MPD2    H7 6261   2.164   1.475  12.633 -0.7586 -1.6967  1.0508
  420TMC3    C1 6262   1.824   1.894  13.039 -0.0930  0.3164 -0.3328
  420TMC3    C2 6263   1.767   2.006  13.059 -0.1143  0.3831  0.5826
  420TMC3    C3 6264   1.838   2.123  13.066 -0.1970 -0.6594  0.1444
  420TMC3    C4 6265   1.961   1.882  13.056 -0.3799 -0.0414  0.2703
  420TMC3    C5 6266   2.040   1.992  13.071 -0.0823  0.4995  0.0801
  420TMC3    C6 6267   1.976   2.113  13.079 -0.0485 -0.2658 -0.1300
  420TMC3     C 6268   1.781   1.834  12.916 -0.6030  0.3323  0.3427
  420TMC3     O 6269   1.696   1.901  12.851  0.0732  0.8617  0.8160
  420TMC3     H 6270   1.658   2.003  13.061 -0.0987  0.2526  1.1017
  420TMC3    H1 6271   2.013   1.787  13.059 -1.3765 -0.4787  3.9079
  420TMC3    H2 6272   2.040   2.201  13.081  0.7777 -0.8498 -0.9530
  420TMC3    C7 6273   2.162   1.970  13.150 -0.0022  0.1018  0.3787
  420TMC3    C8 6274   1.799   2.232  12.982 -0.3695 -0.1047  0.3510
  420TMC3    O1 6275   2.174   1.867  13.215 -0.1021  0.5434  0.0942
  420TMC3    O2 6276   1.836   2.346  13.014  0.0783  0.4396 -0.3203
  421TMC3    C1 6277   4.352   3.584  13.730 -0.3644  0.7938  0.0684
  421TMC3    C2 6278   4.432   3.688  13.768 -0.0932  0.4866  0.3555
  421TMC3    C3 6279   4.544   3.655  13.847  0.5511 -0.7530  0.4768
  421TMC3    C4 6280   4.389   3.455  13.744 -0.5330 -0.4503 -0.8540
  421TMC3    C5 6281   4.504   3.428  13.815  0.4909 -0.2570  0.3495
  421TMC3    C6 6282   4.585   3.525  13.871  0.3098 -0.2571  0.1265
  421TMC3     C 6283   4.244   3.610  13.627  0.0815  0.2867 -0.2727
  421TMC3     O 6284   4.249   3.720  13.573  0.0946  0.0883 -0.2245
  421TMC3     H 6285   4.419   3.786  13.726 -0.9456  0.2878  0.1656
  421TMC3    H1 6286   4.341   3.379  13.684  1.1646 -1.1778 -1.2984
  421TMC3    H2 6287   4.659   3.493  13.944  0.0577  0.7331  0.8209
  421TMC3    C7 6288   4.523   3.296  13.865  0.3424  0.1506  1.3426
  421TMC3    C8 6289   4.634   3.755  13.902  0.0803  0.3278  0.4691
  421TMC3    O1 6290   4.540   3.289  13.986  0.0581 -0.3225 -0.5474
  421TMC3    O2 6291   0.011   3.702  13.951  0.0182  0.8659  0.4612
  422TMC3    C1 6292   1.701   4.649  12.625  0.9135  0.2726  0.7835
  422TMC3    C2 6293   1.653   0.051  12.643  0.4420 -0.1088  0.3421
  422TMC3    C3 6294   1.520   0.074  12.680  0.3114  0.3302  0.2335
  422TMC3    C4 6295   1.630   4.538  12.651 -0.4111  0.6080 -0.6340
  422TMC3    C5 6296   1.502   4.559  12.691 -0.4979 -0.2005 -0.8588
  422TMC3    C6 6297   1.442   4.686  12.698  0.1981  0.7309 -0.1020
  422TMC3     C 6298   1.833   4.627  12.564 -0.2142  0.9385 -0.3636
  422TMC3     O 6299   1.874   4.716  12.490 -0.2443 -0.6826  0.2907
  422TMC3     H 6300   1.714   0.137  12.617  2.0723 -1.5473 -0.6076
  422TMC3    H1 6301   1.671   4.438  12.653  1.2376  1.2942 -0.4257
  422TMC3    H2 6302   1.339   4.699  12.730 -0.3705 -1.7749 -0.8615
  422TMC3    C7 6303   1.420   4.447  12.733  0.5176  0.5636 -0.2933
  422TMC3    C8 6304   1.476   0.207  12.688 -0.1598  0.3963  0.2615
  422TMC3    O1 6305   1.453   4.340  12.680 -0.4292  0.0589 -0.5765
  422TMC3    O2 6306   1.555   0.279  12.744 -0.2442 -0.7693 -0.7031
  423MPD2     C 6307   3.355   0.961   0.711 -0.4127 -1.0655  0.1642
  423MPD2    C1 6308   3.235   0.898   0.731 -0.5391  0.6841  0.1779
  423MPD2    C2 6309   3.185   0.825   0.623  0.6418 -0.2355 -0.6133
  423MPD2    C3 6310   3.254   0.798   0.515 -0.3484 -0.5606  0.6279
  423MPD2    C4 6311   3.372   0.865   0.496  0.4450 -0.6374 -0.2351
  423MPD2    C5 6312   3.415   0.943   0.592  0.0140  0.0381  0.4052
  423MPD2     H 6313   3.088   0.783   0.642 -0.2416  1.9774 -0.1864
  423MPD2    H1 6314   3.429   0.881   0.405 -0.0620  1.4487 -0.1773
  423MPD2    H2 6315   3.393   1.031   0.785  0.6550  1.2028 -2.5279
  423MPD2    H3 6316   3.512   0.986   0.571 -0.8050  2.3484  1.3281
  423MPD2     N 6317   3.212   0.730   0.403  0.2927 -0.0784  0.6063
  423MPD2    H5 6318   3.267   0.727   0.318  0.4123 -2.2970  0.7666
  423MPD2    N1 6319   3.154   0.919   0.843  0.3889 -0.5354 -0.2287
  423MPD2    H7 6320   3.058   0.885   0.846  0.6135 -0.9772  2.3884
  424TMC3    C1 6321   3.079   0.953   1.056 -0.0380  1.1046  0.4879
  424TMC3    C2 6322   3.112   0.921   1.184  0.2308  0.3228 -0.4428
  424TMC3    C3 6323   3.027   0.844   1.259 -0.4647 -0.2982  0.0223
  424TMC3    C4 6324   2.952   0.926   1.010 -0.2355  0.2228 -0.8031
  424TMC3    C5 6325   2.863   0.861   1.095 -0.0691 -0.1332  0.6335
  424TMC3    C6 6326   2.898   0.811   1.218 -0.4049 -0.2028 -0.0044
  424TMC3     C 6327   3.188   0.960   0.970 -0.1987 -0.3246 -0.0237
  424TMC3     O 6328   3.296   1.000   1.014  0.4111  0.0306  0.4713
  424TMC3     H 6329   3.210   0.941   1.226 -0.3007  1.6964  0.1674
  424TMC3    H1 6330   2.920   0.956   0.911 -1.8622 -1.0156 -0.6499
  424TMC3    H2 6331   2.829   0.754   1.279 -1.3204  0.7891 -0.1243
  424TMC3    C7 6332   2.742   0.810   1.031 -0.0983 -0.6208  0.0838
  424TMC3    C8 6333   3.084   0.770   1.367  0.1483 -0.4544 -0.0248
  424TMC3    O1 6334   2.734   0.816   0.912 -0.1769  0.2747  0.2161
  424TMC3    O2 6335   3.023   0.669   1.398  0.2154 -0.3180  0.5408
  425MPD2     C 6336   2.105   0.364  17.335  0.1011  0.0938 -0.5418
  425MPD2    C1 6337   2.060   0.255  17.261 -0.5800  0.6766  0.2647
  425MPD2    C2 6338   1.925   0.257  17.220 -0.8473 -0.2949  0.1465
  425MPD2    C3 6339   1.837   0.349  17.265  0.2110  0.6318 -0.1702
  425MPD2    C4 6340   1.879   0.452  17.351  0.0919  0.1167 -1.7910
  425MPD2    C5 6341   2.017   0.457  17.376 -0.0220  0.4645  0.3784
  425MPD2     H 6342   1.886   0.175  17.162 -2.9861 -0.5301  1.9173
  425MPD2    H1 6343   1.808   0.520  17.397 -2.5713 -4.0444  0.2825
  425MPD2    H2 6344   2.207   0.377  17.370 -0.3655 -2.2513  1.7052
  425MPD2    H3 6345   2.051   0.543  17.432  0.3111  0.1253  0.6990
  425MPD2     N 6346   1.705   0.333  17.226 -0.3880 -0.4622 -0.2663
  425MPD2    H5 6347   1.686   0.248  17.173 -0.1925 -0.1534 -0.8296
  425MPD2    N1 6348   2.148   0.149  17.230 -0.1377  0.5495 -0.1334
  425MPD2    H7 6349   2.232   0.154  17.286 -1.3686  0.5134  1.7180
  426TMC3    C1 6350   2.229   4.661  17.175 -0.3925  0.2970  0.7767
  426TMC3    C2 6351   2.244   4.578  17.069  0.0893 -0.4216 -0.1806
  426TMC3    C3 6352   2.309   4.466  17.098 -0.2492  0.2663  0.2028
  426TMC3    C4 6353   2.282   4.644  17.299  0.1245 -0.2462  0.3483
  426TMC3    C5 6354   2.341   4.521  17.322  0.4199  0.0529 -0.0327
  426TMC3    C6 6355   2.362   4.435  17.218  0.1771 -0.0788 -0.4891
  426TMC3     C 6356   2.117   0.030  17.168  0.3337 -0.6720  0.0118
  426TMC3     O 6357   2.015   4.710  17.116 -0.5651  0.6117  0.1647
  426TMC3     H 6358   2.207   4.608  16.972 -1.6339  2.0299  1.2451
  426TMC3    H1 6359   2.275   4.710  17.384 -0.6329  1.2826 -0.9006
  426TMC3    H2 6360   2.418   4.343  17.230  0.2451  0.3553  2.5202
  426TMC3    C7 6361   2.404   4.481  17.442 -0.2296 -0.5781 -0.7363
  426TMC3    C8 6362   2.323   4.362  17.004 -0.7868 -0.2386  0.4570
  426TMC3    O1 6363   2.499   4.407  17.442  0.0365  0.1381 -0.4637
  426TMC3    O2 6364   2.426   4.300  16.990  0.6720 -0.7614 -0.2585
  427MPD2     C 6365   0.671   1.908  15.024  0.4153 -0.0157  0.2525
  427MPD2    C1 6366   0.656   1.935  15.158 -0.4525  0.5016  0.0329
  427MPD2    C2 6367   0.557   2.033  15.194  0.0043  0.0254 -0.3214
  427MPD2    C3 6368   0.471   2.084  15.098  0.3156  0.1603  0.2182
  427MPD2    C4 6369   0.495   2.047  14.965  0.3480  0.3006 -0.0764
  427MPD2    C5 6370   0.593   1.965  14.927  0.7023 -0.8091  0.3034
  427MPD2     H 6371   0.549   2.055  15.300  0.2693 -2.1839  0.1723
  427MPD2    H1 6372   0.425   2.086  14.892  3.0503 -0.3181 -3.0134
  427MPD2    H2 6373   0.751   1.845  14.986 -0.9944 -0.4087 -2.1068
  427MPD2    H3 6374   0.607   1.943  14.822  1.2811 -0.3488  0.2820
  427MPD2     N 6375   0.358   2.157  15.119  0.2233 -0.1213 -0.0657
  427MPD2    H5 6376   0.301   2.182  15.039  1.0195  1.0710 -0.2636
  427MPD2    N1 6377   0.745   1.884  15.255  0.1846  0.6274  0.1010
  427MPD2    H7 6378   0.736   1.917  15.351 -1.2944  2.6026 -0.6946
  428TMC3    C1 6379   0.904   1.729  15.341  0.3026 -0.0561  0.1616
  428TMC3    C2 6380   0.932   1.596  15.368  0.4052  0.6053  0.6858
  428TMC3    C3 6381   0.992   1.564  15.483 -0.1179 -0.1053 -0.7034
  428TMC3    C4 6382   0.948   1.829  15.421 -0.1812 -0.7769 -0.4179
  428TMC3    C5 6383   1.020   1.794  15.535 -0.1877  0.1295 -0.5212
  428TMC3    C6 6384   1.043   1.661  15.566 -0.8459  0.6972  1.0915
  428TMC3     C 6385   0.813   1.762  15.233 -0.7687 -0.1335 -0.4203
  428TMC3     O 6386   0.806   1.681  15.141  0.7229 -0.6554 -0.3460
  428TMC3     H 6387   0.879   1.523  15.307  0.1604 -0.6704  2.4087
  428TMC3    H1 6388   0.929   1.935  15.405 -2.5710 -1.3239 -1.2585
  428TMC3    H2 6389   1.119   1.638  15.641 -0.4952 -0.8961  0.2512
  428TMC3    C7 6390   1.113   1.890  15.583 -0.2661  0.0238  0.2425
  428TMC3    C8 6391   1.053   1.431  15.480  0.2867 -0.6537 -0.4547
  428TMC3    O1 6392   1.118   1.906  15.703 -0.4453 -0.2244 -0.1235
  428TMC3    O2 6393   1.066   1.377  15.372  0.5213 -0.5043 -0.2073
  429MPD2     C 6394   1.322   2.319  17.674 -0.2718  1.2996 -0.1661
  429MPD2    C1 6395   1.406   2.235  17.601 -0.2067  0.4277  0.5626
  429MPD2    C2 6396   1.488   2.306  17.511 -0.0233 -0.3221  0.1674
  429MPD2    C3 6397   1.478   2.446  17.498  0.1928 -0.4644 -1.2396
  429MPD2    C4 6398   1.383   2.517  17.565  0.0897  0.1358 -0.2353
  429MPD2    C5 6399   1.314   2.451  17.653 -0.3149 -0.2210 -0.1432
  429MPD2     H 6400   1.560   2.250  17.453 -0.0927 -0.1644 -0.0717
  429MPD2    H1 6401   1.347   2.619  17.552  0.3048  0.2946  0.4372
  429MPD2    H2 6402   1.262   2.269   0.054 -0.2267  0.6004 -0.5981
  429MPD2    H3 6403   1.239   2.504   0.015  0.9554 -0.5389  1.8466
  429MPD2     N 6404   1.572   2.511  17.413 -0.1372  0.7048  0.6591
  429MPD2    H5 6405   1.661   2.467  17.395 -1.0882 -0.3910 -1.4604
  429MPD2    N1 6406   1.411   2.091  17.625  0.0368  0.1310 -0.0790
  429MPD2    H7 6407   1.495   2.043  17.596  1.0985  1.0554  1.4456
  430TMC3    C1 6408   1.690   2.677  17.309 -0.6047  0.5521  0.1525
  430TMC3    C2 6409   1.680   2.751  17.200 -0.3145  0.3637  0.2568
  430TMC3    C3 6410   1.800   2.754  17.125  0.5880 -0.5409 -0.2730
  430TMC3    C4 6411   1.805   2.608  17.351 -0.2728 -0.1441  0.1698
  430TMC3    C5 6412   1.921   2.633  17.285  0.7145  0.0695 -0.1604
  430TMC3    C6 6413   1.917   2.698  17.169  0.2697  1.2922 -0.0435
  430TMC3     C 6414   1.569   2.644  17.371  1.1322  0.2931 -0.1491
  430TMC3     O 6415   1.480   2.724  17.361 -0.7548 -0.2098  0.2417
  430TMC3     H 6416   1.583   2.790  17.170 -2.6720 -2.6573  4.0291
  430TMC3    H1 6417   1.821   2.568  17.451  0.6227 -0.5129 -0.1135
  430TMC3    H2 6418   1.995   2.684  17.094  1.4412  0.0577  1.3949
  430TMC3    C7 6419   2.024   2.540  17.316  0.0891 -0.3940 -0.4490
  430TMC3    C8 6420   1.788   2.778  16.978 -0.3689  0.6979  0.3324
  430TMC3    O1 6421   1.988   2.440  17.373  0.8753 -0.4680  0.0614
  430TMC3    O2 6422   1.890   2.757  16.912  0.2860 -0.5930  0.6413
  431MPD2     C 6423   2.683   1.899  12.966  0.0618 -0.5406 -0.4495
  431MPD2    C1 6424   2.725   1.916  12.834  0.4219  0.1288 -0.6020
  431MPD2    C2 6425   2.675   1.837  12.732 -0.1715  0.6398 -0.3651
  431MPD2    C3 6426   2.596   1.727  12.763  0.3157 -0.5524 -0.4778
  431MPD2    C4 6427   2.554   1.716  12.891 -0.5751  0.0890  0.1488
  431MPD2    C5 6428   2.601   1.795  12.992 -0.3814  0.7011 -0.0591
  431MPD2     H 6429   2.714   1.849  12.631  1.1141 -4.5628 -0.5038
  431MPD2    H1 6430   2.489   1.638  12.929 -0.7863 -0.2843 -0.9821
  431MPD2    H2 6431   2.704   1.968  13.048  4.6776 -1.5507 -0.7784
  431MPD2    H3 6432   2.575   1.776  13.096 -1.0308 -0.1215 -0.3689
  431MPD2     N 6433   2.540   1.636  12.673  0.8465 -0.0671 -0.1213
  431MPD2    H5 6434   2.478   1.567  12.715  2.5995 -2.0738 -0.8733
  431MPD2    N1 6435   2.816   2.021  12.800  0.4698  0.7284 -0.1057
  431MPD2    H7 6436   2.820   2.046  12.702  0.3213  1.7644  0.1467
  432TMC3    C1 6437   2.473   1.537  12.462 -0.8262 -0.8181 -0.1781
  432TMC3    C2 6438   2.514   1.495  12.333 -0.1324 -0.7216  0.3749
  432TMC3    C3 6439   2.428   1.421  12.264 -0.5758  0.1145  0.1680
  432TMC3    C4 6440   2.343   1.515  12.507 -0.5529  0.6590 -0.1214
  432TMC3    C5 6441   2.264   1.428  12.431  0.0939 -0.5984 -0.2101
  432TMC3    C6 6442   2.305   1.376  12.316 -0.1700  0.0039 -0.1967
  432TMC3     C 6443   2.567   1.616  12.542 -0.1845  0.1711  0.5610
  432TMC3     O 6444   2.644   1.683  12.475  0.5616  0.5313 -0.9882
  432TMC3     H 6445   2.613   1.525  12.300 -0.0214 -0.6641  0.7651
  432TMC3    H1 6446   2.307   1.568  12.595 -2.4704 -0.9989  0.0984
  432TMC3    H2 6447   2.250   1.293  12.273  1.0418 -1.1896  0.5698
  432TMC3    C7 6448   2.121   1.426  12.447 -1.0568  0.5360  0.0314
  432TMC3    C8 6449   2.459   1.358  12.139 -0.6127  0.9199 -0.1815
  432TMC3    O1 6450   2.044   1.391  12.358 -0.0601  0.2518  0.4775
  432TMC3    O2 6451   2.382   1.271  12.100 -0.1025  0.4108  0.2151
  433MPD2     C 6452   1.944   1.181  10.837  0.1945 -0.2341  0.7453
  433MPD2    C1 6453   1.835   1.117  10.889 -0.0437  0.3551  0.7434
  433MPD2    C2 6454   1.786   1.138  11.018 -0.5083  0.1279 -0.1890
  433MPD2    C3 6455   1.853   1.227  11.099  0.0951  0.2605  0.5339
  433MPD2    C4 6456   1.963   1.292  11.050 -0.0612  0.1963 -0.6500
  433MPD2    C5 6457   2.010   1.267  10.919 -0.3265 -0.1778  0.2308
  433MPD2     H 6458   1.708   1.073  11.056  0.4826 -0.5249  0.7039
  433MPD2    H1 6459   2.029   1.352  11.112  0.3176 -1.2883  0.3771
  433MPD2    H2 6460   1.991   1.151  10.745 -1.7388 -0.3859 -0.1958
  433MPD2    H3 6461   2.103   1.315  10.890  0.4959 -0.5459  2.2876
  433MPD2     N 6462   1.808   1.231  11.230 -0.2089 -0.1570  0.2569
  433MPD2    H5 6463   1.738   1.163  11.257 -0.3455 -0.6503 -1.3606
  433MPD2    N1 6464   1.794   1.013  10.807  0.6191 -0.0653  0.1197
  433MPD2    H7 6465   1.838   1.005  10.716 -1.6209  2.1240 -1.1601
  434TMC3    C1 6466   1.711   0.798  10.752  0.6061 -0.0089  0.5705
  434TMC3    C2 6467   1.726   0.684  10.816  0.1142  0.5156 -0.8854
  434TMC3    C3 6468   1.804   0.581  10.766 -0.1082  0.2492  0.1304
  434TMC3    C4 6469   1.770   0.808  10.631 -0.8755 -0.0276 -0.2511
  434TMC3    C5 6470   1.826   0.705  10.565 -0.1515  0.3246  0.3073
  434TMC3    C6 6471   1.849   0.588  10.637  0.3193  0.2443  0.5303
  434TMC3     C 6472   1.705   0.913  10.845 -0.2795 -0.5810 -0.2458
  434TMC3     O 6473   1.632   0.894  10.940  0.5162  0.2329 -0.0069
  434TMC3     H 6474   1.674   0.673  10.910 -0.5694  0.8730 -1.2189
  434TMC3    H1 6475   1.740   0.896  10.575 -1.8070  0.0042  0.2988
  434TMC3    H2 6476   1.897   0.503  10.589  2.4958  0.1340  2.8549
  434TMC3    C7 6477   1.770   0.678  10.434 -0.4373  0.2688  0.1613
  434TMC3    C8 6478   1.890   0.532  10.871  0.5718  0.2794  0.2779
  434TMC3    O1 6479   1.672   0.745  10.401  0.1576  0.0266 -0.4896
  434TMC3    O2 6480   1.872   0.566  10.988 -0.2468  0.3777  0.4656
  435MPD2     C 6481   3.558   0.586  15.467 -0.0505 -0.3212  0.1649
  435MPD2    C1 6482   3.575   0.644  15.594  0.8426 -0.4392 -0.9412
  435MPD2    C2 6483   3.669   0.579  15.677  0.6580  0.1651 -0.0736
  435MPD2    C3 6484   3.732   0.462  15.639  0.1280 -0.4414 -0.4466
  435MPD2    C4 6485   3.698   0.409  15.512 -0.0735 -0.0789 -0.6240
  435MPD2    C5 6486   3.628   0.478  15.428  0.0856 -0.0962 -0.3777
  435MPD2     H 6487   3.676   0.622  15.777 -1.1773  1.4484 -0.4979
  435MPD2    H1 6488   3.738   0.314  15.478  0.8447 -0.1442  0.6498
  435MPD2    H2 6489   3.489   0.624  15.392 -1.1213 -0.5661  1.0287
  435MPD2    H3 6490   3.613   0.440  15.328  1.6139 -0.8704 -0.2971
  435MPD2     N 6491   3.813   0.403  15.741 -0.3797  0.0603 -0.0146
  435MPD2    H5 6492   3.821   0.455  15.828 -2.7721 -0.1907  0.3544
  435MPD2    N1 6493   3.502   0.752  15.647  0.5249 -0.0021 -0.0016
  435MPD2    H7 6494   3.515   0.762  15.747  1.0269 -2.2608  0.1572
  436TMC3    C1 6495   3.231   1.018  15.834  0.2271  0.8258 -0.0656
  436TMC3    C2 6496   3.311   0.919  15.779 -0.4997 -0.3903  0.0929
  436TMC3    C3 6497   3.340   0.926  15.641  0.9767 -0.7193  0.5061
  436TMC3    C4 6498   3.187   1.123  15.763 -0.3751 -0.4856 -0.1665
  436TMC3    C5 6499   3.197   1.114  15.629  0.0093  0.5424  0.5217
  436TMC3    C6 6500   3.270   1.015  15.559  0.9908 -0.7570 -0.3834
  436TMC3     C 6501   3.245   1.032  15.979 -0.4293  0.4822  0.1115
  436TMC3     O 6502   3.346   0.987  16.036  0.1309  0.3786  0.2313
  436TMC3     H 6503   3.353   0.847  15.849  1.1488  0.5033  0.0354
  436TMC3    H1 6504   3.161   1.214  15.815 -1.5906 -1.7294  1.4025
  436TMC3    H2 6505   3.272   1.011  15.451 -0.9482  0.4571 -0.4779
  436TMC3    C7 6506   3.106   1.194  15.548  0.0979  0.4331  0.3249
  436TMC3    C8 6507   3.408   0.821  15.569  0.3903 -0.1351 -0.0580
  436TMC3    O1 6508   3.126   1.197  15.426 -0.1188 -0.0516  0.3099
  436TMC3    O2 6509   3.400   0.826  15.449  0.4939 -0.2070  0.0523
  437TMC3    C1 6510   2.560   2.822  12.187  0.1243  0.3572 -0.0338
  437TMC3    C2 6511   2.499   2.769  12.078 -0.0746  0.3403  0.9578
  437TMC3    C3 6512   2.552   2.794  11.957  0.2429  0.3162  0.0390
  437TMC3    C4 6513   2.671   2.903  12.172  0.0748 -0.4521  0.1898
  437TMC3    C5 6514   2.703   2.938  12.047 -0.2910  0.4301  0.9037
  437TMC3    C6 6515   2.638   2.894  11.940  0.5878 -0.2812 -0.1189
  437TMC3     C 6516   2.535   2.760  12.316  0.1929  0.8308 -1.1976
  437TMC3     O 6517   2.597   2.809  12.408 -0.0692 -0.3118 -0.1545
  437TMC3     H 6518   2.410   2.708  12.092 -0.7435  0.7204 -1.7182
  437TMC3    H1 6519   2.724   2.936  12.261  0.8373 -0.4951 -0.2480
  437TMC3    H2 6520   2.669   2.927  11.841  0.8240 -0.6423 -0.1651
  437TMC3    C7 6521   2.820   3.024  12.028 -0.4899  0.2686 -0.4243
  437TMC3    C8 6522   2.482   2.756  11.840 -0.3201  0.9368 -1.3519
  437TMC3    O1 6523   2.825   3.075  11.915 -0.3572 -0.5959 -0.1997
  437TMC3    O2 6524   2.490   2.819  11.735 -0.3438 -0.7333 -0.4014
  438MPD2     C 6525   4.585   3.470  16.604 -1.3254 -0.6090  0.0438
  438MPD2    C1 6526   4.647   3.408  16.708 -0.0620 -0.4056 -0.1417
  438MPD2    C2 6527   4.612   3.439  16.838  0.6687  0.9533 -0.2615
  438MPD2    C3 6528   4.499   3.519  16.863  0.5332  0.2597  0.2602
  438MPD2    C4 6529   4.438   3.579  16.758 -0.3427 -0.2945  1.5154
  438MPD2    C5 6530   4.485   3.561  16.627 -0.7146 -0.5255  0.4148
  438MPD2     H 6531   4.655   3.372  16.911 -1.1736  1.6423  1.4405
  438MPD2    H1 6532   4.357   3.648  16.779  0.3276  0.7158  0.8141
  438MPD2    H2 6533   4.626   3.479  16.504 -0.5311  3.0656  0.7039
  438MPD2    H3 6534   4.443   3.622  16.547  0.3995 -1.5760 -0.9611
  438MPD2     N 6535   4.439   3.549  16.988  0.5026  0.0339 -0.0479
  438MPD2    H5 6536   4.359   3.612  16.986  1.8635  1.6992 -1.5972
  438MPD2    N1 6537   0.035   3.323  16.690 -0.4928  0.4826  0.4624
  438MPD2    H7 6538   0.075   3.283  16.774  0.5805 -1.1575 -0.8258
  439TMC3    C1 6539   0.186   3.183  16.582  0.2709  0.3479 -0.0405
  439TMC3    C2 6540   0.205   3.120  16.461  0.4633  0.1083 -0.4618
  439TMC3    C3 6541   0.336   3.084  16.432 -0.1142  0.1179  0.2483
  439TMC3    C4 6542   0.291   3.211  16.663 -0.9322  0.0953  0.0369
  439TMC3    C5 6543   0.416   3.203  16.606 -0.4099 -0.2215 -0.1563
  439TMC3    C6 6544   0.448   3.127  16.497  0.2987  0.1964  0.3587
  439TMC3     C 6545   0.075   3.271  16.570  0.2562  1.3219  0.4791
  439TMC3     O 6546   0.011   3.284  16.466  0.6033 -0.3926 -0.2281
  439TMC3     H 6547   0.124   3.088  16.396  0.6412 -0.8693 -0.2055
  439TMC3    H1 6548   0.282   3.274  16.750 -1.0674 -0.0290  0.1131
  439TMC3    H2 6549   0.549   3.100  16.472  0.8759  2.0806  0.6691
  439TMC3    C7 6550   0.521   3.225  16.703  0.3505  0.0970 -0.5969
  439TMC3    C8 6551   0.365   3.025  16.300 -0.4515 -0.5859 -0.4581
  439TMC3    O1 6552   0.498   3.231  16.820 -1.0953  0.0619 -0.1636
  439TMC3    O2 6553   0.482   3.025  16.267  0.0986  0.3323 -0.3857
  440MPD2     C 6554   3.491   4.206  14.907 -0.0712 -0.1834 -0.3357
  440MPD2    C1 6555   3.474   4.088  14.967  0.1054 -0.0715 -0.4850
  440MPD2    C2 6556   3.588   4.020  15.017  0.0960  0.0617 -0.2234
  440MPD2    C3 6557   3.711   4.075  15.000  0.0962  0.0145  0.1030
  440MPD2    C4 6558   3.721   4.204  14.942 -0.7343  0.1964  0.3538
  440MPD2    C5 6559   3.614   4.267  14.898 -0.3352  0.2238 -0.0605
  440MPD2     H 6560   3.586   3.924  15.067  1.9018 -0.5226 -1.2481
  440MPD2    H1 6561   3.821   4.246  14.932  0.0193 -1.7268 -0.2595
  440MPD2    H2 6562   3.405   4.260  14.869 -0.8859  0.4760  2.4153
  440MPD2    H3 6563   3.628   4.360  14.844 -0.9615  0.2950 -0.1015
  440MPD2     N 6564   3.836   4.016  15.035  0.2553 -0.2189 -0.4635
  440MPD2    H5 6565   3.919   4.072  15.021 -0.0001  0.3744  0.4117
  440MPD2    N1 6566   3.350   4.022  14.989  0.4126  0.2220  0.5119
  440MPD2    H7 6567   3.358   3.945  15.054  2.1507  1.1286  1.3762
  441TMC3    C1 6568   3.988   3.864  15.135 -0.6626  0.2071 -0.1091
  441TMC3    C2 6569   4.018   3.950  15.236  0.1244 -0.7044 -0.1797
  441TMC3    C3 6570   4.094   3.908  15.342 -0.6841 -0.2635  0.6947
  441TMC3    C4 6571   4.048   3.744  15.131 -0.3042  0.1830  0.4201
  441TMC3    C5 6572   4.119   3.700  15.241  0.2796 -0.1843  0.5520
  441TMC3    C6 6573   4.149   3.786  15.342 -0.0248 -0.3248  0.9063
  441TMC3     C 6574   3.856   3.883  15.076 -0.6601  0.2207  0.1719
  441TMC3     O 6575   3.779   3.788  15.071 -0.4033  0.8272  0.3700
  441TMC3     H 6576   3.962   4.043  15.236  0.2284 -0.6427 -2.5644
  441TMC3    H1 6577   4.018   3.680  15.048 -0.1933 -0.7409  1.0857
  441TMC3    H2 6578   4.187   3.743  15.434  1.0837  2.5630  1.8066
  441TMC3    C7 6579   4.111   3.565  15.278 -0.2032 -0.1647  0.3786
  441TMC3    C8 6580   4.062   3.967  15.476  0.2495 -0.2271 -0.5520
  441TMC3    O1 6581   4.019   3.497  15.224  0.7651 -0.0001 -0.4720
  441TMC3    O2 6582   4.102   3.904  15.573 -0.0631  0.2940  0.4170
  442MPD2     C 6583   1.865   4.623  16.673  0.0713 -0.3545  0.1607
  442MPD2    C1 6584   1.769   4.595  16.582 -0.1986  0.5456  0.2029
  442MPD2    C2 6585   1.782   4.485  16.499 -0.0737 -1.2314  0.1962
  442MPD2    C3 6586   1.880   4.397  16.512  0.3464  0.3762 -0.2307
  442MPD2    C4 6587   1.985   4.431  16.592  0.3357  0.1513 -0.0563
  442MPD2    C5 6588   1.983   4.543  16.671  0.0558 -0.1758  0.4602
  442MPD2     H 6589   1.706   4.475  16.422  1.9725  1.6248 -2.1690
  442MPD2    H1 6590   2.068   4.362  16.605 -0.7324 -0.6021  2.8445
  442MPD2    H2 6591   1.871   4.715  16.730 -0.8703 -0.4627  0.4390
  442MPD2    H3 6592   2.066   4.571  16.734  0.8219 -1.5600  0.0661
  442MPD2     N 6593   1.893   4.274  16.444  0.1090 -0.0504  0.2406
  442MPD2    H5 6594   1.972   4.216  16.469  1.0833  1.4182  0.5716
  442MPD2    N1 6595   1.654   4.671  16.570  0.1206 -0.2759 -0.0660
  442MPD2    H7 6596   1.594   4.654  16.490 -1.3320 -1.0831  1.1746
  443TMC3    C1 6597   1.496   0.125  16.625  0.5307 -0.8181 -0.1449
  443TMC3    C2 6598   1.451   0.128  16.488  0.4258 -0.5365 -0.2702
  443TMC3    C3 6599   1.332   0.181  16.461  0.0610  0.6176  0.2279
  443TMC3    C4 6600   1.419   0.182  16.727 -0.1492 -0.3183 -0.2621
  443TMC3    C5 6601   1.291   0.228  16.689 -0.4613  0.1083  1.0104
  443TMC3    C6 6602   1.247   0.229  16.554 -0.4706 -0.1009  0.5687
  443TMC3     C 6603   1.609   0.040  16.668  0.0863  0.4766  0.5839
  443TMC3     O 6604   1.664   0.065  16.778  0.3019  0.3099  0.5457
  443TMC3     H 6605   1.519   0.093  16.412 -2.1600  1.2505 -3.4233
  443TMC3    H1 6606   1.459   0.183  16.828 -0.9814  0.5152  0.0622
  443TMC3    H2 6607   1.168   0.294  16.519  0.4683  1.7007  1.7786
  443TMC3    C7 6608   1.189   0.171  16.772  0.1833 -0.1542 -0.0882
  443TMC3    C8 6609   1.267   0.107  16.355 -0.1511  0.5877 -0.3676
  443TMC3    O1 6610   1.231   0.120  16.873 -0.4017 -0.2058 -0.2282
  443TMC3    O2 6611   1.203   0.011  16.385  0.4749 -0.5293  0.2602
  444MPD2     C 6612   2.242   3.848  16.948  0.1661  0.9813 -0.4503
  444MPD2    C1 6613   2.165   3.752  17.015  0.8057 -0.2727  0.3613
  444MPD2    C2 6614   2.214   3.622  17.026  0.1089 -0.3965 -0.1249
  444MPD2    C3 6615   2.334   3.581  16.957  0.1283 -0.1431 -0.0520
  444MPD2    C4 6616   2.401   3.681  16.887 -0.2971  0.0090  0.5130
  444MPD2    C5 6617   2.356   3.808  16.881  0.6571 -0.0635 -0.6440
  444MPD2     H 6618   2.161   3.545  17.081 -1.4218 -0.7180 -2.0874
  444MPD2    H1 6619   2.482   3.658  16.819 -0.3847  0.6021  0.2058
  444MPD2    H2 6620   2.218   3.950  16.923 -0.7971  0.8247 -0.1612
  444MPD2    H3 6621   2.409   3.874  16.813  1.1369  0.6318  0.4073
  444MPD2     N 6622   2.382   3.446  16.970  0.0370  0.1707 -0.0779
  444MPD2    H5 6623   2.332   3.381  17.029 -0.4925 -0.3270 -1.0794
  444MPD2    N1 6624   2.039   3.788  17.071  0.1510  0.0434 -0.1066
  444MPD2    H7 6625   1.976   3.715  17.103 -0.0850  1.0748  1.8255
  445TMC3    C1 6626   2.536   3.257  16.931  0.4136  0.3390  0.6265
  445TMC3    C2 6627   2.431   3.168  16.928  0.1297 -0.0939  0.5372
  445TMC3    C3 6628   2.475   3.041  16.900  0.6491  0.7435 -0.3250
  445TMC3    C4 6629   2.665   3.229  16.907  0.4144 -0.5999 -0.0276
  445TMC3    C5 6630   2.701   3.100  16.876  0.1306 -0.0599 -0.6874
  445TMC3    C6 6631   2.606   2.999  16.880 -0.4406 -0.1099 -0.9179
  445TMC3     C 6632   2.493   3.394  16.900  0.3848  0.0672 -0.3887
  445TMC3     O 6633   2.566   3.449  16.817  0.3853  0.1337 -0.3500
  445TMC3     H 6634   2.325   3.193  16.936  0.4402  0.8799  1.6823
  445TMC3    H1 6635   2.739   3.307  16.924 -0.4478 -0.0050  0.9720
  445TMC3    H2 6636   2.637   2.907  16.832  1.3636  0.6315 -1.1827
  445TMC3    C7 6637   2.834   3.076  16.830  0.5339  0.4764 -0.4299
  445TMC3    C8 6638   2.376   2.931  16.903 -0.1847 -0.6414 -0.5462
  445TMC3    O1 6639   2.895   3.179  16.811 -0.1686  0.2806  0.3276
  445TMC3    O2 6640   2.263   2.953  16.947  0.4850  0.4086 -0.1186
  446MPD2     C 6641   1.515   0.698  11.381 -0.0550 -0.3774 -0.8972
  446MPD2    C1 6642   1.531   0.637  11.256  0.0601 -0.5098 -1.1187
  446MPD2    C2 6643   1.651   0.660  11.189 -0.3996  0.1028  0.3794
  446MPD2    C3 6644   1.736   0.761  11.228  0.0187  0.6104 -0.4571
  446MPD2    C4 6645   1.710   0.828  11.346 -0.0408 -0.5207  0.2691
  446MPD2    C5 6646   1.600   0.798  11.423 -1.0114 -0.1235  0.4338
  446MPD2     H 6647   1.671   0.594  11.105 -0.4746  1.6625 -0.8590
  446MPD2    H1 6648   1.777   0.904  11.387 -0.2595 -0.9998  1.5306
  446MPD2    H2 6649   1.435   0.676  11.450  2.1360  0.4496  1.9224
  446MPD2    H3 6650   1.571   0.855  11.510  0.5427  0.0250  0.8460
  446MPD2     N 6651   1.858   0.771  11.156  0.0078 -0.3553 -0.1668
  446MPD2    H5 6652   1.865   0.702  11.082  1.1420  0.5452 -0.8950
  446MPD2    N1 6653   1.455   0.526  11.204 -0.0241 -0.4110 -0.6307
  446MPD2    H7 6654   1.480   0.494  11.111  1.7763  0.9703 -0.6379
  447TMC3    C1 6655   2.084   0.824  11.105  0.7197  0.0703 -0.2574
  447TMC3    C2 6656   2.066   0.809  10.974 -0.6649  0.2917  0.5422
  447TMC3    C3 6657   2.185   0.792  10.898  0.0099  0.1524 -0.1929
  447TMC3    C4 6658   2.206   0.808  11.167 -0.0345  0.7722 -0.1069
  447TMC3    C5 6659   2.317   0.779  11.089 -0.0539  0.6583  0.1980
  447TMC3    C6 6660   2.309   0.779  10.954 -0.3092  0.4657 -0.0041
  447TMC3     C 6661   1.967   0.845  11.188  0.6120  0.7034 -0.7119
  447TMC3     O 6662   1.976   0.930  11.278 -0.3016 -0.7979  0.1083
  447TMC3     H 6663   1.970   0.828  10.929  0.1426  0.7866 -0.9807
  447TMC3    H1 6664   2.207   0.821  11.275 -1.5404 -0.7764  0.0922
  447TMC3    H2 6665   2.402   0.756  10.903  0.4630  0.8678  1.2207
  447TMC3    C7 6666   2.446   0.757  11.148 -0.0650 -0.8094  0.0011
  447TMC3    C8 6667   2.170   0.797  10.753 -0.5310  0.2146 -0.4868
  447TMC3    O1 6668   2.535   0.716  11.076 -0.5534 -0.1281  0.1773
  447TMC3    O2 6669   2.070   0.852  10.713 -0.0118  0.5608  0.3931
  448TMC3    C1 6670   0.164   0.115  16.997  0.2978 -0.3630 -0.3937
  448TMC3    C2 6671   0.064   0.020  16.984 -0.1227 -0.0040  0.2059
  448TMC3    C3 6672   0.063   4.640  17.073  0.0380  0.1932 -0.4970
  448TMC3    C4 6673   0.265   0.107  17.092  0.0332 -0.3904  0.4390
  448TMC3    C5 6674   0.262   0.002  17.178  0.1571  0.2091 -0.8257
  448TMC3    C6 6675   0.157   4.638  17.175 -0.0441  0.0690 -0.1530
  448TMC3     C 6676   0.167   0.213  16.885  0.6785 -0.3854  0.0260
  448TMC3     O 6677   0.099   0.197  16.788  0.2698 -0.3471  0.1678
  448TMC3     H 6678   4.719   0.033  16.901  0.7814 -0.1168 -0.5552
  448TMC3    H1 6679   0.352   0.171  17.084 -0.0382 -0.2832  0.5287
  448TMC3    H2 6680   0.161   4.551  17.239 -1.5457  0.5737  0.6322
  448TMC3    C7 6681   0.397   4.685  17.214 -0.0557 -0.1928  0.7926
  448TMC3    C8 6682   0.028   4.502  17.026 -0.5201 -0.1838  0.5547
  448TMC3    O1 6683   0.482   0.046  17.198  0.1098  0.1060 -0.2639
  448TMC3    O2 6684   0.062   4.403  17.088  0.1398  0.0088  0.4278
  449MPD2     C 6685   1.548   3.788  13.900 -0.3049 -0.1692 -0.0787
  449MPD2    C1 6686   1.447   3.703  13.878  0.2513  0.0185  0.4589
  449MPD2    C2 6687   1.433   3.601  13.958  0.2817  0.0461  0.5176
  449MPD2    C3 6688   1.522   3.566  14.060  0.2915 -0.4146  0.6745
  449MPD2    C4 6689   1.624   3.657  14.093  0.2506 -0.1788  0.0836
  449MPD2    C5 6690   1.640   3.767  14.011  0.2519  0.2251  0.1817
  449MPD2     H 6691   1.355   3.528  13.941 -1.0930  1.4767  0.6683
  449MPD2    H1 6692   1.693   3.644  14.175  0.2719  3.1555  0.6086
  449MPD2    H2 6693   1.554   3.880  13.843  2.2584 -0.4012 -0.1974
  449MPD2    H3 6694   1.716   3.842  14.026  0.0107  0.7116 -1.0667
  449MPD2     N 6695   1.500   3.444  14.136  0.2876 -0.2031  0.2882
  449MPD2    H5 6696   1.419   3.390  14.108 -0.1214  0.9692 -0.7705
  449MPD2    N1 6697   1.343   3.734  13.788  0.4077  0.8311  0.2263
  449MPD2    H7 6698   1.273   3.661  13.781  0.2692  1.0344 -0.4446
  450TMC3    C1 6699   1.247   3.791  13.584 -0.0430  0.4766 -0.1016
  450TMC3    C2 6700   1.317   3.759  13.468  0.0241  0.1729 -0.4729
  450TMC3    C3 6701   1.289   3.640  13.410 -0.4448  0.6183  0.0628
  450TMC3    C4 6702   1.151   3.703  13.631  0.0772 -0.4517  0.9280
  450TMC3    C5 6703   1.135   3.578  13.572  0.3085  0.2300  0.1493
  450TMC3    C6 6704   1.206   3.543  13.462 -0.1639  0.4082 -0.1012
  450TMC3     C 6705   1.341   3.832  13.686 -0.5366 -0.6752 -0.2733
  450TMC3     O 6706   1.405   3.934  13.672  0.1540  0.1624 -0.4747
  450TMC3     H 6707   1.391   3.827  13.428  1.2936 -1.3345 -0.6916
  450TMC3    H1 6708   1.091   3.734  13.716 -1.2161  2.2762 -0.9597
  450TMC3    H2 6709   1.200   3.443  13.419 -0.8631  0.0170  0.9122
  450TMC3    C7 6710   1.115   3.479  13.671 -0.1764  0.1527  0.5110
  450TMC3    C8 6711   1.339   3.608  13.278  0.2636  0.0841  0.1266
  450TMC3    O1 6712   1.169   3.512  13.778  0.4155 -0.7177 -0.4271
  450TMC3    O2 6713   1.258   3.566  13.195 -0.1166  0.1894 -0.8133
  451MPD2     C 6714   3.109   2.401   1.579  0.1426 -0.0273  0.1453
  451MPD2    C1 6715   3.039   2.397   1.458 -0.1788  0.1992 -0.0783
  451MPD2    C2 6716   3.012   2.271   1.404  0.2503  0.0549  0.6231
  451MPD2    C3 6717   3.065   2.157   1.449 -0.3906 -0.0663  0.1515
  451MPD2    C4 6718   3.134   2.163   1.566 -0.3509  0.2091  0.2803
  451MPD2    C5 6719   3.160   2.282   1.631  0.1426 -0.0566 -0.2039
  451MPD2     H 6720   2.952   2.276   1.315  3.1478 -0.9441 -1.3929
  451MPD2    H1 6721   3.163   2.074   1.622 -1.4694  0.6656  1.5894
  451MPD2    H2 6722   3.124   2.491   1.637 -0.5488 -2.1619  3.6274
  451MPD2    H3 6723   3.211   2.275   1.726 -1.9369  1.4022  1.0243
  451MPD2     N 6724   3.049   2.031   1.388 -0.9469 -0.0770  0.1429
  451MPD2    H5 6725   3.085   1.954   1.444 -1.3256 -0.2274  0.1797
  451MPD2    N1 6726   2.986   2.513   1.398  0.0891  0.1847 -0.0679
  451MPD2    H7 6727   2.995   2.599   1.451 -0.4252  0.0750  0.2059
  452TMC3    C1 6728   2.976   1.863   1.241 -0.3131  0.2478 -0.1113
  452TMC3    C2 6729   2.983   1.767   1.341 -0.5313 -0.4356 -0.4765
  452TMC3    C3 6730   2.944   1.643   1.299  0.1106 -0.3612 -0.0591
  452TMC3    C4 6731   2.929   1.828   1.115 -0.3462 -0.1817  0.0727
  452TMC3    C5 6732   2.893   1.705   1.082  0.1918  0.2176  0.3015
  452TMC3    C6 6733   2.886   1.610   1.179 -0.3124  0.5820  0.2225
  452TMC3     C 6734   2.988   2.003   1.270  0.5548  0.3440 -0.1485
  452TMC3     O 6735   2.937   2.078   1.186 -0.1894  0.1433 -0.3439
  452TMC3     H 6736   3.019   1.784   1.442 -0.9315 -1.8153 -0.1018
  452TMC3    H1 6737   2.924   1.906   1.039 -1.9586  1.6975  2.1146
  452TMC3    H2 6738   2.871   1.507   1.152  1.6939  0.1345  0.7913
  452TMC3    C7 6739   2.853   1.687   0.944 -0.3371 -0.0205  0.9295
  452TMC3    C8 6740   2.895   1.557   1.410  0.0025  0.0088  0.0318
  452TMC3    O1 6741   2.917   1.750   0.863 -0.1230 -0.1421 -0.0474
  452TMC3    O2 6742   2.946   1.571   1.522  0.2831 -0.3141  0.4820
  453TMC3    C1 6743   4.168   4.343  11.808  0.4050  0.4230 -0.6026
  453TMC3    C2 6744   4.042   4.304  11.863 -0.0801  0.5215 -0.7153
  453TMC3    C3 6745   3.948   4.264  11.773  0.6627 -0.7422 -0.5309
  453TMC3    C4 6746   4.199   4.328  11.680 -0.4515 -0.1892  0.1222
  453TMC3    C5 6747   4.096   4.299  11.590  0.5962  0.6218 -0.0679
  453TMC3    C6 6748   3.965   4.275  11.637 -0.2897 -0.2673  0.0151
  453TMC3     C 6749   4.280   4.381  11.893  0.2879  0.1827 -0.5224
  453TMC3     O 6750   4.367   4.447  11.843 -0.3876  0.3061 -0.4077
  453TMC3     H 6751   4.028   4.320  11.970 -0.1254 -0.1918 -0.6121
  453TMC3    H1 6752   4.300   4.354  11.652 -0.3655  0.1352  0.7299
  453TMC3    H2 6753   3.878   4.259  11.575 -1.2168 -1.1696  1.5536
  453TMC3    C7 6754   4.120   4.293  11.447  0.5773 -0.2243  0.6269
  453TMC3    C8 6755   3.815   4.236  11.820 -0.5160  0.8105  1.1540
  453TMC3    O1 6756   4.018   4.296  11.375  0.7491 -0.1093  0.0006
  453TMC3    O2 6757   3.727   4.279  11.747  0.3226 -0.5946  0.0561
  454MPD2     C 6758   3.087   3.439  16.524 -0.4374 -0.3169 -0.0055
  454MPD2    C1 6759   3.023   3.555  16.473  0.1403 -0.3654 -0.3423
  454MPD2    C2 6760   2.963   3.644  16.561 -0.8882 -0.1803 -0.2305
  454MPD2    C3 6761   2.946   3.615  16.695  0.1291 -0.6038  0.2142
  454MPD2    C4 6762   3.007   3.504  16.742  0.4570  0.1459 -0.4787
  454MPD2    C5 6763   3.082   3.423  16.659  0.4165 -0.1196 -0.3027
  454MPD2     H 6764   2.919   3.737  16.528  2.1700  2.5150  3.2835
  454MPD2    H1 6765   2.977   3.473  16.841 -0.2221  2.9430  0.1896
  454MPD2    H2 6766   3.140   3.371  16.460  0.3651 -1.3457  1.7507
  454MPD2    H3 6767   3.124   3.330  16.696 -1.5411 -0.2711  1.5212
  454MPD2     N 6768   2.863   3.682  16.790 -0.7067  0.4154 -0.5577
  454MPD2    H5 6769   2.866   3.653  16.887  1.6667  1.6503 -0.2744
  454MPD2    N1 6770   3.011   3.584  16.335 -0.0954  0.6896 -0.3529
  454MPD2    H7 6771   2.973   3.675  16.312 -1.0076 -0.2229 -2.4856
  455TMC3    C1 6772   2.712   3.801  16.630  0.5205  0.6271  0.8861
  455TMC3    C2 6773   2.654   3.925  16.598  0.0450 -0.3097  0.2395
  455TMC3    C3 6774   2.529   3.925  16.545  0.5595  0.0001 -0.0969
  455TMC3    C4 6775   2.650   3.685  16.601  0.1391  1.3117  0.2335
  455TMC3    C5 6776   2.528   3.695  16.538  0.5610 -0.0720  0.4198
  455TMC3    C6 6777   2.465   3.811  16.512  1.0115  0.1950 -0.3833
  455TMC3     C 6778   2.782   3.796  16.760 -0.0186  0.2285  0.2401
  455TMC3     O 6779   2.725   3.872  16.834 -0.4564  0.2789 -0.0413
  455TMC3     H 6780   2.703   4.015  16.634 -0.2009 -0.3228  0.6149
  455TMC3    H1 6781   2.704   3.591  16.608 -1.3132  0.2871 -2.2418
  455TMC3    H2 6782   2.382   3.819  16.444  0.0503 -0.6951  0.6788
  455TMC3    C7 6783   2.473   3.578  16.466  0.0056 -0.5730  0.1469
  455TMC3    C8 6784   2.445   4.035  16.587  0.0782  0.0509 -0.0174
  455TMC3    O1 6785   2.373   3.585  16.394  0.2017  0.2169  0.3926
  455TMC3    O2 6786   2.499   4.143  16.622 -0.1884  0.0161 -0.5774
  456MPD2     C 6787   0.341   3.344  16.141 -0.1058 -1.0138 -0.3768
  456MPD2    C1 6788   0.452   3.382  16.216 -0.1409 -0.2311  0.4450
  456MPD2    C2 6789   0.440   3.463  16.332 -0.1155  0.0768  0.6741
  456MPD2    C3 6790   0.315   3.503  16.366  0.0476  0.0256  0.0254
  456MPD2    C4 6791   0.205   3.479  16.284 -0.0321 -0.1924  0.5171
  456MPD2    C5 6792   0.218   3.388  16.175  0.0328 -0.3479  0.6365
  456MPD2     H 6793   0.529   3.475  16.393  0.5625 -0.6128 -0.1638
  456MPD2    H1 6794   0.110   3.523  16.310 -0.3651 -2.0472  2.4285
  456MPD2    H2 6795   0.356   3.270  16.063  0.5347 -0.8589 -0.4016
  456MPD2    H3 6796   0.137   3.364  16.107 -0.9917 -1.2250  2.1586
  456MPD2     N 6797   0.312   3.582  16.486 -0.4485  0.2584  0.5085
  456MPD2    H5 6798   0.403   3.603  16.525 -1.1025  1.5346  1.3650
  456MPD2    N1 6799   0.577   3.333  16.171  0.0189 -0.6027  0.2104
  456MPD2    H7 6800   0.598   3.284  16.085 -2.8559 -0.6593 -0.4851
  457TMC3    C1 6801   0.243   3.727  16.648 -0.2181 -0.2431 -0.1470
  457TMC3    C2 6802   0.171   3.844  16.673  0.6372  0.1000  0.5983
  457TMC3    C3 6803   0.209   3.917  16.780  0.1551 -0.2579 -0.2556
  457TMC3    C4 6804   0.353   3.697  16.726 -0.2128  0.3174 -0.2972
  457TMC3    C5 6805   0.389   3.777  16.831  0.4662  1.1859 -0.4564
  457TMC3    C6 6806   0.318   3.888  16.862 -0.6691 -0.6061  0.0587
  457TMC3     C 6807   0.210   3.659  16.525 -0.0941 -0.4212  0.5497
  457TMC3     O 6808   0.098   3.677  16.480 -0.3461  0.4213 -0.4873
  457TMC3     H 6809   0.099   3.878  16.600  1.0884 -1.9121 -0.7907
  457TMC3    H1 6810   0.408   3.604  16.712 -1.1177 -0.2957  0.2229
  457TMC3    H2 6811   0.337   3.952  16.948  1.4982 -0.7177 -0.3293
  457TMC3    C7 6812   0.492   3.740  16.931 -0.2150  0.3639 -0.3789
  457TMC3    C8 6813   0.165   4.051  16.793 -0.1627  0.5245  0.4858
  457TMC3    O1 6814   0.521   3.622  16.929 -0.4892  0.9356  0.0049
  457TMC3    O2 6815   0.253   4.131  16.820 -0.1080  0.0470 -0.2207
  458MPD2     C 6816   3.209   3.300  12.206 -0.0067 -1.0036  0.2338
  458MPD2    C1 6817   3.172   3.209  12.296 -0.2948 -0.2621 -0.3632
  458MPD2    C2 6818   3.074   3.122  12.262 -0.5472 -0.2525  0.2653
  458MPD2    C3 6819   3.009   3.125  12.139  0.2053  0.1635 -0.1629
  458MPD2    C4 6820   3.051   3.212  12.047  0.6680  0.0151  0.2637
  458MPD2    C5 6821   3.156   3.293  12.081 -0.3539  0.9127 -0.0739
  458MPD2     H 6822   3.035   3.052  12.334 -1.2603 -0.8203 -0.6651
  458MPD2    H1 6823   3.007   3.224  11.948 -0.5217 -0.3383  0.7594
  458MPD2    H2 6824   3.286   3.375  12.221 -1.3319 -0.0510  2.3643
  458MPD2    H3 6825   3.190   3.365  12.008 -0.2025  0.9688  0.0528
  458MPD2     N 6826   2.898   3.041  12.134 -0.2975  0.5211  0.1248
  458MPD2    H5 6827   2.886   2.978  12.212 -1.3672  0.6822  0.0836
  458MPD2    N1 6828   3.242   3.210  12.422 -0.5254  0.1025  0.4958
  458MPD2    H7 6829   3.312   3.282  12.436 -0.7957  0.0316  2.2476
  459TMC3    C1 6830   3.305   3.166  12.645 -0.6286 -0.2380  0.8127
  459TMC3    C2 6831   3.420   3.236  12.625 -0.0315  0.2511  0.0378
  459TMC3    C3 6832   3.491   3.275  12.734 -0.3826 -0.7087 -0.1703
  459TMC3    C4 6833   3.255   3.144  12.767 -0.9569  0.6143 -0.3855
  459TMC3    C5 6834   3.331   3.179  12.876 -0.1857 -0.2414  0.3278
  459TMC3    C6 6835   3.446   3.241  12.860  0.3850 -0.2074  0.1545
  459TMC3     C 6836   3.224   3.133  12.532  0.4001  1.1074  0.3765
  459TMC3     O 6837   3.133   3.057  12.556 -0.2451 -0.1048  0.1795
  459TMC3     H 6838   3.472   3.236  12.530  0.3197  1.5270  0.2284
  459TMC3    H1 6839   3.153   3.108  12.777 -0.7506 -0.1713 -1.1084
  459TMC3    H2 6840   3.499   3.274  12.948  0.0430  3.1173 -0.8760
  459TMC3    C7 6841   3.293   3.119  13.008 -0.3154 -0.0363 -0.4023
  459TMC3    C8 6842   3.634   3.272  12.721  0.2453  0.7067 -0.6579
  459TMC3    O1 6843   3.204   3.034  13.013  0.0511 -0.1397  0.2469
  459TMC3    O2 6844   3.699   3.199  12.791  0.2472  0.3015 -0.1295
  460MPD2     C 6845   2.371   0.614  10.504  0.0954  0.3705  0.2162
  460MPD2    C1 6846   2.276   0.700  10.548  0.3859 -0.1524  0.3522
  460MPD2    C2 6847   2.187   0.763  10.456  0.3547 -0.0983 -0.2556
  460MPD2    C3 6848   2.194   0.735  10.321  0.3411 -0.1308  0.0593
  460MPD2    C4 6849   2.297   0.647  10.279  0.0838 -0.5673 -0.0104
  460MPD2    C5 6850   2.380   0.591  10.371 -0.0259 -0.1686 -0.3644
  460MPD2     H 6851   2.106   0.827  10.491  2.2358  1.4289  1.3821
  460MPD2    H1 6852   2.311   0.613  10.177 -0.7286 -0.9604  0.0078
  460MPD2    H2 6853   2.438   0.560  10.570  0.5284  0.5558 -0.0672
  460MPD2    H3 6854   2.445   0.511  10.339 -0.0132  0.0299 -0.8468
  460MPD2     N 6855   2.089   0.776  10.231 -0.1949  0.2938  0.0938
  460MPD2    H5 6856   2.015   0.828  10.277 -0.8321  1.4661 -2.2018
  460MPD2    N1 6857   2.265   0.724  10.687  0.3846  0.5444  0.1547
  460MPD2    H7 6858   2.334   0.681  10.747  0.6960  2.4224  1.1136
  461TMC3    C1 6859   1.916   0.745  10.080  0.6341  0.0269 -0.4133
  461TMC3    C2 6860   1.850   0.641  10.022 -0.9004 -0.4338 -0.1670
  461TMC3    C3 6861   1.733   0.678   9.962 -0.0476 -0.3899  0.3306
  461TMC3    C4 6862   1.865   0.880  10.092  0.2382  0.4791 -0.1841
  461TMC3    C5 6863   1.740   0.900  10.043  0.4935 -0.5800  0.7640
  461TMC3    C6 6864   1.674   0.804   9.980 -0.3048 -0.1816 -0.0896
  461TMC3     C 6865   2.057   0.714  10.110 -0.1935 -0.2369 -0.0325
  461TMC3     O 6866   2.123   0.647  10.033  0.1103 -0.4833  0.2704
  461TMC3     H 6867   1.884   0.539  10.032  0.4270 -0.0557 -0.7909
  461TMC3    H1 6868   1.942   0.951  10.119  0.8593 -0.2514 -0.0283
  461TMC3    H2 6869   1.580   0.822   9.930 -1.2790 -1.3912  1.2918
  461TMC3    C7 6870   1.696   1.038  10.011 -0.3021 -0.1516 -0.7459
  461TMC3    C8 6871   1.656   0.574   9.910 -0.0528  0.9388 -0.4015
  461TMC3    O1 6872   1.613   1.045   9.921  0.3420 -0.6799 -0.5271
  461TMC3    O2 6873   1.538   0.572   9.926 -0.9058 -0.5552  0.1622
  462TMC3    C1 6874   2.166   1.113   0.541 -0.0050 -0.6314 -0.4708
  462TMC3    C2 6875   2.222   1.002   0.496 -0.0903 -0.4343 -0.0841
  462TMC3    C3 6876   2.168   0.937   0.391  0.2237  0.0274  0.6769
  462TMC3    C4 6877   2.053   1.159   0.482 -0.1617  0.1024 -0.5585
  462TMC3    C5 6878   2.000   1.088   0.378 -0.4106  0.0883 -0.2255
  462TMC3    C6 6879   2.061   0.985   0.319  0.0664  0.2906  0.1004
  462TMC3     C 6880   2.226   1.182   0.661  0.1597  0.3632 -0.6804
  462TMC3     O 6881   2.319   1.129   0.714 -0.7174  0.2370 -0.0494
  462TMC3     H 6882   2.285   0.955   0.569  0.0411 -1.1404 -0.6589
  462TMC3    H1 6883   1.987   1.233   0.525  0.6431  1.8446 -2.3084
  462TMC3    H2 6884   2.006   0.913   0.259 -0.0257 -0.3417  0.9360
  462TMC3    C7 6885   1.850   1.099   0.353 -0.3866 -0.6070 -0.4731
  462TMC3    C8 6886   2.240   0.826   0.342  0.6924  0.8336  0.0431
  462TMC3    O1 6887   1.801   0.997   0.311 -0.1423  0.6938 -0.0153
  462TMC3    O2 6888   2.304   0.760   0.424  0.0826  0.0837  0.1342
  463MPD2     C 6889   3.176   0.414   2.062 -0.3362 -0.5821  0.3459
  463MPD2    C1 6890   3.080   0.424   1.963 -0.0222 -0.2656  0.2967
  463MPD2    C2 6891   3.043   0.553   1.921 -0.0744  0.6186 -0.1316
  463MPD2    C3 6892   3.132   0.656   1.949 -0.2396 -0.8922 -0.3659
  463MPD2    C4 6893   3.235   0.645   2.039 -0.4864 -0.0906  0.0812
  463MPD2    C5 6894   3.251   0.523   2.098 -0.1170  0.2279 -0.4374
  463MPD2     H 6895   2.962   0.563   1.850 -1.2417 -0.3376  1.0484
  463MPD2    H1 6896   3.297   0.725   2.077 -0.4110  0.4016 -1.0900
  463MPD2    H2 6897   3.181   0.323   2.122  3.3809 -1.1719 -0.8518
  463MPD2    H3 6898   3.320   0.519   2.181  0.4248 -0.1157 -0.9071
  463MPD2     N 6899   3.112   0.790   1.899  0.4924 -0.1555  0.1664
  463MPD2    H5 6900   3.180   0.855   1.936  0.6850 -1.6456  2.4044
  463MPD2    N1 6901   3.008   0.314   1.921 -0.1712  0.4876  0.4398
  463MPD2    H7 6902   2.933   0.334   1.856 -0.2346 -0.3851  0.2410
  464TMC3    C1 6903   2.935   0.086   1.907  0.3853  0.6293  0.1269
  464TMC3    C2 6904   2.812   0.138   1.875 -0.4865  0.0215 -0.0823
  464TMC3    C3 6905   2.728   0.062   1.796 -0.1272 -0.3662  0.8344
  464TMC3    C4 6906   2.971   4.677   1.882 -0.1890 -0.8882 -0.0957
  464TMC3    C5 6907   2.881   4.600   1.816  0.0148 -0.0395 -0.0283
  464TMC3    C6 6908   2.766   4.653   1.769  0.1750 -0.4260  0.0666
  464TMC3     C 6909   3.039   0.184   1.946 -0.0333 -0.7003  0.2390
  464TMC3     O 6910   3.144   0.137   1.977  0.2530 -0.0299 -0.1616
  464TMC3     H 6911   2.786   0.240   1.902  2.1342  0.6437  0.1045
  464TMC3    H1 6912   3.069   4.649   1.919  0.0253  0.0760  0.0735
  464TMC3    H2 6913   2.696   4.590   1.716 -2.0015  1.1139  1.0893
  464TMC3    C7 6914   2.919   4.459   1.797  0.2895  0.3562  0.0253
  464TMC3    C8 6915   2.600   0.103   1.759  0.0875  0.0034  0.7989
  464TMC3    O1 6916   3.035   4.422   1.820 -0.3885  0.3860  0.2008
  464TMC3    O2 6917   2.540   0.036   1.676  0.3194 -0.4769 -0.4327
  465MPD2     C 6918   4.225   3.229  16.970 -0.0121 -0.6616  0.5336
  465MPD2    C1 6919   4.125   3.229  17.069  0.5158  0.4075 -0.0274
  465MPD2    C2 6920   4.021   3.325  17.056  0.1600 -0.0598 -0.2543
  465MPD2    C3 6921   4.022   3.409  16.947 -0.8012 -0.2412 -0.0420
  465MPD2    C4 6922   4.123   3.406  16.850 -0.4213 -0.1959  0.1094
  465MPD2    C5 6923   4.220   3.312  16.870  0.3305 -0.1195 -1.2756
  465MPD2     H 6924   3.940   3.337  17.127  0.8719  0.6996  0.4304
  465MPD2    H1 6925   4.135   3.477  16.769 -0.9667 -0.8469 -0.5460
  465MPD2    H2 6926   4.321   3.179  16.974  2.0210  3.4578  2.9745
  465MPD2    H3 6927   4.312   3.313  16.814  1.2750 -4.5394  0.2248
  465MPD2     N 6928   3.925   3.512  16.960  0.4004 -0.1165  0.1374
  465MPD2    H5 6929   3.856   3.494  17.032 -0.1367 -1.3658 -0.6899
  465MPD2    N1 6930   4.131   3.156  17.188  0.3129 -0.3717  0.9576
  465MPD2    H7 6931   4.058   3.178  17.256  1.2462  1.9038  1.2027
  466TMC3    C1 6932   3.589   3.739  17.019  0.4854  0.5304  0.6958
  466TMC3    C2 6933   3.535   3.808  16.913  0.7295 -0.4500 -0.3205
  466TMC3    C3 6934   3.613   3.812  16.800 -0.2246 -0.7327  0.5638
  466TMC3    C4 6935   3.718   3.690  17.013 -0.2917 -0.6514 -0.3932
  466TMC3    C5 6936   3.787   3.710  16.898  0.4535  0.3434 -0.5497
  466TMC3    C6 6937   3.736   3.755  16.785 -0.5840 -0.3293 -0.4048
  466TMC3     C 6938   3.538   3.760  17.149 -0.5497  0.5507  0.1486
  466TMC3     O 6939   3.578   3.687  17.238 -0.8078 -0.0357 -1.1092
  466TMC3     H 6940   3.433   3.844  16.911  0.0324 -2.4665 -1.1224
  466TMC3    H1 6941   3.767   3.657  17.103 -2.4852  1.0500  1.4276
  466TMC3    H2 6942   3.798   3.802  16.710  1.8094 -0.7891  1.2894
  466TMC3    C7 6943   3.915   3.627  16.879  0.6345  0.4081  0.4917
  466TMC3    C8 6944   3.563   3.902  16.695 -0.3778 -0.0491 -0.3654
  466TMC3    O1 6945   3.980   3.659  16.782 -0.3438  0.4077 -0.1584
  466TMC3    O2 6946   3.595   3.881  16.580  0.5678  0.0107  0.0641
  467TMC3    C1 6947   0.447   2.211  13.667  0.0197 -0.1532 -0.8939
  467TMC3    C2 6948   0.523   2.236  13.555  0.5219  0.4549 -0.1883
  467TMC3    C3 6949   0.462   2.287  13.441 -0.0533  0.5102 -0.1315
  467TMC3    C4 6950   0.321   2.264  13.673 -0.1250  0.4172  0.5945
  467TMC3    C5 6951   0.262   2.306  13.555  0.0313  0.1655  0.0878
  467TMC3    C6 6952   0.328   2.324  13.438  0.5381  0.4643 -0.8530
  467TMC3     C 6953   0.530   2.217  13.781  0.0356 -0.4771  0.2130
  467TMC3     O 6954   0.515   2.318  13.844  0.5629  0.1608 -0.2650
  467TMC3     H 6955   0.628   2.208  13.554  0.5235  0.4456  0.1599
  467TMC3    H1 6956   0.277   2.223  13.763  0.5661 -0.5990  0.4695
  467TMC3    H2 6957   0.290   2.359  13.343 -0.6283  1.7824  0.1022
  467TMC3    C7 6958   0.137   2.382  13.562 -0.0366 -0.8048  0.0923
  467TMC3    C8 6959   0.535   2.384  13.359  0.1499  0.3689  0.2141
  467TMC3    O1 6960   0.107   2.449  13.465  0.9922  0.1209  0.4663
  467TMC3    O2 6961   0.469   2.476  13.310  0.7058 -0.2885 -0.1636
  468MPD2     C 6962   4.229   0.513  10.990  0.1114 -0.1345 -0.1081
  468MPD2    C1 6963   4.277   0.463  10.869  0.4468  0.0683  0.0861
  468MPD2    C2 6964   4.220   0.354  10.802 -0.0590  0.6118  0.5457
  468MPD2    C3 6965   4.113   0.296  10.861  0.5976  0.0340  0.1366
  468MPD2    C4 6966   4.067   0.348  10.978 -0.4173 -0.2985  0.2140
  468MPD2    C5 6967   4.122   0.451  11.045 -0.0770 -0.2517 -0.1397
  468MPD2     H 6968   4.270   0.313  10.715 -0.9539  0.9322 -0.1202
  468MPD2    H1 6969   3.973   0.311  11.018 -0.2170  0.0843  1.0433
  468MPD2    H2 6970   4.265   0.608  11.028  1.5537 -0.1357 -1.4783
  468MPD2    H3 6971   4.062   0.482  11.129  0.6972 -0.0675  0.3390
  468MPD2     N 6972   4.053   0.178  10.809 -0.0060 -0.1870  0.9870
  468MPD2    H5 6973   3.973   0.138  10.858 -1.5393  1.6708 -0.0022
  468MPD2    N1 6974   4.389   0.512  10.809 -0.5377 -0.4349  0.0988
  468MPD2    H7 6975   4.414   0.472  10.720  0.8935 -1.5325  0.9911
  469TMC3    C1 6976   4.568   0.649  10.767 -0.1324  0.2695 -0.6687
  469TMC3    C2 6977   4.686   0.693  10.826  0.1070  0.1609 -0.2657
  469TMC3    C3 6978   0.023   0.812  10.790 -0.1326  0.0325  0.1692
  469TMC3    C4 6979   4.503   0.734  10.685 -0.7130 -0.2722  0.2383
  469TMC3    C5 6980   4.567   0.850  10.651  0.2883  0.5509 -0.2012
  469TMC3    C6 6981   4.690   0.887  10.693 -0.3625  0.6012  0.0148
  469TMC3     C 6982   4.478   0.593  10.870  0.2054  0.1023  0.3414
  469TMC3     O 6983   4.483   0.641  10.981  0.0734  0.1852  0.5850
  469TMC3     H 6984   4.719   0.637  10.913 -0.8301  2.0043  1.2778
  469TMC3    H1 6985   4.402   0.717  10.651 -0.7079  1.1261 -0.4822
  469TMC3    H2 6986   0.001   0.989  10.679  1.0343 -0.3275 -3.2535
  469TMC3    C7 6987   4.476   0.956  10.611  0.6888  0.2266 -0.2260
  469TMC3    C8 6988   0.111   0.883  10.884 -0.0744 -0.0623  0.0186
  469TMC3    O1 6989   4.419   0.941  10.504 -0.0487 -0.2637 -0.0176
  469TMC3    O2 6990   0.161   0.980  10.834  0.7401  0.3244 -0.0921
  470TMC3    C1 6991   1.983   1.425   1.192  0.7017 -0.0459  1.1637
  470TMC3    C2 6992   1.979   1.564   1.167 -0.3694 -0.5606  0.7332
  470TMC3    C3 6993   2.043   1.641   1.261  0.1618  0.6997 -0.1940
  470TMC3    C4 6994   2.047   1.364   1.296 -0.0934  0.2392  0.0280
  470TMC3    C5 6995   2.121   1.448   1.372  0.9568 -0.5352 -0.3688
  470TMC3    C6 6996   2.118   1.583   1.358 -0.0998 -0.0474 -0.3947
  470TMC3     C 6997   1.930   1.335   1.082 -0.3895 -0.4261 -0.2156
  470TMC3     O 6998   1.837   1.388   1.019 -0.7889 -0.5637  0.3339
  470TMC3     H 6999   1.911   1.603   1.092  0.7499  1.1247  0.6013
  470TMC3    H1 7000   2.023   1.260   1.317 -0.3563  0.4125  0.5761
  470TMC3    H2 7001   2.177   1.651   1.418 -0.3501  0.3957 -0.6512
  470TMC3    C7 7002   2.189   1.405   1.497  0.7856  0.2204 -0.1664
  470TMC3    C8 7003   2.057   1.786   1.257 -0.4764 -0.0208  0.0354
  470TMC3    O1 7004   2.285   1.472   1.541  0.3196  0.3108 -0.0840
  470TMC3    O2 7005   2.076   1.843   1.366  0.3105 -0.8475 -0.6755
  471MPD2     C 7006   1.537   2.973  16.554  0.4765 -0.4910  0.3524
  471MPD2    C1 7007   1.636   2.877  16.572  0.8424  0.2300  0.1730
  471MPD2    C2 7008   1.686   2.835  16.694  0.0395  0.8808  0.7516
  471MPD2    C3 7009   1.638   2.891  16.808 -0.1484  0.5232 -1.0038
  471MPD2    C4 7010   1.545   2.987  16.794 -0.6661  0.1054  0.3702
  471MPD2    C5 7011   1.484   3.021  16.671  0.3078 -0.0301 -0.0616
  471MPD2     H 7012   1.772   2.770  16.700 -0.2268  0.8586  4.0557
  471MPD2    H1 7013   1.503   3.039  16.879 -0.2233 -0.2952  0.8373
  471MPD2    H2 7014   1.476   2.987  16.465  0.1342 -1.4657  0.4303
  471MPD2    H3 7015   1.397   3.086  16.670 -0.5572 -1.1921 -0.4503
  471MPD2     N 7016   1.678   2.846  16.939  0.2440  0.0991  0.3969
  471MPD2    H5 7017   1.619   2.885  17.012 -1.9199  2.4502 -2.5988
  471MPD2    N1 7018   1.687   2.800  16.471  0.0107 -0.0753  0.1856
  471MPD2    H7 7019   1.749   2.723  16.492  0.0876  0.4679  1.9663
  472TMC3    C1 7020   1.756   2.734  16.253  1.1576 -0.0242  0.1826
  472TMC3    C2 7021   1.709   2.738  16.126  0.9793 -0.8283  0.2941
  472TMC3    C3 7022   1.677   2.625  16.057 -0.0790 -0.0932 -0.1857
  472TMC3    C4 7023   1.791   2.619  16.315  0.8192 -1.0082 -0.4419
  472TMC3    C5 7024   1.767   2.504  16.245 -0.3827  0.1790 -0.2359
  472TMC3    C6 7025   1.712   2.503  16.112 -0.0884  0.0012  0.1214
  472TMC3     C 7026   1.683   2.831  16.338  0.0601 -0.4577  0.7036
  472TMC3     O 7027   1.619   2.918  16.283 -0.3051  0.0236 -0.5434
  472TMC3     H 7028   1.669   2.828  16.080 -1.3535 -0.0059  3.8973
  472TMC3    H1 7029   1.846   2.621  16.408  0.2056 -1.6924 -0.0687
  472TMC3    H2 7030   1.726   2.417  16.048 -1.1884  0.0374 -0.1746
  472TMC3    C7 7031   1.731   2.395  16.339  0.2255 -0.1625 -0.0057
  472TMC3    C8 7032   1.552   2.627  15.983  0.5465 -0.0242 -0.3487
  472TMC3    O1 7033   1.747   2.414  16.459 -0.2247 -0.2236 -0.0741
  472TMC3    O2 7034   1.511   2.725  15.918  0.2601 -0.1383  0.0179
  473MPD2     C 7035   2.169   0.206  13.893  0.9452  0.5209 -0.1056
  473MPD2    C1 7036   2.056   0.270  13.892 -0.0457  0.7471  0.3133
  473MPD2    C2 7037   2.029   0.362  14.000 -0.0713 -0.4826 -0.8947
  473MPD2    C3 7038   2.108   0.371  14.111  0.2647  1.0001  0.1869
  473MPD2    C4 7039   2.229   0.306  14.098  0.2336  0.0659 -0.1066
  473MPD2    C5 7040   2.263   0.231  13.987  0.8935  0.4911  0.2743
  473MPD2     H 7041   1.941   0.425  14.001 -1.6780 -2.7370 -0.2992
  473MPD2    H1 7042   2.295   0.315  14.184 -0.0237  1.6253 -0.0629
  473MPD2    H2 7043   2.196   0.132  13.819 -1.4280  0.0763 -0.5118
  473MPD2    H3 7044   2.357   0.176  13.988  0.5859  0.0086  2.0236
  473MPD2     N 7045   2.091   0.466  14.222 -0.8066  0.0966 -0.2066
  473MPD2    H5 7046   2.160   0.482  14.294 -1.0563 -0.5669  0.1780
  473MPD2    N1 7047   1.964   0.268  13.786 -0.2574 -0.4174  0.2066
  473MPD2    H7 7048   1.876   0.315  13.800  0.4687  0.8655  0.4347
  474TMC3    C1 7049   2.003   0.650  14.342 -0.2712 -0.2355  0.2541
  474TMC3    C2 7050   1.888   0.725  14.384 -0.4073  1.1167 -0.1962
  474TMC3    C3 7051   1.906   0.802  14.499  0.2699  0.1685  0.1515
  474TMC3    C4 7052   2.120   0.661  14.404 -0.0201  0.3074 -0.0935
  474TMC3    C5 7053   2.136   0.743  14.507  0.7524 -0.0043  0.4279
  474TMC3    C6 7054   2.029   0.815  14.562 -0.7929  0.4650  0.1214
  474TMC3     C 7055   1.983   0.544  14.245 -0.4018 -0.6171  0.6664
  474TMC3     O 7056   1.871   0.543  14.202 -0.4773  0.2844  0.1693
  474TMC3     H 7057   1.791   0.719  14.336 -0.6985 -0.0630  0.5442
  474TMC3    H1 7058   2.212   0.614  14.370  0.3198  0.9191 -0.0297
  474TMC3    H2 7059   2.040   0.886  14.643 -2.1348  0.6061  0.1797
  474TMC3    C7 7060   2.271   0.773  14.556  0.4767 -1.0814  0.1434
  474TMC3    C8 7061   1.796   0.898  14.539 -0.8560 -0.0793 -0.7482
  474TMC3    O1 7062   2.359   0.741  14.481 -0.3264  0.0957 -0.1434
  474TMC3    O2 7063   1.778   0.921  14.656  0.1031 -0.2581  0.5356
  475MPD2     C 7064   0.894   2.991  10.074  1.2530 -0.2807 -0.0927
  475MPD2    C1 7065   0.929   3.096  10.152 -0.1335  0.2855  0.3712
  475MPD2    C2 7066   0.856   3.122  10.266  0.1958  0.2309  0.0046
  475MPD2    C3 7067   0.753   3.043  10.309 -0.7447  0.3084  0.1172
  475MPD2    C4 7068   0.721   2.933  10.227 -0.4379  0.4544 -1.0000
  475MPD2    C5 7069   0.797   2.915  10.115 -0.4067  0.2697  0.4478
  475MPD2     H 7070   0.872   3.212  10.325  2.0912 -0.1997  0.1558
  475MPD2    H1 7071   0.641   2.861  10.238  0.8065 -0.5992  1.0037
  475MPD2    H2 7072   0.939   2.975   9.976 -1.6754 -1.0590 -1.3004
  475MPD2    H3 7073   0.774   2.835  10.045  1.2859 -0.0364  0.2177
  475MPD2     N 7074   0.666   3.087  10.417 -0.3626 -0.1099  0.2740
  475MPD2    H5 7075   0.679   3.181  10.453  3.7164 -0.8329  0.7031
  475MPD2    N1 7076   1.031   3.181  10.112  0.0619  0.0915  0.3354
  475MPD2    H7 7077   1.090   3.139  10.040  0.2436  0.7379  0.0951
  476TMC3    C1 7078   1.175   3.367  10.085 -0.7544 -0.2486  0.0957
  476TMC3    C2 7079   1.101   3.420   9.987  0.0225 -0.4877  0.8616
  476TMC3    C3 7080   1.081   3.558   9.982  0.3398  0.5923 -0.6726
  476TMC3    C4 7081   1.245   3.438  10.180 -0.3210  0.5155 -0.0541
  476TMC3    C5 7082   1.226   3.575  10.165 -0.7764  1.0345  0.2513
  476TMC3    C6 7083   1.149   3.636  10.071 -0.4955 -0.2719 -0.4531
  476TMC3     C 7084   1.085   3.292  10.175 -0.9060  0.4754  0.1962
  476TMC3     O 7085   1.046   3.364  10.267  0.6815  0.1430  0.0132
  476TMC3     H 7086   1.055   3.351   9.917  0.7272  0.6251 -0.7063
  476TMC3    H1 7087   1.288   3.386  10.265 -3.8316 -0.5741  1.0694
  476TMC3    H2 7088   1.130   3.742  10.082  2.7992  0.2258  0.4661
  476TMC3    C7 7089   1.223   3.647  10.289  0.9536  0.9655 -0.4212
  476TMC3    C8 7090   0.943   3.592   9.981 -0.0389  0.2245 -0.0832
  476TMC3    O1 7091   1.134   3.732  10.303 -0.6346 -0.4656  0.5627
  476TMC3    O2 7092   0.913   3.704  10.006  0.6233  0.0043  0.1024
  477MPD2     C 7093   2.924   0.223  11.673 -0.0055  0.8717 -0.1144
  477MPD2    C1 7094   2.804   0.235  11.741 -0.2564 -0.1523 -0.1721
  477MPD2    C2 7095   2.781   0.174  11.859 -0.3025  0.6573  0.0691
  477MPD2    C3 7096   2.887   0.105  11.923 -0.1377  0.1068 -0.8773
  477MPD2    C4 7097   3.013   0.093  11.859  0.7371 -0.2399  1.0576
  477MPD2    C5 7098   3.024   0.165  11.744  0.2517 -0.9059 -0.1384
  477MPD2     H 7099   2.684   0.172  11.908 -1.3144  2.8778 -1.8402
  477MPD2    H1 7100   3.093   0.039  11.906 -0.1038 -2.6520 -0.3005
  477MPD2    H2 7101   2.943   0.274  11.579 -2.0346 -1.6181 -1.8816
  477MPD2    H3 7102   3.119   0.165  11.691 -1.7389  4.2389 -3.7874
  477MPD2     N 7103   2.874   0.035  12.041  0.6274  0.2349  0.1931
  477MPD2    H5 7104   2.953   4.699  12.062 -0.9710 -2.3630 -1.0582
  477MPD2    N1 7105   2.702   0.312  11.677 -0.6506  0.1750  0.1511
  477MPD2    H7 7106   2.720   0.322  11.578 -0.6529 -1.7432 -0.0454
  478TMC3    C1 7107   2.493   0.414  11.638 -0.4171  0.3336 -0.4154
  478TMC3    C2 7108   2.418   0.513  11.695  0.6363 -0.7822  0.0835
  478TMC3    C3 7109   2.343   0.581  11.606  0.3482 -0.2029  0.0502
  478TMC3    C4 7110   2.492   0.373  11.505 -0.6691 -0.3473 -0.8724
  478TMC3    C5 7111   2.398   0.434  11.429 -0.3223  0.6061  0.3323
  478TMC3    C6 7112   2.343   0.550  11.470 -0.4997  0.6893  0.2153
  478TMC3     C 7113   2.592   0.368  11.734 -0.0169 -0.7298 -0.2746
  478TMC3     O 7114   2.555   0.361  11.853 -0.5653 -0.2323  0.4226
  478TMC3     H 7115   2.435   0.543  11.797  0.7560  0.0691 -0.1878
  478TMC3    H1 7116   2.542   0.283  11.471  0.2173 -0.9358  1.9280
  478TMC3    H2 7117   2.280   0.608  11.404  0.8584  0.6627 -1.1011
  478TMC3    C7 7118   2.413   0.414  11.283  0.0731 -0.9668  0.7608
  478TMC3    C8 7119   2.241   0.678  11.654  0.5508  0.3846  0.2204
  478TMC3    O1 7120   2.507   0.348  11.248 -1.1770  0.0531 -0.0388
  478TMC3    O2 7121   2.202   0.755  11.566 -0.1151 -0.0890  0.0228
  479MPD2     C 7122   1.390   2.024  15.393  0.4256 -0.4313  0.3339
  479MPD2    C1 7123   1.308   2.009  15.501 -0.1394  0.3454 -0.4420
  479MPD2    C2 7124   1.351   2.066  15.620 -0.0182 -0.0537  0.2453
  479MPD2    C3 7125   1.460   2.152  15.627  0.0744  0.0373 -0.8368
  479MPD2    C4 7126   1.544   2.157  15.518  0.8460  0.7220  0.0693
  479MPD2    C5 7127   1.505   2.106  15.402  0.2225  0.2021  0.4249
  479MPD2     H 7128   1.301   2.032  15.709  1.1538 -0.4192  0.7544
  479MPD2    H1 7129   1.633   2.218  15.527  1.4984 -0.1633 -0.4991
  479MPD2    H2 7130   1.367   1.987  15.294  0.4790 -1.5499  0.7335
  479MPD2    H3 7131   1.570   2.120  15.317  2.2932 -2.3977  1.5610
  479MPD2     N 7132   1.507   2.226  15.741 -0.2702  0.2646  0.3307
  479MPD2    H5 7133   1.607   2.247  15.739  0.3561 -2.5647  1.9739
  479MPD2    N1 7134   1.195   1.930  15.479 -0.4895  0.0447  0.1207
  479MPD2    H7 7135   1.172   1.885  15.391  0.2240 -0.6519  0.2818
  480TMC3    C1 7136   1.131   2.120  15.982  0.3775 -0.0214 -0.7119
  480TMC3    C2 7137   1.036   2.162  15.891  0.0502  0.4658 -0.7141
  480TMC3    C3 7138   1.084   2.241  15.791  0.7613  0.6863 -0.3678
  480TMC3    C4 7139   1.264   2.155  15.974  0.3770  0.2508 -0.2421
  480TMC3    C5 7140   1.303   2.235  15.875  0.1653 -0.1666 -0.1359
  480TMC3    C6 7141   1.212   2.283  15.780  0.0199  0.1394  0.3528
  480TMC3     C 7142   1.114   2.004  16.065 -0.2496 -0.0074  0.5901
  480TMC3     O 7143   1.206   1.929  16.082 -0.5112 -0.1819  0.3430
  480TMC3     H 7144   0.934   2.126  15.891  0.0506  0.4847  1.0615
  480TMC3    H1 7145   1.329   2.119  16.053  0.1646  0.4359  0.0130
  480TMC3    H2 7146   1.237   2.368  15.717 -1.3482  0.6400  0.4719
  480TMC3    C7 7147   1.446   2.254  15.862 -0.5807 -0.0836  0.3577
  480TMC3    C8 7148   1.010   2.233  15.663 -0.2443 -0.1637  0.1890
  480TMC3    O1 7149   1.506   2.283  15.960 -0.1592 -0.4403 -0.4874
  480TMC3    O2 7150   0.888   2.223  15.674 -0.3053  0.2299  0.7218
  481MPD2     C 7151   3.230   1.771  13.959 -0.8087  0.1276  0.4615
  481MPD2    C1 7152   3.110   1.712  13.984 -0.0260  1.0200  0.8407
  481MPD2    C2 7153   3.072   1.687  14.114 -0.4389 -0.1483 -0.1905
  481MPD2    C3 7154   3.153   1.721  14.219  1.1509 -0.4114  0.5686
  481MPD2    C4 7155   3.278   1.774  14.190  0.9412  0.5542  0.5716
  481MPD2    C5 7156   3.319   1.785  14.058  0.5528  0.6176 -0.2397
  481MPD2     H 7157   2.982   1.628  14.132 -0.2594  0.1528  1.6475
  481MPD2    H1 7158   3.343   1.801  14.272  1.2140 -0.2492  0.6234
  481MPD2    H2 7159   3.260   1.781  13.855  0.1854  1.1135  0.8343
  481MPD2    H3 7160   3.418   1.825  14.042  1.4473 -2.3325 -1.9639
  481MPD2     N 7161   3.119   1.708  14.355 -0.4136  0.5877  0.0279
  481MPD2    H5 7162   3.196   1.724  14.419 -1.3218 -0.4211  1.3841
  481MPD2    N1 7163   3.031   1.688  13.873  0.0488  0.8535  0.7526
  481MPD2    H7 7164   3.063   1.722  13.783 -0.8962  0.0055  0.0919
  482TMC3    C1 7165   2.823   1.627  13.759  0.3954  0.9731 -0.0715
  482TMC3    C2 7166   2.709   1.555  13.780  0.5456  0.5704  0.2622
  482TMC3    C3 7167   2.586   1.600  13.732  0.5509 -0.7911 -0.6243
  482TMC3    C4 7168   2.818   1.746  13.686 -0.1303  0.6643  0.2399
  482TMC3    C5 7169   2.695   1.787  13.633 -0.0940 -0.6489 -0.2048
  482TMC3    C6 7170   2.578   1.715  13.660  0.0877 -1.0756 -0.1109
  482TMC3     C 7171   2.910   1.623  13.877 -0.1416  0.7193 -0.6211
  482TMC3     O 7172   2.851   1.574  13.973 -0.3664  0.9950  0.2297
  482TMC3     H 7173   2.718   1.462  13.837 -1.3846  0.0761 -0.2583
  482TMC3    H1 7174   2.902   1.811  13.666  0.7616 -0.8503 -0.9674
  482TMC3    H2 7175   2.484   1.752  13.621  1.6367  3.3660  0.3613
  482TMC3    C7 7176   2.689   1.891  13.534  0.5231  0.2583 -0.5171
  482TMC3    C8 7177   2.461   1.529  13.771 -0.2993 -0.0490 -0.3535
  482TMC3    O1 7178   2.780   1.973  13.535  0.2518 -0.0196  0.3702
  482TMC3    O2 7179   2.477   1.413  13.799 -0.1079 -0.4212 -0.4502
  483TMC3    C1 7180   0.394   0.703   1.259 -0.2219  0.0799 -0.0070
  483TMC3    C2 7181   0.394   0.729   1.128  0.1312  0.3157  0.4710
  483TMC3    C3 7182   0.507   0.804   1.081 -0.4578  0.4574 -0.5646
  483TMC3    C4 7183   0.510   0.712   1.329  0.0184 -0.5493 -0.2945
  483TMC3    C5 7184   0.621   0.776   1.280 -0.2172 -0.4086  0.2811
  483TMC3    C6 7185   0.617   0.827   1.160  0.3223 -0.0682 -0.1498
  483TMC3     C 7186   0.315   0.584   1.292 -0.6893 -0.1584 -0.0658
  483TMC3     O 7187   0.195   0.577   1.259 -1.1538 -0.1077 -0.8796
  483TMC3     H 7188   0.303   0.712   1.072  1.0853  0.9735 -1.2837
  483TMC3    H1 7189   0.508   0.702   1.437  0.5353 -2.6241 -0.4783
  483TMC3    H2 7190   0.710   0.867   1.121  0.1663  1.6299  1.2035
  483TMC3    C7 7191   0.741   0.715   1.308 -0.3924  0.0110  0.9142
  483TMC3    C8 7192   0.534   0.812   0.935 -0.0643 -0.3570 -1.1106
  483TMC3    O1 7193   0.727   0.612   1.377 -0.3407 -0.3962  0.3197
  483TMC3    O2 7194   0.607   0.902   0.897  0.0515 -0.0518 -0.4266
  484MPD2     C 7195   3.832   3.573  12.629  0.4022  0.0027 -0.0673
  484MPD2    C1 7196   3.812   3.438  12.642 -0.4280  0.1639  0.5812
  484MPD2    C2 7197   3.918   3.349  12.646 -0.1963 -0.2304 -0.4864
  484MPD2    C3 7198   4.044   3.394  12.610  0.0350  0.7538  0.4298
  484MPD2    C4 7199   4.070   3.530  12.586 -0.2021 -0.2785 -0.2462
  484MPD2    C5 7200   3.964   3.616  12.603 -0.8560  0.4434  0.2769
  484MPD2     H 7201   3.900   3.242  12.641 -0.6784 -0.1781  0.2684
  484MPD2    H1 7202   4.161   3.582  12.559  0.4058 -1.3115 -0.1972
  484MPD2    H2 7203   3.753   3.647  12.616  2.0933  1.4983 -1.7154
  484MPD2    H3 7204   3.978   3.719  12.573  0.5679  0.2368  0.2283
  484MPD2     N 7205   4.149   3.303  12.587 -0.4317 -0.4184  0.3155
  484MPD2    H5 7206   4.244   3.332  12.564 -0.3162 -0.2938  0.9594
  484MPD2    N1 7207   3.680   3.387  12.655  0.4386  0.1705 -0.0271
  484MPD2    H7 7208   3.603   3.441  12.616 -0.1163 -0.3550  0.3269
  485TMC3    C1 7209   4.266   3.115  12.509  0.2890 -0.1963  0.0419
  485TMC3    C2 7210   4.387   3.174  12.559  0.0471 -0.0430  0.4299
  485TMC3    C3 7211   4.496   3.090  12.539  0.4631 -0.1383 -0.1226
  485TMC3    C4 7212   4.265   3.008  12.421 -0.3343  0.9043 -0.2896
  485TMC3    C5 7213   4.386   2.947  12.392 -0.3191  0.0092  0.3614
  485TMC3    C6 7214   4.496   2.988  12.454 -0.1935  0.0890 -0.4407
  485TMC3     C 7215   4.133   3.166  12.555 -0.0872  0.2616 -0.3740
  485TMC3     O 7216   4.043   3.085  12.570 -0.0100  0.2445  0.2500
  485TMC3     H 7217   4.384   3.258  12.629 -0.8067  0.5838 -0.3530
  485TMC3    H1 7218   4.165   2.988  12.383 -0.6786  0.1696  1.0099
  485TMC3    H2 7219   4.592   2.957  12.413  1.2219  2.6327  0.8853
  485TMC3    C7 7220   4.417   2.913  12.259 -0.7434 -0.0557  0.0882
  485TMC3    C8 7221   4.628   3.152  12.547 -0.6119 -0.2759  0.2235
  485TMC3    O1 7222   4.509   2.836  12.233 -0.1607 -0.1622 -0.2240
  485TMC3    O2 7223   4.719   3.077  12.552  0.0487 -0.1179 -0.4319
  486MPD2     C 7224   1.267   2.353  13.008  0.4929 -0.3885 -0.1594
  486MPD2    C1 7225   1.156   2.338  12.928 -0.2224  0.1604 -0.3604
  486MPD2    C2 7226   1.084   2.456  12.896  0.1667 -0.5758 -1.3093
  486MPD2    C3 7227   1.129   2.581  12.941  0.1070 -0.4996 -0.6250
  486MPD2    C4 7228   1.244   2.592  13.027 -0.8390 -0.3619 -0.0034
  486MPD2    C5 7229   1.309   2.475  13.055 -0.6170  0.3010  0.6870
  486MPD2     H 7230   1.004   2.453  12.824 -1.0550 -1.8848  0.1099
  486MPD2    H1 7231   1.270   2.685  13.076  1.2379  0.1115 -2.0018
  486MPD2    H2 7232   1.332   2.269  13.027  1.8741  1.4655  3.1960
  486MPD2    H3 7233   1.401   2.483  13.112  0.4953 -0.4057 -0.9762
  486MPD2     N 7234   1.076   2.690  12.878 -0.1437 -0.0122  0.0060
  486MPD2    H5 7235   1.000   2.665  12.816  1.1549 -0.1392 -1.5627
  486MPD2    N1 7236   1.128   2.207  12.888  0.3710  0.7105  0.0154
  486MPD2    H7 7237   1.186   2.133  12.927 -0.0898  0.5390  0.3761
  487TMC3    C1 7238   1.020   2.024  12.777 -0.6280 -0.1780  0.0531
  487TMC3    C2 7239   0.961   1.977  12.664 -0.0306  0.5055 -0.3918
  487TMC3    C3 7240   0.969   1.843  12.643  0.2731 -0.0722  0.0455
  487TMC3    C4 7241   1.063   1.943  12.879 -0.9337 -0.3597 -0.4190
  487TMC3    C5 7242   1.072   1.813  12.845  0.3927 -0.2393 -1.0892
  487TMC3    C6 7243   1.030   1.765  12.730 -0.0986 -0.6380  0.1250
  487TMC3     C 7244   1.034   2.173  12.789 -1.0838 -0.0077  0.0528
  487TMC3     O 7245   0.975   2.248  12.710  0.3251 -0.2828  0.3295
  487TMC3     H 7246   0.924   2.051  12.594  0.9353  1.4307  0.0712
  487TMC3    H1 7247   1.066   1.974  12.983 -1.9858  0.7780 -0.7195
  487TMC3    H2 7248   1.062   1.667  12.697  0.6825 -0.5665  0.6541
  487TMC3    C7 7249   1.042   1.722  12.959 -0.2947 -1.1538 -0.0701
  487TMC3    C8 7250   0.841   1.783  12.638 -0.1481  0.5225  0.3270
  487TMC3    O1 7251   1.091   1.739  13.069  0.5262  0.5377  0.0525
  487TMC3    O2 7252   0.838   1.666  12.662 -0.4712 -0.0913 -0.3722
  488MPD2     C 7253   1.286   3.846  16.523 -0.5080 -0.4751 -0.4130
  488MPD2    C1 7254   1.263   3.980  16.508 -0.6347 -0.3366 -0.6279
  488MPD2    C2 7255   1.204   4.051  16.610 -0.8217  0.7297 -0.0955
  488MPD2    C3 7256   1.168   3.989  16.726  0.6917  0.1271  0.7668
  488MPD2    C4 7257   1.188   3.853  16.745 -0.0184  0.4351 -0.1334
  488MPD2    C5 7258   1.254   3.784  16.643  0.0793 -0.5884  0.2456
  488MPD2     H 7259   1.184   4.155  16.586  0.2478  0.7209 -0.9962
  488MPD2    H1 7260   1.175   3.794  16.835  0.4627 -1.4928 -1.3361
  488MPD2    H2 7261   1.327   3.788  16.441 -0.7067  0.6706 -1.3278
  488MPD2    H3 7262   1.271   3.678  16.660 -0.7233 -0.7165  0.2397
  488MPD2     N 7263   1.108   4.080  16.830  0.2409  0.9053 -0.4063
  488MPD2    H5 7264   1.096   4.176  16.800 -0.1368  0.6577 -1.0402
  488MPD2    N1 7265   1.299   4.058  16.392  0.0718  0.4204 -0.1207
  488MPD2    H7 7266   1.257   4.150  16.388 -0.4468  0.2054  0.3980
  489TMC3    C1 7267   1.085   4.153  17.067  0.4565 -0.2026  0.6255
  489TMC3    C2 7268   1.007   4.257  17.029  0.5432 -0.3720 -0.3123
  489TMC3    C3 7269   1.019   4.370  17.113 -0.2511 -0.0532 -0.4416
  489TMC3    C4 7270   1.174   4.162  17.174  0.2197 -0.2753 -0.3872
  489TMC3    C5 7271   1.173   4.266  17.259  0.2242 -0.0689 -0.2378
  489TMC3    C6 7272   1.095   4.376  17.230  0.9803  0.3074 -0.1455
  489TMC3     C 7273   1.104   4.043  16.966  0.0549 -0.0198  0.9010
  489TMC3     O 7274   1.158   3.949  17.019 -0.4747  0.4291  0.1501
  489TMC3     H 7275   0.961   4.254  16.931 -0.5738 -0.8343  0.2242
  489TMC3    H1 7276   1.247   4.083  17.190  0.9902  0.4314 -0.4444
  489TMC3    H2 7277   1.105   4.469  17.285  1.8861  1.0471 -1.5818
  489TMC3    C7 7278   1.255   4.275  17.382 -0.5233  0.1863 -0.7485
  489TMC3    C8 7279   0.979   4.497  17.060 -0.1321 -0.0764  0.0516
  489TMC3    O1 7280   1.250   4.385  17.431 -0.4462  0.5601  0.0296
  489TMC3    O2 7281   1.027   4.590  17.118  0.2538 -0.0408  0.2026
  490MPD2     C 7282   2.211   3.704  17.356  0.7471  0.2826 -0.0591
  490MPD2    C1 7283   2.252   3.575  17.333  0.1160 -0.3213 -0.0902
  490MPD2    C2 7284   2.389   3.541  17.321  0.1434  1.0161  0.0766
  490MPD2    C3 7285   2.481   3.643  17.336  0.0417  0.3353  0.8433
  490MPD2    C4 7286   2.446   3.773  17.359 -0.1804  0.1246  0.7485
  490MPD2    C5 7287   2.309   3.799  17.360  0.7883  0.0329 -0.6329
  490MPD2     H 7288   2.409   3.435  17.308  0.1715  0.9623  0.5731
  490MPD2    H1 7289   2.507   3.854  17.397 -0.7494  1.3955 -1.0036
  490MPD2    H2 7290   2.108   3.737  17.361  0.6535  0.1090 -0.9628
  490MPD2    H3 7291   2.288   3.899  17.395 -0.4089 -0.5979  0.4483
  490MPD2     N 7292   2.617   3.607  17.343  0.7577  0.0970 -0.6926
  490MPD2    H5 7293   2.677   3.663  17.403 -2.2575  1.8201  0.7501
  490MPD2    N1 7294   2.163   3.464  17.322  0.1548  0.1077  0.3994
  490MPD2    H7 7295   2.204   3.371  17.313 -1.2235 -0.2588 -2.0067
  491TMC3    C1 7296   1.957   3.342  17.327 -0.1826 -0.2655 -0.4478
  491TMC3    C2 7297   2.005   3.232  17.389 -0.2572  0.0357  0.3364
  491TMC3    C3 7298   1.940   3.111  17.365 -0.0122  0.4264  0.5099
  491TMC3    C4 7299   1.847   3.337  17.248 -0.3174 -0.1719 -0.0722
  491TMC3    C5 7300   1.778   3.215  17.233 -0.4663 -0.8691 -0.6366
  491TMC3    C6 7301   1.825   3.102  17.289  0.3191 -0.2597 -0.4041
  491TMC3     C 7302   2.025   3.467  17.334  0.3529  0.0158 -0.5396
  491TMC3     O 7303   1.952   3.567  17.334 -0.0669  0.2298  0.5189
  491TMC3     H 7304   2.078   3.243  17.468 -0.7272 -0.9798  0.9014
  491TMC3    H1 7305   1.830   3.431  17.197 -0.9835  0.3194  1.0471
  491TMC3    H2 7306   1.785   3.005  17.263 -1.3741  0.2373  0.3308
  491TMC3    C7 7307   1.653   3.200  17.151  0.5546 -0.1055 -0.2876
  491TMC3    C8 7308   2.030   2.995  17.391 -0.1613 -0.5599  0.0731
  491TMC3    O1 7309   1.610   3.084  17.131  0.2378  0.4351  0.4319
  491TMC3    O2 7310   2.147   3.021  17.365 -0.4162 -0.1594  0.9014
  492MPD2     C 7311   2.639   3.238  11.336 -0.1949 -0.4770  0.2374
  492MPD2    C1 7312   2.517   3.220  11.279  0.1238 -0.3264  0.6982
  492MPD2    C2 7313   2.426   3.146  11.344  0.2472 -0.5766  0.2007
  492MPD2    C3 7314   2.461   3.072  11.461  0.1818 -0.0913  0.3325
  492MPD2    C4 7315   2.579   3.098  11.519  0.1290  0.3646 -0.3781
  492MPD2    C5 7316   2.673   3.184  11.461 -0.2663 -0.1296 -0.3750
  492MPD2     H 7317   2.329   3.129  11.300 -1.0228  0.5250  2.5941
  492MPD2    H1 7318   2.613   3.029  11.596 -1.7740 -0.8691 -0.6504
  492MPD2    H2 7319   2.717   3.294  11.284 -0.9819  1.1508  0.8140
  492MPD2    H3 7320   2.776   3.186  11.496 -0.8851 -2.3182  1.5383
  492MPD2     N 7321   2.374   2.997  11.543  0.1482  0.0113 -0.3882
  492MPD2    H5 7322   2.427   2.956  11.620 -0.3928  1.2760  0.6495
  492MPD2    N1 7323   2.495   3.288  11.155 -0.0927  0.0828 -0.7473
  492MPD2    H7 7324   2.565   3.358  11.131 -1.1808  1.7280  0.8931
  493TMC3    C1 7325   2.404   3.344  10.954 -0.4028 -0.0471  0.2263
  493TMC3    C2 7326   2.521   3.417  10.933 -0.1656 -0.3610 -0.0209
  493TMC3    C3 7327   2.556   3.441  10.802  0.3563  0.1513 -0.2861
  493TMC3    C4 7328   2.319   3.315  10.850 -0.0058 -0.7005 -0.2935
  493TMC3    C5 7329   2.364   3.343  10.727 -0.2228  0.6588 -0.4612
  493TMC3    C6 7330   2.478   3.403  10.696  0.0678  0.5060 -0.2749
  493TMC3     C 7331   2.380   3.289  11.079  0.1599  0.0621  0.1550
  493TMC3     O 7332   2.275   3.227  11.095 -0.4264  0.4238 -0.0613
  493TMC3     H 7333   2.581   3.444  11.019 -1.4583  0.7468  0.5274
  493TMC3    H1 7334   2.231   3.255  10.873  0.0298  0.8044  3.8449
  493TMC3    H2 7335   2.508   3.415  10.593  0.7496 -1.7918 -0.3433
  493TMC3    C7 7336   2.299   3.280  10.611 -0.1401  0.2184 -0.1988
  493TMC3    C8 7337   2.681   3.514  10.783  0.3740  0.5724 -0.3050
  493TMC3    O1 7338   2.289   3.336  10.504  0.1789 -0.1147  0.4034
  493TMC3    O2 7339   2.755   3.515  10.880 -0.6698  0.3328 -0.3608
  494TMC3    C1 7340   2.446   0.164   0.592 -0.0402 -0.4017  0.7308
  494TMC3    C2 7341   2.522   0.063   0.634  0.0127  0.1045  0.0870
  494TMC3    C3 7342   2.633   0.035   0.558  0.0449  0.6944 -0.0677
  494TMC3    C4 7343   2.471   0.232   0.476 -0.2124 -0.0109  0.1327
  494TMC3    C5 7344   2.583   0.192   0.404 -0.8365  0.5437  0.3906
  494TMC3    C6 7345   2.663   0.087   0.439  0.1937 -0.3924  0.4180
  494TMC3     C 7346   2.362   0.219   0.694 -0.2063  0.2967  0.0573
  494TMC3     O 7347   2.359   0.161   0.803 -0.1168  0.2132 -0.2822
  494TMC3     H 7348   2.516   0.020   0.733  2.1865 -0.2580  0.0630
  494TMC3    H1 7349   2.425   0.323   0.440  0.6453  0.8563  1.2376
  494TMC3    H2 7350   2.736   0.044   0.372  0.7571  1.1512  0.0436
  494TMC3    C7 7351   2.621   0.269   0.283 -0.2895  0.0558  0.0379
  494TMC3    C8 7352   2.705   4.637   0.591  0.4623 -0.6846  0.5056
  494TMC3    O1 7353   2.660   0.211   0.184 -0.4700  0.2609 -0.1913
  494TMC3    O2 7354   2.825   4.638   0.572 -0.2830  0.7788 -0.0118
  495TMC3    C1 7355   1.546   2.160  14.889 -0.4520 -0.1476  0.0811
  495TMC3    C2 7356   1.517   2.207  14.769 -0.1460  0.2282  0.1104
  495TMC3    C3 7357   1.420   2.306  14.750 -0.3596  0.6872  0.2173
  495TMC3    C4 7358   1.497   2.219  14.998  0.3430  0.1207 -0.5687
  495TMC3    C5 7359   1.418   2.335  14.986 -0.3105  0.6472 -0.0679
  495TMC3    C6 7360   1.371   2.376  14.861  0.3526  0.8256  0.7011
  495TMC3     C 7361   1.500   2.019  14.901 -0.4963 -0.2386  0.3156
  495TMC3     O 7362   1.549   1.937  14.828 -0.2182  0.6955  0.3043
  495TMC3     H 7363   1.549   2.139  14.690  0.3425 -0.3248  0.7865
  495TMC3    H1 7364   1.528   2.177  15.093  2.7023 -1.1238 -1.8859
  495TMC3    H2 7365   1.302   2.459  14.858 -0.1521  0.4236  1.0815
  495TMC3    C7 7366   1.337   2.347  15.103 -0.0113 -0.3260  0.5701
  495TMC3    C8 7367   1.328   2.303  14.639 -1.0556  0.2922  0.0511
  495TMC3    O1 7368   1.405   2.361  15.201  0.1998 -0.2170 -0.2233
  495TMC3    O2 7369   1.228   2.378  14.637 -0.4514  0.0919 -0.6885
  496MPD2     C 7370   3.700   2.337  15.240  1.2064  0.0275 -0.0298
  496MPD2    C1 7371   3.715   2.243  15.333 -0.6127  0.0164 -0.2698
  496MPD2    C2 7372   3.658   2.264  15.456 -0.4192  0.2562 -0.7614
  496MPD2    C3 7373   3.589   2.389  15.487  0.2387 -0.2241  0.2461
  496MPD2    C4 7374   3.583   2.484  15.390  0.3957 -0.7158  1.7569
  496MPD2    C5 7375   3.645   2.459  15.269 -0.2568 -0.5390  0.2044
  496MPD2     H 7376   3.656   2.192  15.537  0.1526  1.7846  0.6347
  496MPD2    H1 7377   3.530   2.578  15.399  1.9466  0.2150  1.1954
  496MPD2    H2 7378   3.723   2.313  15.136  0.9488 -1.5967  0.2865
  496MPD2    H3 7379   3.635   2.524  15.183 -0.2290  0.5960  1.0544
  496MPD2     N 7380   3.508   2.412  15.593 -0.3611 -0.2163 -1.2264
  496MPD2    H5 7381   3.464   2.503  15.607 -1.6272 -1.3607  2.2075
  496MPD2    N1 7382   3.792   2.138  15.302 -0.7359 -0.2599 -0.2103
  496MPD2    H7 7383   3.848   2.140  15.217 -2.7980 -0.5382 -1.5842
  497TMC3    C1 7384   3.384   2.368  15.783  0.5751  0.2881  0.6051
  497TMC3    C2 7385   3.284   2.445  15.723 -0.2778  0.3257 -0.2912
  497TMC3    C3 7386   3.176   2.458  15.803 -0.7790  0.0265  0.7599
  497TMC3    C4 7387   3.387   2.320  15.912  0.5609 -0.5756 -0.4234
  497TMC3    C5 7388   3.278   2.354  15.993 -0.8654  0.0713  1.2403
  497TMC3    C6 7389   3.173   2.423  15.937  0.3827 -0.2398 -0.3899
  497TMC3     C 7390   3.493   2.327  15.695 -0.8656 -0.1476 -0.1837
  497TMC3     O 7391   3.566   2.233  15.726  0.2899 -0.3773  0.5719
  497TMC3     H 7392   3.275   2.485  15.623 -3.2683  0.9086  0.1868
  497TMC3    H1 7393   3.479   2.274  15.945 -0.6346 -0.4875  3.0479
  497TMC3    H2 7394   3.095   2.441  16.011  0.2644  1.8799 -1.0270
  497TMC3    C7 7395   3.261   2.300  16.122 -0.3569 -0.1944  0.2882
  497TMC3    C8 7396   3.051   2.478  15.736 -0.7988 -1.0355  0.8126
  497TMC3    O1 7397   3.142   2.294  16.168  0.1287 -0.4227  0.3344
  497TMC3    O2 7398   3.041   2.564  15.649 -0.1513 -0.1630  0.2423
  498MPD2     C 7399   0.301   2.909   9.716  0.4718 -0.8016 -0.9057
  498MPD2    C1 7400   0.281   3.020   9.794 -0.5335  0.1561  0.5101
  498MPD2    C2 7401   0.171   3.027   9.878 -0.0989  0.6634 -0.2474
  498MPD2    C3 7402   0.092   2.916   9.902  0.2061 -0.2792 -1.1116
  498MPD2    C4 7403   0.115   2.796   9.835  0.2272 -0.6362  0.6572
  498MPD2    C5 7404   0.223   2.801   9.748 -0.5064  0.0412  0.3412
  498MPD2     H 7405   0.133   3.123   9.912 -1.0495 -0.2452  1.2588
  498MPD2    H1 7406   0.060   2.703   9.847  1.0105 -1.4447 -1.9543
  498MPD2    H2 7407   0.374   2.895   9.638  0.3265  3.5559 -1.8133
  498MPD2    H3 7408   0.257   2.707   9.707 -0.6393  1.0051 -2.0288
  498MPD2     N 7409   4.696   2.926   9.984 -0.3401 -0.0247  0.5497
  498MPD2    H5 7410   4.690   3.012  10.036  1.4274  0.6367 -0.3153
  498MPD2    N1 7411   0.359   3.138   9.785 -0.0369 -0.1189 -0.2828
  498MPD2    H7 7412   0.318   3.210   9.843  0.5490 -0.2822  0.3251
  499TMC3    C1 7413   0.520   3.296   9.703 -0.0692  0.0824  0.0657
  499TMC3    C2 7414   0.649   3.318   9.666 -0.1853 -0.0576  0.0844
  499TMC3    C3 7415   0.694   3.449   9.674 -0.2809  0.1807  0.2773
  499TMC3    C4 7416   0.438   3.400   9.737 -0.6103  0.1149  0.6750
  499TMC3    C5 7417   0.483   3.524   9.759 -0.0036  0.5653 -1.0572
  499TMC3    C6 7418   0.614   3.551   9.728 -0.0352 -0.3685 -0.1869
  499TMC3     C 7419   0.470   3.160   9.699  0.2481 -1.2394  0.0256
  499TMC3     O 7420   0.533   3.074   9.637  0.1050 -0.1438 -0.1391
  499TMC3     H 7421   0.714   3.234   9.643 -1.6348 -0.9656 -0.6940
  499TMC3    H1 7422   0.332   3.379   9.751 -0.6309  0.9141  1.6991
  499TMC3    H2 7423   0.653   3.651   9.737 -1.2807  0.0060  0.9313
  499TMC3    C7 7424   0.393   3.634   9.728 -0.0124  0.8466  0.9540
  499TMC3    C8 7425   0.834   3.479   9.652 -0.1479 -0.7894  0.3445
  499TMC3    O1 7426   0.443   3.722   9.662 -0.4965  0.3164  0.3487
  499TMC3    O2 7427   0.865   3.595   9.673  0.2623 -0.5011 -0.1519
  500MPD2     C 7428   1.674   4.162  10.094 -0.3757 -0.1424  0.9496
  500MPD2    C1 7429   1.639   4.286  10.131 -0.0296 -0.0061 -0.1236
  500MPD2    C2 7430   1.516   4.345  10.095 -0.1443  0.0736 -0.8967
  500MPD2    C3 7431   1.427   4.274  10.014  0.2001  0.5396 -0.4284
  500MPD2    C4 7432   1.471   4.152   9.967  0.2347 -0.4723  0.2379
  500MPD2    C5 7433   1.588   4.096  10.007  0.3058  0.1992  0.2213
  500MPD2     H 7434   1.494   4.441  10.138  0.8199  0.8632 -2.1627
  500MPD2    H1 7435   1.414   4.089   9.901 -0.5929  0.0753  0.4301
  500MPD2    H2 7436   1.752   4.103  10.140 -0.0850 -0.1748  0.4167
  500MPD2    H3 7437   1.618   3.997   9.975  0.3901  0.3358 -0.1213
  500MPD2     N 7438   1.297   4.333   9.980  0.3876 -0.1560 -0.1667
  500MPD2    H5 7439   1.277   4.423  10.021  1.0471 -0.6714  1.3017
  500MPD2    N1 7440   1.730   4.372  10.203  0.3736  0.5412 -0.0446
  500MPD2    H7 7441   1.684   4.457  10.234 -2.1453  0.1775 -2.7595
  501TMC3    C1 7442   1.923   4.456  10.287 -0.9617  0.0319 -1.3512
  501TMC3    C2 7443   1.906   4.577  10.239 -0.1804  0.7636 -0.1514
  501TMC3    C3 7444   1.996   4.679  10.256 -0.3969  0.6544 -0.2755
  501TMC3    C4 7445   2.036   4.428  10.358 -0.4488  0.3791  0.3226
  501TMC3    C5 7446   2.129   4.525  10.369 -0.1815 -0.5409 -0.3209
  501TMC3    C6 7447   2.112   4.656  10.315 -0.0401 -0.1171  0.1611
  501TMC3     C 7448   1.862   4.347  10.231 -0.0632 -0.1001 -0.4190
  501TMC3     O 7449   1.929   4.244  10.216 -0.4819 -0.3000 -0.3738
  501TMC3     H 7450   1.812   4.610  10.196 -1.6448 -3.0856  0.0456
  501TMC3    H1 7451   2.070   4.329  10.384 -0.2405  0.4654  0.3812
  501TMC3    H2 7452   2.185   0.012  10.329 -1.2593  1.4661 -2.3386
  501TMC3    C7 7453   2.249   4.482  10.444  0.2374  0.6778  0.1486
  501TMC3    C8 7454   1.958   0.098  10.239 -0.5245  0.1755 -0.4806
  501TMC3    O1 7455   2.256   4.366  10.480  0.3198 -0.4183  0.1930
  501TMC3    O2 7456   2.040   0.182  10.275 -0.6971 -0.5272 -0.3209
  502TMC3    C1 7457   0.507   2.780  14.730 -0.6364 -1.0263  0.0740
  502TMC3    C2 7458   0.524   2.849  14.611  0.3321 -0.1797 -0.4619
  502TMC3    C3 7459   0.478   2.979  14.604 -0.4283  0.1636  0.0960
  502TMC3    C4 7460   0.410   2.828  14.817  0.2208  0.0950 -0.7484
  502TMC3    C5 7461   0.346   2.946  14.793 -0.2593 -0.0183  0.9120
  502TMC3    C6 7462   0.382   3.028  14.693 -0.5568 -0.2596  0.3289
  502TMC3     C 7463   0.635   2.746  14.792 -0.3304 -0.0362 -0.2885
  502TMC3     O 7464   0.732   2.727  14.719 -0.5598 -0.0790  0.1213
  502TMC3     H 7465   0.605   2.809  14.551  0.8105  0.0933  0.0044
  502TMC3    H1 7466   0.374   2.760  14.893  3.0323 -1.3246 -0.6958
  502TMC3    H2 7467   0.346   3.130  14.686 -0.5738 -0.2342  0.8546
  502TMC3    C7 7468   0.314   3.013  14.922  0.0101  0.0375 -0.6455
  502TMC3    C8 7469   0.579   3.077  14.572  0.3771  0.4627 -0.8123
  502TMC3    O1 7470   0.347   2.952  15.023 -0.1325 -0.7335  0.3442
  502TMC3    O2 7471   0.542   3.194  14.562 -0.9333  0.0941 -0.1552
  503MPD2     C 7472   3.086   3.997  16.776  0.5106 -0.3971 -0.2737
  503MPD2    C1 7473   3.055   4.002  16.911 -0.2134  0.2938 -0.1731
  503MPD2    C2 7474   3.090   3.894  16.992 -0.2698 -0.2223 -0.3731
  503MPD2    C3 7475   3.155   3.786  16.942  0.0682 -0.0821 -0.9601
  503MPD2    C4 7476   3.191   3.789  16.811 -0.0158  0.4719 -0.1517
  503MPD2    C5 7477   3.160   3.890  16.727 -0.1084  0.6223  0.2302
  503MPD2     H 7478   3.053   3.897  17.093 -3.2245  0.3106 -1.4705
  503MPD2    H1 7479   3.230   3.703  16.758  0.1298  0.1332  0.5058
  503MPD2    H2 7480   3.058   4.073  16.704  0.0421 -0.6036 -0.3098
  503MPD2    H3 7481   3.185   3.890  16.621 -0.4109  1.3894  0.1624
  503MPD2     N 7482   3.173   3.678  17.036 -0.5566  0.2013  0.1679
  503MPD2    H5 7483   3.129   3.693  17.126 -1.0598 -1.0016  0.1256
  503MPD2    N1 7484   2.987   4.111  16.969 -0.2016 -0.8200 -0.2395
  503MPD2    H7 7485   2.973   4.100  17.069  0.7698 -2.0712 -0.2426
  504TMC3    C1 7486   3.231   3.456  17.112  0.0740 -0.1272 -0.1738
  504TMC3    C2 7487   3.213   3.498  17.241 -0.0164  0.3198 -0.3506
  504TMC3    C3 7488   3.271   3.436  17.341 -0.3304 -0.8471 -0.1655
  504TMC3    C4 7489   3.314   3.350  17.081 -0.2155  0.1790 -0.0116
  504TMC3    C5 7490   3.380   3.296  17.190  0.5201 -0.3375 -0.0610
  504TMC3    C6 7491   3.366   3.340  17.318 -0.5525 -0.6936 -0.3860
  504TMC3     C 7492   3.239   3.558  17.012  0.4317  0.3521  0.5409
  504TMC3     O 7493   3.323   3.535  16.921  0.1508 -0.1496  0.2584
  504TMC3     H 7494   3.159   3.588  17.267 -0.0652  0.4599 -0.9285
  504TMC3    H1 7495   3.319   3.322  16.976 -3.6956  1.2521 -0.4391
  504TMC3    H2 7496   3.432   3.315  17.400  1.9879  2.0706 -1.6025
  504TMC3    C7 7497   3.469   3.183  17.154  1.1029  0.6203  0.1512
  504TMC3    C8 7498   3.234   3.473  17.474 -0.1228 -0.2999  0.3819
  504TMC3    O1 7499   3.496   3.160  17.038  0.3488  0.6701 -0.1399
  504TMC3    O2 7500   3.166   3.578  17.491  0.5200  0.1831 -0.3655
  505MPD2     C 7501   3.649   2.849  10.953  0.2445  0.6726 -0.0753
  505MPD2    C1 7502   3.651   2.724  10.892 -0.0100  0.0603  0.0066
  505MPD2    C2 7503   3.758   2.638  10.930 -0.2414 -0.4789 -0.0433
  505MPD2    C3 7504   3.848   2.677  11.032  0.1586 -0.0963  0.3411
  505MPD2    C4 7505   3.832   2.796  11.094  0.3425 -0.7603 -0.1752
  505MPD2    C5 7506   3.736   2.880  11.058 -0.0476 -0.0559 -0.3350
  505MPD2     H 7507   3.766   2.537  10.892  1.2340 -0.3870  0.0062
  505MPD2    H1 7508   3.884   2.823  11.186  0.2000  1.6304 -0.7944
  505MPD2    H2 7509   3.572   2.924  10.946 -1.1810 -0.7882 -0.0792
  505MPD2    H3 7510   3.716   2.965  11.122 -0.2941 -1.1916  1.0923
  505MPD2     N 7511   3.941   2.580  11.071 -1.2003  0.2426 -0.0518
  505MPD2    H5 7512   3.939   2.494  11.018 -0.0452 -0.6672  1.4061
  505MPD2    N1 7513   3.548   2.691  10.804 -0.1760  0.8372  0.3771
  505MPD2    H7 7514   3.483   2.762  10.770  1.6593  1.2857 -2.2569
  506TMC3    C1 7515   3.436   2.548  10.653 -0.1242 -0.2339 -0.3737
  506TMC3    C2 7516   3.449   2.643  10.553 -0.8061  0.1981  0.9030
  506TMC3    C3 7517   3.425   2.598  10.426  0.2494  0.4062 -0.1325
  506TMC3    C4 7518   3.415   2.411  10.625  0.3239 -0.4034  0.1820
  506TMC3    C5 7519   3.413   2.364  10.487 -0.3626  0.6696  0.2115
  506TMC3    C6 7520   3.421   2.463  10.388 -0.1336  0.0745  0.7569
  506TMC3     C 7521   3.526   2.562  10.765 -0.1373  0.3597  0.1930
  506TMC3     O 7522   3.564   2.456  10.810  0.5001  0.3582 -0.6007
  506TMC3     H 7523   3.462   2.750  10.568  2.1669 -0.2645  1.6198
  506TMC3    H1 7524   3.392   2.343  10.707 -0.6484  1.7269  1.6764
  506TMC3    H2 7525   3.406   2.438  10.284  1.5268  0.3259  0.4567
  506TMC3    C7 7526   3.502   2.268  10.471  0.0848 -0.2376  0.0191
  506TMC3    C8 7527   3.472   2.686  10.322 -0.4341  0.7580 -0.0423
  506TMC3    O1 7528   3.501   2.205  10.366 -0.3983 -0.2569  0.0716
  506TMC3    O2 7529   3.418   2.680  10.215 -0.7076  0.1613 -0.2233
  507TMC3    C1 7530   3.442   3.387  13.843  0.0658 -0.5272  0.6058
  507TMC3    C2 7531   3.509   3.438  13.737 -0.7609  0.8205  0.2440
  507TMC3    C3 7532   3.647   3.438  13.736  0.0273 -0.3135  0.2000
  507TMC3    C4 7533   3.525   3.334  13.943  0.0606  0.1544  0.1058
  507TMC3    C5 7534   3.660   3.319  13.929 -0.1969  0.1502  0.2789
  507TMC3    C6 7535   3.716   3.352  13.811 -0.3238  0.2646 -0.3406
  507TMC3     C 7536   3.299   3.388  13.862 -0.2511  0.0924  0.5920
  507TMC3     O 7537   3.248   3.349  13.962 -0.0974  0.2314  0.1636
  507TMC3     H 7538   3.465   3.491  13.654 -1.5412 -0.2469 -0.0140
  507TMC3    H1 7539   3.481   3.287  14.030  1.5159  1.6345  1.6419
  507TMC3    H2 7540   3.823   3.338  13.798 -0.6635 -2.5278 -0.1107
  507TMC3    C7 7541   3.746   3.327  14.044 -1.0296 -0.4449 -0.6558
  507TMC3    C8 7542   3.703   3.566  13.700  0.3923 -0.2024 -0.5765
  507TMC3    O1 7543   3.864   3.342  14.016 -0.1725 -0.5272 -0.6317
  507TMC3    O2 7544   3.643   3.644  13.631  0.3794 -0.0217  0.1796
  508MPD2     C 7545   4.416   0.807  15.844  0.1243 -0.3261  0.5043
  508MPD2    C1 7546   4.556   0.809  15.865  0.4498 -0.7331  0.2088
  508MPD2    C2 7547   4.628   0.832  15.750  0.9514 -0.2308 -0.1486
  508MPD2    C3 7548   4.570   0.881  15.633  0.0853  0.5878 -0.0382
  508MPD2    C4 7549   4.431   0.876  15.618 -0.4407 -0.4554  0.3264
  508MPD2    C5 7550   4.357   0.838  15.727  0.4379  0.2439 -0.1866
  508MPD2     H 7551   0.013   0.838  15.752  0.9092  0.2038  0.9819
  508MPD2    H1 7552   4.386   0.904  15.523  2.3278 -1.4570 -1.2670
  508MPD2    H2 7553   4.351   0.788  15.928  1.4110  2.6233  2.1499
  508MPD2    H3 7554   4.249   0.831  15.716  0.2091  2.9105  0.4459
  508MPD2     N 7555   4.644   0.929  15.524  0.4630 -0.5384 -0.2294
  508MPD2    H5 7556   4.593   0.973  15.448 -1.2525 -1.5705  0.3186
  508MPD2    N1 7557   4.609   0.799  15.994 -0.5329  0.2932  0.2445
  508MPD2    H7 7558   4.548   0.773  16.071 -1.2677  1.0089 -0.0925
  509TMC3    C1 7559   0.044   1.230  15.297  0.1857 -0.1513  0.2922
  509TMC3    C2 7560   0.172   1.278  15.312 -0.6577 -0.1152 -0.0503
  509TMC3    C3 7561   0.262   1.191  15.364  0.1697  0.2286 -0.0410
  509TMC3    C4 7562   0.012   1.101  15.339 -0.6067  0.7319 -0.0181
  509TMC3    C5 7563   0.101   1.029  15.408 -0.2278 -0.6677 -0.0095
  509TMC3    C6 7564   0.233   1.068  15.415 -0.0393  0.1485  1.1816
  509TMC3     C 7565   4.664   1.312  15.232 -0.6540 -0.2792  0.4417
  509TMC3     O 7566   4.560   1.251  15.201  0.7031 -0.2673 -0.2641
  509TMC3     H 7567   0.190   1.374  15.267  0.0497  0.2483  1.0102
  509TMC3    H1 7568   4.632   1.077  15.317  0.0204 -2.5332  0.6796
  509TMC3    H2 7569   0.305   1.001  15.460  2.0096 -0.0318 -2.4307
  509TMC3    C7 7570   0.060   0.935  15.507 -0.0452 -0.4257  0.7678
  509TMC3    C8 7571   0.383   1.248  15.414  0.3147 -0.2596 -0.0526
  509TMC3    O1 7572   0.147   0.887  15.581 -0.5190  0.8065  0.1095
  509TMC3    O2 7573   0.444   1.177  15.494  0.3262  0.1747 -0.2120
  510MPD2     C 7574   2.640   2.756  14.296  0.6708 -1.2721  0.7208
  510MPD2    C1 7575   2.674   2.758  14.428  0.1983 -0.2490  0.6326
  510MPD2    C2 7576   2.808   2.765  14.465 -0.7531 -0.4628 -0.5391
  510MPD2    C3 7577   2.912   2.751  14.377  0.2885 -0.5627 -0.6503
  510MPD2    C4 7578   2.874   2.749  14.242 -0.4393 -0.2160  0.2293
  510MPD2    C5 7579   2.743   2.742  14.202  0.1201 -0.2571  0.4147
  510MPD2     H 7580   2.844   2.761  14.567 -1.1269  0.5986 -0.3575
  510MPD2    H1 7581   2.956   2.728  14.174 -1.6197 -0.8075 -0.9903
  510MPD2    H2 7582   2.537   2.756  14.263  0.7973  2.6819  0.3176
  510MPD2    H3 7583   2.713   2.726  14.099  0.6835 -0.6364  0.3124
  510MPD2     N 7584   3.044   2.749  14.426  0.0999 -0.3363 -0.3230
  510MPD2    H5 7585   3.056   2.727  14.525  0.8405  0.0943 -0.3096
  510MPD2    N1 7586   2.571   2.748  14.524 -0.3022 -0.0086  0.2126
  510MPD2    H7 7587   2.477   2.742  14.487 -0.1308 -0.6121 -0.1400
  511TMC3    C1 7588   2.461   2.685  14.715 -0.3527 -0.2285 -0.0647
  511TMC3    C2 7589   2.441   2.707  14.853  0.4076 -0.0216  0.2574
  511TMC3    C3 7590   2.374   2.613  14.929  0.3132  0.0565 -0.3737
  511TMC3    C4 7591   2.417   2.570  14.658 -0.1063  0.4219 -0.3688
  511TMC3    C5 7592   2.357   2.475  14.738  0.0386 -0.3222  0.2064
  511TMC3    C6 7593   2.325   2.496  14.871 -0.1780  0.2028 -0.2084
  511TMC3     C 7594   2.587   2.732  14.662 -0.3961 -0.5560  0.5150
  511TMC3     O 7595   2.688   2.726  14.725 -0.1962  0.5001  0.3294
  511TMC3     H 7596   2.502   2.778  14.909  1.4620  1.1980 -2.4472
  511TMC3    H1 7597   2.460   2.546  14.562  0.5284  1.1267 -0.2575
  511TMC3    H2 7598   2.255   2.434  14.926 -0.6388  0.8913 -0.0312
  511TMC3    C7 7599   2.339   2.339  14.686  0.5441 -0.1357 -0.1559
  511TMC3    C8 7600   2.346   2.644  15.068  0.1064  0.0819 -0.1722
  511TMC3    O1 7601   2.336   2.314  14.564  0.8218  0.0077 -0.2272
  511TMC3    O2 7602   2.376   2.757  15.100  0.3409 -0.1536 -0.0982
  512TMC3    C1 7603   1.344   2.208  13.353 -0.1185 -0.5355 -0.3621
  512TMC3    C2 7604   1.465   2.200  13.416 -0.0619  0.4620  0.1863
  512TMC3    C3 7605   1.538   2.096  13.375 -0.3645  0.5318  0.1202
  512TMC3    C4 7606   1.299   2.122  13.263  0.0107  0.0466  0.0641
  512TMC3    C5 7607   1.364   2.006  13.242 -0.3715 -0.4810  0.2439
  512TMC3    C6 7608   1.488   1.998  13.294  0.2730  0.5447  0.0667
  512TMC3     C 7609   1.238   2.281  13.423 -0.2206 -0.3308 -0.4318
  512TMC3     O 7610   1.124   2.233  13.432  0.2345 -0.4065  0.4440
  512TMC3     H 7611   1.483   2.264  13.501 -1.9089 -1.5065  2.0528
  512TMC3    H1 7612   1.205   2.151  13.217 -1.2997 -2.2288  1.3297
  512TMC3    H2 7613   1.556   1.918  13.268 -0.8255 -0.4431  0.2309
  512TMC3    C7 7614   1.353   1.950  13.108 -0.4753 -0.1790  0.4171
  512TMC3    C8 7615   1.685   2.086  13.389  0.4477  0.2479 -0.5539
  512TMC3    O1 7616   1.308   2.030  13.025 -0.3356 -0.2869  0.3048
  512TMC3    O2 7617   1.747   1.981  13.365 -0.3040 -0.2841 -0.1584
  513MPD2     C 7618   3.556   2.371  12.949 -0.3743 -0.3252 -0.5207
  513MPD2    C1 7619   3.566   2.233  12.937 -1.0110  0.1861  0.0696
  513MPD2    C2 7620   3.621   2.167  13.041  0.3212  0.0914 -0.1555
  513MPD2    C3 7621   3.671   2.230  13.148  0.3338 -0.1125  0.6065
  513MPD2    C4 7622   3.657   2.366  13.163  0.2878  0.5743  0.0080
  513MPD2    C5 7623   3.602   2.441  13.061 -0.2282 -0.6279 -0.5498
  513MPD2     H 7624   3.624   2.058  13.043  0.5974  0.0876 -0.7060
  513MPD2    H1 7625   3.700   2.418  13.248  0.2768  1.5128 -0.5598
  513MPD2    H2 7626   3.508   2.432  12.873 -1.5248 -0.4174  0.1286
  513MPD2    H3 7627   3.602   2.548  13.077 -0.4329 -0.4291 -1.8754
  513MPD2     N 7628   3.737   2.141  13.238  0.5144  0.1486 -0.1935
  513MPD2    H5 7629   3.728   2.042  13.215 -1.1448  0.3276 -0.2451
  513MPD2    N1 7630   3.517   2.158  12.830  0.8508  0.5222  0.1506
  513MPD2    H7 7631   3.533   2.059  12.842 -2.6264  0.2089  2.3569
  514TMC3    C1 7632   3.389   2.095  12.646 -0.6563  0.5889  0.5064
  514TMC3    C2 7633   3.417   2.094  12.511 -0.0317  0.3283  0.0157
  514TMC3    C3 7634   3.457   1.974  12.459 -0.1636  0.3451 -0.1347
  514TMC3    C4 7635   3.378   1.976  12.717  0.6953 -0.4066  0.1841
  514TMC3    C5 7636   3.440   1.862  12.671  0.0475 -0.3138 -0.1705
  514TMC3    C6 7637   3.471   1.860  12.540 -0.8285  0.1691 -0.3750
  514TMC3     C 7638   3.443   2.203  12.721  0.5017  1.2141 -0.3618
  514TMC3     O 7639   3.432   2.316  12.677 -0.1000 -0.2237 -0.7888
  514TMC3     H 7640   3.430   2.184  12.451 -1.5729  0.4289 -0.1605
  514TMC3    H1 7641   3.360   1.989  12.823 -0.7313  1.4770 -0.2934
  514TMC3    H2 7642   3.493   1.766  12.490 -2.0050  0.4696 -1.4656
  514TMC3    C7 7643   3.534   1.803  12.769 -0.7504 -0.4149 -0.4325
  514TMC3    C8 7644   3.468   1.956  12.316  0.1219 -0.1814  0.1965
  514TMC3    O1 7645   3.542   1.871  12.870  0.0897 -0.0404  0.0490
  514TMC3    O2 7646   3.463   1.840  12.272 -0.2595 -0.1999 -0.0227
  515MPD2     C 7647   1.608   4.015  14.986 -0.4680  0.1600 -1.0012
  515MPD2    C1 7648   1.688   3.920  14.933 -0.5541 -0.6872  0.5640
  515MPD2    C2 7649   1.820   3.943  14.944 -0.3327 -0.2339 -0.2901
  515MPD2    C3 7650   1.874   4.056  15.008  0.4226 -0.9308  0.3679
  515MPD2    C4 7651   1.788   4.150  15.056  0.0374 -0.2831  0.5272
  515MPD2    C5 7652   1.656   4.126  15.052 -0.2076  0.1638 -0.4689
  515MPD2     H 7653   1.883   3.875  14.889 -0.3804  1.0928 -1.9687
  515MPD2    H1 7654   1.821   4.224  15.128 -0.0081 -1.2002  1.5083
  515MPD2    H2 7655   1.500   4.004  14.983 -0.4204 -0.6991  0.3963
  515MPD2    H3 7656   1.587   4.191  15.105  1.9061  2.1485 -0.1188
  515MPD2     N 7657   2.015   4.075  15.018 -0.2606  0.3413 -0.0450
  515MPD2    H5 7658   2.040   4.168  15.051 -0.9229 -0.1290  1.8122
  515MPD2    N1 7659   1.650   3.807  14.853  0.1432  0.5288 -0.9562
  515MPD2    H7 7660   1.729   3.752  14.822 -0.0204 -1.3746  2.0320
  516TMC3    C1 7661   1.525   3.663  14.723 -0.0969  0.4728  0.3086
  516TMC3    C2 7662   1.442   3.676  14.613  0.1089 -0.9924  0.3308
  516TMC3    C3 7663   1.396   3.559  14.564  0.7575 -0.4572  0.2255
  516TMC3    C4 7664   1.557   3.539  14.774 -0.7830 -0.0126 -0.7336
  516TMC3    C5 7665   1.508   3.432  14.710 -0.5877 -0.1201  0.2661
  516TMC3    C6 7666   1.435   3.435  14.598 -0.4784 -0.6889 -0.2736
  516TMC3     C 7667   1.522   3.773  14.818  0.1355 -0.2615 -0.2846
  516TMC3     O 7668   1.415   3.824  14.836  0.4985  0.4483 -0.4493
  516TMC3     H 7669   1.401   3.773  14.590  0.7628 -0.5633  0.9849
  516TMC3    H1 7670   1.593   3.525  14.875 -1.0559 -1.4725 -0.8501
  516TMC3    H2 7671   1.392   3.349  14.549 -0.1035 -1.2856  0.4338
  516TMC3    C7 7672   1.506   3.302  14.787 -0.0867 -0.2921  0.2684
  516TMC3    C8 7673   1.329   3.563  14.434 -0.6598 -0.5721 -0.0895
  516TMC3    O1 7674   1.520   3.312  14.906 -0.2576  0.1532 -0.6498
  516TMC3    O2 7675   1.250   3.474  14.408  0.3178 -0.3535 -0.0415
  517MPD2     C 7676   0.890   0.475  17.368  0.2430 -0.1131 -0.2805
  517MPD2    C1 7677   1.014   0.494  17.423 -0.1928  0.8347  0.2929
  517MPD2    C2 7678   1.045   0.587  17.525  0.2582  0.1133  1.0250
  517MPD2    C3 7679   0.943   0.643  17.596  0.1970 -0.4029 -0.1289
  517MPD2    C4 7680   0.815   0.618  17.550 -0.2420 -0.3303 -0.2468
  517MPD2    C5 7681   0.787   0.535  17.433  0.4397 -0.1255 -0.0018
  517MPD2     H 7682   1.148   0.605  17.555 -0.8522  1.5083  4.0279
  517MPD2    H1 7683   0.728   0.653  17.604 -1.9837 -3.4784 -0.9888
  517MPD2    H2 7684   0.874   0.427  17.272  0.1006  1.0432 -0.8350
  517MPD2    H3 7685   0.693   0.540  17.379 -0.0187 -1.4293  0.6678
  517MPD2     N 7686   0.954   0.728   0.013 -0.9690  0.3314 -0.1786
  517MPD2    H5 7687   0.872   0.760   0.062 -1.9183  0.4184 -1.8358
  517MPD2    N1 7688   1.124   0.431  17.361  0.7008 -0.3266 -0.3676
  517MPD2    H7 7689   1.219   0.455  17.389  1.1285 -1.1981 -1.0681
  518TMC3    C1 7690   1.253   0.279  17.238  0.0309 -0.0617  0.0582
  518TMC3    C2 7691   1.265   0.143  17.220  0.6821 -0.2147 -1.0432
  518TMC3    C3 7692   1.383   0.094  17.245  0.1194 -0.5409  0.0541
  518TMC3    C4 7693   1.360   0.363  17.269 -0.0409  0.0016 -0.0140
  518TMC3    C5 7694   1.479   0.305  17.281  0.2146  0.1101  0.6016
  518TMC3    C6 7695   1.495   0.168  17.270 -0.3963 -0.7046 -0.3341
  518TMC3     C 7696   1.126   0.320  17.285  0.4228 -0.3697 -0.9833
  518TMC3     O 7697   1.037   0.234  17.273 -0.0010  0.0731 -0.6151
  518TMC3     H 7698   1.179   0.080  17.197  0.7444  0.0245 -1.9406
  518TMC3    H1 7699   1.349   0.470  17.258 -1.7387 -0.2015 -0.2651
  518TMC3    H2 7700   1.589   0.122  17.296  0.5206  1.0918 -0.4693
  518TMC3    C7 7701   1.598   0.392  17.284  0.4301 -0.5158 -0.1208
  518TMC3    C8 7702   1.409   4.682  17.203 -0.6848 -0.6276  0.0226
  518TMC3    O1 7703   1.595   0.511  17.315  0.6814  0.2638 -0.1386
  518TMC3    O2 7704   1.500   4.621  17.259  0.5658 -0.5570  0.2326
  519MPD2     C 7705   3.109   3.869  13.996 -0.1818  0.2430 -0.6782
  519MPD2    C1 7706   3.010   3.846  14.082 -0.4202 -0.6248 -0.3727
  519MPD2    C2 7707   3.015   3.729  14.158 -0.1335 -0.1113 -0.1242
  519MPD2    C3 7708   3.111   3.635  14.125 -0.1986 -0.6153 -0.1471
  519MPD2    C4 7709   3.218   3.671  14.048 -0.4730 -0.2346  0.2801
  519MPD2    C5 7710   3.217   3.792  13.985  0.0457  0.1549  0.4104
  519MPD2     H 7711   2.944   3.700  14.234 -0.8903 -2.9163 -1.9172
  519MPD2    H1 7712   3.288   3.596  14.015 -0.2676 -0.1077  0.4313
  519MPD2    H2 7713   3.112   3.963  13.942 -2.9252  0.4952 -0.3629
  519MPD2    H3 7714   3.286   3.821  13.906 -0.2362 -0.1331  0.0640
  519MPD2     N 7715   3.125   3.511  14.179 -0.0722 -0.2719  0.3741
  519MPD2    H5 7716   3.203   3.452  14.152 -0.3771  0.2433 -1.6443
  519MPD2    N1 7717   2.887   3.922  14.087 -0.3102  0.6575  0.1800
  519MPD2    H7 7718   2.821   3.887  14.155 -1.1287  0.4496 -0.7298
  520TMC3    C1 7719   3.070   3.306  14.273  0.3430 -0.2251 -0.2686
  520TMC3    C2 7720   2.978   3.229  14.209 -0.5660 -0.5650 -0.0175
  520TMC3    C3 7721   3.023   3.115  14.146  0.0124  0.0411  0.2735
  520TMC3    C4 7722   3.202   3.268  14.271  0.3153 -0.2852  0.2919
  520TMC3    C5 7723   3.241   3.147  14.227  0.6903 -0.4224 -0.6434
  520TMC3    C6 7724   3.153   3.074  14.146 -0.2983 -0.5741  0.4114
  520TMC3     C 7725   3.036   3.446  14.255  0.1209 -0.1542  0.3715
  520TMC3     O 7726   2.929   3.484  14.300 -0.4426  0.1421 -0.0113
  520TMC3     H 7727   2.882   3.278  14.196 -0.6581 -0.3553  1.4266
  520TMC3    H1 7728   3.272   3.329  14.327 -0.4517  1.9219 -1.1476
  520TMC3    H2 7729   3.182   2.976  14.111 -1.2556  0.5868 -3.6431
  520TMC3    C7 7730   3.372   3.106  14.247 -0.2226 -0.9506  0.5768
  520TMC3    C8 7731   2.946   3.062  14.033 -0.1940  0.8648  1.0570
  520TMC3    O1 7732   3.433   3.150  14.344 -0.0202 -0.3436 -0.3710
  520TMC3    O2 7733   3.006   3.014  13.942  0.0012 -0.4706  0.0481
  521MPD2     C 7734   3.771   1.627  17.575  0.1377  0.4185  0.6266
  521MPD2    C1 7735   3.741   1.494  17.581 -0.0794  0.2014  0.3735
  521MPD2    C2 7736   3.822   1.399  17.514 -1.0551 -0.4154  0.5154
  521MPD2    C3 7737   3.939   1.438  17.458 -0.1192 -0.3382 -0.0861
  521MPD2    C4 7738   3.971   1.573  17.458 -0.0314  0.3790  0.5616
  521MPD2    C5 7739   3.888   1.665  17.520 -0.5530  0.4087  0.7235
  521MPD2     H 7740   3.798   1.294  17.518  0.9915 -0.9490 -0.9147
  521MPD2    H1 7741   4.060   1.608  17.407 -0.4988 -2.2183 -2.0103
  521MPD2    H2 7742   3.699   1.700  17.610  1.0545  1.6178  0.0393
  521MPD2    H3 7743   3.912   1.770  17.509 -0.9388  0.2802 -1.4549
  521MPD2     N 7744   4.023   1.345  17.389 -0.2155  0.8145  0.2189
  521MPD2    H5 7745   3.988   1.250  17.400 -0.9400  0.9747 -0.7323
  521MPD2    N1 7746   3.623   1.453  17.643 -0.3671  0.2950  0.4406
  521MPD2    H7 7747   3.569   1.519   0.003  0.4112 -0.5050  2.1619
  522TMC3    C1 7748   4.187   1.245  17.273 -0.5058 -0.3222 -0.3477
  522TMC3    C2 7749   4.313   1.257  17.216 -1.0098  0.1028  0.4280
  522TMC3    C3 7750   4.340   1.178  17.108 -0.5211 -0.5427 -0.0558
  522TMC3    C4 7751   4.094   1.155  17.226 -0.0045 -0.1522 -0.0305
  522TMC3    C5 7752   4.125   1.080  17.124 -0.3149 -0.0621  0.5124
  522TMC3    C6 7753   4.248   1.089  17.061 -0.1330 -0.1240  0.2420
  522TMC3     C 7754   4.148   1.366  17.332  0.1673  0.4140  0.3298
  522TMC3     O 7755   4.213   1.470  17.311  0.4971 -0.0413  0.0690
  522TMC3     H 7756   4.373   1.342  17.248 -0.7616  0.4368 -0.9215
  522TMC3    H1 7757   3.992   1.150  17.263  0.5660 -1.2197  1.3907
  522TMC3    H2 7758   4.271   1.028  16.974  1.9371  1.3216 -0.2410
  522TMC3    C7 7759   4.021   0.994  17.071  0.7259  0.8125  0.1253
  522TMC3    C8 7760   4.461   1.212  17.031 -0.2783 -0.2924 -0.9934
  522TMC3    O1 7761   3.953   0.931  17.151  0.2541  0.3581  0.2482
  522TMC3    O2 7762   4.488   1.331  17.041 -0.1886 -0.1444 -0.6227
  523MPD2     C 7763   1.850   1.331  10.171  0.3995  0.0438  0.0927
  523MPD2    C1 7764   1.757   1.266  10.093  0.0455 -0.4529 -0.5552
  523MPD2    C2 7765   1.685   1.333  10.005 -0.0993 -0.5347 -0.0086
  523MPD2    C3 7766   1.706   1.470   9.985 -0.1105 -0.0804  0.1090
  523MPD2    C4 7767   1.794   1.535  10.066  0.2118 -0.8299 -0.6169
  523MPD2    C5 7768   1.858   1.464  10.171  0.0887  0.3359 -0.2832
  523MPD2     H 7769   1.603   1.283   9.954 -1.1678 -2.5905  3.7531
  523MPD2    H1 7770   1.811   1.642  10.063  1.0748 -0.9446  0.4448
  523MPD2    H2 7771   1.910   1.274  10.241 -0.2355 -1.0275 -0.2226
  523MPD2    H3 7772   1.929   1.511  10.238  0.4485  2.5015 -2.1778
  523MPD2     N 7773   1.649   1.545   9.885 -0.4425 -0.3933 -0.2609
  523MPD2    H5 7774   1.653   1.645   9.899 -0.7847 -0.2322 -1.2549
  523MPD2    N1 7775   1.758   1.126  10.097  0.3487  0.2421 -0.2682
  523MPD2    H7 7776   1.820   1.090  10.169  0.2253 -1.9697 -1.2463
  524TMC3    C1 7777   1.510   1.583   9.691 -0.0719 -0.8557 -0.2580
  524TMC3    C2 7778   1.468   1.533   9.570  0.2858  0.5350 -0.2913
  524TMC3    C3 7779   1.397   1.631   9.495 -0.4470 -0.6835  0.4301
  524TMC3    C4 7780   1.514   1.713   9.718 -0.3627 -0.7715  0.3759
  524TMC3    C5 7781   1.445   1.798   9.638  0.4054 -0.1365  0.0515
  524TMC3    C6 7782   1.378   1.756   9.534  0.1551 -0.5932  0.0058
  524TMC3     C 7783   1.592   1.484   9.772 -0.4309  0.4316 -0.2888
  524TMC3     O 7784   1.590   1.365   9.742 -0.0547 -0.4077  0.3402
  524TMC3     H 7785   1.472   1.427   9.545  0.8663  0.4604  0.1351
  524TMC3    H1 7786   1.564   1.758   9.804 -0.5604  0.2993 -0.0705
  524TMC3    H2 7787   1.291   1.809   9.498  1.2455 -1.0210 -3.2396
  524TMC3    C7 7788   1.409   1.928   9.695 -0.4381  0.2579  0.9878
  524TMC3    C8 7789   1.331   1.581   9.373 -0.0728 -0.5117  0.4555
  524TMC3    O1 7790   1.441   1.949   9.812  0.0797  0.3293 -0.3602
  524TMC3    O2 7791   1.312   1.464   9.369 -0.8072 -0.0356  0.1303
  525MPD2     C 7792   4.407   2.815  14.443 -0.0933  0.2534  0.1847
  525MPD2    C1 7793   4.525   2.839  14.504  0.4161 -0.6724 -0.2722
  525MPD2    C2 7794   4.619   2.909  14.439 -0.3934 -0.0339 -0.1290
  525MPD2    C3 7795   4.591   2.977  14.322  0.3153  0.0037  0.7053
  525MPD2    C4 7796   4.473   2.948  14.257 -0.8843 -0.2132 -0.3099
  525MPD2    C5 7797   4.387   2.863  14.316 -0.0651 -0.3801 -0.6105
  525MPD2     H 7798   4.713   2.925  14.491  0.1729 -1.6227 -0.6854
  525MPD2    H1 7799   4.447   2.995  14.163 -4.3009 -1.8189 -0.1872
  525MPD2    H2 7800   4.321   2.763  14.485  0.2928  0.7107  1.5537
  525MPD2    H3 7801   4.288   2.844  14.276 -0.8097 -0.9465  1.4876
  525MPD2     N 7802   4.675   3.068  14.260 -0.2759  0.7280 -0.2580
  525MPD2    H5 7803   4.644   3.119  14.178 -0.0211  0.1513 -0.7168
  525MPD2    N1 7804   4.550   2.797  14.635  0.7158  0.1263  0.5841
  525MPD2    H7 7805   4.644   2.812  14.671 -0.8816  0.8337  4.4631
  526TMC3    C1 7806   4.498   2.707  14.847  0.0268 -0.3492  1.5063
  526TMC3    C2 7807   4.428   2.735  14.963  0.8558  0.5507 -0.4001
  526TMC3    C3 7808   4.498   2.719  15.082  0.4385 -0.1074 -0.3357
  526TMC3    C4 7809   4.634   2.663  14.845  0.6417 -0.9313  0.2800
  526TMC3    C5 7810   4.693   2.648  14.970 -0.0474 -1.0442 -0.2636
  526TMC3    C6 7811   4.628   2.659  15.088  0.3096  0.6118 -0.7339
  526TMC3     C 7812   4.450   2.757  14.720 -0.2126 -0.3569 -0.0808
  526TMC3     O 7813   4.328   2.769  14.717 -0.3844  0.2578  0.1905
  526TMC3     H 7814   4.331   2.784  14.972  1.2684  1.2851  0.0077
  526TMC3    H1 7815   4.689   2.654  14.752  0.7457 -1.4810  0.3941
  526TMC3    H2 7816   4.672   2.648  15.187 -1.1566 -0.5344 -0.1974
  526TMC3    C7 7817   0.117   2.609  14.981  0.8528  0.1059 -0.6187
  526TMC3    C8 7818   4.426   2.726  15.207  0.4571 -0.1409 -0.1638
  526TMC3    O1 7819   0.158   2.614  15.103 -0.5718 -0.2022 -0.2577
  526TMC3    O2 7820   4.484   2.748  15.312  0.1640 -0.0432 -0.0814
  527MPD2     C 7821   2.238   0.683   1.082  0.2259 -0.4870  0.4457
  527MPD2    C1 7822   2.294   0.705   1.207  0.4195 -0.3746  0.4942
  527MPD2    C2 7823   2.426   0.741   1.215 -0.3443  0.6351 -0.0632
  527MPD2    C3 7824   2.508   0.760   1.105 -0.1802  0.1004 -0.1273
  527MPD2    C4 7825   2.456   0.734   0.977 -0.0749  0.0684 -0.7958
  527MPD2    C5 7826   2.324   0.693   0.968 -0.3141  0.8005 -0.3988
  527MPD2     H 7827   2.471   0.765   1.311  0.8914 -0.2829 -0.4155
  527MPD2    H1 7828   2.510   0.728   0.884 -1.6032 -1.6245 -1.5624
  527MPD2    H2 7829   2.134   0.657   1.069  0.4642 -0.7038 -0.9567
  527MPD2    H3 7830   2.281   0.668   0.872 -0.4630  0.9976 -0.3828
  527MPD2     N 7831   2.641   0.797   1.125  0.2199  0.1918 -0.3804
  527MPD2    H5 7832   2.661   0.819   1.223 -1.0300  0.3797 -0.1694
  527MPD2    N1 7833   2.235   0.698   1.329 -0.2529  0.1081 -0.2417
  527MPD2    H7 7834   2.292   0.732   1.406  4.1108 -1.9977 -2.5853
  528TMC3    C1 7835   2.068   0.710   1.492 -0.8907 -0.0603 -0.2084
  528TMC3    C2 7836   2.159   0.732   1.590  0.3438 -0.2127 -0.3228
  528TMC3    C3 7837   2.117   0.772   1.721 -0.9129  0.0536  0.7083
  528TMC3    C4 7838   1.937   0.726   1.515  0.0461  0.3799 -0.3573
  528TMC3    C5 7839   1.897   0.763   1.643  0.4221  0.0401  0.1948
  528TMC3    C6 7840   1.985   0.789   1.749  0.1776  0.0773  0.5129
  528TMC3     C 7841   2.105   0.680   1.350 -0.4058 -0.0358 -0.8961
  528TMC3     O 7842   2.010   0.673   1.269 -0.2274  0.6350 -0.3851
  528TMC3     H 7843   2.265   0.718   1.570  1.2944  1.3477  3.5666
  528TMC3    H1 7844   1.855   0.712   1.445 -0.6192 -0.5433  0.5838
  528TMC3    H2 7845   1.949   0.834   1.841  1.0934 -2.1898  1.9942
  528TMC3    C7 7846   1.762   0.741   1.685  0.2503  0.2407  0.2751
  528TMC3    C8 7847   2.222   0.786   1.816  0.7207 -0.0211  0.0387
  528TMC3    O1 7848   1.680   0.762   1.599  0.3647  0.4149  0.4951
  528TMC3    O2 7849   2.332   0.819   1.776  0.9733 -0.3498  0.2355
  529MPD2     C 7850   0.956   3.553   0.503  0.3755 -0.2098  0.2978
  529MPD2    C1 7851   0.819   3.546   0.477 -0.6784 -0.1876 -0.0917
  529MPD2    C2 7852   0.772   3.588   0.356 -0.5147 -0.3811  0.7889
  529MPD2    C3 7853   0.857   3.648   0.272  0.1622 -0.0887  0.0352
  529MPD2    C4 7854   0.988   3.669   0.302 -0.1101  0.2123  0.5510
  529MPD2    C5 7855   1.032   3.614   0.415 -0.3817 -0.9721 -0.2147
  529MPD2     H 7856   0.665   3.594   0.340 -0.3402 -1.8079 -0.9402
  529MPD2    H1 7857   1.059   3.712   0.232  1.0058 -1.6120  0.5602
  529MPD2    H2 7858   0.999   3.518   0.596 -1.7782 -1.2976  0.8950
  529MPD2    H3 7859   1.138   3.609   0.435 -0.5893  0.0619  1.1492
  529MPD2     N 7860   0.812   3.710   0.153 -0.0731 -0.4739 -0.3734
  529MPD2    H5 7861   0.878   3.766   0.099  0.2094  0.1953  0.6606
  529MPD2    N1 7862   0.724   3.483   0.561 -0.5898  0.1684  0.6552
  529MPD2    H7 7863   0.631   3.468   0.523  0.5485 -0.9785 -1.6673
  530TMC3    C1 7864   0.637   3.380   0.754 -0.1000  0.4084 -0.3204
  530TMC3    C2 7865   0.650   3.356   0.886 -0.2021  0.1998  0.4983
  530TMC3    C3 7866   0.547   3.290   0.945 -0.4352 -1.0149 -0.3339
  530TMC3    C4 7867   0.525   3.343   0.681 -0.1748 -0.6055 -0.0180
  530TMC3    C5 7868   0.423   3.283   0.745  0.3998  0.6253 -0.0523
  530TMC3    C6 7869   0.430   3.247   0.877  0.1854 -0.8232 -0.3425
  530TMC3     C 7870   0.753   3.442   0.688 -0.4876 -0.3163  0.0146
  530TMC3     O 7871   0.856   3.463   0.754  0.7752 -0.4674 -0.4782
  530TMC3     H 7872   0.742   3.379   0.940 -0.0362 -1.4203  0.9026
  530TMC3    H1 7873   0.510   3.377   0.579 -3.9898 -1.0306  0.4100
  530TMC3    H2 7874   0.345   3.206   0.930 -2.0275  0.9346 -2.5272
  530TMC3    C7 7875   0.297   3.300   0.677 -0.2413  0.0751  0.4753
  530TMC3    C8 7876   0.556   3.226   1.078 -0.2003 -1.0118 -0.5229
  530TMC3    O1 7877   0.299   3.311   0.556 -0.1321  0.3236  0.2355
  530TMC3    O2 7878   0.455   3.175   1.119  0.1587  0.4340 -0.0062
  531MPD2     C 7879   3.804   1.454  13.028  0.6676 -0.3534 -0.1552
  531MPD2    C1 7880   3.777   1.590  13.047 -0.1187 -0.0544 -0.1332
  531MPD2    C2 7881   3.724   1.667  12.946 -0.3579 -0.0417  0.1704
  531MPD2    C3 7882   3.669   1.603  12.834  0.0213 -0.3679  0.6187
  531MPD2    C4 7883   3.696   1.471  12.812 -0.1168  0.8678  0.2782
  531MPD2    C5 7884   3.770   1.400  12.906 -0.2327  0.3556 -0.4061
  531MPD2     H 7885   3.715   1.775  12.948 -1.3012 -0.1213  0.4978
  531MPD2    H1 7886   3.663   1.424  12.720 -0.6023 -0.7607  1.2844
  531MPD2    H2 7887   3.836   1.389  13.108 -0.2449  0.2895  0.7491
  531MPD2    H3 7888   3.796   1.299  12.879 -0.6880 -0.8849  3.7386
  531MPD2     N 7889   3.590   1.677  12.740  0.3752  0.9237  0.7453
  531MPD2    H5 7890   3.558   1.629  12.657 -0.3287  0.2412  1.4160
  531MPD2    N1 7891   3.810   1.645  13.177  0.3811 -0.1471  1.1478
  531MPD2    H7 7892   3.880   1.588  13.222  0.7243 -2.0015 -1.7128
  532TMC3    C1 7893   3.832   1.828  13.323  0.2304  0.2404  0.1965
  532TMC3    C2 7894   3.772   1.940  13.376 -0.2536  0.3554  0.6559
  532TMC3    C3 7895   3.841   2.048  13.421  0.4280 -0.4751 -0.4694
  532TMC3    C4 7896   3.968   1.816  13.333  0.2959 -0.2025  0.5788
  532TMC3    C5 7897   4.037   1.929  13.371  0.0147 -0.2435  0.0377
  532TMC3    C6 7898   3.979   2.044  13.413 -0.1813 -0.2345 -0.1631
  532TMC3     C 7899   3.771   1.773  13.210 -0.3292  0.0122  0.0309
  532TMC3     O 7900   3.693   1.853  13.160  0.1422  0.2678 -0.1741
  532TMC3     H 7901   3.664   1.949  13.369 -0.4842 -2.0446  1.1814
  532TMC3    H1 7902   4.027   1.738  13.287 -0.8818 -1.4789  1.2475
  532TMC3    H2 7903   4.041   2.130  13.434 -1.6528  0.8796 -0.3306
  532TMC3    C7 7904   4.181   1.933  13.345 -0.3011 -0.4722 -0.0758
  532TMC3    C8 7905   3.796   2.169  13.357  0.1174 -0.0076 -0.5065
  532TMC3    O1 7906   4.244   2.035  13.329 -0.3631  0.2601  0.6315
  532TMC3    O2 7907   3.842   2.272  13.401  0.2617  0.1468 -0.0182
  533TMC3    C1 7908   0.100   3.242  14.254  0.4293  0.0813 -0.5562
  533TMC3    C2 7909   0.229   3.290  14.256 -0.2458  0.5402  0.1891
  533TMC3    C3 7910   0.247   3.407  14.178 -0.2347 -0.1586 -0.1479
  533TMC3    C4 7911   4.714   3.315  14.228 -0.0242 -0.6668 -0.0855
  533TMC3    C5 7912   0.012   3.448  14.194  0.1294 -0.5384 -0.2887
  533TMC3    C6 7913   0.138   3.497  14.172 -0.5747 -0.3519 -0.1186
  533TMC3     C 7914   0.078   3.108  14.305 -0.2926 -0.4958  0.7202
  533TMC3     O 7915   0.166   3.056  14.374  0.0803 -0.0047 -0.2062
  533TMC3     H 7916   0.308   3.228  14.298  0.3669  1.0712 -0.1710
  533TMC3    H1 7917   4.614   3.279  14.253 -0.2130 -0.6126 -0.7632
  533TMC3    H2 7918   0.164   3.601  14.154 -1.1158 -0.1960  0.0018
  533TMC3    C7 7919   4.636   3.534  14.266 -0.6920 -0.5218  0.2243
  533TMC3    C8 7920   0.371   3.471  14.190 -0.3489  0.0385  0.1901
  533TMC3    O1 7921   4.532   3.486  14.306 -0.2954  0.2297 -0.3579
  533TMC3    O2 7922   0.437   3.425  14.279  0.0469 -0.4668 -0.3890
  534MPD2     C 7923   2.921   4.188   1.689  0.0594  0.2785  0.3613
  534MPD2    C1 7924   2.807   4.250   1.743  0.0263 -0.9755  0.5192
  534MPD2    C2 7925   2.684   4.188   1.736  0.3242 -0.4172 -0.1966
  534MPD2    C3 7926   2.675   4.059   1.682 -0.4857 -0.0699 -0.1050
  534MPD2    C4 7927   2.785   3.999   1.645 -0.1599 -0.4760 -0.2189
  534MPD2    C5 7928   2.905   4.059   1.650  0.0753  0.4323  0.9628
  534MPD2     H 7929   2.592   4.234   1.771  1.3776 -0.3178  2.4199
  534MPD2    H1 7930   2.787   3.893   1.622  1.4810 -0.4837 -0.0317
  534MPD2    H2 7931   3.018   4.234   1.704 -0.0209  1.3226 -2.2661
  534MPD2    H3 7932   2.993   4.001   1.624  0.3793  0.6676  1.4827
  534MPD2     N 7933   2.546   4.004   1.663  0.7878 -0.2016  0.0558
  534MPD2    H5 7934   2.544   3.917   1.611  3.0381 -0.5812  0.5732
  534MPD2    N1 7935   2.807   4.382   1.785  0.1477  0.8187  0.2785
  534MPD2    H7 7936   2.714   4.412   1.814 -0.3547 -0.9640  0.5219
  535TMC3    C1 7937   2.320   3.972   1.652  0.0089  0.6656 -0.1366
  535TMC3    C2 7938   2.196   3.985   1.714 -0.5405  0.2425  0.1842
  535TMC3    C3 7939   2.086   3.946   1.646  0.6487  0.6179  0.1897
  535TMC3    C4 7940   2.329   3.944   1.516 -0.0011 -0.0457  0.2266
  535TMC3    C5 7941   2.214   3.905   1.459  0.2681  0.4135  0.4823
  535TMC3    C6 7942   2.093   3.913   1.517 -0.0853 -0.4539 -0.9777
  535TMC3     C 7943   2.429   4.046   1.715  0.0173  0.1959  0.5047
  535TMC3     O 7944   2.406   4.095   1.823 -0.0650  0.5590 -0.5802
  535TMC3     H 7945   2.179   4.014   1.817  3.4053  2.4852  0.1887
  535TMC3    H1 7946   2.423   3.941   1.463 -0.9757 -1.9418 -1.3941
  535TMC3    H2 7947   2.014   3.854   1.470 -0.6129  0.3670 -1.1178
  535TMC3    C7 7948   2.210   3.893   1.320 -0.1117 -0.7483 -0.6711
  535TMC3    C8 7949   1.953   3.970   1.694  0.2982  0.0949 -0.5791
  535TMC3    O1 7950   2.318   3.856   1.271  0.1468 -0.1762 -0.2734
  535TMC3    O2 7951   1.865   3.964   1.609  0.3281  0.2206 -0.1903
  536MPD2     C 7952   1.247   2.971  16.236 -0.1928  0.1233 -0.6967
  536MPD2    C1 7953   1.115   2.984  16.276 -0.2210  0.6837 -0.1397
  536MPD2    C2 7954   1.020   2.992  16.172  0.3096 -0.0562 -0.2205
  536MPD2    C3 7955   1.060   3.006  16.037  0.0264  0.5699  0.4772
  536MPD2    C4 7956   1.189   2.974  16.005  0.6883 -0.5286  0.3071
  536MPD2    C5 7957   1.285   2.956  16.101 -0.2861  0.0562 -0.1802
  536MPD2     H 7958   0.914   3.005  16.191  0.5579 -1.5946  2.2141
  536MPD2    H1 7959   1.218   2.967  15.901 -0.3009 -0.5468  0.0332
  536MPD2    H2 7960   1.331   2.966  16.304 -1.5249 -0.4075  0.9043
  536MPD2    H3 7961   1.388   2.933  16.077 -0.6991 -1.0330 -0.9120
  536MPD2     N 7962   0.959   3.037  15.940 -0.6825  0.2446 -0.0813
  536MPD2    H5 7963   0.863   3.047  15.972 -0.8242  1.0559 -0.7878
  536MPD2    N1 7964   1.086   2.999  16.412 -0.3074  0.1608 -0.0932
  536MPD2    H7 7965   1.162   2.998  16.479 -0.7590  0.2711  0.4179
  537TMC3    C1 7966   0.969   2.999  16.613  0.0151 -0.1290  0.2615
  537TMC3    C2 7967   1.074   3.057  16.674 -0.7038  0.4308  0.8632
  537TMC3    C3 7968   1.082   3.024  16.806 -0.7284  0.6990 -0.2490
  537TMC3    C4 7969   0.862   2.942  16.673  0.2066 -0.1120  0.3771
  537TMC3    C5 7970   0.876   2.900  16.802 -0.3493  0.3107 -1.1529
  537TMC3    C6 7971   0.990   2.938  16.867  0.0672 -0.2298  0.0313
  537TMC3     C 7972   0.959   3.000  16.467 -0.5458 -0.0881  0.3199
  537TMC3     O 7973   0.852   2.984  16.411  0.4265 -0.0630 -0.9617
  537TMC3     H 7974   1.145   3.120  16.621  1.7701 -3.6461 -0.6892
  537TMC3    H1 7975   0.769   2.924  16.621  0.3598  0.0083  0.0613
  537TMC3    H2 7976   1.018   2.908  16.968  0.7031  4.4667  1.2769
  537TMC3    C7 7977   0.786   2.797  16.862 -0.1353  0.1609  0.1471
  537TMC3    C8 7978   1.179   3.098  16.890 -0.6973  0.7395  0.2816
  537TMC3    O1 7979   0.686   2.762  16.798 -0.3242 -0.8759  0.2667
  537TMC3    O2 7980   1.201   3.059  17.003 -0.4670  0.0512 -0.5274
  538TMC3    C1 7981   2.455   1.052  10.808  0.0456  0.3587 -0.3226
  538TMC3    C2 7982   2.526   0.936  10.767 -0.6526 -0.5451 -0.2354
  538TMC3    C3 7983   2.521   0.914  10.633  0.9814  0.2015  0.8564
  538TMC3    C4 7984   2.382   1.132  10.723  0.3095  0.6868  0.1632
  538TMC3    C5 7985   2.386   1.098  10.591 -0.0746 -0.0472  0.6487
  538TMC3    C6 7986   2.449   0.987  10.543  0.0960 -0.2359 -0.9436
  538TMC3     C 7987   2.454   1.082  10.951 -0.7208 -1.0588  0.0413
  538TMC3     O 7988   2.357   1.144  10.991 -0.4059 -0.5549  0.3630
  538TMC3     H 7989   2.570   0.866  10.837 -0.6290  1.2527  1.5578
  538TMC3    H1 7990   2.320   1.214  10.755  0.7376  0.0263  2.7335
  538TMC3    H2 7991   2.428   0.943  10.446  0.0022 -1.2756 -0.4558
  538TMC3    C7 7992   2.283   1.164  10.509 -0.6174  0.3073 -0.7661
  538TMC3    C8 7993   2.631   0.844  10.587  0.4532 -0.4174  0.0608
  538TMC3    O1 7994   2.199   1.093  10.452  0.5111  0.3836 -0.3022
  538TMC3    O2 7995   2.686   0.765  10.659 -0.0250  0.6870  0.1395
  539MPD2     C 7996   2.010   0.633  11.946 -0.0987 -0.0394 -0.5789
  539MPD2    C1 7997   2.075   0.697  11.834 -0.1671  0.1246 -0.3963
  539MPD2    C2 7998   2.017   0.813  11.778  0.4918 -0.0405  0.1315
  539MPD2    C3 7999   1.901   0.861  11.839 -0.4442 -0.4074  0.6975
  539MPD2    C4 8000   1.848   0.792  11.942 -0.1162 -0.4456  0.2116
  539MPD2    C5 8001   1.901   0.681  12.000  0.5462 -0.3388 -0.2248
  539MPD2     H 8002   2.056   0.866  11.693 -1.5157 -1.1533 -1.4779
  539MPD2    H1 8003   1.757   0.829  11.988 -0.2021  0.9817 -1.0860
  539MPD2    H2 8004   2.038   0.537  11.988  1.7860  0.2521 -1.1909
  539MPD2    H3 8005   1.848   0.627  12.078 -0.2138 -0.7208 -0.9993
  539MPD2     N 8006   1.834   0.978  11.790 -0.0868  0.1403 -0.5296
  539MPD2    H5 8007   1.772   1.028  11.853 -0.9495  0.0179 -1.2715
  539MPD2    N1 8008   2.189   0.635  11.772 -0.1890  0.2064  0.0966
  539MPD2    H7 8009   2.233   0.551  11.811 -1.2769  0.6050  2.2056
  540TMC3    C1 8010   1.786   1.141  11.619 -0.3661  0.1169  0.7755
  540TMC3    C2 8011   1.812   1.171  11.485  0.0920  0.1374  0.1295
  540TMC3    C3 8012   1.812   1.299  11.452  0.1256  0.2844  0.2414
  540TMC3    C4 8013   1.761   1.234  11.716  0.1341 -0.0093  0.0684
  540TMC3    C5 8014   1.759   1.365  11.671  0.1038 -0.3860 -0.6755
  540TMC3    C6 8015   1.786   1.400  11.540  0.2231  0.2034 -0.4611
  540TMC3     C 8016   1.845   1.016  11.660 -0.6826  0.5876 -0.2632
  540TMC3     O 8017   1.915   0.966  11.573  0.0669  0.2555  0.3407
  540TMC3     H 8018   1.850   1.094  11.420  0.4594 -0.9821  1.6654
  540TMC3    H1 8019   1.744   1.196  11.816 -1.6597 -1.3486 -0.7476
  540TMC3    H2 8020   1.770   1.498  11.497 -1.4922  0.3528  0.5060
  540TMC3    C7 8021   1.686   1.458  11.760 -0.4712  0.1927  0.1068
  540TMC3    C8 8022   1.842   1.335  11.313 -0.1529  0.2347 -0.2105
  540TMC3    O1 8023   1.620   1.397  11.842  0.1774 -0.3271  0.3586
  540TMC3    O2 8024   1.865   1.448  11.275 -0.2283 -0.1521  0.5116
  541MPD2     C 8025   0.814   1.985  13.273  1.3391  0.0806  0.1590
  541MPD2    C1 8026   0.698   1.968  13.206 -0.1534 -0.5169 -0.0251
  541MPD2    C2 8027   0.658   2.048  13.099 -0.1715  0.1447  0.3806
  541MPD2    C3 8028   0.754   2.138  13.058  0.0381  0.1503 -0.3818
  541MPD2    C4 8029   0.879   2.144  13.116 -0.5897 -0.2495  0.2993
  541MPD2    C5 8030   0.918   2.060  13.227  0.4461  0.0677  0.6673
  541MPD2     H 8031   0.563   2.033  13.050 -0.5072 -0.4632  1.2242
  541MPD2    H1 8032   0.954   2.210  13.074 -2.0520  1.5738  0.5532
  541MPD2    H2 8033   0.841   1.930  13.363  1.1856  1.0975  0.8328
  541MPD2    H3 8034   1.018   2.067  13.266  0.9817 -3.2778 -0.1246
  541MPD2     N 8035   0.737   2.209  12.937 -0.2713  0.4829 -0.7081
  541MPD2    H5 8036   0.818   2.256  12.898 -1.1063  1.1051 -1.6855
  541MPD2    N1 8037   0.607   1.868  13.249 -0.0388 -0.0536  0.3757
  541MPD2    H7 8038   0.529   1.859  13.184  0.3319  0.2418 -0.1062
  542TMC3    C1 8039   0.662   2.282  12.733  0.1063  0.3037 -0.0308
  542TMC3    C2 8040   0.589   2.257  12.623  0.2963 -0.1748 -0.4028
  542TMC3    C3 8041   0.591   2.354  12.522 -0.2472  0.3191  0.5242
  542TMC3    C4 8042   0.726   2.404  12.746  0.7358 -0.7040 -0.0833
  542TMC3    C5 8043   0.723   2.493  12.648  0.5054  0.2856  0.4235
  542TMC3    C6 8044   0.658   2.480  12.530 -0.6170 -0.4047 -0.1319
  542TMC3     C 8045   0.638   2.196  12.845 -0.2398  0.9154  0.0404
  542TMC3     O 8046   0.536   2.130  12.848  0.4302  0.2312 -0.7057
  542TMC3     H 8047   0.547   2.157  12.618 -0.7291  0.1953  0.8325
  542TMC3    H1 8048   0.779   2.433  12.836 -1.5709  1.9181  0.4265
  542TMC3    H2 8049   0.661   2.550  12.447  0.2728  0.1302  0.3573
  542TMC3    C7 8050   0.747   2.628  12.694 -0.1042 -0.4611 -0.6603
  542TMC3    C8 8051   0.552   2.307  12.393 -0.4268  0.0928  0.9796
  542TMC3    O1 8052   0.818   2.645  12.793  0.5828  0.0461  0.4107
  542TMC3    O2 8053   0.605   2.362  12.296 -0.0411  0.0336  0.3826
  543TMC3    C1 8054   4.378   3.530  17.209 -0.7884  0.7721  0.2510
  543TMC3    C2 8055   4.333   3.433  17.287  0.4158 -0.0227 -0.3509
  543TMC3    C3 8056   4.301   3.454  17.414 -0.7191 -0.2633  0.2423
  543TMC3    C4 8057   4.400   3.652  17.254  0.1188 -1.2530 -0.1406
  543TMC3    C5 8058   4.362   3.680  17.384  0.8218 -0.9820  0.8399
  543TMC3    C6 8059   4.318   3.580  17.472 -0.2233 -0.4925 -0.3130
  543TMC3     C 8060   4.462   3.486  17.102 -0.1750 -0.1215  0.0853
  543TMC3     O 8061   4.531   3.382  17.123 -0.1411  0.2631  0.4145
  543TMC3     H 8062   4.316   3.331  17.253  1.1195 -1.2960  3.1427
  543TMC3    H1 8063   4.431   3.740  17.198 -1.7217 -0.4867  0.0575
  543TMC3    H2 8064   4.307   3.591  17.579  0.1192 -0.2653 -0.3015
  543TMC3    C7 8065   4.358   3.818  17.423  0.0607 -0.3321  0.0604
  543TMC3    C8 8066   4.304   3.347  17.502 -0.1130  0.0756 -0.5318
  543TMC3    O1 8067   4.435   3.900  17.372 -0.5491  0.2570 -0.1190
  543TMC3    O2 8068   4.367   3.248  17.473  0.2667  0.0490  0.5178
  544MPD2     C 8069   4.162   3.082   0.226  0.0063  0.1013  0.5157
  544MPD2    C1 8070   4.268   3.054   0.135  0.7419 -0.4134 -0.3326
  544MPD2    C2 8071   4.294   3.153   0.039 -0.0464  0.4758  0.0745
  544MPD2    C3 8072   4.213   3.265   0.026  0.0460 -0.6205  0.8216
  544MPD2    C4 8073   4.109   3.282   0.118  0.5282  0.5112 -0.2802
  544MPD2    C5 8074   4.089   3.197   0.219  0.7579  0.1006  0.2121
  544MPD2     H 8075   4.380   3.141  17.668  0.1805  1.2233  0.2296
  544MPD2    H1 8076   4.043   3.368   0.117 -0.2598 -0.0877  0.0669
  544MPD2    H2 8077   4.142   3.006   0.301 -1.8084  0.7027  0.6382
  544MPD2    H3 8078   4.004   3.200   0.286  2.2846 -2.0394  2.2677
  544MPD2     N 8079   4.230   3.363  17.617 -0.0796 -0.1285  0.6044
  544MPD2    H5 8080   4.178   3.450  17.625  0.1795  0.3342 -2.8814
  544MPD2    N1 8081   4.343   2.937   0.142 -0.1291 -0.3966 -0.2863
  544MPD2    H7 8082   4.304   2.867   0.204  2.0902 -0.8171  0.6059
  545TMC3    C1 8083   4.515   2.779   0.102  0.6279 -0.7010 -0.3236
  545TMC3    C2 8084   4.591   2.727  17.690  0.7574 -0.0578 -0.2430
  545TMC3    C3 8085   4.654   2.602   0.019  0.2931 -0.3433  0.2023
  545TMC3    C4 8086   4.494   2.715   0.219  0.1169  0.3796  0.9893
  545TMC3    C5 8087   4.546   2.588   0.229 -0.1179 -1.0209  0.1731
  545TMC3    C6 8088   4.625   2.534   0.132  0.1909  0.9079 -0.6180
  545TMC3     C 8089   4.469   2.920   0.094  0.6813 -0.5621  0.8430
  545TMC3     O 8090   4.541   2.984   0.023 -0.3642 -0.3338 -0.0640
  545TMC3     H 8091   4.619   2.788  17.605  1.7963  0.8792  0.7683
  545TMC3    H1 8092   4.438   2.762   0.299  1.0618  1.2640  1.1334
  545TMC3    H2 8093   4.666   2.435   0.149 -0.8381  0.3916 -1.1563
  545TMC3    C7 8094   4.480   2.503   0.328  0.2012  0.0804  0.0208
  545TMC3    C8 8095   0.012   2.540  17.618  0.4016  0.0675 -0.7006
  545TMC3    O1 8096   4.379   2.550   0.387 -0.1104 -0.4835 -0.2969
  545TMC3    O2 8097   0.003   2.570  17.501  0.1334  0.6047 -0.0619
  546MPD2     C 8098   1.570   3.284  17.554  0.3485  1.4276 -0.5343
  546MPD2    C1 8099   1.483   3.335  17.464 -0.0804 -0.5114  0.4381
  546MPD2    C2 8100   1.517   3.457  17.402 -0.3136 -0.2299  0.0456
  546MPD2    C3 8101   1.621   3.539  17.438 -0.4289  0.1517 -0.2148
  546MPD2    C4 8102   1.701   3.487  17.538  1.1134 -0.3148 -0.6332
  546MPD2    C5 8103   1.672   3.367  17.591  0.2744 -0.3575  0.3772
  546MPD2     H 8104   1.453   3.486  17.320 -0.4020 -0.0616  0.1739
  546MPD2    H1 8105   1.792   3.540  17.564  0.7984  0.2204 -0.6176
  546MPD2    H2 8106   1.560   3.185  17.596  0.7284  1.3251 -0.6891
  546MPD2    H3 8107   1.735   3.327  17.669  0.1837  0.6598  0.9666
  546MPD2     N 8108   1.659   3.655  17.376  0.7038 -0.3140 -0.2962
  546MPD2    H5 8109   1.745   3.702  17.405 -0.2112  0.2762  1.4658
  546MPD2    N1 8110   1.370   3.252  17.436 -0.3630  0.2196  0.3650
  546MPD2    H7 8111   1.373   3.155  17.467  0.4203  0.1732  0.1551
  547TMC3    C1 8112   1.163   3.193  17.344  0.6270 -0.4242 -0.0683
  547TMC3    C2 8113   1.086   3.220  17.234  0.4072 -0.5030 -0.4546
  547TMC3    C3 8114   0.978   3.141  17.207  0.3174 -0.2034  0.4364
  547TMC3    C4 8115   1.124   3.096  17.432  0.1417 -0.0275  0.0192
  547TMC3    C5 8116   1.009   3.025  17.404  0.0940 -0.4992 -0.0998
  547TMC3    C6 8117   0.937   3.035  17.290  0.3232 -0.3550 -0.1293
  547TMC3     C 8118   1.265   3.296  17.367 -0.2231  0.0349  0.0206
  547TMC3     O 8119   1.250   3.399  17.309 -0.2915  0.0716 -0.2669
  547TMC3     H 8120   1.129   3.286  17.160 -1.5254  0.8601 -0.3416
  547TMC3    H1 8121   1.186   3.064  17.514  0.1210 -0.8129 -0.2689
  547TMC3    H2 8122   0.865   2.960  17.261  0.5188 -0.8665  0.7094
  547TMC3    C7 8123   0.989   2.907  17.490  0.7845  0.4538 -0.2667
  547TMC3    C8 8124   0.882   3.181  17.095 -0.2790 -0.3259 -0.0498
  547TMC3    O1 8125   1.069   2.884  17.577 -0.0717  0.2842  0.2512
  547TMC3    O2 8126   0.790   3.104  17.068  0.2718  0.1190  0.5216
  548MPD2     C 8127   1.368   4.241  12.238  0.0039  0.4538 -0.6175
  548MPD2    C1 8128   1.319   4.123  12.300 -0.1639 -0.5110 -0.4886
  548MPD2    C2 8129   1.362   3.997  12.251 -0.3002  0.2007  0.1767
  548MPD2    C3 8130   1.467   3.984  12.165 -0.0933  0.0077 -0.9642
  548MPD2    C4 8131   1.528   4.102  12.119 -0.1227 -0.5244  0.0111
  548MPD2    C5 8132   1.476   4.225  12.159  0.2950 -0.2988 -0.5299
  548MPD2     H 8133   1.335   3.902  12.295 -1.2244  0.0799 -0.6508
  548MPD2    H1 8134   1.613   4.101  12.052 -2.4172  2.7288 -2.9338
  548MPD2    H2 8135   1.334   4.342  12.255  0.2339  0.7255 -1.7854
  548MPD2    H3 8136   1.517   4.315  12.115 -0.8744  0.2794 -0.4454
  548MPD2     N 8137   1.500   3.851  12.118 -0.2422  0.2831 -0.2947
  548MPD2    H5 8138   1.445   3.777  12.161 -1.8320  1.4015 -0.4414
  548MPD2    N1 8139   1.214   4.140  12.395  0.2289 -0.5050 -0.1183
  548MPD2    H7 8140   1.186   4.230  12.432 -1.0708 -1.0119  0.1337
  549TMC3    C1 8141   1.056   4.054  12.558 -0.0901  0.0793  0.3497
  549TMC3    C2 8142   0.989   4.173  12.571 -0.3153  0.0646  0.1774
  549TMC3    C3 8143   0.882   4.186  12.653 -0.1953 -0.2205  0.2349
  549TMC3    C4 8144   1.018   3.947  12.630  0.4619  0.2241 -0.9699
  549TMC3    C5 8145   0.894   3.957  12.690 -0.2947  1.0577 -0.0225
  549TMC3    C6 8146   0.831   4.075  12.709 -0.3886 -0.3210 -0.1371
  549TMC3     C 8147   1.151   4.030  12.447  0.6123  0.3353 -0.2515
  549TMC3     O 8148   1.144   3.916  12.406  0.1319 -0.5888  0.4614
  549TMC3     H 8149   1.018   4.257  12.509  1.4433 -0.8394 -0.2360
  549TMC3    H1 8150   1.061   3.849  12.611  1.0544  0.1433  0.7698
  549TMC3    H2 8151   0.735   4.079  12.760 -0.3725 -1.9735  0.0498
  549TMC3    C7 8152   0.799   3.862  12.648 -0.0351  0.8461 -0.5402
  549TMC3    C8 8153   0.789   4.289  12.623 -0.9491  0.1474  0.8384
  549TMC3    O1 8154   0.694   3.898  12.595 -0.3837 -0.5053  0.1542
  549TMC3    O2 8155   0.727   4.289  12.518 -0.4216  0.3569 -0.1955
  550TMC3    C1 8156   4.004   1.352  12.412  0.0845  0.2476 -0.0874
  550TMC3    C2 8157   3.994   1.461  12.494 -0.2860 -0.5545  0.2378
  550TMC3    C3 8158   3.891   1.558  12.469 -0.4710  0.1957  0.5283
  550TMC3    C4 8159   3.918   1.340  12.305 -0.1463  0.8354 -0.1989
  550TMC3    C5 8160   3.823   1.437  12.291 -0.0156 -0.5273 -0.5549
  550TMC3    C6 8161   3.800   1.550  12.368  0.1739 -0.1676 -0.4583
  550TMC3     C 8162   4.141   1.313  12.384 -0.5227 -0.2602 -0.2978
  550TMC3     O 8163   4.173   1.304  12.263  0.4245 -1.0355 -0.4253
  550TMC3     H 8164   4.066   1.484  12.571 -0.4324 -0.1105  0.2429
  550TMC3    H1 8165   3.922   1.254  12.239  0.1842  1.8153 -1.4531
  550TMC3    H2 8166   3.723   1.625  12.358 -0.3927 -0.7515 -0.4670
  550TMC3    C7 8167   3.741   1.431  12.172  0.0307 -0.2195  0.1453
  550TMC3    C8 8168   3.880   1.672  12.559  0.4128  0.3499 -0.0911
  550TMC3    O1 8169   3.639   1.499  12.160  0.7532  0.0480  0.2443
  550TMC3    O2 8170   3.808   1.762  12.514  0.3632  0.5847 -0.7724
  551TMC3    C1 8171   2.031   4.346  13.408  1.1314 -0.9030 -0.1246
  551TMC3    C2 8172   2.161   4.329  13.382  0.0882  0.7606  0.5630
  551TMC3    C3 8173   2.249   4.328  13.484  0.2266 -0.5675 -0.2337
  551TMC3    C4 8174   1.985   4.394  13.531  0.0355  0.0798  0.1967
  551TMC3    C5 8175   2.076   4.393  13.632 -0.0873  0.2712 -0.0252
  551TMC3    C6 8176   2.206   4.351  13.612  0.0498 -0.3479 -0.1331
  551TMC3     C 8177   1.937   4.278  13.325 -0.0701  0.0632 -0.0700
  551TMC3     O 8178   1.975   4.238  13.216  0.0943 -0.6255  0.1243
  551TMC3     H 8179   2.194   4.311  13.281  0.9214  0.4116  0.8949
  551TMC3    H1 8180   1.886   4.436  13.544  0.7679  2.0557 -0.5672
  551TMC3    H2 8181   2.283   4.366  13.687 -1.8331 -2.0200  2.1076
  551TMC3    C7 8182   2.029   4.413  13.766 -0.6844  0.1094 -0.0354
  551TMC3    C8 8183   2.383   4.376  13.447  0.0003  0.2416 -0.0090
  551TMC3    O1 8184   2.096   4.353  13.851  0.6246 -0.2302 -0.1307
  551TMC3    O2 8185   2.483   4.306  13.456  0.5667  1.0859 -0.1091
  552MPD2     C 8186   4.187   1.927  13.914 -0.5402 -0.1443 -0.9029
  552MPD2    C1 8187   4.098   1.858  13.993  0.3106 -0.5696  0.4178
  552MPD2    C2 8188   4.145   1.769  14.086  0.0176 -0.8333 -0.6585
  552MPD2    C3 8189   4.278   1.746  14.101  0.2072 -0.8163  0.6384
  552MPD2    C4 8190   4.361   1.824  14.027 -0.5698 -0.1368  0.2562
  552MPD2    C5 8191   4.316   1.905  13.934 -0.5753  0.5125 -1.0792
  552MPD2     H 8192   4.072   1.712  14.142 -1.4986  0.0757 -1.6965
  552MPD2    H1 8193   4.469   1.820  14.029 -0.5800  0.1261  1.6957
  552MPD2    H2 8194   4.153   1.991  13.833  0.5715  0.9318 -0.5111
  552MPD2    H3 8195   4.389   1.957  13.874  0.8040  3.4298  3.2150
  552MPD2     N 8196   4.334   1.657  14.193 -0.8549  1.0759 -0.1140
  552MPD2    H5 8197   4.434   1.641  14.192 -0.9217  0.5686  0.5049
  552MPD2    N1 8198   3.960   1.875  13.989  0.1008 -0.0782 -0.1927
  552MPD2    H7 8199   3.906   1.803  14.038 -1.0735  1.4758  0.8017
  553TMC3    C1 8200   3.749   1.898  13.884  0.6098 -0.6728  0.4042
  553TMC3    C2 8201   3.713   1.869  13.754  0.2495  0.1805  0.2007
  553TMC3    C3 8202   3.655   1.743  13.736  0.1298  0.1569  0.3721
  553TMC3    C4 8203   3.705   1.820  13.988  0.1634  0.2394  0.4616
  553TMC3    C5 8204   3.659   1.695  13.960 -0.1105 -0.0195 -0.3864
  553TMC3    C6 8205   3.623   1.655  13.831  0.3623 -0.1834  0.2101
  553TMC3     C 8206   3.882   1.942  13.897 -0.6036 -0.7492 -0.7173
  553TMC3     O 8207   3.925   2.014  13.812 -0.2456 -0.4743  0.3371
  553TMC3     H 8208   3.758   1.926  13.673 -0.3570  0.1683 -0.1444
  553TMC3    H1 8209   3.726   1.854  14.088  1.6582 -0.9748  0.5614
  553TMC3    H2 8210   3.597   1.553  13.806 -1.0672  0.3810 -0.5904
  553TMC3    C7 8211   3.745   1.605  14.037  0.2277 -0.1466 -0.8478
  553TMC3    C8 8212   3.715   1.670  13.629 -0.6846  0.0460  0.2231
  553TMC3    O1 8213   3.829   1.663  14.104 -0.3713  0.1481  0.3956
  553TMC3    O2 8214   3.833   1.694  13.605 -0.5189 -0.3786 -0.3363
  554TMC3    C1 8215   0.977   0.762  11.611 -0.2334 -0.1934  0.5541
  554TMC3    C2 8216   0.934   0.686  11.507  0.6917  0.5959  0.0055
  554TMC3    C3 8217   1.022   0.659  11.399 -0.0667  0.5229  0.6137
  554TMC3    C4 8218   1.106   0.815  11.606 -0.2242 -0.1046  0.2940
  554TMC3    C5 8219   1.180   0.809  11.490 -0.6525  0.9050 -0.0308
  554TMC3    C6 8220   1.140   0.731  11.382 -0.3943 -0.0789  1.1704
  554TMC3     C 8221   0.912   0.742  11.736 -0.2096  0.1836  0.6027
  554TMC3     O 8222   0.793   0.740  11.718 -0.3813  0.7747  0.5892
  554TMC3     H 8223   0.843   0.629  11.524  0.6861  0.9071  1.0243
  554TMC3    H1 8224   1.153   0.859  11.694 -0.0760  0.4444 -0.0622
  554TMC3    H2 8225   1.197   0.721  11.290  0.9004  0.0096  1.9720
  554TMC3    C7 8226   1.270   0.919  11.473 -1.0177 -0.5567 -0.7247
  554TMC3    C8 8227   0.980   0.585  11.282 -0.0857 -0.0668  0.0078
  554TMC3    O1 8228   1.322   0.973  11.570 -0.1865  0.0476 -0.4229
  554TMC3    O2 8229   1.042   0.610  11.177 -0.2899 -0.0535 -0.7587
  555TMC3    C1 8230   0.048   0.017  15.115  0.4045 -0.6302 -0.0481
  555TMC3    C2 8231   0.049   0.120  15.207 -0.6974 -0.7034 -1.2947
  555TMC3    C3 8232   0.033   0.086  15.331  0.3017  0.5164  0.3173
  555TMC3    C4 8233   0.026   4.604  15.139  0.2025 -0.1291 -0.4559
  555TMC3    C5 8234   0.006   4.589  15.277 -0.1856 -0.5417 -0.1290
  555TMC3    C6 8235   0.018   4.683  15.374  0.6334 -0.2701 -0.6989
  555TMC3     C 8236   0.108   0.053  14.982 -0.5001 -0.1278  0.6028
  555TMC3     O 8237   0.211   0.115  14.982  0.8019 -0.5449 -0.1728
  555TMC3     H 8238   0.068   0.218  15.165 -4.2732 -0.8216 -3.1911
  555TMC3    H1 8239   0.019   4.526  15.064  1.7746  0.5684 -1.3280
  555TMC3    H2 8240   0.002   4.656  15.477  2.3524 -0.7693 -0.5624
  555TMC3    C7 8241   0.012   4.455  15.348 -0.0832 -0.1131 -0.6286
  555TMC3    C8 8242   0.039   0.201  15.423  0.0797  0.1645  0.0123
  555TMC3    O1 8243   4.675   4.441  15.453  0.1215 -0.2400  0.5248
  555TMC3    O2 8244   4.710   0.304  15.378 -0.3379  0.2321  0.2491
  556MPD2     C 8245   3.157   2.085  10.531 -0.3727  0.4738  0.1204
  556MPD2    C1 8246   3.170   1.965  10.592 -0.6854 -0.4174 -0.2614
  556MPD2    C2 8247   3.152   1.846  10.522  0.1171 -0.2442  0.2762
  556MPD2    C3 8248   3.129   1.854  10.383 -0.1220  0.1154  0.4969
  556MPD2    C4 8249   3.120   1.974  10.324 -0.4218 -0.5965  0.3005
  556MPD2    C5 8250   3.139   2.087  10.400  0.6721  0.0311 -0.6793
  556MPD2     H 8251   3.156   1.752  10.575 -2.0826 -0.4461  0.0778
  556MPD2    H1 8252   3.099   1.992  10.220 -1.4379 -1.0416  0.4307
  556MPD2    H2 8253   3.153   2.179  10.585 -0.1016  0.9392 -0.6707
  556MPD2    H3 8254   3.125   2.176  10.339  1.2240  1.3835  1.1583
  556MPD2     N 8255   3.103   1.734  10.308 -0.3151 -0.3374 -0.0555
  556MPD2    H5 8256   3.121   1.656  10.371  1.6484 -0.1534 -0.3672
  556MPD2    N1 8257   3.195   1.950  10.733  0.0726  0.3294 -0.6068
  556MPD2    H7 8258   3.206   1.857  10.771 -0.7311  0.0372 -1.1134
  557TMC3    C1 8259   3.072   1.586  10.133  0.0020 -0.1664 -0.2406
  557TMC3    C2 8260   3.048   1.565  10.001 -0.7532 -0.3870 -0.8463
  557TMC3    C3 8261   3.026   1.434   9.966  0.5467 -0.6431 -0.3917
  557TMC3    C4 8262   3.080   1.485  10.225 -0.5883 -0.0565 -0.8496
  557TMC3    C5 8263   3.056   1.357  10.180 -0.0023 -0.2568 -1.0396
  557TMC3    C6 8264   3.025   1.326  10.049  0.3109 -0.4035 -0.3041
  557TMC3     C 8265   3.078   1.728  10.172  0.1239  0.5753  0.0419
  557TMC3     O 8266   3.069   1.814  10.085  0.1262 -0.0992 -0.3794
  557TMC3     H 8267   3.013   1.646   9.938  0.2848  0.8728  0.1799
  557TMC3    H1 8268   3.092   1.502  10.332 -2.6795 -1.7215 -0.3415
  557TMC3    H2 8269   2.982   1.229  10.024 -0.9786  0.3268 -0.9152
  557TMC3    C7 8270   2.997   1.264  10.271  1.3020 -0.3089  0.2029
  557TMC3    C8 8271   2.956   1.417   9.834 -1.0695  0.0601  0.1906
  557TMC3    O1 8272   2.939   1.325  10.359 -0.0359 -0.4928 -0.0652
  557TMC3    O2 8273   2.876   1.500   9.797  0.1704  0.6549 -0.7367
  558TMC3    C1 8274   1.093   4.348   9.868  0.0013 -0.1951 -0.0137
  558TMC3    C2 8275   1.012   4.359   9.985  0.9555  0.1475  0.6550
  558TMC3    C3 8276   0.881   4.392   9.960 -0.0465 -0.1735 -0.3411
  558TMC3    C4 8277   1.048   4.370   9.741  0.4050 -0.6760  0.2184
  558TMC3    C5 8278   0.911   4.397   9.725 -0.0072 -0.0353  0.0225
  558TMC3    C6 8279   0.833   4.413   9.834  0.1357  0.1871 -0.0771
  558TMC3     C 8280   1.214   4.278   9.886 -0.0077 -0.1472  0.1005
  558TMC3     O 8281   1.252   4.207   9.796  0.1516 -0.1378 -0.1467
  558TMC3     H 8282   1.050   4.349  10.086 -0.4655  1.4261  1.3069
  558TMC3    H1 8283   1.111   4.370   9.653  2.5638  0.9732  1.7896
  558TMC3    H2 8284   0.739   4.465   9.821  1.0156  2.0259  0.8419
  558TMC3    C7 8285   0.853   4.441   9.594 -0.0265 -0.4483 -1.0223
  558TMC3    C8 8286   0.781   4.411  10.066  0.0524 -0.1822 -0.4447
  558TMC3    O1 8287   0.937   4.474   9.512 -0.3115 -0.0903  0.0126
  558TMC3    O2 8288   0.676   4.470  10.037 -0.2006 -0.4648 -0.2569
  559MPD2     C 8289   0.792   0.163  10.496 -0.2765  0.4052  0.9377
  559MPD2    C1 8290   0.722   0.146  10.611 -0.1998 -0.2049 -0.0681
  559MPD2    C2 8291   0.779   0.168  10.733  0.2838 -0.7101 -0.2058
  559MPD2    C3 8292   0.911   0.215  10.733  0.5186  0.4254  0.0020
  559MPD2    C4 8293   0.978   0.245  10.609  0.1098  0.6083 -0.2675
  559MPD2    C5 8294   0.912   0.221  10.498 -0.1563  0.5860 -0.1574
  559MPD2     H 8295   0.742   0.148  10.833  2.1675  1.6679  0.9858
  559MPD2    H1 8296   1.075   0.294  10.603  0.8418 -0.7074  0.8544
  559MPD2    H2 8297   0.747   0.129  10.403  0.6477 -0.0403  0.6550
  559MPD2    H3 8298   0.963   0.230  10.403 -0.5099 -0.1507 -0.4189
  559MPD2     N 8299   0.975   0.238  10.858  0.0397  0.0616  0.1837
  559MPD2    H5 8300   0.929   0.212  10.944 -0.7193 -1.5215 -0.7105
  559MPD2    N1 8301   0.585   0.102  10.619  0.0538 -0.4565 -0.2167
  559MPD2    H7 8302   0.545   0.118  10.711  2.4301 -2.0338  1.0693
  560TMC3    C1 8303   1.123   0.308  11.030  0.1440 -0.0478 -0.3915
  560TMC3    C2 8304   1.065   0.213  11.105 -0.6408 -1.1427  0.4873
  560TMC3    C3 8305   1.111   0.187  11.227  0.0704  0.3913 -0.5315
  560TMC3    C4 8306   1.230   0.381  11.079 -0.4708  1.4957  0.6154
  560TMC3    C5 8307   1.268   0.370  11.206  0.4440  0.7147  0.0497
  560TMC3    C6 8308   1.208   0.269  11.283 -0.1312  0.7116  0.0902
  560TMC3     C 8309   1.097   0.305  10.882 -0.2267  0.7163  0.2761
  560TMC3     O 8310   1.173   0.367  10.808 -0.0826  0.2882  0.2077
  560TMC3     H 8311   1.007   0.135  11.058 -1.7257 -0.7279  1.1440
  560TMC3    H1 8312   1.263   0.463  11.016 -1.3911  0.8986 -0.6390
  560TMC3    H2 8313   1.235   0.267  11.388 -0.0695 -2.2325  0.0099
  560TMC3    C7 8314   1.351   0.468  11.278 -0.0794 -0.1924 -0.1184
  560TMC3    C8 8315   1.076   0.060  11.282  0.6503 -0.3823  0.4128
  560TMC3    O1 8316   1.325   0.485  11.397  0.7564 -0.3644 -0.4535
  560TMC3    O2 8317   0.971   0.017  11.243 -0.2691 -0.0434 -0.4410
  561TMC3    C1 8318   3.620   4.050  11.488 -0.0271 -0.0879 -0.8526
  561TMC3    C2 8319   3.524   4.003  11.570 -0.2010 -0.5256 -0.8201
  561TMC3    C3 8320   3.417   4.079  11.594 -0.2907 -0.0629  0.3267
  561TMC3    C4 8321   3.599   4.163  11.423  0.5505  0.5376 -0.4458
  561TMC3    C5 8322   3.480   4.227  11.443 -1.0436  0.4951 -0.4818
  561TMC3    C6 8323   3.382   4.189  11.528  0.1060  0.1470  0.0505
  561TMC3     C 8324   3.757   4.006  11.509  0.0503  0.2972 -0.5262
  561TMC3     O 8325   3.770   3.952  11.617 -0.2008 -0.0046 -0.0848
  561TMC3     H 8326   3.549   3.934  11.649 -0.4400 -0.9957 -1.1589
  561TMC3    H1 8327   3.685   4.216  11.383  0.8574 -1.0022 -1.8136
  561TMC3    H2 8328   3.297   4.253  11.550  0.5162  0.0732  1.8382
  561TMC3    C7 8329   3.442   4.345  11.361  0.4829 -0.6046  0.0158
  561TMC3    C8 8330   3.333   4.031  11.700 -0.4095 -0.5718  0.4831
  561TMC3    O1 8331   3.343   4.403  11.394  0.4370  0.3608  0.0113
  561TMC3    O2 8332   3.332   3.910  11.724  0.3855  0.2773  0.4855
  562TMC3    C1 8333   4.404   0.445  15.992  0.0522 -0.3616  0.7383
  562TMC3    C2 8334   4.307   0.511  15.916 -0.6101  0.5548 -0.5521
  562TMC3    C3 8335   4.261   0.449  15.804 -0.2232 -0.0026  0.0395
  562TMC3    C4 8336   4.452   0.319  15.956  0.1055  0.4201  0.4670
  562TMC3    C5 8337   4.420   0.270  15.829 -0.8770  0.9208  0.3253
  562TMC3    C6 8338   4.328   0.339  15.755  0.3864 -0.0989 -0.2794
  562TMC3     C 8339   4.450   0.511  16.112  0.0617 -0.8491  0.5935
  562TMC3     O 8340   4.420   0.627  16.124 -0.4229  0.1495 -0.3181
  562TMC3     H 8341   4.261   0.603  15.949  1.2563  1.0053  0.7636
  562TMC3    H1 8342   4.525   0.262  16.014  0.3244 -0.5705 -0.7909
  562TMC3    H2 8343   4.285   0.306  15.661 -0.2247  0.3616 -0.1622
  562TMC3    C7 8344   4.447   0.132  15.798  0.1394 -0.0580  0.0005
  562TMC3    C8 8345   4.144   0.508  15.738 -0.0045 -0.3246  0.0547
  562TMC3    O1 8346   4.392   0.098  15.693 -0.8217  0.2665 -0.2369
  562TMC3    O2 8347   4.068   0.555  15.822  0.4429 -0.8487 -0.2120
  563MPD2     C 8348   2.152   2.266  15.935 -0.2165  0.2345  0.5946
  563MPD2    C1 8349   2.173   2.253  16.074 -0.3310  0.5309 -0.2861
  563MPD2    C2 8350   2.257   2.152  16.115 -0.2320  0.6886 -0.2106
  563MPD2    C3 8351   2.292   2.042  16.039  0.3239 -0.7678 -0.0160
  563MPD2    C4 8352   2.275   2.061  15.900  0.5727 -0.0200 -0.8278
  563MPD2    C5 8353   2.213   2.174  15.849  0.1113  0.6438 -0.1306
  563MPD2     H 8354   2.288   2.162  16.218 -0.0559 -2.6256  0.0522
  563MPD2    H1 8355   2.330   1.990  15.839  1.6495 -1.3659  1.7061
  563MPD2    H2 8356   2.106   2.356  15.897  2.0685  1.9572  1.9213
  563MPD2    H3 8357   2.191   2.170  15.743 -1.0935 -0.9167  0.1800
  563MPD2     N 8358   2.352   1.939  16.107 -0.2553  0.2606 -0.1933
  563MPD2    H5 8359   2.347   1.947  16.208 -0.8678  1.3845 -0.3152
  563MPD2    N1 8360   2.121   2.364  16.155 -0.0547 -0.6176  0.6768
  563MPD2    H7 8361   2.088   2.439  16.095  0.1411 -1.2325 -0.1994
  564TMC3    C1 8362   2.076   2.246  16.356  0.6995 -0.3112  0.0856
  564TMC3    C2 8363   1.985   2.160  16.298  0.4751 -0.3118  0.2912
  564TMC3    C3 8364   1.981   2.036  16.353 -1.2503 -0.5541 -0.3995
  564TMC3    C4 8365   2.159   2.211  16.462 -0.2584  0.1762 -0.5997
  564TMC3    C5 8366   2.155   2.080  16.513  0.1470  0.3153  0.3709
  564TMC3    C6 8367   2.054   1.990  16.462  0.0931  0.1996  0.0151
  564TMC3     C 8368   2.106   2.372  16.294  0.6182 -0.1033  0.4742
  564TMC3     O 8369   2.084   2.470  16.358 -0.2433 -0.2969 -0.5059
  564TMC3     H 8370   1.920   2.197  16.220  0.3641  0.2180  0.6393
  564TMC3    H1 8371   2.241   2.275  16.491 -0.5955  1.0263 -1.5268
  564TMC3    H2 8372   2.044   1.890  16.501  0.1530  0.5447  0.9180
  564TMC3    C7 8373   2.266   2.027  16.591 -0.6606 -0.0437  0.4870
  564TMC3    C8 8374   1.926   1.919  16.287 -0.2148  0.0392 -0.3282
  564TMC3    O1 8375   2.332   2.111  16.646 -0.1423  1.1914 -0.1191
  564TMC3    O2 8376   1.898   1.821  16.360  0.2143 -0.1656  0.2936
  565TMC3    C1 8377   3.029   3.136  10.309  0.2775 -1.3550 -0.1697
  565TMC3    C2 8378   3.065   3.040  10.402  0.0080 -0.5003 -0.3861
  565TMC3    C3 8379   2.992   2.925  10.396 -0.1363  0.1088 -0.2771
  565TMC3    C4 8380   2.935   3.120  10.211  0.0865 -0.9558  0.5745
  565TMC3    C5 8381   2.878   3.000  10.211  0.7410  0.4649 -0.5038
  565TMC3    C6 8382   2.907   2.893  10.292 -0.1451  0.4710 -0.2799
  565TMC3     C 8383   3.123   3.241  10.295  0.3475 -0.2290  0.6358
  565TMC3     O 8384   3.142   3.292  10.186 -0.0417 -0.7509  0.2902
  565TMC3     H 8385   3.142   3.055  10.477  0.0427  0.4770 -0.6220
  565TMC3    H1 8386   2.924   3.198  10.137  1.6004 -1.2818 -0.0013
  565TMC3    H2 8387   2.838   2.810  10.306  0.9281 -0.3190  0.3628
  565TMC3    C7 8388   2.802   2.985  10.086  0.0888  0.1007 -0.5843
  565TMC3    C8 8389   3.025   2.831  10.506  0.4298 -0.6705 -0.5086
  565TMC3    O1 8390   2.805   3.076  10.002  0.0032 -0.2267  0.7187
  565TMC3    O2 8391   3.076   2.875  10.608 -0.6247  0.5918  0.2760
  566MPD2     C 8392   4.324   4.398  14.035  0.0185 -0.9017  0.3904
  566MPD2    C1 8393   4.392   4.519  14.017 -0.2185  0.2687  0.2039
  566MPD2    C2 8394   4.335   4.620  13.946 -0.2097  0.0339  0.5293
  566MPD2    C3 8395   4.210   4.604  13.888  0.0037  0.6533  0.5049
  566MPD2    C4 8396   4.140   4.488  13.914  0.3639 -0.4156 -0.1757
  566MPD2    C5 8397   4.200   4.383  13.981 -0.1015  0.6179 -0.2132
  566MPD2     H 8398   4.390   4.713  13.937 -0.5158  0.2163  0.5339
  566MPD2    H1 8399   4.039   4.471  13.879  0.0248 -0.4677  0.8146
  566MPD2    H2 8400   4.370   4.314  14.086  0.9232  0.7340  2.2745
  566MPD2    H3 8401   4.144   4.291  13.990 -1.5491  1.6515  1.4030
  566MPD2     N 8402   4.136   4.707  13.821 -0.2226  0.2211 -0.4253
  566MPD2    H5 8403   4.036   4.694  13.808  0.2232 -2.6991 -0.8919
  566MPD2    N1 8404   4.525   4.533  14.071 -0.5806 -0.8581 -0.6547
  566MPD2    H7 8405   4.547   4.454  14.131  0.3318  0.9458  1.3889
  567TMC3    C1 8406   0.006   4.610  14.130  0.1204  0.1242  0.1983
  567TMC3    C2 8407   0.112   4.668  14.071 -0.3249  0.1543  0.4962
  567TMC3    C3 8408   0.230   4.639  14.130 -0.3777  0.7031 -0.0127
  567TMC3    C4 8409   0.009   4.559  14.256 -0.4026 -0.0077  0.0315
  567TMC3    C5 8410   0.134   4.539  14.312 -0.3290  0.2240  0.2306
  567TMC3    C6 8411   0.244   4.563  14.242 -0.5193 -0.4657 -0.7942
  567TMC3     C 8412   4.607   4.643  14.070  0.1635 -0.4910 -0.0718
  567TMC3     O 8413   4.604   0.017  13.997 -0.4104 -0.0273  0.0949
  567TMC3     H 8414   0.094   4.697  13.968 -2.5165  0.9343  1.0833
  567TMC3    H1 8415   4.637   4.534  14.300 -0.4795  0.8312  0.3360
  567TMC3    H2 8416   0.337   4.531  14.288 -0.5480 -0.1742 -0.5392
  567TMC3    C7 8417   0.138   4.439  14.419 -0.1267 -0.3031 -0.0551
  567TMC3    C8 8418   0.324   0.021  14.104 -0.6812 -0.0284  0.9459
  567TMC3    O1 8419   0.236   4.364  14.422  0.1948  0.2320 -0.5110
  567TMC3    O2 8420   0.309   0.088  14.004  0.1945  0.3706  1.1683
  568MPD2     C 8421   2.377   0.691  16.626  0.3674 -0.2082  0.3955
  568MPD2    C1 8422   2.258   0.721  16.678 -0.1318  0.4535  0.5949
  568MPD2    C2 8423   2.184   0.814  16.605 -0.6830  0.3793 -0.1204
  568MPD2    C3 8424   2.229   0.881  16.488 -1.1500  0.4949  0.0471
  568MPD2    C4 8425   2.359   0.858  16.451  0.8583  0.8994 -0.4355
  568MPD2    C5 8426   2.423   0.756  16.516 -0.1219  0.2534  0.7292
  568MPD2     H 8427   2.088   0.837  16.650 -0.6838  1.5554 -0.7314
  568MPD2    H1 8428   2.403   0.901  16.361  0.9268  2.1509  0.1838
  568MPD2    H2 8429   2.449   0.620  16.665 -0.2376 -0.4034  1.1633
  568MPD2    H3 8430   2.519   0.718  16.485 -1.3340 -0.1643 -2.5418
  568MPD2     N 8431   2.141   0.977  16.437 -0.0890  0.5194 -0.3649
  568MPD2    H5 8432   2.053   0.978  16.489 -1.3407 -1.0060 -2.4568
  568MPD2    N1 8433   2.218   0.643  16.789 -0.4781 -0.1874 -0.4816
  568MPD2    H7 8434   2.280   0.567  16.815 -0.0622  0.1875 -0.3720
  569TMC3    C1 8435   2.021   1.090  16.278  0.3478  0.7252 -0.7891
  569TMC3    C2 8436   1.925   1.125  16.370  0.6806 -0.3653 -0.0668
  569TMC3    C3 8437   1.817   1.197  16.327 -1.2915 -0.1284 -0.5455
  569TMC3    C4 8438   2.016   1.134  16.149  0.8832  0.7215  0.1387
  569TMC3    C5 8439   1.908   1.207  16.108  0.5229  0.5899 -0.0592
  569TMC3    C6 8440   1.808   1.234  16.198  0.0163 -0.5553 -0.9404
  569TMC3     C 8441   2.147   1.027  16.313  0.3228 -0.0880  0.1851
  569TMC3     O 8442   2.241   1.024  16.232 -0.1095  0.4991  0.4065
  569TMC3     H 8443   1.922   1.088  16.471 -1.2138 -1.2383 -0.4629
  569TMC3    H1 8444   2.095   1.127  16.075  1.8496 -1.1519  1.3420
  569TMC3    H2 8445   1.725   1.291  16.159  0.4895 -0.7001 -2.1702
  569TMC3    C7 8446   1.931   1.318  16.016 -0.4202 -0.1819 -0.1349
  569TMC3    C8 8447   1.772   1.308  16.407 -0.4252 -0.1436  0.8725
  569TMC3    O1 8448   2.001   1.287  15.918 -0.2592  0.4536 -0.6859
  569TMC3    O2 8449   1.680   1.372  16.354  0.5337 -0.2608 -0.2025
  570TMC3    C1 8450   1.361   4.080  16.163 -0.1977 -0.3752 -0.2710
  570TMC3    C2 8451   1.482   4.089  16.108 -0.2788 -0.3151 -0.2027
  570TMC3    C3 8452   1.501   4.175  16.009  0.6132  0.6025 -0.2165
  570TMC3    C4 8453   1.258   4.162  16.128 -0.3252  0.3019  0.2583
  570TMC3    C5 8454   1.276   4.248  16.025 -0.0717 -0.2831 -0.5787
  570TMC3    C6 8455   1.397   4.248  15.953  0.3863 -0.7449  0.2394
  570TMC3     C 8456   1.369   4.005  16.285  0.1734 -0.0230  1.0344
  570TMC3     O 8457   1.433   3.899  16.276 -1.0994  0.3842  0.4684
  570TMC3     H 8458   1.569   4.043  16.153 -0.2667 -0.4766 -0.3934
  570TMC3    H1 8459   1.160   4.145  16.170 -0.6252 -1.0058 -0.9729
  570TMC3    H2 8460   1.418   4.315  15.871  1.4058 -2.6501 -1.0565
  570TMC3    C7 8461   1.231   4.378  16.061 -0.0924 -0.4187 -0.2844
  570TMC3    C8 8462   1.623   4.260  16.017 -0.4510  1.2244  0.4684
  570TMC3    O1 8463   1.190   4.395  16.176  0.1252  0.4462  0.2293
  570TMC3    O2 8464   1.615   4.375  15.978  0.2187 -0.3778  0.3954
  571MPD2     C 8465   3.734   0.072  17.358 -0.6553  0.2193 -0.0855
  571MPD2    C1 8466   3.796   0.149  17.259  0.1350  0.0058  0.8562
  571MPD2    C2 8467   3.803   0.285  17.287  0.2371 -0.3527  0.9105
  571MPD2    C3 8468   3.733   0.341  17.394 -0.0948 -0.0070  0.7672
  571MPD2    C4 8469   3.660   0.261  17.479 -0.4292 -0.1857  0.0182
  571MPD2    C5 8470   3.662   0.121  17.462  0.9245 -0.2565 -0.0743
  571MPD2     H 8471   3.858   0.348  17.218  0.1311 -0.6028  0.5991
  571MPD2    H1 8472   3.610   0.308  17.563  0.9049  0.9719  0.1670
  571MPD2    H2 8473   3.738   4.687  17.356  0.5838  0.2586  0.0010
  571MPD2    H3 8474   3.615   0.049  17.528  0.9739  0.1173  0.3653
  571MPD2     N 8475   3.731   0.483  17.427  0.4430 -0.2144  0.1420
  571MPD2    H5 8476   3.670   0.511  17.503 -1.3476 -2.0182 -0.6468
  571MPD2    N1 8477   3.872   0.083  17.163 -0.3859  0.2192  0.4649
  571MPD2    H7 8478   3.883   4.705  17.163 -0.5319  0.2019 -1.0639
  572TMC3    C1 8479   3.811   0.694  17.457 -0.0862  0.2344 -0.2923
  572TMC3    C2 8480   3.692   0.718  17.522 -0.6474 -0.5760 -0.2330
  572TMC3    C3 8481   3.664   0.842  17.563  0.2117  0.8451  0.3124
  572TMC3    C4 8482   3.910   0.788  17.455  0.5120  0.1476 -0.0760
  572TMC3    C5 8483   3.874   0.910  17.516 -0.1681 -0.1164  0.4214
  572TMC3    C6 8484   3.752   0.950  17.561 -0.0430  0.2251 -0.0176
  572TMC3     C 8485   3.830   0.566  17.393 -0.4004 -0.4228 -0.5500
  572TMC3     O 8486   3.926   0.544  17.313  0.2005  0.7433  0.0673
  572TMC3     H 8487   3.603   0.665  17.490 -1.4019  0.2049  0.5587
  572TMC3    H1 8488   3.994   0.776  17.388  1.6244  1.1929  1.1375
  572TMC3    H2 8489   3.737   1.053  17.591 -0.6602  0.2371 -0.3697
  572TMC3    C7 8490   3.980   1.004  17.524 -0.4856  0.0162  0.1301
  572TMC3    C8 8491   3.538   0.857  17.633 -0.2078  0.4602  0.4079
  572TMC3    O1 8492   3.945   1.120  17.517  0.2956 -0.5983 -0.0918
  572TMC3    O2 8493   3.467   0.757  17.630 -0.8760  0.6445 -0.1682
  573MPD2     C 8494   0.678   2.151   0.676 -0.5921  0.2520 -0.1997
  573MPD2    C1 8495   0.635   2.098   0.794  0.2875  0.2648  0.2591
  573MPD2    C2 8496   0.526   2.009   0.801  0.4742  1.0864  0.0312
  573MPD2    C3 8497   0.488   1.952   0.679  0.0611 -0.0289 -0.1707
  573MPD2    C4 8498   0.537   2.006   0.560  0.4371  0.9344  0.1522
  573MPD2    C5 8499   0.635   2.100   0.554  0.2311  0.5516 -0.0227
  573MPD2     H 8500   0.488   1.968   0.894 -0.8007 -2.0428 -1.8581
  573MPD2    H1 8501   0.512   1.958   0.466  0.8685 -0.6360  0.8419
  573MPD2    H2 8502   0.749   2.233   0.680 -1.6342  1.0756  1.2831
  573MPD2    H3 8503   0.677   2.144   0.464  2.2771  1.3835  1.3202
  573MPD2     N 8504   0.384   1.860   0.665  0.1177  0.1949  0.3579
  573MPD2    H5 8505   0.359   1.848   0.567 -0.1160 -1.4331  0.6180
  573MPD2    N1 8506   0.689   2.148   0.908  0.0230  0.2679  0.0537
  573MPD2    H7 8507   0.776   2.198   0.891 -0.3183  0.5152 -0.9574
  574TMC3    C1 8508   0.195   1.745   0.721  0.0752  0.0129 -0.1282
  574TMC3    C2 8509   0.097   1.819   0.667 -0.9603  0.0361  0.1467
  574TMC3    C3 8510   4.693   1.770   0.655  0.2421  0.4908  0.2206
  574TMC3    C4 8511   0.178   1.618   0.762 -0.3619  0.1739 -0.7016
  574TMC3    C5 8512   0.052   1.563   0.741 -0.3788 -0.5740  0.1509
  574TMC3    C6 8513   4.667   1.640   0.697  0.0153  0.4102 -0.2316
  574TMC3     C 8514   0.312   1.813   0.773  0.0603  0.3845  0.9284
  574TMC3     O 8515   0.343   1.794   0.890 -0.3157 -0.3278  0.2391
  574TMC3     H 8516   0.121   1.922   0.644  0.2590 -0.6342 -1.5594
  574TMC3    H1 8517   0.260   1.565   0.810  0.2714  0.5385 -1.3794
  574TMC3    H2 8518   4.565   1.602   0.706 -0.5832  2.0067 -0.2553
  574TMC3    C7 8519   0.037   1.424   0.734 -0.5465 -0.2799 -0.4342
  574TMC3    C8 8520   4.572   1.858   0.630  0.2226 -0.3766 -0.2283
  574TMC3    O1 8521   4.648   1.385   0.710  0.1504 -0.6344  0.2941
  574TMC3    O2 8522   4.460   1.818   0.656 -0.0108  0.9147 -0.4162
  575TMC3    C1 8523   3.132   2.708  11.317  0.1399  0.6317  0.6325
  575TMC3    C2 8524   3.090   2.598  11.392 -0.2791  0.0838  0.0427
  575TMC3    C3 8525   3.055   2.482  11.328 -1.0423 -0.8548  0.0296
  575TMC3    C4 8526   3.153   2.694  11.181 -0.0176  0.0573  0.4876
  575TMC3    C5 8527   3.113   2.584  11.117 -0.1588 -0.3550 -0.2120
  575TMC3    C6 8528   3.067   2.477  11.188  0.3581  0.0055  0.1065
  575TMC3     C 8529   3.182   2.820  11.389  0.8075  0.2034 -0.3100
  575TMC3     O 8530   3.171   2.812  11.510 -0.1530  0.4560  0.0568
  575TMC3     H 8531   3.073   2.618  11.497  0.4804  0.5832  0.0691
  575TMC3    H1 8532   3.171   2.783  11.122 -0.3174  0.7580  1.4475
  575TMC3    H2 8533   3.041   2.385  11.136 -1.2147  0.2750  0.4084
  575TMC3    C7 8534   3.128   2.587  10.970  0.0109  1.0137 -0.9512
  575TMC3    C8 8535   3.013   2.366  11.398 -0.0434 -0.4639  0.9348
  575TMC3    O1 8536   3.189   2.685  10.924 -0.5005  0.3016  0.1781
  575TMC3    O2 8537   2.984   2.270  11.330 -0.0692 -0.7784  0.2105
  576MPD2     C 8538   2.437   4.582  12.769  0.0178  0.3443  0.3590
  576MPD2    C1 8539   2.427   4.645  12.645 -0.2106 -0.7900 -0.3611
  576MPD2    C2 8540   2.325   0.010  12.620  0.1419  0.3202  0.4326
  576MPD2    C3 8541   2.233   0.045  12.716  0.4150  0.1149  0.8029
  576MPD2    C4 8542   2.243   4.707  12.839  0.2416  0.7647 -0.1980
  576MPD2    C5 8543   2.335   4.612  12.864  0.0036 -1.1546  0.2094
  576MPD2     H 8544   2.328   0.046  12.518 -0.2744 -2.3183 -0.5121
  576MPD2    H1 8545   2.170   0.013  12.913  1.2944 -1.2789  1.6425
  576MPD2    H2 8546   2.515   4.511  12.797 -1.1867 -1.0209  0.2709
  576MPD2    H3 8547   2.347   4.571  12.963  1.0961  0.1595  0.6246
  576MPD2     N 8548   2.142   0.147  12.682 -0.3667 -0.4237  0.1024
  576MPD2    H5 8549   2.164   0.192  12.593  1.4663  1.0187  1.2772
  576MPD2    N1 8550   2.531   4.633  12.542  0.5213  0.5797 -0.9126
  576MPD2    H7 8551   2.509   4.687  12.459  2.0046 -1.0495 -2.3831
  577TMC3    C1 8552   2.717   4.553  12.423 -0.6929  0.7644 -0.0669
  577TMC3    C2 8553   2.777   4.436  12.389  0.4248  0.0963 -0.4490
  577TMC3    C3 8554   2.829   4.423  12.261 -0.9163 -0.1980 -0.3915
  577TMC3    C4 8555   2.712   4.660  12.341 -0.0240 -0.3128 -0.5864
  577TMC3    C5 8556   2.776   4.648  12.222 -0.2561 -0.7573  0.1496
  577TMC3    C6 8557   2.834   4.529  12.179  0.5728  0.4390  0.0026
  577TMC3     C 8558   2.645   4.555  12.549  0.0674 -0.5692  0.8331
  577TMC3     O 8559   2.677   4.464  12.627 -0.2762  0.4439  0.4404
  577TMC3     H 8560   2.770   4.345  12.448  1.7079  1.3869  1.6829
  577TMC3    H1 8561   2.676   0.032  12.378  1.5082 -0.6741  1.8356
  577TMC3    H2 8562   2.858   4.524  12.073  2.0500  3.1453  0.2407
  577TMC3    C7 8563   2.769   0.033  12.124 -0.7491 -1.1229 -0.9246
  577TMC3    C8 8564   2.869   4.294  12.209  0.6598  0.3784 -0.2109
  577TMC3    O1 8565   2.664   0.097  12.132  0.1811  0.2657 -0.5772
  577TMC3    O2 8566   2.823   4.204  12.280  0.1463  0.4244  0.3868
  578MPD2     C 8567   0.618   4.001   1.555  0.7488 -0.2178 -0.1105
  578MPD2    C1 8568   0.739   4.059   1.570  0.1883  0.5552 -0.1209
  578MPD2    C2 8569   0.852   3.994   1.617  0.1526 -0.2437 -0.2263
  578MPD2    C3 8570   0.837   3.866   1.666  0.5035  0.6482 -0.2413
  578MPD2    C4 8571   0.711   3.805   1.661  0.7186  0.1132 -0.2781
  578MPD2    C5 8572   0.601   3.874   1.612  0.0388 -0.3072  0.2431
  578MPD2     H 8573   0.948   4.045   1.624 -0.0604  0.2425 -0.9475
  578MPD2    H1 8574   0.683   3.710   1.705 -0.6009  0.7079  0.1828
  578MPD2    H2 8575   0.534   4.054   1.511 -1.2999  0.1792  4.3194
  578MPD2    H3 8576   0.503   3.827   1.615 -0.9480  1.7274  0.1575
  578MPD2     N 8577   0.951   3.796   1.709 -0.3579  0.6358  0.2341
  578MPD2    H5 8578   1.040   3.842   1.723  0.1176  0.5217 -2.4132
  578MPD2    N1 8579   0.750   4.190   1.520 -0.1239 -0.2958  0.0653
  578MPD2    H7 8580   0.660   4.228   1.492  0.2833 -0.3523 -1.2968
  579TMC3    C1 8581   1.095   3.633   1.782 -0.1730  0.1451 -0.5931
  579TMC3    C2 8582   1.154   3.728   1.850 -0.7304 -0.1098 -0.3260
  579TMC3    C3 8583   1.289   3.745   1.830  0.2944  0.1153  0.9519
  579TMC3    C4 8584   1.158   3.552   1.697 -0.6713 -0.1094 -0.5277
  579TMC3    C5 8585   1.295   3.570   1.677 -0.2665  0.7586  0.8390
  579TMC3    C6 8586   1.356   3.673   1.740  0.0866  0.6863  1.0347
  579TMC3     C 8587   0.959   3.664   1.737 -0.0463 -0.5144  0.5946
  579TMC3     O 8588   0.885   3.572   1.702  0.5055 -0.3445  0.3415
  579TMC3     H 8589   1.103   3.788   1.923 -0.8436  0.6313 -1.0124
  579TMC3    H1 8590   1.102   3.479   1.640 -0.6896  1.0271 -1.9527
  579TMC3    H2 8591   1.460   3.692   1.716 -0.0697  1.5015  0.9821
  579TMC3    C7 8592   1.349   3.507   1.554  0.5417 -0.8503 -0.3356
  579TMC3    C8 8593   1.360   3.835   1.920 -0.1880  0.5630  0.0286
  579TMC3    O1 8594   1.282   3.447   1.471  0.6797 -0.1160 -0.3943
  579TMC3    O2 8595   1.312   3.864   2.031  0.3782 -0.1843 -0.0694
  580TMC3    C1 8596   0.586   3.317  11.663  0.5293 -1.0582  0.0883
  580TMC3    C2 8597   0.657   3.292  11.546 -0.3688 -0.4235  0.2281
  580TMC3    C3 8598   0.724   3.172  11.526  0.1449 -0.2632  0.7247
  580TMC3    C4 8599   0.587   3.222  11.759 -0.2818 -0.4629 -0.2120
  580TMC3    C5 8600   0.665   3.108  11.748 -0.2958  0.5771  0.3067
  580TMC3    C6 8601   0.736   3.083  11.633  0.5688  0.1769 -0.3161
  580TMC3     C 8602   0.627   3.442  11.710 -0.1881  0.3388  0.8296
  580TMC3     O 8603   0.746   3.439  11.737  0.4149  0.3583  0.3019
  580TMC3     H 8604   0.672   3.373  11.477  1.0099  0.9473  2.1558
  580TMC3    H1 8605   0.538   3.236  11.855  0.2122 -0.7940  0.0875
  580TMC3    H2 8606   0.789   2.992  11.608 -0.4397 -0.0473 -1.6189
  580TMC3    C7 8607   0.713   3.054  11.875 -0.1410  0.7103  0.1040
  580TMC3    C8 8608   0.850   3.201  11.471  0.1221 -0.6835  0.1660
  580TMC3    O1 8609   0.713   3.131  11.971 -0.2003 -0.0128  0.5496
  580TMC3    O2 8610   0.890   3.131  11.377 -0.4257  0.0490 -0.0199
  581MPD2     C 8611   3.171   2.992  14.722  0.1241  0.0263 -0.6196
  581MPD2    C1 8612   3.112   2.987  14.849  0.3605 -0.2055 -0.3364
  581MPD2    C2 8613   2.990   3.050  14.875  0.1073  0.6661  0.2096
  581MPD2    C3 8614   2.919   3.118  14.771  0.3135  0.0880 -0.2337
  581MPD2    C4 8615   2.970   3.106  14.644  0.4246  0.0328  0.0318
  581MPD2    C5 8616   3.093   3.043  14.616 -0.1566  0.3073 -0.1295
  581MPD2     H 8617   2.952   3.037  14.976  2.9142  0.1360  1.1817
  581MPD2    H1 8618   2.927   3.149  14.553  1.1112 -0.3355 -0.4640
  581MPD2    H2 8619   3.261   2.942  14.689 -2.0581 -3.6106 -1.1394
  581MPD2    H3 8620   3.125   3.026  14.513 -5.0481 -1.1130 -1.4681
  581MPD2     N 8621   2.795   3.181  14.798 -0.6828 -0.1396  0.1497
  581MPD2    H5 8622   2.769   3.197  14.895  0.2167 -0.8705  0.5027
  581MPD2    N1 8623   3.166   2.911  14.957 -0.1119 -0.1637 -0.2327
  581MPD2    H7 8624   3.114   2.903  15.043  0.1667 -0.5015 -0.0932
  582TMC3    C1 8625   3.307   2.750  15.065  0.3086  0.2622  0.3385
  582TMC3    C2 8626   3.364   2.800  15.180 -0.6672 -0.2142 -0.5283
  582TMC3    C3 8627   3.338   2.730  15.296  0.5227 -0.2003 -0.1105
  582TMC3    C4 8628   3.252   2.625  15.046 -0.1877 -0.6390  0.7926
  582TMC3    C5 8629   3.219   2.565  15.166 -0.4248  0.2402  0.4792
  582TMC3    C6 8630   3.263   2.614  15.288  0.0875  0.0028 -0.0134
  582TMC3     C 8631   3.289   2.844  14.958 -0.0558  0.4526  0.0578
  582TMC3     O 8632   3.371   2.840  14.871  0.2035  0.5025 -0.2610
  582TMC3     H 8633   3.406   2.900  15.179  1.0651 -0.9431 -0.2342
  582TMC3    H1 8634   3.208   2.613  14.948 -1.0127 -0.7956  1.1808
  582TMC3    H2 8635   3.239   2.559  15.378  1.1126 -0.5377 -0.0697
  582TMC3    C7 8636   3.081   2.514  15.157  0.3049  0.2100  0.4475
  582TMC3    C8 8637   3.357   2.789  15.420 -0.4220 -0.4292 -0.4781
  582TMC3    O1 8638   3.027   2.500  15.047  0.2513  0.3532 -0.5851
  582TMC3    O2 8639   3.292   2.753  15.516  0.6098  0.4946  0.2733
  583MPD2     C 8640   2.806   0.087  16.593 -0.2663 -0.3478 -0.6052
  583MPD2    C1 8641   2.927   0.119  16.645  0.2925  0.2473 -0.0009
  583MPD2    C2 8642   2.933   0.199  16.754 -0.5589  0.3411 -0.1869
  583MPD2    C3 8643   2.822   0.229  16.833  0.6117  0.1382  0.2609
  583MPD2    C4 8644   2.699   0.189  16.794 -0.4115 -0.2361  0.7664
  583MPD2    C5 8645   2.691   0.124  16.672 -0.2983  0.2793  0.5402
  583MPD2     H 8646   3.030   0.238  16.784  0.2362 -1.7748  0.0020
  583MPD2    H1 8647   2.608   0.206  16.851 -0.5563 -0.7903  0.7093
  583MPD2    H2 8648   2.791   0.027  16.504 -0.4316  0.1500 -0.9144
  583MPD2    H3 8649   2.599   0.089  16.625  0.0315 -0.6813  0.5958
  583MPD2     N 8650   2.851   0.313  16.946  0.1778 -0.3183  0.3076
  583MPD2    H5 8651   2.946   0.348  16.961  0.9884 -1.5048 -2.0823
  583MPD2    N1 8652   3.047   0.088  16.586 -0.1657 -0.0998  0.1586
  583MPD2    H7 8653   3.131   0.117  16.635 -0.8183 -2.2994  2.5381
  584TMC3    C1 8654   2.827   0.428  17.144 -0.0169 -0.5353 -0.2723
  584TMC3    C2 8655   2.872   0.556  17.107 -0.0038 -0.3930 -1.2353
  584TMC3    C3 8656   2.864   0.653  17.206 -0.1829  0.6481  0.3146
  584TMC3    C4 8657   2.795   0.405  17.276  0.3949 -0.4290 -0.3286
  584TMC3    C5 8658   2.809   0.508  17.371  0.0255 -0.2950 -0.1111
  584TMC3    C6 8659   2.842   0.634  17.337 -0.1562  0.5732  0.6330
  584TMC3     C 8660   2.764   0.353  17.045  0.6182  0.0811  0.4258
  584TMC3     O 8661   2.659   0.302  17.073 -0.0509  0.3054  0.5091
  584TMC3     H 8662   2.884   0.582  17.002 -1.6079 -1.5313 -1.7009
  584TMC3    H1 8663   2.734   0.321  17.306 -3.0293  3.1860  2.8588
  584TMC3    H2 8664   2.856   0.714  17.408 -0.8673  0.9449  0.3572
  584TMC3    C7 8665   2.775   0.485  17.514 -0.5610 -0.0328  0.5182
  584TMC3    C8 8666   2.882   0.782  17.149  0.7042  0.3850  0.0852
  584TMC3    O1 8667   2.770   0.369  17.552  0.2300 -0.1930  0.0134
  584TMC3    O2 8668   2.866   0.800  17.025 -0.7101  0.4651  0.0620
  585MPD2     C 8669   2.654   3.328   0.493  0.5518 -0.3178  0.1692
  585MPD2    C1 8670   2.676   3.443   0.428 -0.3860 -0.0625  0.6134
  585MPD2    C2 8671   2.742   3.442   0.310 -0.7122  0.1457 -0.0372
  585MPD2    C3 8672   2.766   3.326   0.244  0.3387  0.6483 -1.1671
  585MPD2    C4 8673   2.733   3.210   0.303 -0.7605  0.1915  0.1699
  585MPD2    C5 8674   2.680   3.210   0.430 -0.0551 -0.5603 -0.0009
  585MPD2     H 8675   2.760   3.536   0.259  0.4286  0.4930  1.0118
  585MPD2    H1 8676   2.748   3.118   0.249 -3.3413 -0.8814  1.2559
  585MPD2    H2 8677   2.628   3.328   0.598  1.0407  0.1033  0.2893
  585MPD2    H3 8678   2.646   3.116   0.472 -1.1421  0.1882  0.8068
  585MPD2     N 8679   2.809   3.324   0.106 -0.2189  0.9473 -0.0233
  585MPD2    H5 8680   2.813   3.231   0.066  1.2057 -0.0954  2.5509
  585MPD2    N1 8681   2.653   3.575   0.489  0.5671  0.1154 -0.5525
  585MPD2    H7 8682   2.675   3.651   0.426 -0.3363  0.7870 -0.0525
  586TMC3    C1 8683   2.852   3.399  17.586 -0.1698  0.1009 -0.6186
  586TMC3    C2 8684   2.912   3.279  17.553  0.3987  0.3103  0.0400
  586TMC3    C3 8685   2.879   3.230  17.427 -0.2020 -0.0981  0.0306
  586TMC3    C4 8686   2.768   3.468  17.503  0.0941 -0.0838 -0.3213
  586TMC3    C5 8687   2.752   3.425  17.378  0.1203 -0.0756 -0.0482
  586TMC3    C6 8688   2.809   3.306  17.338 -0.0816 -0.1354 -0.5910
  586TMC3     C 8689   2.826   3.432   0.027 -1.0766 -0.4971 -0.8523
  586TMC3     O 8690   2.792   3.546   0.045 -0.7419  0.6688  0.2654
  586TMC3     H 8691   2.981   3.222  17.614  0.3286  2.0343  1.7373
  586TMC3    H1 8692   2.698   3.542  17.540 -1.9737 -3.4181  2.5468
  586TMC3    H2 8693   2.795   3.263  17.239  2.0595 -0.2775 -0.8382
  586TMC3    C7 8694   2.657   3.485  17.294  0.3387 -0.2806  0.0830
  586TMC3    C8 8695   2.971   3.119  17.396  0.3550 -0.2757  0.5979
  586TMC3    O1 8696   2.649   3.447  17.180  0.0923 -0.5702 -0.4908
  586TMC3    O2 8697   2.995   3.044  17.488  0.6352 -0.0814  0.4247
  587TMC3    C1 8698   0.272   2.256  16.845 -0.6032  0.4114  0.4181
  587TMC3    C2 8699   0.224   2.357  16.762  0.4992 -0.3718 -0.1602
  587TMC3    C3 8700   0.319   2.442  16.715 -0.7482  0.5050 -0.3952
  587TMC3    C4 8701   0.407   2.231  16.860 -0.5253 -0.4097  0.1133
  587TMC3    C5 8702   0.500   2.319  16.808 -0.4929 -0.0884  0.5868
  587TMC3    C6 8703   0.455   2.429  16.737 -0.2079 -0.1214 -0.8360
  587TMC3     C 8704   0.177   2.162  16.912  0.1389  0.8098 -0.1869
  587TMC3     O 8705   0.222   2.050  16.939 -0.1983  0.2796 -0.1685
  587TMC3     H 8706   0.124   2.374  16.725  0.8514 -0.2716 -1.0547
  587TMC3    H1 8707   0.440   2.152  16.926  0.2309  0.4304  0.7421
  587TMC3    H2 8708   0.527   2.507  16.713  0.3474 -0.4666 -0.2754
  587TMC3    C7 8709   0.640   2.296  16.844  0.2060 -0.1536 -0.4435
  587TMC3    C8 8710   0.287   2.569  16.644  0.0920 -0.1352 -0.2759
  587TMC3    O1 8711   0.659   2.220  16.940  0.1478 -0.1359 -0.0244
  587TMC3    O2 8712   0.373   2.621  16.571  0.0547 -0.1178 -0.5011
  588TMC3    C1 8713   2.290   0.292   9.581 -0.1990  0.4214 -0.4464
  588TMC3    C2 8714   2.265   0.158   9.594 -0.0989 -0.0520 -0.4571
  588TMC3    C3 8715   2.353   0.089   9.665 -0.5079 -0.4489 -0.1212
  588TMC3    C4 8716   2.402   0.352   9.625 -0.1290 -0.5298  0.3696
  588TMC3    C5 8717   2.489   0.276   9.700  0.0180 -0.8749 -0.2155
  588TMC3    C6 8718   2.462   0.138   9.725 -0.1767  0.2139 -0.8326
  588TMC3     C 8719   2.172   0.370   9.552 -0.5129  0.1972 -0.4286
  588TMC3     O 8720   2.074   0.318   9.500  0.4101  0.3130 -0.3626
  588TMC3     H 8721   2.165   0.122   9.571 -0.4307  0.6622 -0.1472
  588TMC3    H1 8722   2.422   0.452   9.588  1.6069 -0.2481  2.0976
  588TMC3    H2 8723   2.505   0.082   9.807 -1.4496  0.5771  0.0925
  588TMC3    C7 8724   2.554   0.339   9.813 -0.3553 -0.0666 -0.1147
  588TMC3    C8 8725   2.319   4.673   9.676 -0.1840 -0.7790  0.7880
  588TMC3    O1 8726   2.610   0.264   9.896 -0.3555 -0.0721  0.5215
  588TMC3    O2 8727   2.202   4.646   9.657 -0.3334 -0.0435  0.1129
  589TMC3    C1 8728   1.774   2.563   1.510 -0.4491 -0.3846  0.1082
  589TMC3    C2 8729   1.857   2.638   1.585 -0.5155  0.1068 -0.4277
  589TMC3    C3 8730   1.985   2.593   1.599 -0.0467 -0.0600  0.2745
  589TMC3    C4 8731   1.818   2.458   1.439  0.0781  0.2527 -1.3255
  589TMC3    C5 8732   1.946   2.412   1.461 -0.3002 -0.3100  0.8539
  589TMC3    C6 8733   2.033   2.472   1.555 -0.6700  0.5304 -0.1824
  589TMC3     C 8734   1.635   2.601   1.504 -0.3629 -0.2731 -0.4384
  589TMC3     O 8735   1.584   2.562   1.400 -0.0910  0.1833 -0.3606
  589TMC3     H 8736   1.833   2.733   1.630 -0.3385 -0.3480  0.6342
  589TMC3    H1 8737   1.754   2.403   1.371 -0.3615 -1.5392  0.5507
  589TMC3    H2 8738   2.136   2.439   1.565 -0.9261 -0.0505  0.5221
  589TMC3    C7 8739   1.983   2.294   1.388  0.1403  0.9074  0.6540
  589TMC3    C8 8740   2.090   2.685   1.663 -0.1011 -0.2645  0.2783
  589TMC3    O1 8741   2.060   2.224   1.450  0.1887  0.1306  0.1471
  589TMC3    O2 8742   2.042   2.761   1.744 -0.0205  0.4922 -0.1160
  590MPD2     C 8743   0.605   0.663  16.579 -0.5590  0.6699  0.0296
  590MPD2    C1 8744   0.572   0.752  16.474 -1.2772  0.2576 -0.2592
  590MPD2    C2 8745   0.657   0.856  16.435 -0.3018 -0.0296  0.4113
  590MPD2    C3 8746   0.778   0.866  16.494 -0.3419  0.1902 -0.1023
  590MPD2    C4 8747   0.812   0.777  16.597  0.2776 -0.0131  0.4371
  590MPD2    C5 8748   0.724   0.679  16.634 -0.1142  0.0345  0.6899
  590MPD2     H 8749   0.629   0.924  16.355 -1.4006 -0.6493  0.2797
  590MPD2    H1 8750   0.904   0.780  16.654  0.6496  0.9019 -0.2166
  590MPD2    H2 8751   0.541   0.591  16.629  0.7220  0.7317  1.8017
  590MPD2    H3 8752   0.754   0.621  16.720  2.1785 -1.2210 -0.9453
  590MPD2     N 8753   0.868   0.970  16.451  0.6003  0.7284  0.6547
  590MPD2    H5 8754   0.833   1.036  16.382  0.3133  0.3662  0.4524
  590MPD2    N1 8755   0.435   0.749  16.445 -0.1910  0.1488  0.1728
  590MPD2    H7 8756   0.375   0.692  16.504  0.9104 -0.9450  0.2486
  591TMC3    C1 8757   1.042   1.113  16.441 -0.1644 -0.3473 -0.1069
  591TMC3    C2 8758   1.172   1.114  16.391 -0.0831 -0.5248  0.2016
  591TMC3    C3 8759   1.213   1.230  16.338  0.4755 -0.5286 -0.5029
  591TMC3    C4 8760   0.967   1.228  16.445  0.1568 -0.0457  0.1100
  591TMC3    C5 8761   1.017   1.339  16.385  0.0901  0.2486  0.3285
  591TMC3    C6 8762   1.142   1.348  16.334 -0.8762 -0.0317 -0.3433
  591TMC3     C 8763   0.994   0.991  16.497 -0.9033  0.4203 -0.1607
  591TMC3     O 8764   1.067   0.905  16.538  0.0821 -0.3191  0.4703
  591TMC3     H 8765   1.217   1.016  16.380 -2.0071 -1.5897  1.8236
  591TMC3    H1 8766   0.867   1.226  16.489 -0.1697  0.1153 -0.6278
  591TMC3    H2 8767   1.183   1.435  16.285  1.9395 -1.4608 -0.5263
  591TMC3    C7 8768   0.916   1.443  16.358  0.2269  0.9181 -0.7119
  591TMC3    C8 8769   1.298   1.211  16.221 -0.2141 -0.4094  0.2724
  591TMC3    O1 8770   0.801   1.417  16.400  0.0053  0.0917  0.1612
  591TMC3    O2 8771   1.319   1.095  16.191  0.5526 -0.3897  0.0673
  592MPD2     C 8772   1.782   3.016  11.168  0.2369 -0.7334  0.1407
  592MPD2    C1 8773   1.789   3.038  11.303 -0.2214 -0.3790 -0.0243
  592MPD2    C2 8774   1.704   2.963  11.381  0.8388  0.3483  0.5431
  592MPD2    C3 8775   1.624   2.860  11.343  0.0311  0.0560 -0.5898
  592MPD2    C4 8776   1.613   2.845  11.206  0.0815  0.4524  0.8724
  592MPD2    C5 8777   1.692   2.924  11.122  0.5781 -0.0617 -0.0056
  592MPD2     H 8778   1.716   2.982  11.487 -0.4446  3.0744  0.1897
  592MPD2    H1 8779   1.547   2.775  11.157 -1.3736  2.0050  0.5908
  592MPD2    H2 8780   1.857   3.049  11.098 -0.0043  0.3581  0.3909
  592MPD2    H3 8781   1.685   2.908  11.015  2.7281  1.7265 -0.4053
  592MPD2     N 8782   1.559   2.786  11.449 -0.0822  0.4804  0.0962
  592MPD2    H5 8783   1.578   2.810  11.546 -1.9255 -0.6698  0.7413
  592MPD2    N1 8784   1.874   3.137  11.343  0.7162  0.2754 -0.0330
  592MPD2    H7 8785   1.913   3.188  11.264  1.2570  0.5561  0.4150
  593TMC3    C1 8786   1.962   3.314  11.482 -0.2721  0.0693  0.5092
  593TMC3    C2 8787   1.934   3.388  11.596 -0.1020  0.1437  0.5302
  593TMC3    C3 8788   2.020   3.484  11.624 -0.5720 -0.2473 -0.2796
  593TMC3    C4 8789   2.064   3.347  11.395  0.0677 -0.8942 -0.5357
  593TMC3    C5 8790   2.140   3.450  11.429  0.9478  0.0018 -0.0432
  593TMC3    C6 8791   2.124   3.526  11.542  0.2903  0.4835  0.0912
  593TMC3     C 8792   1.879   3.194  11.466  0.1589  0.0461 -0.9689
  593TMC3     O 8793   1.807   3.175  11.564  0.0476 -0.2894 -0.1693
  593TMC3     H 8794   1.856   3.376  11.671 -0.9620  0.0157 -0.3909
  593TMC3    H1 8795   2.088   3.291  11.305  3.0059 -1.6866  0.7556
  593TMC3    H2 8796   2.173   3.622  11.556  0.7245  0.2074  0.4759
  593TMC3    C7 8797   2.218   3.508  11.321 -0.1551 -0.4493 -0.1998
  593TMC3    C8 8798   1.955   3.601  11.675 -0.7076 -0.7381 -0.2847
  593TMC3    O1 8799   2.309   3.581  11.355 -0.6713  0.0301 -0.1034
  593TMC3    O2 8800   1.833   3.616  11.656  0.2617 -0.3135 -0.3681
  594MPD2     C 8801   0.270   1.533  14.201  0.4967 -0.0396  0.9563
  594MPD2    C1 8802   0.193   1.633  14.267 -0.8444  0.3906 -1.2896
  594MPD2    C2 8803   0.239   1.765  14.269  0.2593 -0.4652  0.1899
  594MPD2    C3 8804   0.360   1.794  14.205 -0.1008 -0.7944  0.4646
  594MPD2    C4 8805   0.438   1.693  14.158  0.1563  0.3844  0.1163
  594MPD2    C5 8806   0.389   1.565  14.144  0.3331  0.4813 -0.2306
  594MPD2     H 8807   0.184   1.839  14.326 -4.0484 -1.2991 -2.9152
  594MPD2    H1 8808   0.533   1.717  14.113  1.4809 -1.2466  2.0603
  594MPD2    H2 8809   0.223   1.439  14.175  1.3690 -0.1869 -0.0954
  594MPD2    H3 8810   0.439   1.494  14.079 -0.9233  0.3295 -1.0259
  594MPD2     N 8811   0.410   1.932  14.210 -0.5911 -0.2748 -1.0719
  594MPD2    H5 8812   0.336   1.998  14.232 -1.2901 -1.2225 -0.5550
  594MPD2    N1 8813   0.067   1.607  14.328 -0.0503  0.2660 -0.0570
  594MPD2    H7 8814   0.012   1.682  14.370 -0.7745 -0.2954  0.0043
  595TMC3    C1 8815   0.761   2.243  14.288 -0.0858 -0.2040  0.1190
  595TMC3    C2 8816   0.714   2.133  14.212 -0.1646 -0.5035  0.0772
  595TMC3    C3 8817   0.586   2.099  14.235  0.1969 -0.7554 -0.3891
  595TMC3    C4 8818   0.680   2.322  14.369 -0.2728  0.3223  0.4814
  595TMC3    C5 8819   0.545   2.284  14.377  0.2318 -0.0784 -0.3083
  595TMC3    C6 8820   0.497   2.172  14.311 -0.3503  0.3204  0.0625
  595TMC3     C 8821   0.903   2.249  14.307  0.1068 -0.3723 -0.4296
  595TMC3     O 8822   0.931   2.357  14.360 -0.0935  0.6240  0.7998
  595TMC3     H 8823   0.778   2.070  14.152  1.4133  0.4825  0.7072
  595TMC3    H1 8824   0.726   2.383  14.446 -0.2031 -1.1354  1.5871
  595TMC3    H2 8825   0.393   2.142  14.312 -0.3433  0.2978  0.2900
  595TMC3    C7 8826   0.467   2.321  14.490 -0.1985  0.5480 -0.3332
  595TMC3    C8 8827   0.545   1.966  14.198  0.0650  0.1068 -0.1129
  595TMC3    O1 8828   0.350   2.314  14.467 -0.2309  0.1676 -0.4126
  595TMC3    O2 8829   0.643   1.889  14.181  0.4990  0.3121  0.2209
  596MPD2     C 8830   3.633   4.567  16.953 -0.1018 -0.4219  0.0686
  596MPD2    C1 8831   3.680   4.664  16.866  0.0917  0.0644 -0.2645
  596MPD2    C2 8832   3.745   4.625  16.750 -0.7369 -0.2924 -0.0688
  596MPD2    C3 8833   3.765   4.494  16.720 -0.1622 -0.3756  0.7105
  596MPD2    C4 8834   3.702   4.402  16.797  0.6212  0.2247  0.5234
  596MPD2    C5 8835   3.650   4.437  16.917  0.3580 -0.6528 -0.5981
  596MPD2     H 8836   3.781   4.696  16.677  0.1922  0.5148  1.1728
  596MPD2    H1 8837   3.706   4.296  16.774  2.1076 -0.4917  4.1024
  596MPD2    H2 8838   3.616   4.583  17.059  0.7307  1.5580 -0.0984
  596MPD2    H3 8839   3.613   4.361  16.985  1.3662 -1.6058 -1.1245
  596MPD2     N 8840   3.819   4.440  16.603  0.6077  0.0751 -0.0566
  596MPD2    H5 8841   3.799   4.346  16.571 -2.4446  0.6829  0.0759
  596MPD2    N1 8842   3.673   0.072  16.908 -0.2840 -0.1052  0.2478
  596MPD2    H7 8843   3.638   0.085  17.002  2.8051  0.9197  1.2595
  597TMC3    C1 8844   3.706   0.313  16.897 -0.7247 -0.5114  0.2561
  597TMC3    C2 8845   3.797   0.410  16.865 -0.3814  0.3259 -0.4503
  597TMC3    C3 8846   3.817   0.516  16.950  0.6601  0.8220  0.2907
  597TMC3    C4 8847   3.621   0.331  17.004  0.2452  0.6444 -0.0224
  597TMC3    C5 8848   3.629   0.453  17.071  0.3960  0.1450 -0.0556
  597TMC3    C6 8849   3.724   0.547  17.044 -0.2627  0.2864  0.0247
  597TMC3     C 8850   3.726   0.181  16.838 -0.5318 -0.2146 -0.1912
  597TMC3     O 8851   3.790   0.185  16.732 -0.3705  0.1803 -0.1874
  597TMC3     H 8852   3.873   0.377  16.794 -1.3918 -0.1305 -1.3345
  597TMC3    H1 8853   3.535   0.269  17.026 -0.3312  1.3920 -0.1433
  597TMC3    H2 8854   3.735   0.625  17.119  0.3110  0.3893 -0.1667
  597TMC3    C7 8855   3.519   0.486  17.160 -0.4468 -0.2222 -0.0803
  597TMC3    C8 8856   3.951   0.559  16.940 -0.7773 -0.2777 -0.8418
  597TMC3    O1 8857   3.451   0.399  17.213 -0.4167 -0.2504 -0.2833
  597TMC3    O2 8858   3.999   0.560  16.830  0.4136 -0.1336 -0.1181
  598TMC3    C1 8859   2.172   1.772  15.405  0.2906 -0.4640  0.1924
  598TMC3    C2 8860   2.093   1.670  15.438 -0.0564  0.1957  0.4456
  598TMC3    C3 8861   2.054   1.571  15.343  0.2667 -0.2141 -0.3591
  598TMC3    C4 8862   2.214   1.789  15.274  0.7236 -0.5974  0.1086
  598TMC3    C5 8863   2.160   1.697  15.186 -0.2826  0.3753  0.3235
  598TMC3    C6 8864   2.085   1.584  15.213 -0.9972  0.1787 -0.7118
  598TMC3     C 8865   2.236   1.846  15.511  0.1405 -0.3404  0.5994
  598TMC3     O 8866   2.253   1.782  15.613 -0.7476 -0.3146  0.6033
  598TMC3     H 8867   2.048   1.673  15.537 -0.2908  0.2292  0.3357
  598TMC3    H1 8868   2.297   1.854  15.252  0.5057  0.2385  1.7435
  598TMC3    H2 8869   2.057   1.512  15.138 -0.1474 -0.7749 -0.1014
  598TMC3    C7 8870   2.187   1.714  15.038 -0.3749 -0.5063  0.7655
  598TMC3    C8 8871   1.949   1.478  15.392  0.0341  0.3272 -0.2659
  598TMC3    O1 8872   2.141   1.629  14.961 -0.6614 -0.0440 -0.1132
  598TMC3    O2 8873   1.930   1.472  15.516  0.0445  0.2532  0.2147
  599MPD2     C 8874   2.648   4.040  16.123  1.3281 -0.3910 -0.0945
  599MPD2    C1 8875   2.586   3.921  16.121  0.3674  0.4540  0.3759
  599MPD2    C2 8876   2.456   3.904  16.164 -0.3869  0.2603  0.0892
  599MPD2    C3 8877   2.390   4.015  16.217  0.3158  0.6725 -0.4367
  599MPD2    C4 8878   2.460   4.135  16.215 -0.6933  0.1677  0.3988
  599MPD2    C5 8879   2.586   4.148  16.167  0.3358  0.1902 -0.2560
  599MPD2     H 8880   2.400   3.811  16.162 -0.9406  0.5981  0.1364
  599MPD2    H1 8881   2.426   4.224  16.266 -0.1228 -0.2095  1.4343
  599MPD2    H2 8882   2.750   4.044  16.088  1.9576 -0.4055  1.7118
  599MPD2    H3 8883   2.648   4.236  16.175 -2.6655  2.3111 -0.3105
  599MPD2     N 8884   2.258   4.025  16.270 -0.0204 -0.6612 -0.2975
  599MPD2    H5 8885   2.239   4.116  16.311  1.7507 -0.0775 -0.7533
  599MPD2    N1 8886   2.670   3.815  16.066  0.6162  0.2395  0.1713
  599MPD2    H7 8887   2.764   3.839  16.037 -0.1768 -0.2446 -2.8063
  600TMC3    C1 8888   2.042   3.952  16.326 -0.3818  0.4904 -0.2009
  600TMC3    C2 8889   1.966   3.842  16.350 -0.9582  0.2405  1.2703
  600TMC3    C3 8890   1.833   3.851  16.350  0.1819 -0.3489 -0.4368
  600TMC3    C4 8891   1.990   4.079  16.322  0.6576  0.3509 -0.2082
  600TMC3    C5 8892   1.848   4.082  16.324 -0.0807  0.0750  0.8319
  600TMC3    C6 8893   1.770   3.972  16.345 -0.6276 -0.2084  0.0415
  600TMC3     C 8894   2.169   3.922  16.271 -0.7067 -0.2955  0.3178
  600TMC3     O 8895   2.188   3.807  16.235 -0.3123  0.0798  0.2792
  600TMC3     H 8896   2.014   3.746  16.370  0.6859  1.1304  1.6566
  600TMC3    H1 8897   2.056   4.163  16.303  0.9680  0.3455  0.8642
  600TMC3    H2 8898   1.663   3.980  16.360 -0.3148  2.5982  0.6909
  600TMC3    C7 8899   1.797   4.212  16.368  0.3404  1.2151 -0.4675
  600TMC3    C8 8900   1.770   3.751  16.433 -0.3444 -0.5655 -0.2059
  600TMC3    O1 8901   1.679   4.229  16.375 -0.0933 -0.2775  0.0165
  600TMC3    O2 8902   1.835   3.696  16.520  0.0230  0.4103 -0.6480
  601MPD2     C 8903   4.465   1.141  17.560  0.4858 -0.1081  0.0254
  601MPD2    C1 8904   4.350   1.214  17.585 -0.0464  0.9618 -0.6001
  601MPD2    C2 8905   4.231   1.154  17.577 -0.1320  0.1933 -0.3332
  601MPD2    C3 8906   4.224   1.025  17.525  0.2317  0.8724  0.2103
  601MPD2    C4 8907   4.333   0.952  17.495 -1.4052 -0.2147  0.3739
  601MPD2    C5 8908   4.458   1.013  17.513  0.3764 -0.4052 -0.0057
  601MPD2     H 8909   4.143   1.198  17.621 -0.9916 -1.9032  0.0068
  601MPD2    H1 8910   4.326   0.847  17.470  2.6005 -1.0674  2.8807
  601MPD2    H2 8911   4.566   1.177  17.572  0.4836 -0.0284 -0.1917
  601MPD2    H3 8912   4.549   0.958  17.495  1.3991  0.7880  1.5695
  601MPD2     N 8913   4.104   0.946  17.523 -0.1680  0.1315  0.0801
  601MPD2    H5 8914   4.117   0.846  17.513  1.4279  0.2428  1.0150
  601MPD2    N1 8915   4.372   1.346  17.617 -0.3490  0.2958 -0.5709
  601MPD2    H7 8916   4.470   1.372  17.617 -0.0991 -0.6265 -1.4908
  602TMC3    C1 8917   4.296   1.571  17.673  0.4338 -0.0738  0.0543
  602TMC3    C2 8918   4.404   1.630  17.611 -0.1181 -0.0143 -0.6759
  602TMC3    C3 8919   4.404   1.765  17.600 -0.2871 -0.6149  0.5970
  602TMC3    C4 8920   4.193   1.643   0.030 -0.9669 -0.5338  0.2194
  602TMC3    C5 8921   4.200   1.782   0.013  0.2195  0.0145  0.2717
  602TMC3    C6 8922   4.312   1.845  17.652 -0.5477 -0.4951  0.6801
  602TMC3     C 8923   4.282   1.425  17.682  0.1219 -0.1343 -0.5909
  602TMC3     O 8924   4.181   1.384   0.043  0.2671  0.4157  0.7027
  602TMC3     H 8925   4.488   1.573  17.572  1.1501  1.6575 -0.3986
  602TMC3    H1 8926   4.107   1.599   0.080 -0.9597  0.2683  0.9348
  602TMC3    H2 8927   4.335   1.951  17.657  1.6514 -0.9166 -0.5458
  602TMC3    C7 8928   4.078   1.860   0.039  0.7031  0.4044 -0.7915
  602TMC3    C8 8929   4.504   1.831  17.515  0.2883  0.2949 -0.1300
  602TMC3    O1 8930   3.977   1.800   0.071 -0.7598 -0.7765  0.6062
  602TMC3    O2 8931   4.617   1.783  17.509  0.1544  0.4766 -0.0412
  603TMC3    C1 8932   2.660   2.459  10.868 -0.3380  0.1973 -0.3587
  603TMC3    C2 8933   2.651   2.451  11.004  0.3496  0.1472  0.3438
  603TMC3    C3 8934   2.690   2.563  11.077 -0.3015 -0.2775  0.5413
  603TMC3    C4 8935   2.714   2.567  10.800 -0.0520 -0.4653  0.6017
  603TMC3    C5 8936   2.764   2.671  10.877  1.5722 -0.6751 -0.3145
  603TMC3    C6 8937   2.756   2.664  11.012 -0.3380  0.0441 -0.4027
  603TMC3     C 8938   2.636   2.342  10.785 -0.5093 -0.9063  0.1111
  603TMC3     O 8939   2.600   2.364  10.673 -0.0089  0.1945  0.3564
  603TMC3     H 8940   2.591   2.374  11.052 -0.4399  0.5930  0.0740
  603TMC3    H1 8941   2.726   2.554  10.693 -2.4056  0.9663  0.1526
  603TMC3    H2 8942   2.812   2.736  11.070  0.4090 -2.1290  1.5473
  603TMC3    C7 8943   2.788   2.801  10.810 -0.4259  0.2151  0.5529
  603TMC3    C8 8944   2.697   2.549  11.220  0.4742 -0.0293  0.4686
  603TMC3    O1 8945   2.815   2.896  10.882 -0.3542 -0.4073  0.2519
  603TMC3    O2 8946   2.714   2.430  11.249  0.1081  0.2834 -0.4377
  604MPD2     C 8947   3.059   1.073  16.449  0.2653 -0.6135 -0.4226
  604MPD2    C1 8948   2.954   1.068  16.365  0.1866  0.0644 -0.4335
  604MPD2    C2 8949   2.977   1.079  16.229  0.1856  0.4818  0.7542
  604MPD2    C3 8950   3.102   1.079  16.186 -0.0332  0.3556  0.2065
  604MPD2    C4 8951   3.213   1.092  16.273 -0.6121 -0.5506  0.3710
  604MPD2    C5 8952   3.188   1.087  16.411 -0.3732 -0.4370 -0.0100
  604MPD2     H 8953   2.894   1.076  16.160  0.3786 -2.2784  0.6171
  604MPD2    H1 8954   3.316   1.109  16.244 -1.3821  2.4511 -0.5336
  604MPD2    H2 8955   3.042   1.070  16.556  1.1531  0.3205 -0.2552
  604MPD2    H3 8956   3.270   1.085  16.482  0.6565  3.0902 -1.1137
  604MPD2     N 8957   3.124   1.056  16.046 -0.0611  0.7907 -0.6595
  604MPD2    H5 8958   3.039   1.060  15.991 -0.2269  0.6064 -0.4207
  604MPD2    N1 8959   2.817   1.068  16.414 -0.2085 -0.6536  0.3282
  604MPD2    H7 8960   2.809   1.078  16.515  1.9290  1.1409  0.3422
  605TMC3    C1 8961   2.585   1.069  16.449  0.1946  0.3307 -0.2764
  605TMC3    C2 8962   2.627   1.021  16.572  0.3345  0.0032 -0.1687
  605TMC3    C3 8963   2.607   1.086  16.688 -0.1521  0.1629  0.3550
  605TMC3    C4 8964   2.512   1.182  16.444  0.0264 -0.1321  0.6162
  605TMC3    C5 8965   2.497   1.248  16.564 -0.0018 -0.3394  0.4956
  605TMC3    C6 8966   2.533   1.204  16.684 -0.5927  0.1877  0.5230
  605TMC3     C 8967   2.696   1.049  16.350 -0.2288  0.3392 -0.5558
  605TMC3     O 8968   2.681   1.005  16.237  0.8118 -0.3973 -0.2408
  605TMC3     H 8969   2.680   0.927  16.576 -2.9269 -1.9141 -1.7950
  605TMC3    H1 8970   2.503   1.236  16.351 -0.8877 -0.3119  0.6000
  605TMC3    H2 8971   2.500   1.241  16.780 -0.5980 -0.4354  0.7613
  605TMC3    C7 8972   2.468   1.388  16.549 -0.1317 -0.3614  0.0403
  605TMC3    C8 8973   2.733   1.100  16.756 -0.1124 -0.0522  0.0669
  605TMC3    O1 8974   2.397   1.418  16.454  0.4524  0.3873  0.8321
  605TMC3    O2 8975   2.826   1.046  16.693 -0.8329  0.1363 -0.5967
  606TMC3    C1 8976   4.400   4.203  17.072  0.5015  0.6275  0.4949
  606TMC3    C2 8977   4.530   4.167  17.061 -0.1987 -0.2713  0.3234
  606TMC3    C3 8978   4.557   4.037  17.020  0.1371 -0.0543  0.0505
  606TMC3    C4 8979   4.301   4.119  17.034  0.5059  0.4089  0.1714
  606TMC3    C5 8980   4.331   3.989  17.006 -0.7647  0.4985  0.1340
  606TMC3    C6 8981   4.459   3.942  17.001  0.3737 -0.2287 -0.2467
  606TMC3     C 8982   4.352   4.329  17.135 -0.1126 -0.1266 -0.5465
  606TMC3     O 8983   4.233   4.349  17.131 -0.2713 -0.3634 -0.0955
  606TMC3     H 8984   4.617   4.229  17.078  1.3724 -2.2725 -0.4926
  606TMC3    H1 8985   4.199   4.154  17.029  0.3309 -0.2075 -0.5683
  606TMC3    H2 8986   4.483   3.840  16.973 -1.4505 -0.7229  0.0181
  606TMC3    C7 8987   4.237   3.883  17.028 -0.2916  0.2894  0.5275
  606TMC3    C8 8988   4.683   3.983  17.072 -0.2426  0.0273  1.2511
  606TMC3    O1 8989   4.267   3.763  16.997 -0.5651  0.1212  0.0159
  606TMC3    O2 8990   0.021   4.050  17.153  0.0384  0.5092 -0.4710
  607MPD2     C 8991   1.715   2.449  11.706  0.2937  0.6594  0.0434
  607MPD2    C1 8992   1.739   2.558  11.790 -0.0227 -0.2839  0.9122
  607MPD2    C2 8993   1.684   2.555  11.920 -1.1273 -0.1152  0.7784
  607MPD2    C3 8994   1.622   2.440  11.961 -0.2360  0.8513 -0.5361
  607MPD2    C4 8995   1.587   2.338  11.873  0.0809  0.3720  0.4544
  607MPD2    C5 8996   1.635   2.345  11.750 -0.0003 -0.4111 -0.0296
  607MPD2     H 8997   1.690   2.646  11.977 -0.2658  0.8754 -0.8923
  607MPD2    H1 8998   1.520   2.257  11.898  2.3830 -1.8808 -0.6351
  607MPD2    H2 8999   1.751   2.448  11.603 -2.5316 -1.0526 -0.9129
  607MPD2    H3 9000   1.602   2.275  11.674  2.1394  0.3110 -1.6098
  607MPD2     N 9001   1.579   2.435  12.099  0.2570 -0.4267 -0.4098
  607MPD2    H5 9002   1.613   2.509  12.159 -1.4458  0.3429 -0.3990
  607MPD2    N1 9003   1.796   2.678  11.754  0.2462  0.5816  0.2187
  607MPD2    H7 9004   1.808   2.744  11.830  0.1331 -0.1027  0.8304
  608TMC3    C1 9005   2.000   2.775  11.676  0.4306 -0.6555 -0.5294
  608TMC3    C2 9006   2.027   2.803  11.807 -0.2169  0.2183  0.4387
  608TMC3    C3 9007   2.134   2.881  11.843 -0.0735 -0.3077 -0.3328
  608TMC3    C4 9008   2.073   2.832  11.575  0.6307  0.4672  0.6783
  608TMC3    C5 9009   2.173   2.901  11.616 -0.6801 -0.1040 -0.0338
  608TMC3    C6 9010   2.213   2.934  11.742  0.1569  0.6128  0.0223
  608TMC3     C 9011   1.874   2.699  11.639  0.2232 -0.1298 -0.3809
  608TMC3     O 9012   1.868   2.637  11.533  0.3191  0.0494  0.2168
  608TMC3     H 9013   1.983   2.740  11.885  0.7418  0.3649  1.0986
  608TMC3    H1 9014   2.070   2.783  11.478  2.9034  1.2567  0.1994
  608TMC3    H2 9015   2.295   2.999  11.771  0.3449  0.5320 -0.3340
  608TMC3    C7 9016   2.251   2.949  11.501 -0.4753  0.2826  0.5850
  608TMC3    C8 9017   2.175   2.904  11.982  0.1173 -0.2111 -0.1665
  608TMC3    O1 9018   2.194   2.967  11.393  0.3605 -0.0062 -0.2366
  608TMC3    O2 9019   2.273   2.971  12.002 -0.3407  0.1525 -0.3483
  609TMC3    C1 9020   0.454   1.574   8.779  0.1892  0.0130 -0.6102
  609TMC3    C2 9021   0.372   1.520   8.687  0.3705  0.6086  0.6185
  609TMC3    C3 9022   0.425   1.411   8.619 -0.0550  0.9763  0.0195
  609TMC3    C4 9023   0.573   1.520   8.812  0.0588  0.0807 -0.3974
  609TMC3    C5 9024   0.612   1.409   8.749  0.6842 -0.4911  0.2792
  609TMC3    C6 9025   0.539   1.348   8.654 -0.0714  0.4798  0.2930
  609TMC3     C 9026   0.425   1.697   8.855  0.5954  0.8043 -0.1813
  609TMC3     O 9027   0.478   1.713   8.964 -0.4237 -0.2711  0.2759
  609TMC3     H 9028   0.270   1.557   8.678  0.3047 -0.3185 -2.2320
  609TMC3    H1 9029   0.623   1.560   8.900 -1.0403  3.5866 -1.3569
  609TMC3    H2 9030   0.580   1.279   8.582 -0.4204 -1.0657  1.5764
  609TMC3    C7 9031   0.700   1.319   8.829  1.0427 -0.1519  0.2145
  609TMC3    C8 9032   0.357   1.368   8.501 -0.5289  0.8175  0.1975
  609TMC3    O1 9033   0.732   1.365   8.933 -0.6227 -0.2549  0.1970
  609TMC3    O2 9034   0.393   1.254   8.468  0.2075  0.5172 -0.5040
  610TMC3    C1 9035   1.453   2.992  12.593  0.3433 -0.1379 -0.6242
  610TMC3    C2 9036   1.570   3.060  12.575 -0.2092 -0.2049  0.3710
  610TMC3    C3 9037   1.681   3.021  12.641  0.0633  0.4208 -0.4599
  610TMC3    C4 9038   1.456   2.876  12.655 -0.6219 -0.8023  0.3156
  610TMC3    C5 9039   1.571   2.837  12.710  1.1749 -0.8146  0.2651
  610TMC3    C6 9040   1.686   2.910  12.710 -0.0898  0.3537  0.3923
  610TMC3     C 9041   1.351   3.012  12.488  0.1353 -0.5315 -0.9661
  610TMC3     O 9042   1.313   2.911  12.436 -0.3220  0.3564  0.2978
  610TMC3     H 9043   1.567   3.146  12.509 -0.9866 -0.7153 -0.2544
  610TMC3    H1 9044   1.364   2.821  12.668 -1.1496  0.4786  1.9045
  610TMC3    H2 9045   1.782   2.866  12.737 -0.2557  0.9131  1.8415
  610TMC3    C7 9046   1.584   2.711  12.773 -0.2596  0.1178 -0.3092
  610TMC3    C8 9047   1.792   3.111  12.657 -0.5546 -0.1981 -0.7153
  610TMC3    O1 9048   1.658   2.715  12.870 -0.4099  0.0374 -0.1552
  610TMC3    O2 9049   1.803   3.192  12.563 -0.0886  0.0270  0.1151
  611MPD2     C 9050   2.122   2.239  10.265 -0.6975  0.1082 -0.1840
  611MPD2    C1 9051   2.035   2.314  10.192 -1.2392  0.2045  0.4113
  611MPD2    C2 9052   2.068   2.432  10.132  0.6427  0.3228  0.0130
  611MPD2    C3 9053   2.182   2.491  10.170  0.0122 -0.6802  0.1672
  611MPD2    C4 9054   2.268   2.426  10.252  0.5088 -0.6348  0.2041
  611MPD2    C5 9055   2.246   2.292  10.289  0.1541  0.2556  0.0761
  611MPD2     H 9056   1.996   2.489  10.075 -0.0433  0.3466  0.8903
  611MPD2    H1 9057   2.355   2.474  10.295  0.8138 -0.8804 -0.1345
  611MPD2    H2 9058   2.093   2.145  10.311  0.3148  0.0016  0.2460
  611MPD2    H3 9059   2.326   2.244  10.344 -0.1359 -0.0748  0.2103
  611MPD2     N 9060   2.212   2.627  10.140  0.7658  0.3956 -0.3584
  611MPD2    H5 9061   2.284   2.674  10.193  0.6161 -2.2860  2.2455
  611MPD2    N1 9062   1.898   2.275  10.180  0.5824 -0.2209  0.1190
  611MPD2    H7 9063   1.852   2.339  10.116 -2.6872 -1.6726  1.0433
  612TMC3    C1 9064   2.198   2.845  10.056  0.0553 -0.2217 -0.0886
  612TMC3    C2 9065   2.301   2.876  10.137 -0.5435 -0.1075  0.1017
  612TMC3    C3 9066   2.363   2.998  10.109  0.4408  0.3437 -1.1648
  612TMC3    C4 9067   2.158   2.927   9.950 -0.0206 -0.5739 -0.5005
  612TMC3    C5 9068   2.218   3.041   9.923 -0.4257  0.1514  0.0099
  612TMC3    C6 9069   2.331   3.074  10.001  0.2021  0.7505  0.3847
  612TMC3     C 9070   2.154   2.704  10.048  0.1228 -0.0907  0.2756
  612TMC3     O 9071   2.074   2.675   9.958 -0.0147 -0.5822  0.4859
  612TMC3     H 9072   2.315   2.834  10.236 -1.6228  0.1110  0.3454
  612TMC3    H1 9073   2.094   2.888   9.873  0.3099  1.1747 -1.6516
  612TMC3    H2 9074   2.379   3.169   9.985  0.7020  0.3274 -0.6455
  612TMC3    C7 9075   2.136   3.157   9.881  0.2820  0.6080 -0.5888
  612TMC3    C8 9076   2.456   3.063  10.203  0.3654 -0.1720 -0.5918
  612TMC3    O1 9077   2.172   3.268   9.917 -0.3915 -0.8877  0.2733
  612TMC3    O2 9078   2.482   3.176  10.185  0.5686 -0.4726  0.9734
  613MPD2     C 9079   0.460   4.719  16.828  0.4312 -0.6763  0.4735
  613MPD2    C1 9080   0.398   0.015  16.705 -0.1109 -1.2393 -0.6001
  613MPD2    C2 9081   0.309   4.640  16.665 -0.8029  0.2612  0.0146
  613MPD2    C3 9082   0.299   4.517  16.732 -0.2790 -0.2112 -0.2377
  613MPD2    C4 9083   0.374   4.491  16.844  0.2024  0.2438 -0.3017
  613MPD2    C5 9084   0.451   4.597  16.899  0.1305 -1.0717  0.6647
  613MPD2     H 9085   0.244   4.646  16.578  0.9677  1.4181 -1.2139
  613MPD2    H1 9086   0.367   4.401  16.904 -1.6264  0.4774 -0.1650
  613MPD2    H2 9087   0.535   0.070  16.855 -1.1278  1.3765 -0.7862
  613MPD2    H3 9088   0.515   4.580  16.985  2.5125 -0.8604 -1.0727
  613MPD2     N 9089   0.224   4.413  16.670  0.1232  0.1992  0.7545
  613MPD2    H5 9090   0.242   4.324  16.715 -2.3632 -1.1983 -1.0042
  613MPD2    N1 9091   0.433   0.125  16.626  0.3926 -1.2671 -0.1560
  613MPD2    H7 9092   0.500   0.190  16.665  1.6463 -1.8858 -1.3043
  614TMC3    C1 9093   0.437   0.248  16.423  0.1784 -0.0400  0.2083
  614TMC3    C2 9094   0.541   0.165  16.382 -0.3248  0.7823 -0.3437
  614TMC3    C3 9095   0.534   0.115  16.250  1.0358  0.3858 -0.0389
  614TMC3    C4 9096   0.353   0.307  16.323 -0.0197  0.7297 -0.0630
  614TMC3    C5 9097   0.365   0.268  16.190  0.2841 -0.2867 -0.3954
  614TMC3    C6 9098   0.455   0.176  16.153 -0.1085 -0.3867  0.1625
  614TMC3     C 9099   0.355   0.171  16.522 -0.0160  0.1970 -0.1963
  614TMC3     O 9100   0.242   0.132  16.484  0.0369  0.0725 -0.6169
  614TMC3     H 9101   0.604   0.110  16.452 -0.5280  2.4206  1.1137
  614TMC3    H1 9102   0.273   0.373  16.354 -0.8989  0.0189 -0.8132
  614TMC3    H2 9103   0.458   0.146  16.049  0.4252  0.6620 -0.1179
  614TMC3    C7 9104   0.283   0.336  16.095 -0.5664  0.6121  0.0352
  614TMC3    C8 9105   0.561   4.701  16.240 -0.4632 -0.1628 -0.1596
  614TMC3    O1 9106   0.254   0.447  16.130  0.1834  0.1574  0.2951
  614TMC3    O2 9107   0.590   4.638  16.341 -0.2106 -0.2008  0.0867
  615MPD2     C 9108   0.278   1.293  16.419 -0.1401  1.0880 -0.3220
  615MPD2    C1 9109   0.150   1.342  16.396 -0.3345  0.1454  0.2120
  615MPD2    C2 9110   0.072   1.288  16.299  0.1416  0.3319 -0.2594
  615MPD2    C3 9111   0.117   1.189  16.216 -0.3322 -0.3872 -0.0339
  615MPD2    C4 9112   0.252   1.153  16.227 -0.0737  0.4466 -0.1729
  615MPD2    C5 9113   0.323   1.200  16.330 -0.7229 -0.4839  0.3716
  615MPD2     H 9114   4.691   1.319  16.302  0.4327  1.3053 -0.2268
  615MPD2    H1 9115   0.299   1.081  16.162 -0.3432 -1.3338  1.5938
  615MPD2    H2 9116   0.342   1.323  16.501  0.1431  1.1078 -0.5518
  615MPD2    H3 9117   0.424   1.164  16.344 -0.2272  1.1624  1.0698
  615MPD2     N 9118   0.039   1.145  16.111  0.5509  0.6916 -0.2564
  615MPD2    H5 9119   0.089   1.093  16.039 -3.1639 -1.2768 -1.3708
  615MPD2    N1 9120   0.095   1.442  16.479  0.2433  0.2667  0.1077
  615MPD2    H7 9121   0.002   1.472  16.452  0.0311  0.8708  1.5041
  616TMC3    C1 9122   0.083   1.642  16.610  0.2028  0.3066  0.3874
  616TMC3    C2 9123   0.135   1.767  16.595  0.2343 -0.2825  0.0811
  616TMC3    C3 9124   0.052   1.871  16.590 -0.5934 -0.0412 -0.2604
  616TMC3    C4 9125   4.669   1.621  16.627  0.4137  0.6824  0.0733
  616TMC3    C5 9126   4.588   1.726  16.613  0.5349  0.1715  0.0410
  616TMC3    C6 9127   4.637   1.852  16.602 -0.2730 -0.0320  0.0786
  616TMC3     C 9128   0.160   1.520  16.569  0.4410  0.2137 -1.0480
  616TMC3     O 9129   0.280   1.528  16.593  0.3411 -0.3016  0.1998
  616TMC3     H 9130   0.237   1.782  16.563  0.2156  0.6374  0.4370
  616TMC3    H1 9131   4.629   1.521  16.625  1.4858  0.2442  0.2195
  616TMC3    H2 9132   4.575   1.941  16.602 -0.4377 -0.1486 -0.3476
  616TMC3    C7 9133   4.444   1.716  16.627 -0.1680 -0.2177 -0.2646
  616TMC3    C8 9134   0.094   2.006  16.561 -0.4629  0.7054 -0.4873
  616TMC3    O1 9135   4.413   1.620  16.700 -0.1879  0.1212 -0.5468
  616TMC3    O2 9136   0.017   2.096  16.536 -0.0100  1.0460  0.9552
  617MPD2     C 9137   2.504   4.706  13.655  0.8458  0.0341 -0.1915
  617MPD2    C1 9138   2.607   4.649  13.726  0.1344 -0.6003 -0.3654
  617MPD2    C2 9139   2.574   4.578  13.842 -0.1087 -0.2706  0.1088
  617MPD2    C3 9140   2.447   4.568  13.895 -0.4833 -1.1274  0.2227
  617MPD2    C4 9141   2.348   4.639  13.827  0.4763 -0.4378 -0.7924
  617MPD2    C5 9142   2.379   4.703  13.708  0.9628  0.4127 -0.7852
  617MPD2     H 9143   2.655   4.520  13.884 -0.1265  1.4930  2.5296
  617MPD2    H1 9144   2.242   4.637  13.849  0.6649 -1.8963  0.0043
  617MPD2    H2 9145   2.534   0.029  13.561  0.9448 -0.8873 -0.6151
  617MPD2    H3 9146   2.293   0.038  13.677 -0.3748 -1.2878 -0.2709
  617MPD2     N 9147   2.416   4.482  13.996  0.6336  0.2201 -0.2922
  617MPD2    H5 9148   2.319   4.492  14.027  0.7652  0.1731  0.1383
  617MPD2    N1 9149   2.737   4.649  13.674  0.6413 -0.3292  0.3082
  617MPD2    H7 9150   2.743   4.680  13.578  0.8176 -1.7064 -0.1210
  618TMC3    C1 9151   2.977   4.640  13.656 -0.5016  0.0844 -0.3283
  618TMC3    C2 9152   3.103   4.675  13.705  0.2280 -1.2859  0.6425
  618TMC3    C3 9153   3.207   4.656  13.622 -0.1264 -0.1634 -0.1299
  618TMC3    C4 9154   2.964   4.578  13.535  0.8008  0.4181 -0.6656
  618TMC3    C5 9155   3.078   4.565  13.461 -0.5047 -0.3371  1.3089
  618TMC3    C6 9156   3.201   4.596  13.501  0.3209  0.1014 -0.4201
  618TMC3     C 9157   2.857   4.643  13.743  0.0219 -0.8582 -0.3892
  618TMC3     O 9158   2.874   4.626  13.863  0.2476 -0.1536 -0.4004
  618TMC3     H 9159   3.109   0.002  13.801 -3.4799 -0.5455  0.4790
  618TMC3    H1 9160   2.870   4.529  13.511 -0.4364  2.7665 -0.6476
  618TMC3    H2 9161   3.285   4.570  13.438 -1.0330 -0.4352 -1.9864
  618TMC3    C7 9162   3.067   4.486  13.339 -0.1140  0.0262 -0.0368
  618TMC3    C8 9163   3.341   4.672  13.676  0.1676  0.2870 -0.2609
  618TMC3    O1 9164   2.970   4.410  13.332  0.0934  0.2981 -0.8511
  618TMC3    O2 9165   3.343   4.700  13.797  0.0063  0.7779  0.4261
  619MPD2     C 9166   4.034   0.907  13.840  0.1638 -0.3839 -0.0462
  619MPD2    C1 9167   3.988   1.003  13.753  0.7112  0.9035  0.9682
  619MPD2    C2 9168   3.859   1.014  13.724 -0.5277  0.9105 -0.4887
  619MPD2    C3 9169   3.757   0.931  13.775  0.3965  0.1975 -1.4210
  619MPD2    C4 9170   3.802   0.830  13.856 -0.2326 -0.9549  0.5805
  619MPD2    C5 9171   3.936   0.815  13.886 -0.3917  0.2518 -0.6126
  619MPD2     H 9172   3.830   1.094  13.656 -1.3434  2.8430  2.1424
  619MPD2    H1 9173   3.738   0.753  13.898 -2.6468 -1.7016 -4.4251
  619MPD2    H2 9174   4.140   0.893  13.858  1.0474  2.4946 -2.9919
  619MPD2    H3 9175   3.954   0.720  13.936  0.1657  0.9706  0.5441
  619MPD2     N 9176   3.617   0.945  13.747  0.4812  0.3049  0.3124
  619MPD2    H5 9177   3.550   0.880  13.788 -0.9998  0.4246 -1.9339
  619MPD2    N1 9178   4.067   1.098  13.680 -0.6901  0.4412  0.3881
  619MPD2    H7 9179   4.016   1.163  13.622  0.0237  0.5275 -0.1498
  620TMC3    C1 9180   4.249   1.196  13.574  0.4614 -0.0623 -0.2254
  620TMC3    C2 9181   4.176   1.206  13.466  0.3946  0.2044 -0.3417
  620TMC3    C3 9182   4.202   1.316  13.381  0.1733 -0.0632  0.2813
  620TMC3    C4 9183   4.359   1.270  13.607  0.6223  0.4443  0.3318
  620TMC3    C5 9184   4.390   1.367  13.515  0.0901  0.3133 -0.4170
  620TMC3    C6 9185   4.316   1.387  13.398  0.1187 -0.7903 -0.4382
  620TMC3     C 9186   4.203   1.098  13.673  1.1572  0.8124 -0.1072
  620TMC3     O 9187   4.290   1.045  13.747 -0.3494  0.1384  0.0912
  620TMC3     H 9188   4.095   1.137  13.448  0.5738 -0.0689 -0.1158
  620TMC3    H1 9189   4.395   1.264  13.709  0.0049  1.8170  0.6316
  620TMC3    H2 9190   4.331   1.457  13.317  0.9255 -1.0654 -0.5259
  620TMC3    C7 9191   4.540   1.381  13.510  0.5740 -0.3543  0.1632
  620TMC3    C8 9192   4.082   1.399  13.362  0.0663 -0.0941  0.1211
  620TMC3    O1 9193   4.603   1.285  13.560  0.5993 -0.2382 -0.1255
  620TMC3    O2 9194   4.085   1.516  13.401 -0.0195 -0.0474  0.5420
  621MPD2     C 9195   0.157   1.022   9.359  0.0666 -0.5596  0.1651
  621MPD2    C1 9196   0.188   0.964   9.479  0.1081 -0.2525  0.2806
  621MPD2    C2 9197   0.250   1.042   9.573 -0.2977  0.3260 -0.1036
  621MPD2    C3 9198   0.298   1.166   9.534 -0.0667  0.2301  0.7151
  621MPD2    C4 9199   0.283   1.208   9.405 -0.4207  0.0906 -0.2678
  621MPD2    C5 9200   0.206   1.145   9.320  0.2087 -0.3684 -0.1521
  621MPD2     H 9201   0.269   1.001   9.671 -0.9321 -0.1260 -0.1686
  621MPD2    H1 9202   0.326   1.301   9.368 -0.5235 -0.1933 -1.0904
  621MPD2    H2 9203   0.097   0.965   9.289 -0.4006 -0.0993  0.1939
  621MPD2    H3 9204   0.195   1.186   9.220 -2.4375  3.3625  1.7035
  621MPD2     N 9205   0.380   1.230   9.632  0.1799 -0.5587  0.1453
  621MPD2    H5 9206   0.398   1.186   9.721  0.9139  0.2802  0.4193
  621MPD2    N1 9207   0.153   0.830   9.512  0.5589  0.6951  0.1589
  621MPD2    H7 9208   0.145   0.809   9.611  1.8938 -1.2377 -0.1380
  622TMC3    C1 9209   0.010   0.642   9.496  0.6714 -0.3701  0.3666
  622TMC3    C2 9210   4.717   0.619   9.633 -0.3779  0.7334  0.5157
  622TMC3    C3 9211   4.635   0.516   9.672  0.1017  0.1812 -1.1019
  622TMC3    C4 9212   4.663   0.571   9.404 -0.0035 -0.4422 -0.1648
  622TMC3    C5 9213   4.582   0.469   9.447 -0.4017  0.0283 -0.6562
  622TMC3    C6 9214   4.571   0.442   9.578 -0.0350 -0.0036  0.2077
  622TMC3     C 9215   0.104   0.735   9.432  0.0213 -0.7355  0.2867
  622TMC3     O 9216   0.123   0.726   9.310 -0.9055 -0.4261 -0.6379
  622TMC3     H 9217   0.075   0.663   9.691  0.2722  2.0139 -1.3600
  622TMC3    H1 9218   4.668   0.587   9.297  2.3902 -1.8160 -0.2584
  622TMC3    H2 9219   4.494   0.374   9.611 -0.2681  0.3995  0.4979
  622TMC3    C7 9220   4.506   0.382   9.353  0.3069  0.1856 -0.8501
  622TMC3    C8 9221   4.614   0.486   9.812  0.5616 -0.5346 -0.7319
  622TMC3    O1 9222   4.443   0.286   9.401  0.4099 -0.0360  0.1166
  622TMC3    O2 9223   4.558   0.379   9.836  0.6416  0.0241  0.4599
  623MPD2     C 9224   2.936   1.452  15.965 -0.3602 -0.6171 -0.0211
  623MPD2    C1 9225   2.905   1.425  16.099 -0.4755 -0.2025 -0.2637
  623MPD2    C2 9226   2.998   1.412  16.200 -0.4818 -0.2976 -0.1382
  623MPD2    C3 9227   3.133   1.435  16.167 -0.2744  0.4957 -0.2888
  623MPD2    C4 9228   3.165   1.452  16.039  0.0317  0.4877  0.3082
  623MPD2    C5 9229   3.071   1.447  15.939  0.1645 -0.7490 -0.3654
  623MPD2     H 9230   2.963   1.387  16.299 -0.6237  4.6656  1.0910
  623MPD2    H1 9231   3.264   1.483  16.009 -0.4356  1.6469 -0.0386
  623MPD2    H2 9232   2.869   1.463  15.881 -1.2543  0.9103  0.8989
  623MPD2    H3 9233   3.095   1.483  15.839 -1.8620  2.0285  0.1296
  623MPD2     N 9234   3.217   1.425  16.282  0.1374 -0.1915  0.0585
  623MPD2    H5 9235   3.170   1.430  16.372  1.0215  2.7911  0.3495
  623MPD2    N1 9236   2.772   1.415  16.151 -0.7697 -0.2597  0.0016
  623MPD2    H7 9237   2.759   1.406  16.251  3.5457  0.1037  0.5934
  624TMC3    C1 9238   3.535   1.282  16.524  0.0848 -0.2724 -0.1859
  624TMC3    C2 9239   3.444   1.268  16.628 -0.0169 -0.4602 -0.3580
  624TMC3    C3 9240   3.342   1.362  16.631  0.2595 -0.4931  0.2689
  624TMC3    C4 9241   3.529   1.370  16.425 -0.3974 -0.3508 -0.8331
  624TMC3    C5 9242   3.408   1.432  16.410  0.3811  0.4379  0.7076
  624TMC3    C6 9243   3.316   1.431  16.513  1.1288  0.8446 -0.5117
  624TMC3     C 9244   3.659   1.220  16.558 -0.2750 -0.2897 -0.1021
  624TMC3     O 9245   3.756   1.291  16.574 -0.5525  0.2350  0.0259
  624TMC3     H 9246   3.449   1.199  16.712  1.5983  0.5701  0.3867
  624TMC3    H1 9247   3.612   1.366  16.355  1.0817  0.2248  0.8882
  624TMC3    H2 9248   3.231   1.498  16.515  0.8175  0.3756  2.7872
  624TMC3    C7 9249   3.356   1.428  16.283 -0.0772  0.3359  0.4850
  624TMC3    C8 9250   3.219   1.315  16.700 -0.1614 -0.3081  0.4882
  624TMC3    O1 9251   3.432   1.420  16.184  0.6848  0.2485  0.5407
  624TMC3    O2 9252   3.206   1.195  16.711 -0.2125  0.3033 -0.1112
  625MPD2     C 9253   3.335   2.437   0.622  0.1404  0.2328  0.8689
  625MPD2    C1 9254   3.364   2.556   0.676 -0.0859  0.0343  0.0303
  625MPD2    C2 9255   3.453   2.571   0.782  0.3468  0.0738 -0.2344
  625MPD2    C3 9256   3.504   2.465   0.849 -0.8059  0.6584  0.1854
  625MPD2    C4 9257   3.466   2.336   0.807  0.1500  0.1735  0.6038
  625MPD2    C5 9258   3.377   2.331   0.697 -0.4733  0.5746  1.0804
  625MPD2     H 9259   3.479   2.670   0.818 -0.5020  0.2679 -0.1481
  625MPD2    H1 9260   3.501   2.243   0.851 -0.3497 -0.7279 -0.8777
  625MPD2    H2 9261   3.282   2.413   0.530  1.2426 -1.2350  0.6200
  625MPD2    H3 9262   3.349   2.233   0.660  1.8231  0.9632 -1.6814
  625MPD2     N 9263   3.590   2.482   0.962  0.1306 -0.1089  0.3318
  625MPD2    H5 9264   3.622   2.577   0.977 -2.4503  0.8970 -0.5258
  625MPD2    N1 9265   3.306   2.678   0.628 -0.7604 -0.3067 -0.2966
  625MPD2    H7 9266   3.314   2.760   0.688  0.1031 -0.4047 -0.2702
  626TMC3    C1 9267   3.145   2.793   0.508 -0.3221  0.0840  0.1750
  626TMC3    C2 9268   3.130   2.851   0.382  0.9030 -0.3207 -0.3516
  626TMC3    C3 9269   3.054   2.963   0.375 -0.9840 -0.5389 -0.3632
  626TMC3    C4 9270   3.107   2.853   0.626 -0.3421 -0.2714  0.0565
  626TMC3    C5 9271   3.029   2.963   0.607 -0.3140  0.0059  0.3255
  626TMC3    C6 9272   3.008   3.023   0.491 -0.0843 -0.6114  0.5201
  626TMC3     C 9273   3.226   2.679   0.515 -0.4630 -0.1418 -0.2097
  626TMC3     O 9274   3.235   2.606   0.418 -0.8052 -0.1390 -0.8465
  626TMC3     H 9275   3.165   2.807   0.289  1.5290 -1.3138  0.3630
  626TMC3    H1 9276   3.114   2.802   0.721  1.2520  1.8965  1.0998
  626TMC3    H2 9277   2.937   3.105   0.488 -1.3830 -1.7457  0.1817
  626TMC3    C7 9278   2.986   3.036   0.725  0.2659  0.1392  0.1437
  626TMC3    C8 9279   3.081   3.042   0.259 -0.3126  0.5042  0.7325
  626TMC3    O1 9280   2.882   3.090   0.718  0.3454 -0.4207  0.2543
  626TMC3    O2 9281   3.107   2.995   0.149 -0.1407 -0.1653  0.7643
  627MPD2     C 9282   2.011   3.365  14.578 -0.2005 -0.3816 -0.5162
  627MPD2    C1 9283   2.071   3.278  14.665  0.0722  0.5522  0.0239
  627MPD2    C2 9284   2.000   3.163  14.693 -0.0836  0.4459  0.0715
  627MPD2    C3 9285   1.876   3.125  14.637 -0.7685 -0.0346  0.5044
  627MPD2    C4 9286   1.818   3.221  14.553 -0.1311 -0.5574 -1.0386
  627MPD2    C5 9287   1.890   3.335  14.523  0.3671 -0.4560 -0.4537
  627MPD2     H 9288   2.040   3.093  14.765  0.4677  0.8925  0.1966
  627MPD2    H1 9289   1.723   3.210  14.502 -1.2300  2.3389  0.3987
  627MPD2    H2 9290   2.053   3.461  14.549 -1.7496  0.4858  0.1232
  627MPD2    H3 9291   1.845   3.399  14.449 -0.0343 -0.2359 -0.0199
  627MPD2     N 9292   1.814   3.008  14.674 -0.1599 -0.0898  0.2154
  627MPD2    H5 9293   1.849   2.972  14.762  0.3259 -0.9680 -0.3445
  627MPD2    N1 9294   2.204   3.301  14.713  0.4695 -0.2159 -0.4508
  627MPD2    H7 9295   2.249   3.223  14.759  3.8584  2.2683  0.4467
  628TMC3    C1 9296   2.420   3.400  14.742  0.1318  0.0746 -0.4541
  628TMC3    C2 9297   2.486   3.288  14.733  0.0903 -0.1849  0.8306
  628TMC3    C3 9298   2.619   3.306  14.763  0.9889  0.4523 -0.0577
  628TMC3    C4 9299   2.473   3.524  14.769  0.4872 -0.7752  0.1767
  628TMC3    C5 9300   2.599   3.534  14.809 -0.7006  0.3489 -0.1628
  628TMC3    C6 9301   2.678   3.419  14.817 -0.1581  0.2457 -0.9742
  628TMC3     C 9302   2.282   3.415  14.689  0.3848  0.1121 -0.0186
  628TMC3     O 9303   2.255   3.530  14.654 -0.4279 -0.3034  0.1299
  628TMC3     H 9304   2.454   3.203  14.674 -2.0894  0.0710  1.6458
  628TMC3    H1 9305   2.402   3.606  14.781  1.9664  0.3367  1.2893
  628TMC3    H2 9306   2.785   3.434  14.806 -0.1541  0.8405 -0.0835
  628TMC3    C7 9307   2.664   3.664  14.820  0.1639  0.7056  0.0049
  628TMC3    C8 9308   2.704   3.208  14.706 -0.6929  0.6192 -0.8142
  628TMC3    O1 9309   2.778   3.664  14.863  0.4504 -0.4248  0.3737
  628TMC3    O2 9310   2.695   3.176  14.590  0.3195 -0.6161  0.2076
  629MPD2     C 9311   0.482   2.299  16.389  0.2192 -0.2221 -0.9182
  629MPD2    C1 9312   0.540   2.195  16.469  0.4670 -0.4807 -0.6508
  629MPD2    C2 9313   0.449   2.111  16.530  0.2176  0.2541 -0.7115
  629MPD2    C3 9314   0.311   2.124  16.522  0.1323  0.2188 -0.0035
  629MPD2    C4 9315   0.256   2.226  16.449 -0.1951 -0.5591 -0.1704
  629MPD2    C5 9316   0.341   2.319  16.386 -0.6634 -0.0985 -0.2598
  629MPD2     H 9317   0.479   2.025  16.589  1.9322  1.4035  0.0845
  629MPD2    H1 9318   0.150   2.236  16.426 -0.3170  0.7525  0.8817
  629MPD2    H2 9319   0.541   2.372  16.334  2.6587 -2.1601 -0.8972
  629MPD2    H3 9320   0.305   2.397  16.321  0.4745  0.2633 -0.4518
  629MPD2     N 9321   0.229   2.010  16.571 -0.1364  0.7791  0.3693
  629MPD2    H5 9322   0.283   1.936  16.616 -0.1905 -0.7694 -2.0906
  629MPD2    N1 9323   0.678   2.179  16.479  0.0453  0.4556 -0.3808
  629MPD2    H7 9324   0.738   2.248  16.435  0.1389  0.1667 -0.7122
  630TMC3    C1 9325   0.890   2.106  16.554  0.3197  0.2186 -0.8701
  630TMC3    C2 9326   0.959   2.143  16.439  0.3940  0.3281 -0.0396
  630TMC3    C3 9327   1.096   2.151  16.446  0.4352 -0.4033 -0.1205
  630TMC3    C4 9328   0.949   2.065  16.668 -0.0649 -0.5050 -0.2066
  630TMC3    C5 9329   1.083   2.074  16.671 -0.2315  0.8369 -0.2466
  630TMC3    C6 9330   1.150   2.125  16.561  0.3868  0.3191  0.2101
  630TMC3     C 9331   0.745   2.098  16.562  1.0610 -0.3925 -0.2269
  630TMC3     O 9332   0.695   2.030  16.649 -0.1007 -0.2232  0.6792
  630TMC3     H 9333   0.908   2.166  16.347  0.0532 -1.7260 -0.3751
  630TMC3    H1 9334   0.897   2.049  16.762  2.0253  0.2317  1.0631
  630TMC3    H2 9335   1.258   2.116  16.561  0.2800 -0.9661  0.8161
  630TMC3    C7 9336   1.149   2.060  16.799 -0.0422 -0.1949  0.1345
  630TMC3    C8 9337   1.175   2.235  16.349 -0.1287 -0.1129  0.0384
  630TMC3    O1 9338   1.082   2.006  16.883  0.6574 -0.2196 -0.2871
  630TMC3    O2 9339   1.295   2.232  16.370  0.8094 -0.0569  1.0878
  631MPD2     C 9340   3.845   1.407  15.619  0.0595  0.8141  0.5469
  631MPD2    C1 9341   3.955   1.444  15.553 -0.4742  0.1320  0.2372
  631MPD2    C2 9342   4.079   1.387  15.589 -0.4183  0.6825 -0.0513
  631MPD2    C3 9343   4.087   1.322  15.713 -0.8125  0.1251  0.2715
  631MPD2    C4 9344   3.972   1.291  15.784  0.1310 -0.2854  0.8421
  631MPD2    C5 9345   3.854   1.331  15.732  0.4014 -0.7149 -0.0220
  631MPD2     H 9346   4.171   1.411  15.538  0.3464 -2.2167 -0.0250
  631MPD2    H1 9347   3.981   1.240  15.880  1.0152 -1.1055  0.3206
  631MPD2    H2 9348   3.746   1.446  15.599 -0.6411 -1.9940 -1.5668
  631MPD2    H3 9349   3.763   1.302  15.783  0.8831 -0.1446  1.1551
  631MPD2     N 9350   4.225   1.276  15.737  0.2068  0.3777  0.2362
  631MPD2    H5 9351   4.287   1.306  15.663 -0.0634 -0.3829 -0.2980
  631MPD2    N1 9352   3.939   1.540  15.452  0.2088 -0.1058  0.0277
  631MPD2    H7 9353   3.845   1.571  15.431 -0.3599  0.5505  3.4285
  632TMC3    C1 9354   3.982   1.708  15.296 -0.0538 -0.3384  0.1541
  632TMC3    C2 9355   3.893   1.796  15.346 -0.9864 -1.1669 -0.4900
  632TMC3    C3 9356   3.872   1.917  15.282  0.3006  0.0063 -0.0483
  632TMC3    C4 9357   4.036   1.726  15.169  0.3762 -0.1563  0.2270
  632TMC3    C5 9358   3.996   1.840  15.098 -0.5267  0.8098 -0.2933
  632TMC3    C6 9359   3.926   1.943  15.158 -0.6420  0.5846  0.1484
  632TMC3     C 9360   4.042   1.606  15.388 -0.0389 -0.5662  0.0271
  632TMC3     O 9361   4.154   1.565  15.369 -0.6141  0.5304  0.6612
  632TMC3     H 9362   3.863   1.787  15.450 -1.9864 -1.0750 -0.7736
  632TMC3    H1 9363   4.119   1.663  15.141  0.1315 -1.0247  1.4915
  632TMC3    H2 9364   3.913   2.036  15.103  0.9034  1.7231  1.7164
  632TMC3    C7 9365   4.062   1.883  14.971  0.0575 -0.2075  0.1300
  632TMC3    C8 9366   3.797   2.018  15.363  0.4518  0.0197 -0.0792
  632TMC3    O1 9367   4.067   2.004  14.946 -0.2421 -0.4410  0.8108
  632TMC3    O2 9368   3.747   1.973  15.466  0.7525 -0.0098 -0.6023
  633MPD2     C 9369   3.301   4.662  17.631  0.2487 -0.3423 -0.5821
  633MPD2    C1 9370   3.374   4.585  17.540  0.7565 -0.1880  0.4967
  633MPD2    C2 9371   3.454   4.479  17.583  0.0357  0.3683 -0.4808
  633MPD2    C3 9372   3.472   4.451   0.022 -0.4878  0.0599 -0.0558
  633MPD2    C4 9373   3.399   4.527   0.110  0.3621  0.2733 -0.0233
  633MPD2    C5 9374   3.313   4.630   0.068  0.2515  0.4909  0.7185
  633MPD2     H 9375   3.486   4.402  17.514  1.4901  0.2345  0.3505
  633MPD2    H1 9376   3.408   4.504   0.215 -0.1956  2.5438  0.5232
  633MPD2    H2 9377   3.224   0.007  17.597  0.5280  0.2777  0.0457
  633MPD2    H3 9378   3.264   4.693   0.142 -2.7061 -0.5825 -0.3370
  633MPD2     N 9379   3.545   4.336   0.067 -0.2436  0.3765  0.1144
  633MPD2    H5 9380   3.539   4.332   0.169 -0.1408  5.8886  0.3559
  633MPD2    N1 9381   3.354   4.600  17.400 -0.0625  0.2804 -0.6530
  633MPD2    H7 9382   3.399   4.526  17.349  0.2698  0.2026 -0.2436
  634TMC3    C1 9383   3.262   4.682  17.201  0.4980 -0.2480 -0.3836
  634TMC3    C2 9384   3.233   4.559  17.156  0.8677  0.7858 -0.1992
  634TMC3    C3 9385   3.211   4.543  17.025 -0.2005  0.8022 -0.8430
  634TMC3    C4 9386   3.273   0.074  17.120  0.7329  0.1066 -0.3394
  634TMC3    C5 9387   3.259   0.050  16.985 -0.7783 -0.4738 -0.3712
  634TMC3    C6 9388   3.222   4.650  16.938 -0.1474  0.4892  0.3823
  634TMC3     C 9389   3.281   4.697  17.343 -0.5303  0.0047 -0.4791
  634TMC3     O 9390   3.254   0.081  17.395  0.1042 -0.2188 -0.1356
  634TMC3     H 9391   3.238   4.475  17.224 -1.9085  0.6131 -0.1917
  634TMC3    H1 9392   3.301   0.170  17.163  1.9264 -0.4201  0.0635
  634TMC3    H2 9393   3.204   4.642  16.831  0.8143  1.1366  0.1770
  634TMC3    C7 9394   3.262   0.166  16.893  0.0535  0.0279 -0.4751
  634TMC3    C8 9395   3.249   4.410  16.970 -0.2678 -0.4993 -0.5106
  634TMC3    O1 9396   3.242   0.144  16.774 -0.2407  0.5075 -0.2837
  634TMC3    O2 9397   3.322   4.342  17.040  0.3481  0.1184 -0.0972
  635TMC3    C1 9398   4.044   0.063  16.992 -0.1593 -0.9142 -0.0075
  635TMC3    C2 9399   4.155   0.113  16.931 -0.0953 -0.5023  1.2710
  635TMC3    C3 9400   4.246   0.029  16.870 -0.0042 -0.5795 -0.2692
  635TMC3    C4 9401   4.019   4.654  16.973 -0.2172 -0.7935 -0.7088
  635TMC3    C5 9402   4.098   4.577  16.894 -0.1230 -0.6611 -0.6077
  635TMC3    C6 9403   4.215   4.622  16.842 -0.1940  0.0687  0.4672
  635TMC3     C 9404   3.963   0.145  17.075  0.1286 -0.4213 -0.3768
  635TMC3     O 9405   3.976   0.265  17.062 -0.3112  0.9851  0.6748
  635TMC3     H 9406   4.168   0.220  16.941  2.9761 -0.7523 -0.1508
  635TMC3    H1 9407   3.941   4.605  17.030  2.1603 -0.0528  3.2041
  635TMC3    H2 9408   4.300   4.563  16.812  0.9748  1.8224  0.3059
  635TMC3    C7 9409   4.068   4.437  16.881 -0.1420 -0.0019 -0.5729
  635TMC3    C8 9410   4.381   0.067  16.906 -0.6082 -0.0484 -0.1128
  635TMC3    O1 9411   4.006   4.390  16.977  0.0514 -0.1136  0.2115
  635TMC3    O2 9412   4.456   4.699  16.928  0.1641  0.0619 -0.0064
  636MPD2     C 9413   4.536   4.565  15.767  0.2713  0.6691  0.7466
  636MPD2    C1 9414   4.546   4.641  15.877 -0.0023 -0.1712  0.2940
  636MPD2    C2 9415   4.610   4.576  15.982  0.1487  0.4835 -0.3571
  636MPD2    C3 9416   4.646   4.443  15.980  0.2166 -0.1856 -0.2649
  636MPD2    C4 9417   4.627   4.368  15.869  0.2280  0.2858 -0.1782
  636MPD2    C5 9418   4.566   4.432  15.765 -0.6646 -0.1190 -0.4527
  636MPD2     H 9419   4.628   4.628  16.075  1.3749  0.9181 -0.8382
  636MPD2    H1 9420   4.662   4.266  15.856  0.9085  0.4660  0.2008
  636MPD2    H2 9421   4.489   4.614  15.683  1.5928 -0.5982 -0.7127
  636MPD2    H3 9422   4.554   4.387  15.667  0.3786 -1.4842  0.0536
  636MPD2     N 9423   4.703   4.388  16.099  0.5092 -0.1599 -0.1683
  636MPD2    H5 9424   4.716   4.449  16.179 -2.7818  0.7887 -0.3668
  636MPD2    N1 9425   4.510   0.057  15.894 -0.1081 -0.0144 -0.6989
  636MPD2    H7 9426   4.538   0.093  15.984  0.4415 -1.2375 -0.3813
  637TMC3    C1 9427   0.090   4.239  16.247 -0.7818 -0.5358 -0.1788
  637TMC3    C2 9428   0.059   4.318  16.352  0.4600  0.4235 -0.2135
  637TMC3    C3 9429   0.132   4.300  16.470 -0.1506 -0.5723  0.5693
  637TMC3    C4 9430   0.197   4.150  16.249 -0.0210 -0.1133 -0.0696
  637TMC3    C5 9431   0.276   4.153  16.358  0.1919 -1.0476 -0.6105
  637TMC3    C6 9432   0.239   4.217  16.471 -0.1969 -0.2020 -0.4447
  637TMC3     C 9433   0.035   4.261  16.113  0.1264 -0.2114  0.3351
  637TMC3     O 9434   0.069   4.177  16.031 -0.1267  0.6128  0.3450
  637TMC3     H 9435   4.699   4.387  16.351  0.1285  0.0194 -0.6408
  637TMC3    H1 9436   0.223   4.093  16.160 -1.6856 -0.8029 -0.0987
  637TMC3    H2 9437   0.300   4.194  16.558 -0.9360  0.6372  0.2902
  637TMC3    C7 9438   0.414   4.187  16.338 -0.2071 -0.6826 -0.3239
  637TMC3    C8 9439   0.142   4.422  16.556 -0.2406 -0.0707  0.6298
  637TMC3    O1 9440   0.460   4.260  16.422 -0.6042 -0.3997 -0.2693
  637TMC3    O2 9441   0.086   4.521  16.507  0.1493  0.4852  0.4397
  638MPD2     C 9442   4.676   3.888  14.368 -0.0063 -0.4479  0.6363
  638MPD2    C1 9443   4.629   3.761  14.376  0.0187  0.3940  0.5715
  638MPD2    C2 9444   4.547   3.724  14.477 -0.0204  0.0907  0.2969
  638MPD2    C3 9445   4.514   3.816  14.577 -0.0300 -0.4874  0.6770
  638MPD2    C4 9446   4.555   3.950  14.570  1.1287  0.1279 -0.2944
  638MPD2    C5 9447   4.637   3.980  14.460 -0.2089  0.1793  0.1775
  638MPD2     H 9448   4.514   3.623  14.498 -1.1228  0.0662 -1.5670
  638MPD2    H1 9449   4.538   4.032  14.639  0.0077  0.0938 -0.5346
  638MPD2    H2 9450   0.022   3.920  14.291 -1.6052 -1.4723 -1.2271
  638MPD2    H3 9451   4.672   4.082  14.452 -2.4566  0.7650 -2.0164
  638MPD2     N 9452   4.448   3.762  14.688  0.0347  0.3012  0.4644
  638MPD2    H5 9453   4.435   3.662  14.694  0.5242  0.2242  0.2765
  638MPD2    N1 9454   4.679   3.669  14.279 -0.3640  0.2873 -0.1164
  638MPD2    H7 9455   0.032   3.709  14.227 -0.8573  0.3283 -0.8021
  639TMC3    C1 9456   4.357   3.750  14.901 -0.3067 -0.8697 -0.4453
  639TMC3    C2 9457   4.269   3.644  14.868  0.6408  0.3159  0.1411
  639TMC3    C3 9458   4.270   3.540  14.949 -0.5476 -0.1724 -0.6599
  639TMC3    C4 9459   4.453   3.736  14.994  0.0234 -0.0405 -0.4433
  639TMC3    C5 9460   4.462   3.615  15.055  0.2542 -0.4344  0.5216
  639TMC3    C6 9461   4.364   3.522  15.045 -0.4134  0.3055  0.1603
  639TMC3     C 9462   4.407   3.840  14.802 -0.2395  0.7579  0.1795
  639TMC3     O 9463   4.433   3.952  14.835  0.5845 -0.4675 -0.0218
  639TMC3     H 9464   4.200   3.646  14.785  1.5625 -0.9806 -0.6596
  639TMC3    H1 9465   4.535   3.805  15.011 -0.8411  0.6972  0.6600
  639TMC3    H2 9466   4.379   3.428  15.097 -0.4769  0.2286  0.0394
  639TMC3    C7 9467   4.595   3.566  15.096  0.3222  0.3604  0.0356
  639TMC3    C8 9468   4.181   3.421  14.914  0.1470 -0.2008 -0.5981
  639TMC3    O1 9469   4.661   3.637  15.174 -0.0021 -0.0142 -0.2143
  639TMC3    O2 9470   4.152   3.414  14.796 -0.3121 -0.0541 -0.5538
  640MPD2     C 9471   0.837   2.285  10.059  0.1933 -0.0180 -0.2931
  640MPD2    C1 9472   0.785   2.334   9.941  0.2423 -0.3515  0.0007
  640MPD2    C2 9473   0.713   2.450   9.944  0.4053 -0.6317 -0.4009
  640MPD2    C3 9474   0.672   2.504  10.068 -0.1750  0.3906 -0.2382
  640MPD2    C4 9475   0.713   2.442  10.184  0.3831 -0.1456  0.7218
  640MPD2    C5 9476   0.800   2.336  10.177  0.7076 -0.8340  0.2323
  640MPD2     H 9477   0.684   2.499   9.852 -2.0154 -3.5106 -1.1607
  640MPD2    H1 9478   0.692   2.495  10.276  1.9588 -1.5700  1.8879
  640MPD2    H2 9479   0.915   2.211  10.071  0.7843  0.7109  0.3403
  640MPD2    H3 9480   0.842   2.299  10.270  1.1131  2.1797  1.2313
  640MPD2     N 9481   0.592   2.617  10.080 -0.8685 -0.1621  0.0793
  640MPD2    H5 9482   0.551   2.632  10.171 -1.2072  0.3519 -0.1527
  640MPD2    N1 9483   0.826   2.275   9.823  0.4547  0.0314  0.5612
  640MPD2    H7 9484   0.874   2.186   9.822  0.7494  0.1859  1.2017
  641TMC3    C1 9485   0.854   2.224   9.594  1.1759 -0.2681 -0.2419
  641TMC3    C2 9486   0.897   2.101   9.632  0.8330  0.1260  0.1039
  641TMC3    C3 9487   0.959   2.021   9.536  0.0476  0.1314 -0.6014
  641TMC3    C4 9488   0.867   2.273   9.470  0.1580  0.5222  0.0632
  641TMC3    C5 9489   0.941   2.200   9.380  0.2808 -0.7585 -0.3822
  641TMC3    C6 9490   0.990   2.071   9.408  0.5944  0.0680  0.3077
  641TMC3     C 9491   0.789   2.310   9.694 -0.4983 -0.0669  0.1970
  641TMC3     O 9492   0.699   2.386   9.663 -0.4273  0.1614 -0.0656
  641TMC3     H 9493   0.866   2.048   9.721  2.1698 -0.5741  0.1609
  641TMC3    H1 9494   0.828   2.372   9.449 -0.6042  0.1710 -0.1896
  641TMC3    H2 9495   1.040   2.022   9.325  1.4843  0.3426  0.6894
  641TMC3    C7 9496   0.985   2.263   9.254  0.0661  0.4351  0.2698
  641TMC3    C8 9497   1.010   1.886   9.562  0.6876 -0.2365  0.7616
  641TMC3    O1 9498   1.093   2.224   9.212  0.1373 -0.2156 -0.3356
  641TMC3    O2 9499   1.023   1.825   9.459 -0.6652 -0.3249  0.2257
  642TMC3    C1 9500   1.643   3.682  12.029  0.0653  0.1188 -0.2324
  642TMC3    C2 9501   1.777   3.666  12.045 -0.5387 -0.3563 -0.3145
  642TMC3    C3 9502   1.822   3.539  12.029  0.1804 -0.0243 -0.3052
  642TMC3    C4 9503   1.559   3.578  12.017  0.2903 -0.5558 -0.0843
  642TMC3    C5 9504   1.609   3.452  12.034 -0.1566  0.1275 -0.7159
  642TMC3    C6 9505   1.750   3.427  12.042 -0.4078 -0.2894  0.2363
  642TMC3     C 9506   1.603   3.815  12.033  0.6145 -0.7434 -0.0646
  642TMC3     O 9507   1.682   3.898  11.986 -0.4752  0.0537  0.1779
  642TMC3     H 9508   1.854   3.739  12.064  0.7480 -1.6192 -0.6797
  642TMC3    H1 9509   1.452   3.594  12.010  0.1137 -0.9827  1.7264
  642TMC3    H2 9510   1.787   3.327  12.023 -1.6279 -0.6055 -0.5292
  642TMC3    C7 9511   1.516   3.341  12.017 -0.0146 -0.5932  0.8587
  642TMC3    C8 9512   1.960   3.521  12.085 -0.2005 -0.4017 -0.2752
  642TMC3    O1 9513   1.427   3.341  11.936 -0.2782  0.6404 -0.0019
  642TMC3    O2 9514   2.044   3.605  12.071 -0.4532  0.0930  0.3406
  643TMC3    C1 9515   0.984   2.651   0.580 -1.1832 -0.4217 -0.1951
  643TMC3    C2 9516   0.857   2.698   0.590 -0.0041  0.0093  0.3126
  643TMC3    C3 9517   0.760   2.676   0.504 -0.0971 -1.3707  0.2251
  643TMC3    C4 9518   1.015   2.577   0.468  0.7525 -0.0333 -0.6683
  643TMC3    C5 9519   0.917   2.558   0.377 -0.0666 -0.1149 -0.8243
  643TMC3    C6 9520   0.791   2.601   0.397 -0.5994 -0.6414  0.2550
  643TMC3     C 9521   1.074   2.758   0.570  0.5384  0.4112 -0.3410
  643TMC3     O 9522   1.026   2.864   0.530  0.4928  0.0687 -0.5498
  643TMC3     H 9523   0.838   2.767   0.672 -1.6453 -0.3732  0.2490
  643TMC3    H1 9524   1.115   2.543   0.447  0.7395  0.5936 -1.7661
  643TMC3    H2 9525   0.709   2.576   0.331 -0.4255 -1.8077  0.4737
  643TMC3    C7 9526   0.952   2.575   0.238 -0.0895  0.1682  0.2100
  643TMC3    C8 9527   0.683   2.791   0.465 -0.0328  0.4501  0.4549
  643TMC3    O1 9528   1.040   2.659   0.215  0.2037 -0.0051  0.0025
  643TMC3    O2 9529   0.623   2.851   0.551  0.3781  0.1386 -0.1937
  644MPD2     C 9530   0.962   3.275   9.227 -0.1370 -0.0331  0.3368
  644MPD2    C1 9531   0.881   3.159   9.241 -0.1691 -0.9333 -0.6112
  644MPD2    C2 9532   0.748   3.180   9.269  0.0836 -0.7693  0.8917
  644MPD2    C3 9533   0.696   3.303   9.284 -0.8765 -0.4653  0.0971
  644MPD2    C4 9534   0.780   3.414   9.273 -0.6312 -0.2692 -0.7285
  644MPD2    C5 9535   0.918   3.399   9.243  0.0447 -0.5453  0.1987
  644MPD2     H 9536   0.677   3.097   9.268  0.6070 -1.2213  1.2452
  644MPD2    H1 9537   0.742   3.515   9.276  0.9875  0.2864  2.1015
  644MPD2    H2 9538   1.064   3.263   9.192  0.2019  0.6320  1.1182
  644MPD2    H3 9539   0.991   3.479   9.235 -0.4843 -0.4290 -3.4786
  644MPD2     N 9540   0.559   3.310   9.312 -0.1068  0.3615 -0.0701
  644MPD2    H5 9541   0.511   3.222   9.300  0.3590 -0.0112  0.7886
  644MPD2    N1 9542   0.943   3.033   9.217 -0.2066  0.1387  0.0627
  644MPD2    H7 9543   1.044   3.035   9.214 -0.3289  2.6228 -2.1311
  645TMC3    C1 9544   0.347   3.422   9.333 -0.2832  0.4856 -0.1532
  645TMC3    C2 9545   0.282   3.540   9.302 -0.1420 -0.6390  0.3541
  645TMC3    C3 9546   0.143   3.542   9.307  0.0847  0.2386  0.7730
  645TMC3    C4 9547   0.274   3.312   9.379  0.3917 -0.4750  0.5849
  645TMC3    C5 9548   0.141   3.323   9.389 -0.7187 -0.1383  0.4324
  645TMC3    C6 9549   0.073   3.435   9.355 -0.6791  0.2888  0.5553
  645TMC3     C 9550   0.495   3.427   9.340  0.3849  0.2348  0.4173
  645TMC3     O 9551   0.536   3.542   9.352  0.3923  0.7177  0.4080
  645TMC3     H 9552   0.334   3.621   9.254  3.0986 -1.4732  2.5019
  645TMC3    H1 9553   0.320   3.214   9.386  1.6106  0.0734  0.3033
  645TMC3    H2 9554   4.690   3.416   9.348 -0.7891  0.7393  0.9625
  645TMC3    C7 9555   0.069   3.216   9.459  0.6272  0.0021  0.2823
  645TMC3    C8 9556   0.064   3.644   9.235  0.1357  0.3420 -0.0008
  645TMC3    O1 9557   0.135   3.112   9.457 -0.6208  0.3354  0.5941
  645TMC3    O2 9558   0.119   3.706   9.142  0.0718 -0.4277  0.0443
  646MPD2     C 9559   4.675   2.224  14.658 -0.4064  0.1892  0.3658
  646MPD2    C1 9560   4.619   2.286  14.766  0.0868  0.3199  0.3857
  646MPD2    C2 9561   4.497   2.363  14.747  0.3635  0.8479  0.0587
  646MPD2    C3 9562   4.444   2.376  14.623  0.4195  1.0621  0.3717
  646MPD2    C4 9563   4.505   2.303  14.522  0.4469 -0.1293  0.2506
  646MPD2    C5 9564   4.622   2.236  14.532  0.1711  1.4901  0.4209
  646MPD2     H 9565   4.444   2.410  14.829 -0.1041 -2.5037  1.6605
  646MPD2    H1 9566   4.468   2.316  14.421  1.1798  1.9314  0.2312
  646MPD2    H2 9567   0.048   2.175  14.667 -0.9616 -1.3083 -1.6816
  646MPD2    H3 9568   4.655   2.188  14.441 -4.0270 -2.6785  1.0866
  646MPD2     N 9569   4.324   2.451  14.610  0.1531 -0.0284 -0.2835
  646MPD2    H5 9570   4.275   2.489  14.691 -1.8917 -2.8274 -0.1925
  646MPD2    N1 9571   4.678   2.269  14.892 -0.2323  0.5735 -0.6191
  646MPD2    H7 9572   0.046   2.224  14.896 -1.0331 -0.8870  1.2919
  647TMC3    C1 9573   4.707   2.234  15.114 -0.0722 -0.4780  0.0285
  647TMC3    C2 9574   4.633   2.170  15.209 -0.1474 -0.1055  0.7835
  647TMC3    C3 9575   4.698   2.115  15.314  0.2132 -0.0283  0.2518
  647TMC3    C4 9576   0.119   2.258  15.128 -0.2113  0.0863  1.0256
  647TMC3    C5 9577   0.173   2.225  15.250  0.7923 -0.1916 -0.5438
  647TMC3    C6 9578   0.097   2.155  15.342 -1.0357  0.1024 -0.4050
  647TMC3     C 9579   4.624   2.297  15.009 -1.0619  0.3664  0.5624
  647TMC3     O 9580   4.507   2.315  15.039 -0.0615 -0.4427 -0.3654
  647TMC3     H 9581   4.525   2.163  15.199 -0.1839  0.7122  0.5429
  647TMC3    H1 9582   0.178   2.312  15.055  1.7422 -0.4931  2.1473
  647TMC3    H2 9583   0.142   2.125  15.436 -0.9348  0.4859 -0.3314
  647TMC3    C7 9584   0.314   2.194  15.244  0.3118  0.1751  0.2385
  647TMC3    C8 9585   4.687   1.970  15.326 -1.1266 -0.6051  0.0562
  647TMC3    O1 9586   0.380   2.216  15.344  0.5251 -0.1579  0.2412
  647TMC3    O2 9587   0.065   1.906  15.342 -0.0964 -0.1402  0.6968
  648TMC3    C1 9588   3.856   4.461  16.371  0.3390  0.2013  0.0512
  648TMC3    C2 9589   3.902   4.340  16.347 -0.2862  0.0514  0.0723
  648TMC3    C3 9590   3.874   4.296  16.224  0.2243 -0.6528 -0.2568
  648TMC3    C4 9591   3.816   4.552  16.278 -0.0515 -0.2759  0.8023
  648TMC3    C5 9592   3.799   4.505  16.153 -0.0047  0.3659 -0.5507
  648TMC3    C6 9593   3.826   4.378  16.128  0.3569 -0.0815  0.5132
  648TMC3     C 9594   3.869   4.524  16.501  0.8590 -0.3453 -0.0107
  648TMC3     O 9595   3.904   4.643  16.501  0.0278  0.2085 -0.0240
  648TMC3     H 9596   3.961   4.291  16.424  1.7633  1.3262 -0.7059
  648TMC3    H1 9597   3.777   4.643  16.323  0.4712  0.3956 -0.0988
  648TMC3    H2 9598   3.789   4.345  16.032  0.9964  2.5891 -0.6578
  648TMC3    C7 9599   3.715   4.575  16.057 -0.0324  0.3676  0.0802
  648TMC3    C8 9600   3.975   4.215  16.178 -0.4623  0.2961 -0.3063
  648TMC3    O1 9601   3.691   4.519  15.951 -0.0864 -0.2424  0.8606
  648TMC3    O2 9602   4.087   4.232  16.227 -0.6901  0.2046 -0.2439
  649TMC3    C1 9603   2.707   1.322  13.010  0.1145  0.4031 -0.4035
  649TMC3    C2 9604   2.846   1.315  13.005 -0.2658 -0.5575  0.4669
  649TMC3    C3 9605   2.916   1.238  13.098 -0.1344  0.5623  0.2892
  649TMC3    C4 9606   2.637   1.244  13.098 -0.0333  0.3892 -0.0547
  649TMC3    C5 9607   2.703   1.159  13.176  1.0828  0.2199  0.4637
  649TMC3    C6 9608   2.840   1.158  13.184  0.2145 -0.3546  0.6082
  649TMC3     C 9609   2.627   1.349  12.892  0.5445  0.0606  0.0669
  649TMC3     O 9610   2.508   1.378  12.901  0.4571 -0.2249  0.3384
  649TMC3     H 9611   2.895   1.356  12.918  0.6461 -3.1087 -0.2276
  649TMC3    H1 9612   2.533   1.273  13.110  0.3113  1.2483  0.7989
  649TMC3    H2 9613   2.890   1.115  13.270  0.1805  0.2451  0.9260
  649TMC3    C7 9614   2.626   1.087  13.277 -0.0268 -0.1544 -0.1398
  649TMC3    C8 9615   3.058   1.267  13.124  0.1540  0.0609  1.2068
  649TMC3    O1 9616   2.509   1.120  13.295 -0.0927 -0.0083  0.4440
  649TMC3    O2 9617   3.126   1.187  13.187  0.3539  0.3656 -0.3780
  650TMC3    C1 9618   1.065   2.893  12.757 -0.5440  0.1309 -0.2372
  650TMC3    C2 9619   1.076   3.031  12.757 -0.0387 -0.2751  0.4454
  650TMC3    C3 9620   1.035   3.098  12.647 -0.2829 -0.0759  0.0050
  650TMC3    C4 9621   1.029   2.825  12.649 -0.1714  0.0628  0.4169
  650TMC3    C5 9622   1.006   2.893  12.536  0.4029 -0.2522  0.1655
  650TMC3    C6 9623   1.003   3.029  12.533 -0.1907  0.6582 -0.1442
  650TMC3     C 9624   1.124   2.815  12.867  0.3542 -0.2990  1.0513
  650TMC3     O 9625   1.212   2.864  12.937 -0.0065  0.6826 -0.1310
  650TMC3     H 9626   1.103   3.087  12.846 -0.7480 -2.0285  1.7813
  650TMC3    H1 9627   0.999   2.721  12.640  0.4805 -0.1309  0.4874
  650TMC3    H2 9628   0.982   3.082  12.441 -1.6921 -0.1168 -0.2406
  650TMC3    C7 9629   1.000   2.813  12.415  0.2616 -0.2022  0.1977
  650TMC3    C8 9630   0.995   3.238  12.657  0.3496 -0.2207 -0.4681
  650TMC3    O1 9631   1.061   2.708  12.420  0.1240  0.4374  0.6511
  650TMC3    O2 9632   1.064   3.309  12.733  0.3341 -0.2365  0.2393
  651MPD2     C 9633   4.360   4.275  10.423 -0.2615 -0.0590 -0.1449
  651MPD2    C1 9634   4.356   4.386  10.499  0.6020  0.2647 -0.9541
  651MPD2    C2 9635   4.476   4.458  10.521 -0.1160  0.1720  0.2462
  651MPD2    C3 9636   4.590   4.424  10.456 -0.7553 -0.0390  0.0806
  651MPD2    C4 9637   4.587   4.317  10.364 -0.2007 -0.2773 -0.5682
  651MPD2    C5 9638   4.474   4.244  10.356 -0.3010 -0.1224  0.5859
  651MPD2     H 9639   4.481   4.538  10.593  2.2086  1.3049 -1.1769
  651MPD2    H1 9640   4.680   4.275  10.326  0.3845 -1.5645  2.2795
  651MPD2    H2 9641   4.274   4.209  10.412 -0.1278 -0.0879 -1.0297
  651MPD2    H3 9642   4.448   4.161  10.291 -1.0410 -0.4170  1.2615
  651MPD2     N 9643   4.700   4.514  10.484 -0.5388 -0.0230 -0.4108
  651MPD2    H5 9644   4.675   4.574  10.563  1.2835  0.0004  0.1562
  651MPD2    N1 9645   4.244   4.428  10.565 -0.6731 -0.3948 -0.3482
  651MPD2    H7 9646   4.253   4.501  10.635 -0.6217  0.3618 -1.1375
  652TMC3    C1 9647   0.370   0.036  10.558 -0.3163 -0.0218 -0.1493
  652TMC3    C2 9648   0.311   4.646  10.500 -0.9144  0.3085  0.3773
  652TMC3    C3 9649   0.175   4.651  10.485  0.2809  0.0214  0.1394
  652TMC3    C4 9650   0.299   0.141  10.615  0.2752 -0.2944  0.2995
  652TMC3    C5 9651   0.162   0.135  10.603  0.2840 -0.0931 -0.7727
  652TMC3    C6 9652   0.102   0.034  10.534 -0.1690 -0.4465  0.3663
  652TMC3     C 9653   0.514   0.043  10.520 -0.4333 -0.5983  0.0753
  652TMC3     O 9654   0.550   0.001  10.415 -0.3664  0.0091 -0.5888
  652TMC3     H 9655   0.370   4.562  10.464 -0.3975  1.2905 -1.0722
  652TMC3    H1 9656   0.349   0.226  10.660  0.1934 -0.1527  0.1261
  652TMC3    H2 9657   4.717   0.031  10.525 -0.0777 -1.0443 -0.5319
  652TMC3    C7 9658   0.089   0.257  10.558  0.2182  0.4129 -0.4975
  652TMC3    C8 9659   0.108   4.524  10.440  0.1014 -0.1802  0.0904
  652TMC3    O1 9660   4.708   0.249  10.495 -0.0263  0.1228  0.1766
  652TMC3    O2 9661   0.163   4.451  10.357  0.3865  0.2578 -0.0550
  653MPD2     C 9662   2.991   4.690   0.096 -0.4943  0.1933  0.7360
  653MPD2    C1 9663   2.967   0.063  17.691  0.2443  0.6723 -0.1411
  653MPD2    C2 9664   2.949   0.020  17.557 -0.5037  0.2007  0.6881
  653MPD2    C3 9665   2.938   4.604  17.534 -0.6292 -0.3515  0.5265
  653MPD2    C4 9666   2.951   4.515  17.634  0.1382 -0.7121 -0.4539
  653MPD2    C5 9667   2.984   4.558   0.065 -0.2873  0.1195  0.0683
  653MPD2     H 9668   2.941   0.090  17.474  0.2238 -0.9117 -0.3202
  653MPD2    H1 9669   2.961   4.409  17.614  1.7395 -0.4884 -0.8683
  653MPD2    H2 9670   3.034   4.703   0.194  0.5159 -0.6707  0.4142
  653MPD2    H3 9671   2.995   4.478   0.137 -0.0901  1.3174  1.3706
  653MPD2     N 9672   2.906   4.564  17.401 -0.0973 -0.2446 -0.5544
  653MPD2    H5 9673   2.880   4.636  17.334 -0.1106  0.2365 -0.0268
  653MPD2    N1 9674   2.982   0.203   0.020  0.1150 -0.0271 -0.1960
  653MPD2    H7 9675   2.976   0.259  17.630  1.8325  0.7854  0.2298
  654TMC3    C1 9676   2.867   4.431  17.211 -0.6630 -0.0527 -0.0889
  654TMC3    C2 9677   2.773   4.519  17.165  0.1756 -0.7826  0.0005
  654TMC3    C3 9678   2.737   4.511  17.030 -0.4885 -0.1923  0.1022
  654TMC3    C4 9679   2.919   4.329  17.132  0.3057  1.0687  0.0055
  654TMC3    C5 9680   2.870   4.314  17.004 -0.5082  0.1971  0.0949
  654TMC3    C6 9681   2.779   4.407  16.950 -0.3597  0.2001  0.0978
  654TMC3     C 9682   2.911   4.435  17.349  0.1292  0.4984  0.6944
  654TMC3     O 9683   2.972   4.343  17.402 -0.4114  1.0779  0.0230
  654TMC3     H 9684   2.743   4.600  17.230  2.1524  1.9388 -2.4879
  654TMC3    H1 9685   2.997   4.263  17.169 -0.9280 -0.7495 -0.6564
  654TMC3    H2 9686   2.740   4.378  16.853  2.8456  0.7412 -1.3320
  654TMC3    C7 9687   2.929   4.219  16.915  0.0181 -0.5188 -0.0793
  654TMC3    C8 9688   2.631   4.607  16.978 -0.4503  0.0846  0.0754
  654TMC3    O1 9689   2.924   4.248  16.795 -0.0205 -0.0294 -0.4705
  654TMC3    O2 9690   2.583   4.678  17.067  0.3107 -0.0917 -0.4943
  655MPD2     C 9691   4.132   4.426  15.885  0.4128  0.1353  0.3832
  655MPD2    C1 9692   4.179   4.533  15.811 -0.0869  0.4968 -0.1292
  655MPD2    C2 9693   4.222   4.513  15.680 -0.0380  0.0979 -0.0885
  655MPD2    C3 9694   4.244   4.385  15.629  0.3146 -0.4373 -0.6605
  655MPD2    C4 9695   4.213   4.276  15.710 -0.5817 -0.0490 -0.5153
  655MPD2    C5 9696   4.148   4.303  15.829 -1.2137  0.6488 -1.2067
  655MPD2     H 9697   4.251   4.600  15.623 -1.9205 -0.1118 -1.3757
  655MPD2    H1 9698   4.222   4.175  15.672  0.0390 -0.4550  0.7172
  655MPD2    H2 9699   4.093   4.427  15.986 -1.0265 -0.5202 -0.1720
  655MPD2    H3 9700   4.092   4.220  15.871  0.0592  0.4679  0.1017
  655MPD2     N 9701   4.287   4.360  15.499  0.0672 -0.6547  0.1997
  655MPD2    H5 9702   4.291   4.264  15.467  0.5575 -0.6885  0.3537
  655MPD2    N1 9703   4.179   4.661  15.854 -0.0928  0.1011 -0.3472
  655MPD2    H7 9704   4.221   4.722  15.785  1.1723 -0.5295 -0.1445
  656TMC3    C1 9705   4.107   0.126  15.965 -0.6555 -0.3384  0.1945
  656TMC3    C2 9706   4.078   0.189  16.079 -0.2306  0.4136 -0.2036
  656TMC3    C3 9707   3.974   0.272  16.085  1.0151  0.5462  0.5890
  656TMC3    C4 9708   4.038   0.160  15.852  0.5153  0.0499 -0.4962
  656TMC3    C5 9709   3.941   0.253  15.856  0.7542  0.0068 -0.6254
  656TMC3    C6 9710   3.908   0.316  15.977 -0.9447  0.3701 -0.0533
  656TMC3     C 9711   4.135   4.707  15.975  0.2862  0.2841 -0.3970
  656TMC3     O 9712   4.082   4.648  16.067 -0.0791  0.5280  0.7272
  656TMC3     H 9713   4.120   0.150  16.172 -0.2280  1.8222  0.3900
  656TMC3    H1 9714   4.057   0.108  15.759 -1.3574 -1.9706  0.2453
  656TMC3    H2 9715   3.827   0.387  15.987 -0.4835  0.8161  0.5450
  656TMC3    C7 9716   3.877   0.287  15.732 -0.3331  0.2970  0.0494
  656TMC3    C8 9717   3.903   0.284  16.216 -0.0226 -0.2403  0.4886
  656TMC3    O1 9718   3.883   0.208  15.640 -0.6070  0.0811 -0.4327
  656TMC3    O2 9719   3.924   0.197  16.302  0.0855 -0.8977 -0.7961
  657TMC3    C1 9720   3.113   4.002  14.995 -0.1379  0.0561  1.0214
  657TMC3    C2 9721   3.125   3.882  15.061  0.5274  0.2774  0.0488
  657TMC3    C3 9722   3.012   3.826  15.110 -0.3266  0.0918  1.3028
  657TMC3    C4 9723   2.984   4.052  14.973 -0.0035 -0.0993  0.4643
  657TMC3    C5 9724   2.876   3.990  15.030  0.6708  0.2233 -0.3138
  657TMC3    C6 9725   2.883   3.878  15.103  0.5008 -0.2680 -0.6263
  657TMC3     C 9726   3.225   4.076  14.949  0.2711 -0.5967  0.2637
  657TMC3     O 9727   3.202   4.146  14.852 -0.6834  0.8275 -0.1670
  657TMC3     H 9728   3.223   3.838  15.079  1.1479  1.1267 -1.2316
  657TMC3    H1 9729   2.977   4.158  14.952 -1.0418 -0.0830  0.9230
  657TMC3    H2 9730   2.804   3.847  15.170  1.2037 -0.7108 -0.0029
  657TMC3    C7 9731   2.787   4.090  15.093  0.2740  0.1503 -0.1013
  657TMC3    C8 9732   3.022   3.697  15.174 -0.3860  0.1571  0.8199
  657TMC3    O1 9733   2.767   4.079  15.213  0.1820 -0.3734 -0.4070
  657TMC3    O2 9734   3.130   3.661  15.222  0.3299 -0.1245 -0.5507
  658MPD2     C 9735   4.690   4.213  14.847  0.0700 -0.0591  0.4858
  658MPD2    C1 9736   4.633   4.343  14.837  0.8523 -0.1152  0.8603
  658MPD2    C2 9737   4.662   4.419  14.727 -0.3389 -0.4686 -0.2847
  658MPD2    C3 9738   0.023   4.378  14.624  0.6473 -0.2858 -0.2835
  658MPD2    C4 9739   0.082   4.253  14.635  0.2206  0.6745 -0.1016
  658MPD2    C5 9740   0.051   4.174  14.742 -0.0525 -0.1427 -0.5352
  658MPD2     H 9741   4.602   4.506  14.702 -1.0825 -1.0696 -0.5778
  658MPD2    H1 9742   0.151   4.207  14.566  0.3785  1.1134 -0.2360
  658MPD2    H2 9743   4.659   4.149  14.930 -0.6764  0.5890  0.7139
  658MPD2    H3 9744   0.091   4.073  14.744  0.3651 -0.0129 -2.3662
  658MPD2     N 9745   0.043   4.459  14.510 -0.0466 -0.5489  0.1601
  658MPD2    H5 9746   4.711   4.544  14.503  0.2915 -0.2296  1.3505
  658MPD2    N1 9747   4.543   4.374  14.933  0.1707  0.2818  0.4180
  658MPD2    H7 9748   4.517   4.297  14.995 -1.4232 -1.1551 -2.0561
  659TMC3    C1 9749   4.377   4.468  15.057  0.7900 -0.2818 -0.1855
  659TMC3    C2 9750   4.416   4.480  15.187  0.1337 -0.2335 -0.1671
  659TMC3    C3 9751   4.366   4.388  15.274  0.3054  1.0093  0.1742
  659TMC3    C4 9752   4.279   4.377  15.019 -0.0329  0.2236 -0.1377
  659TMC3    C5 9753   4.218   4.304  15.119  0.3097  0.0109 -0.5005
  659TMC3    C6 9754   4.276   4.292  15.241  0.4544 -0.4395 -0.3663
  659TMC3     C 9755   4.473   4.493  14.956  0.0639  0.1938  0.0644
  659TMC3     O 9756   4.507   4.607  14.937  0.2108 -0.2092  0.0265
  659TMC3     H 9757   4.490   4.553  15.216  0.6615 -1.1554  0.7957
  659TMC3    H1 9758   4.246   4.363  14.917 -0.5229 -1.5667  0.2675
  659TMC3    H2 9759   4.223   4.229  15.312  0.8430 -2.1178 -1.5713
  659TMC3    C7 9760   4.075   4.333  15.131 -0.1412 -0.3176 -0.6001
  659TMC3    C8 9761   4.341   4.446  15.408 -0.4311  0.1932 -0.2802
  659TMC3    O1 9762   4.012   4.294  15.226  0.0957  0.1362  0.1275
  659TMC3    O2 9763   4.369   4.562  15.427 -0.2556 -0.2534  0.1277
  660MPD2     C 9764   2.726   3.999  12.574  0.5481 -0.7710  0.1592
  660MPD2    C1 9765   2.599   4.004  12.521  0.7638  0.3311 -0.6630
  660MPD2    C2 9766   2.494   3.957  12.606  0.0474 -0.1886 -0.1453
  660MPD2    C3 9767   2.526   3.909  12.729 -0.1224 -0.7084 -0.6919
  660MPD2    C4 9768   2.660   3.901  12.773  0.0882  0.8665 -0.0134
  660MPD2    C5 9769   2.762   3.945  12.692  0.5141 -0.1439  0.6373
  660MPD2     H 9770   2.391   3.964  12.571  0.4714  2.2772 -0.9189
  660MPD2    H1 9771   2.685   3.875  12.876  0.6178  1.3975 -0.0078
  660MPD2    H2 9772   2.813   4.033  12.519 -1.2964  1.4067 -1.4303
  660MPD2    H3 9773   2.863   3.950  12.730  0.5232  2.5989  0.2273
  660MPD2     N 9774   2.421   3.863  12.818  0.1353 -0.0004 -0.6739
  660MPD2    H5 9775   2.454   3.835  12.910 -1.7909 -3.2583 -0.9845
  660MPD2    N1 9776   2.590   4.057  12.390  0.3085 -0.3383 -0.4028
  660MPD2    H7 9777   2.673   4.094  12.345  0.4990  0.6512  0.7503
  661TMC3    C1 9778   2.479   4.127  12.196 -0.7473  0.1678 -0.4684
  661TMC3    C2 9779   2.595   4.095  12.125  0.0946  0.4403  0.4814
  661TMC3    C3 9780   2.597   4.155  11.996 -0.5805  0.1715  1.0518
  661TMC3    C4 9781   2.368   4.185  12.140  0.8205  0.3215  0.2972
  661TMC3    C5 9782   2.377   4.234  12.013  0.2712 -0.9951 -1.2451
  661TMC3    C6 9783   2.496   4.230  11.940  0.5703 -0.9390 -0.0126
  661TMC3     C 9784   2.468   4.066  12.327 -0.2852 -0.7719 -0.5072
  661TMC3     O 9785   2.356   4.021  12.358 -0.2872 -0.1350 -0.4023
  661TMC3     H 9786   2.680   4.045  12.170  2.2017  1.1338 -2.7070
  661TMC3    H1 9787   2.275   4.192  12.195  1.2462 -0.0209  1.0611
  661TMC3    H2 9788   2.499   4.262  11.836 -0.2491 -1.5189 -0.2125
  661TMC3    C7 9789   2.262   4.210  11.939 -0.4473  0.3903  0.2663
  661TMC3    C8 9790   2.709   4.113  11.914  0.4680 -0.4906 -0.6466
  661TMC3    O1 9791   2.214   4.303  11.878 -0.1053  0.2842  0.5806
  661TMC3    O2 9792   2.741   3.994  11.931 -0.4809 -0.0369  0.0181
  662MPD2     C 9793   3.221   2.786  17.110  0.9929 -0.3573  0.2680
  662MPD2    C1 9794   3.165   2.774  17.235  1.1208  0.4527 -0.3085
  662MPD2    C2 9795   3.100   2.880  17.287  0.4198  0.1537 -1.1546
  662MPD2    C3 9796   3.080   3.000  17.213  0.2011 -0.1533 -0.1307
  662MPD2    C4 9797   3.144   3.010  17.093  0.3388 -0.0514 -0.6341
  662MPD2    C5 9798   3.219   2.907  17.045 -0.0427 -0.0371 -0.6258
  662MPD2     H 9799   3.063   2.868  17.388 -0.5090 -0.3089 -1.5457
  662MPD2    H1 9800   3.138   3.107  17.046 -2.3694  0.1917  0.2517
  662MPD2    H2 9801   3.278   2.709  17.060 -0.4944 -1.3007  0.0177
  662MPD2    H3 9802   3.263   2.914  16.947 -0.5408  0.3069 -0.8300
  662MPD2     N 9803   3.012   3.111  17.264  0.6481  0.5036 -0.4561
  662MPD2    H5 9804   3.000   3.189  17.201  0.1074  1.6385  1.0586
  662MPD2    N1 9805   3.162   2.651  17.305 -0.1528 -0.9896 -0.0999
  662MPD2    H7 9806   3.125   2.665  17.399  0.6788 -0.0592  0.0924
  663TMC3    C1 9807   3.070   2.448  17.325  0.8723 -0.3189  0.0613
  663TMC3    C2 9808   2.949   2.486  17.271 -0.3082  0.0557  0.1371
  663TMC3    C3 9809   2.835   2.498  17.349  0.6500 -0.2930  0.4551
  663TMC3    C4 9810   3.075   2.436  17.461 -0.3148 -0.2673  0.1471
  663TMC3    C5 9811   2.959   2.439  17.540 -0.4868  0.2771  0.2836
  663TMC3    C6 9812   2.840   2.470  17.482  0.0988 -0.3947 -0.5792
  663TMC3     C 9813   3.175   2.520  17.261 -0.2951 -0.4237 -0.1938
  663TMC3     O 9814   3.202   2.490  17.143 -0.1390  0.0811  0.1713
  663TMC3     H 9815   2.961   2.532  17.173 -0.9112  0.4589  0.2587
  663TMC3    H1 9816   3.162   2.423  17.524  0.5457 -0.2166 -1.0311
  663TMC3    H2 9817   2.746   2.450  17.532  0.7919 -3.2957 -0.4067
  663TMC3    C7 9818   2.944   2.346  17.652 -0.9772 -0.2095  0.1299
  663TMC3    C8 9819   2.763   2.626  17.311  0.2838  0.0945  0.1176
  663TMC3    O1 9820   3.043   2.332   0.025 -0.4067 -0.6028 -0.4986
  663TMC3    O2 9821   2.771   2.659  17.192 -0.4857  0.6501 -0.0497
  664MPD2     C 9822   0.725   1.902   0.163  0.8664 -0.5621  0.5457
  664MPD2    C1 9823   0.859   1.908   0.134 -0.1419 -0.1506  0.5568
  664MPD2    C2 9824   0.940   1.835   0.220 -0.2911 -0.0988  0.3165
  664MPD2    C3 9825   0.893   1.759   0.327 -0.3329  0.3518 -0.2467
  664MPD2    C4 9826   0.763   1.756   0.349 -0.2083  0.0032 -0.5309
  664MPD2    C5 9827   0.679   1.825   0.271  0.3738 -0.2110 -0.5887
  664MPD2     H 9828   1.047   1.833   0.199 -0.0127 -0.7383  1.8146
  664MPD2    H1 9829   0.718   1.709   0.436  0.0220  1.4092  0.3345
  664MPD2    H2 9830   0.651   1.954   0.103 -0.3809 -1.8062  1.0013
  664MPD2    H3 9831   0.577   1.833   0.307  1.0102  1.5933  0.8286
  664MPD2     N 9832   0.978   1.692   0.424 -0.4253  0.7754 -0.5087
  664MPD2    H5 9833   0.923   1.659   0.503  1.9579 -1.3156  0.2720
  664MPD2    N1 9834   0.920   1.983   0.031 -0.8570  0.3720  0.5503
  664MPD2    H7 9835   1.021   1.980   0.027 -0.9596  1.2643 -2.3957
  665TMC3    C1 9836   1.179   1.630   0.539 -0.1764 -0.4818  0.1076
  665TMC3    C2 9837   1.105   1.649   0.652 -0.0553 -0.1308  0.0498
  665TMC3    C3 9838   1.163   1.650   0.777 -0.4671 -0.3121  0.3799
  665TMC3    C4 9839   1.313   1.616   0.545 -0.2860  0.5209  0.4459
  665TMC3    C5 9840   1.379   1.625   0.668 -0.0821  0.1349 -1.3216
  665TMC3    C6 9841   1.301   1.630   0.785 -0.0309  0.2337 -0.1041
  665TMC3     C 9842   1.113   1.670   0.416 -0.0371  0.2358  0.8513
  665TMC3     O 9843   1.190   1.701   0.324 -0.2485 -0.5651  0.1670
  665TMC3     H 9844   0.998   1.632   0.649 -0.2594  1.2081 -0.2907
  665TMC3    H1 9845   1.364   1.615   0.449 -0.5763  0.6274  0.2920
  665TMC3    H2 9846   1.355   1.631   0.879 -0.0702 -1.6702 -0.0694
  665TMC3    C7 9847   1.493   1.720   0.658  0.4057 -0.1644  0.1603
  665TMC3    C8 9848   1.096   1.654   0.904 -0.4932  0.1324  0.0263
  665TMC3    O1 9849   1.563   1.723   0.554  0.1451  0.0788  0.1532
  665TMC3    O2 9850   1.167   1.628   1.003  0.0534  0.5096 -0.3170
  666TMC3    C1 9851   0.539   1.397   9.711 -0.3667  0.1366 -0.0490
  666TMC3    C2 9852   0.592   1.302   9.790  0.5541  0.3755 -0.7142
  666TMC3    C3 9853   0.702   1.341   9.865 -0.5557  0.3285 -0.3075
  666TMC3    C4 9854   0.596   1.517   9.688 -0.0127  0.6957  0.6135
  666TMC3    C5 9855   0.702   1.552   9.769 -0.7559  0.1415 -0.4976
  666TMC3    C6 9856   0.765   1.463   9.855 -0.7489 -0.0645  0.0561
  666TMC3     C 9857   0.438   1.358   9.611  0.6034  0.0214  0.4845
  666TMC3     O 9858   0.408   1.445   9.527 -0.3226  0.0114  0.0563
  666TMC3     H 9859   0.563   1.197   9.788 -2.9086  1.2761  4.5602
  666TMC3    H1 9860   0.557   1.589   9.617  2.8355  0.8500 -0.7748
  666TMC3    H2 9861   0.832   1.503   9.930 -0.1456  0.2027 -0.6258
  666TMC3    C7 9862   0.731   1.695   9.794 -0.2530  0.3999 -0.0949
  666TMC3    C8 9863   0.748   1.243   9.969  0.4481 -1.0276  0.9245
  666TMC3    O1 9864   0.763   1.737   9.902  0.4560  0.0829  0.1305
  666TMC3    O2 9865   0.670   1.149   9.984  0.4937 -0.5441 -0.2484
  667MPD2     C 9866   1.410   1.365  14.947 -0.3474  0.1179  0.1131
  667MPD2    C1 9867   1.381   1.444  15.059 -0.3420 -0.6555  0.9061
  667MPD2    C2 9868   1.250   1.430  15.107  0.2113 -0.8501 -0.8398
  667MPD2    C3 9869   1.155   1.359  15.039 -0.5252  0.3033 -0.0980
  667MPD2    C4 9870   1.187   1.294  14.925 -0.2120  0.2384  0.6407
  667MPD2    C5 9871   1.315   1.289  14.882 -0.2732  0.1345 -0.0877
  667MPD2     H 9872   1.223   1.480  15.199 -1.0100 -3.2497  0.1169
  667MPD2    H1 9873   1.122   1.232  14.866  0.2228  0.8091 -0.4342
  667MPD2    H2 9874   1.505   1.383  14.897  0.5288  0.5232  1.9202
  667MPD2    H3 9875   1.332   1.236  14.789 -2.2363 -0.1657 -0.2729
  667MPD2     N 9876   1.022   1.343  15.091 -0.3285 -0.2178 -0.5720
  667MPD2    H5 9877   1.004   1.366  15.188  2.2928  0.9576 -0.3660
  667MPD2    N1 9878   1.474   1.534  15.123 -0.1886 -0.0430 -0.3709
  667MPD2    H7 9879   1.452   1.574  15.214  0.5412 -0.0058 -0.2117
  668TMC3    C1 9880   1.664   1.684  15.143  0.4792  0.6953  0.8157
  668TMC3    C2 9881   1.737   1.766  15.065  0.3323 -0.6160  0.1038
  668TMC3    C3 9882   1.824   1.860  15.123 -1.1062  0.3592 -0.1164
  668TMC3    C4 9883   1.672   1.687  15.282  0.7483  0.6948  1.2986
  668TMC3    C5 9884   1.739   1.795  15.339 -0.2113 -0.1093  0.3914
  668TMC3    C6 9885   1.822   1.874  15.261 -0.5227  0.0260  0.2577
  668TMC3     C 9886   1.593   1.575  15.066  0.1188 -0.2886 -0.3425
  668TMC3     O 9887   1.649   1.548  14.959  0.2188 -0.4217 -0.2854
  668TMC3     H 9888   1.718   1.775  14.959 -0.5696 -0.9210  0.2451
  668TMC3    H1 9889   1.639   1.599  15.337  0.3107  0.1926  0.2320
  668TMC3    H2 9890   1.875   1.953  15.313 -1.7209  1.6101 -0.9309
  668TMC3    C7 9891   1.719   1.826  15.477  0.8186 -0.1320  0.3436
  668TMC3    C8 9892   1.849   1.981  15.056 -0.4473  0.5144 -0.0239
  668TMC3    O1 9893   1.811   1.889  15.524  0.0582 -0.8283 -0.2590
  668TMC3    O2 9894   1.864   2.080  15.125 -0.0496  0.2351  0.3558
  669TMC3    C1 9895   4.443   1.312  14.477 -0.4652 -0.8083 -0.2807
  669TMC3    C2 9896   4.345   1.397  14.430  0.9130  0.5211  0.3692
  669TMC3    C3 9897   4.380   1.510  14.363 -0.1763 -0.2060  0.4554
  669TMC3    C4 9898   4.577   1.356  14.462 -0.7271 -0.0770 -0.1863
  669TMC3    C5 9899   4.611   1.471  14.405 -0.3070  0.7835 -0.3049
  669TMC3    C6 9900   4.516   1.552  14.353  0.1199 -0.1361  0.5574
  669TMC3     C 9901   4.417   1.176  14.511  0.1942 -0.2279  0.3803
  669TMC3     O 9902   4.309   1.137  14.475 -0.3498 -0.3508  0.0737
  669TMC3     H 9903   4.241   1.367  14.426  0.0623  3.6906 -1.2163
  669TMC3    H1 9904   4.659   1.298  14.502  0.5610  0.6548 -1.7659
  669TMC3    H2 9905   4.550   1.637  14.295 -3.0601  0.0138 -1.0728
  669TMC3    C7 9906   0.018   1.481  14.343  0.0180  0.7032 -0.0008
  669TMC3    C8 9907   4.274   1.584  14.293  0.7750  1.2342  0.2621
  669TMC3    O1 9908   0.081   1.377  14.348  0.2679 -0.4467  0.2192
  669TMC3    O2 9909   4.156   1.575  14.327  0.3454  0.0234  0.4655
  670MPD2     C 9910   2.485   3.916  13.296  0.1875  0.0410 -0.0347
  670MPD2    C1 9911   2.608   3.909  13.353 -0.2439  0.6792  0.4007
  670MPD2    C2 9912   2.626   3.953  13.480  0.1487  0.0692 -0.1914
  670MPD2    C3 9913   2.519   4.008  13.550  0.2138  0.2293 -0.3111
  670MPD2    C4 9914   2.395   4.021  13.492 -0.8717 -0.5359 -0.4451
  670MPD2    C5 9915   2.382   3.976  13.365  0.8056 -0.3343  0.0956
  670MPD2     H 9916   2.728   3.954  13.518 -0.1405  2.0840  0.5235
  670MPD2    H1 9917   2.305   4.050  13.544  1.2044 -0.7091  3.2404
  670MPD2    H2 9918   2.459   3.873  13.200  0.0078 -1.0854  0.5189
  670MPD2    H3 9919   2.288   3.987  13.313  0.0753  0.9069  1.6762
  670MPD2     N 9920   2.539   4.027  13.686  0.1247  0.2879 -0.2640
  670MPD2    H5 9921   2.632   4.004  13.722  0.0212 -1.5061 -1.1396
  670MPD2    N1 9922   2.717   3.848  13.291 -0.6805 -0.7651 -0.4916
  670MPD2    H7 9923   2.803   3.829  13.342 -1.7302 -0.2877  1.4561
  671TMC3    C1 9924   2.506   4.071  13.908 -0.3634  0.6924  0.6076
  671TMC3    C2 9925   2.639   4.089  13.915  0.3634 -0.5963  0.1334
  671TMC3    C3 9926   2.708   4.054  14.024 -0.4803 -0.4763  0.5974
  671TMC3    C4 9927   2.436   4.015  14.014 -0.0975  0.3311  0.0261
  671TMC3    C5 9928   2.509   3.983  14.128 -0.0206 -0.1138 -0.2399
  671TMC3    C6 9929   2.645   3.989  14.132  0.3241 -0.8937  0.4311
  671TMC3     C 9930   2.446   4.059  13.779 -0.5989  0.6618  0.7147
  671TMC3     O 9931   2.325   4.052  13.773 -0.2185 -0.2596 -0.0584
  671TMC3     H 9932   2.691   4.159  13.850  1.4306 -0.0204  1.5905
  671TMC3    H1 9933   2.331   3.991  14.002  0.1473 -0.8716  0.3573
  671TMC3    H2 9934   2.694   3.992  14.228 -1.8392  0.1373  1.4926
  671TMC3    C7 9935   2.453   3.867  14.200  0.2926  0.1038 -0.8990
  671TMC3    C8 9936   2.847   4.018  13.995  0.4441 -0.0099 -0.3486
  671TMC3    O1 9937   2.334   3.843  14.183  0.1134  0.3141  0.1663
  671TMC3    O2 9938   2.904   4.062  13.899  0.0843  0.2497  0.2272
  672MPD2     C 9939   3.279   4.109   1.519 -0.0862 -0.2920  0.0270
  672MPD2    C1 9940   3.286   4.210   1.428 -0.2671 -0.7925 -0.5150
  672MPD2    C2 9941   3.302   4.340   1.470  1.2317 -0.0372  0.9401
  672MPD2    C3 9942   3.308   4.362   1.604  0.0778  0.3775 -0.0279
  672MPD2    C4 9943   3.312   4.258   1.694  0.1167 -0.6174  0.0113
  672MPD2    C5 9944   3.310   4.133   1.649 -0.7587 -0.3091  0.0277
  672MPD2     H 9945   3.326   4.422   1.404  0.7250  0.0751  0.8954
  672MPD2    H1 9946   3.332   4.268   1.800  0.9794  1.1657 -0.3066
  672MPD2    H2 9947   3.279   4.006   1.484 -1.4038 -1.4891  3.6008
  672MPD2    H3 9948   3.310   4.047   1.716  0.3863 -1.1672 -1.0530
  672MPD2     N 9949   3.319   4.493   1.658  0.0732  0.2062 -0.1625
  672MPD2    H5 9950   3.327   4.499   1.759 -2.1725  0.7295 -0.0138
  672MPD2    N1 9951   3.284   4.188   1.288  0.2782  0.4377 -0.6863
  672MPD2    H7 9952   3.297   4.276   1.240  0.0496  0.1115 -1.3359
  673TMC3    C1 9953   3.263   4.083   1.081  0.2191 -0.1998  0.5904
  673TMC3    C2 9954   3.358   4.158   1.027 -0.4340 -0.4491  0.1577
  673TMC3    C3 9955   3.331   4.224   0.907  0.0449  1.0020  0.4994
  673TMC3    C4 9956   3.144   4.066   1.023  0.2969  0.7060 -0.0194
  673TMC3    C5 9957   3.129   4.117   0.892 -0.2045  0.0910 -0.5426
  673TMC3    C6 9958   3.218   4.196   0.829 -0.3831  0.6679  0.3117
  673TMC3     C 9959   3.254   4.073   1.222  0.3907  0.5881  0.0085
  673TMC3     O 9960   3.199   3.973   1.265 -0.0177 -0.5113  0.2353
  673TMC3     H 9961   3.446   4.169   1.089  0.7859  0.1779 -1.6817
  673TMC3    H1 9962   3.066   4.010   1.073  0.8626 -0.6567 -0.6632
  673TMC3    H2 9963   3.190   4.245   0.737 -1.2952 -2.2243 -0.9578
  673TMC3    C7 9964   2.989   4.115   0.852 -0.8883 -0.6753  0.4108
  673TMC3    C8 9965   3.435   4.297   0.837 -0.1143 -0.1436  0.2504
  673TMC3    O1 9966   2.926   4.015   0.896  0.0500 -0.6550 -0.8532
  673TMC3    O2 9967   3.427   4.314   0.715 -0.2766 -0.1979  0.0696
  674MPD2     C 9968   3.062   4.316   0.382  0.1734  0.4052 -0.3612
  674MPD2    C1 9969   3.091   4.192   0.432 -0.2799 -0.2924  0.0090
  674MPD2    C2 9970   2.983   4.113   0.457 -0.1115  1.0379 -0.4664
  674MPD2    C3 9971   2.856   4.151   0.435  0.3146  0.4144  0.5275
  674MPD2    C4 9972   2.831   4.274   0.390  1.0685 -0.3901  0.0355
  674MPD2    C5 9973   2.933   4.360   0.359 -0.0096  0.8477  0.4516
  674MPD2     H 9974   3.009   4.014   0.494 -1.4057  0.5514 -0.8532
  674MPD2    H1 9975   2.726   4.298   0.381  1.0904  0.1051  1.0848
  674MPD2    H2 9976   3.135   4.387   0.345  1.6259 -0.8636  0.1205
  674MPD2    H3 9977   2.912   4.463   0.332  0.3270  0.9213  0.4723
  674MPD2     N 9978   2.757   4.050   0.473 -0.6274 -0.0485  0.7644
  674MPD2    H5 9979   2.796   3.969   0.520 -2.0863 -1.3553 -0.2773
  674MPD2    N1 9980   3.231   4.156   0.458  0.5011 -0.2913  0.2362
  674MPD2    H7 9981   3.300   4.226   0.431  0.7385  0.2882  2.3505
  675TMC3    C1 9982   3.421   4.056   0.557  0.1365 -0.1319  0.2408
  675TMC3    C2 9983   3.465   3.982   0.659 -0.3508 -0.0007 -0.0229
  675TMC3    C3 9984   3.590   4.000   0.700  0.6655  0.9016  0.0711
  675TMC3    C4 9985   3.504   4.125   0.477 -0.1887 -0.0261  0.6870
  675TMC3    C5 9986   3.636   4.141   0.514  0.0760 -0.2984  0.2967
  675TMC3    C6 9987   3.678   4.078   0.628 -0.0238 -0.1524  0.1043
  675TMC3     C 9988   3.275   4.046   0.524  0.4158 -0.1058 -0.2437
  675TMC3     O 9989   3.211   3.949   0.565 -0.7091  0.4987  0.8219
  675TMC3     H 9990   3.405   3.914   0.719 -2.5896  0.0064 -2.2870
  675TMC3    H1 9991   3.463   4.170   0.387  2.2839 -0.4363 -0.6300
  675TMC3    H2 9992   3.778   4.101   0.663  0.2776 -0.9276 -0.2587
  675TMC3    C7 9993   3.723   4.226   0.436 -0.3189  0.0244 -0.5464
  675TMC3    C8 9994   3.633   3.926   0.814  0.3164 -0.5967  0.1169
  675TMC3    O1 9995   3.667   4.296   0.355 -0.2822 -0.0473 -0.0439
  675TMC3    O2 9996   3.565   3.830   0.849  0.6686  0.4271 -0.1653
  676MPD2     C 9997   1.365   2.324  10.981  0.8025 -0.0679  0.5790
  676MPD2    C1 9998   1.237   2.290  11.012  0.0866 -0.3650 -0.0034
  676MPD2    C2 9999   1.205   2.156  11.014  0.8065 -0.6471  0.0306
  676MPD2    C310000   1.288   2.058  10.965  0.2935 -0.2546 -0.2063
  676MPD2    C410001   1.414   2.095  10.930 -0.1157  0.4019 -0.0141
  676MPD2    C510002   1.453   2.228  10.937  1.2924  0.5918 -0.0842
  676MPD2     H10003   1.106   2.120  11.039 -0.2254  3.0656  1.1561
  676MPD2    H110004   1.489   2.022  10.901  1.0024  1.2953  0.6553
  676MPD2    H210005   1.405   2.424  10.987 -1.2470  0.7757 -0.2528
  676MPD2    H310006   1.554   2.263  10.917  0.8760 -0.3668 -3.7247
  676MPD2     N10007   1.255   1.920  10.953  0.5650  1.0565  0.6764
  676MPD2    H510008   1.324   1.852  10.922 -1.9494 -1.0060 -0.4495
  676MPD2    N110009   1.137   2.379  11.067 -0.0719  0.2320  0.1591
  676MPD2    H710010   1.073   2.340  11.135 -1.8280  0.1526 -1.5427
  677TMC3    C110011   1.033   2.580  11.130 -0.9089  0.7307 -0.6303
  677TMC3    C210012   0.915   2.515  11.132  0.0408 -0.1632  0.9242
  677TMC3    C310013   0.810   2.564  11.210 -0.3947  0.0929  0.8293
  677TMC3    C410014   1.057   2.692  11.205  0.0377 -0.3162 -1.3988
  677TMC3    C510015   0.958   2.738  11.288  0.1886  0.2348 -0.3329
  677TMC3    C610016   0.832   2.677  11.283 -0.2620 -0.3534 -0.2882
  677TMC3     C10017   1.146   2.515  11.073  0.4932  0.5119 -1.0171
  677TMC3     O10018   1.235   2.584  11.037 -0.1481  0.1367  0.2371
  677TMC3     H10019   0.897   2.422  11.079  0.4555  0.0560  0.3940
  677TMC3    H110020   1.152   2.745  11.205 -0.5122  0.6874 -0.4182
  677TMC3    H210021   0.751   2.724  11.338  0.5619 -1.2685  1.7028
  677TMC3    C710022   0.998   2.785  11.418  0.5922 -0.9623  0.4782
  677TMC3    C810023   0.679   2.496  11.214 -0.4111 -0.0981 -0.0455
  677TMC3    O110024   0.916   2.753  11.504  0.2459  0.2860  1.1879
  677TMC3    O210025   0.616   2.511  11.113 -0.4751  0.1495  0.0541
  678MPD2     C10026   2.506   2.981   1.603 -0.5218  0.4390  0.2427
  678MPD2    C110027   2.521   2.862   1.534 -0.1187  0.1740  0.8372
  678MPD2    C210028   2.427   2.762   1.550  0.2405  0.0335  0.6113
  678MPD2    C310029   2.314   2.785   1.625 -0.0689 -0.6811 -0.0152
  678MPD2    C410030   2.298   2.908   1.691 -0.2429 -0.0949 -0.5380
  678MPD2    C510031   2.391   3.002   1.674  0.1157  0.0832 -0.0194
  678MPD2     H10032   2.440   2.663   1.509  1.5148  0.0181  1.0332
  678MPD2    H110033   2.213   2.933   1.753  2.0567  1.5891  1.8840
  678MPD2    H210034   2.572   3.067   1.602  0.5061 -0.3480  0.8457
  678MPD2    H310035   2.372   3.099   1.718  0.3523 -0.0665  0.4148
  678MPD2     N10036   2.213   2.688   1.603 -0.2479 -0.7177 -0.1039
  678MPD2    H510037   2.239   2.620   1.532 -0.7298 -2.7987  1.7168
  678MPD2    N110038   2.629   2.836   1.450  0.3208  0.4698 -1.0820
  678MPD2    H710039   2.644   2.741   1.419 -1.3424  0.0271 -0.4906
  679TMC3    C110040   2.878   2.646   1.234 -0.8530 -0.2207 -0.6713
  679TMC3    C210041   2.845   2.734   1.329  0.6005  0.2890 -0.0591
  679TMC3    C310042   2.803   2.858   1.299 -0.4524  0.9667  0.1532
  679TMC3    C410043   2.861   2.685   1.102  0.7350  0.8266  0.7944
  679TMC3    C510044   2.808   2.806   1.072 -0.5543 -0.0744 -0.4448
  679TMC3    C610045   2.774   2.890   1.173  0.0066 -0.3342 -0.0536
  679TMC3     C10046   2.940   2.516   1.270  0.0411  0.3912  0.2015
  679TMC3     O10047   2.937   2.440   1.176 -0.5065 -0.0577  0.2087
  679TMC3     H10048   2.845   2.718   1.436  0.6519 -0.0473 -0.1092
  679TMC3    H110049   2.870   2.598   1.037 -1.4366  0.4915  0.9688
  679TMC3    H210050   2.714   2.978   1.154  0.6686  0.1045 -0.1040
  679TMC3    C710051   2.737   2.828   0.946  0.2958  0.6755  0.6553
  679TMC3    C810052   2.722   2.924   1.405 -0.4922  0.2007 -0.1141
  679TMC3    O110053   2.661   2.923   0.928  0.5618  0.6320  0.0618
  679TMC3    O210054   2.709   3.046   1.409  0.6176  0.4250 -0.5466
  680MPD2     C10055   1.958   1.428  13.765  0.5360  0.5962 -0.6279
  680MPD2    C110056   2.066   1.346  13.778  0.2241  0.4918  0.5905
  680MPD2    C210057   2.190   1.400  13.783 -0.5787  0.0612 -0.6274
  680MPD2    C310058   2.207   1.538  13.769  0.1077 -0.1711 -0.1798
  680MPD2    C410059   2.090   1.621  13.764 -0.2631  0.5348  0.0831
  680MPD2    C510060   1.967   1.562  13.752  0.8372 -0.6249 -0.3851
  680MPD2     H10061   2.278   1.337  13.793  0.1940  1.2818  0.3205
  680MPD2    H110062   2.094   1.729  13.765  1.6670  0.4711 -1.0076
  680MPD2    H210063   1.856   1.393  13.756 -0.0563  2.0704  0.3566
  680MPD2    H310064   1.887   1.630  13.724  0.8369 -1.7182 -3.0723
  680MPD2     N10065   2.340   1.597  13.769  0.7995 -0.1395 -0.4454
  680MPD2    H510066   2.334   1.697  13.756  0.8960 -0.3504 -2.1504
  680MPD2    N110067   2.053   1.204  13.791  0.4985  0.2396  0.1292
  680MPD2    H710068   2.139   1.152  13.808 -0.2487 -0.7790  0.8224
  681TMC3    C110069   1.969   0.993  13.796  0.3016  0.2380 -0.1104
  681TMC3    C210070   1.924   0.947  13.919  0.4847 -0.0397 -0.6545
  681TMC3    C310071   2.011   0.874  13.993 -0.6878  0.2208 -0.0254
  681TMC3    C410072   2.093   0.950  13.750  0.2065  0.2359 -0.1809
  681TMC3    C510073   2.171   0.868  13.823  0.1356 -0.0346  0.3500
  681TMC3    C610074   2.127   0.823  13.938  0.1811 -0.0054  0.5680
  681TMC3     C10075   1.938   1.134  13.779 -0.0840  0.4391 -0.7306
  681TMC3     O10076   1.823   1.171  13.798  0.3080  0.3061 -0.1794
  681TMC3     H10077   1.840   1.000  13.962 -0.7422 -2.7242  0.2884
  681TMC3    H110078   2.125   0.983  13.652  0.8666 -0.4948 -0.2056
  681TMC3    H210079   2.178   0.755  14.006  1.2098 -0.2922 -0.4960
  681TMC3    C710080   2.292   0.799  13.774  0.4454  0.2320  0.6741
  681TMC3    C810081   2.011   0.930  14.131 -0.3159 -1.1799 -0.0111
  681TMC3    O110082   2.352   0.732  13.855 -0.0701  0.0164 -0.1169
  681TMC3    O210083   1.904   0.973  14.178  0.6733  0.0272 -0.3088
  682MPD2     C10084   0.380   2.652  10.631  0.5567 -0.0960 -0.1849
  682MPD2    C110085   0.333   2.529  10.639 -0.6143  0.7899  0.1368
  682MPD2    C210086   0.264   2.487  10.757 -0.0252 -0.2746  0.2373
  682MPD2    C310087   0.264   2.563  10.871  0.5155  0.1885  0.2086
  682MPD2    C410088   0.326   2.681  10.868  0.4596  0.0241 -0.2710
  682MPD2    C510089   0.378   2.727  10.750 -0.1909  0.1993  0.5805
  682MPD2     H10090   0.218   2.390  10.763  0.5620 -0.5561  0.2219
  682MPD2    H110091   0.340   2.746  10.954  0.2687 -1.3947  0.8448
  682MPD2    H210092   0.422   2.691  10.540  0.7743  0.1352  0.0151
  682MPD2    H310093   0.408   2.831  10.750  0.5401 -0.0112  1.6900
  682MPD2     N10094   0.205   2.523  10.993 -0.2784 -0.0207  0.2794
  682MPD2    H510095   0.211   2.585  11.073 -1.0406  0.0396  0.2920
  682MPD2    N110096   0.327   2.439  10.528  0.0681 -0.3684  0.1249
  682MPD2    H710097   0.277   2.353  10.547  0.2562 -0.1556  1.5582
  683TMC3    C110098   0.138   2.371  11.383 -0.4797  0.4411 -0.9038
  683TMC3    C210099   0.041   2.276  11.406  0.5557 -1.3806  0.1072
  683TMC3    C310100   4.681   2.237  11.297 -0.4262 -0.3243  0.1099
  683TMC3    C410101   0.156   2.419  11.257  0.2321 -0.0973  0.2393
  683TMC3    C510102   0.075   2.375  11.152 -0.5997  0.4435 -0.4312
  683TMC3    C610103   4.699   2.287  11.175 -0.2580 -0.5389 -0.0819
  683TMC3     C10104   0.216   2.430  11.486  0.6288 -0.2100  0.5260
  683TMC3     O10105   0.260   2.540  11.467  0.2509  0.4422  0.2646
  683TMC3     H10106   0.020   2.249  11.508  0.0628 -1.5576 -0.0418
  683TMC3    H110107   0.234   2.493  11.240 -0.3210  0.2044 -0.9467
  683TMC3    H210108   4.627   2.248  11.104  1.0265  1.3164 -2.3643
  683TMC3    C710109   0.113   2.414  11.008  0.1777  0.1388  0.4711
  683TMC3    C810110   4.604   2.113  11.307 -0.1667  0.6714 -0.7673
  683TMC3    O110111   0.061   2.350  10.918  0.3634  0.1798  0.3841
  683TMC3    O210112   4.556   2.065  11.205  0.3434 -0.3508 -0.0739
  684MPD2     C10113   2.891   1.862  16.612  0.2737 -0.2728 -0.4942
  684MPD2    C110114   2.842   1.938  16.505 -0.6300  0.3329 -0.1300
  684MPD2    C210115   2.865   2.075  16.505 -0.1825  0.6202  0.1939
  684MPD2    C310116   2.949   2.132  16.601 -0.3935 -0.3917  0.8023
  684MPD2    C410117   2.990   2.063  16.707  0.4956 -0.6117 -0.1844
  684MPD2    C510118   2.958   1.929  16.711 -0.2623 -0.6854 -0.6505
  684MPD2     H10119   2.825   2.126  16.419  0.2780 -1.8959 -1.5244
  684MPD2    H110120   3.059   2.111  16.776  1.2498 -0.6910 -0.8900
  684MPD2    H210121   2.880   1.754  16.613  0.3223 -0.2644  0.7089
  684MPD2    H310122   2.993   1.874  16.797 -1.1052  0.8595  0.6883
  684MPD2     N10123   2.998   2.261  16.591 -0.8046 -0.2705  0.0285
  684MPD2    H510124   3.079   2.281  16.649  0.3130  0.1785 -1.7118
  684MPD2    N110125   2.746   1.878  16.410  0.3701 -0.3627 -0.2274
  684MPD2    H710126   2.687   1.944  16.362  0.6842  0.5077  0.5732
  685TMC3    C110127   2.609   1.696  16.326 -0.8415 -0.8479 -0.1878
  685TMC3    C210128   2.537   1.786  16.260  0.4103  0.1160 -0.1660
  685TMC3    C310129   2.467   1.739  16.149 -0.1053 -0.1059  0.0956
  685TMC3    C410130   2.618   1.562  16.291  0.4651 -0.0741 -0.0032
  685TMC3    C510131   2.563   1.522  16.175 -0.0810  0.6357 -0.0857
  685TMC3    C610132   2.476   1.607  16.107 -0.4357 -0.2404  0.4728
  685TMC3     C10133   2.723   1.740  16.399 -0.4667 -1.5277 -0.6399
  685TMC3     O10134   2.802   1.654  16.430  0.1711  0.0104  0.0084
  685TMC3     H10135   2.530   1.891  16.287 -0.3926  0.0150  0.0308
  685TMC3    H110136   2.663   1.492  16.361 -2.2728 -1.1890  0.6336
  685TMC3    H210137   2.416   1.575  16.022  0.1307 -3.1061  1.1358
  685TMC3    C710138   2.663   1.467  16.090  0.4505  1.0750 -0.5171
  685TMC3    C810139   2.415   1.831  16.047  0.0100  0.3172  0.2101
  685TMC3    O110140   2.655   1.501  15.971 -0.2424 -0.2945  0.4332
  685TMC3    O210141   2.421   1.791  15.931  0.7442  0.2354 -0.3318
  686MPD2     C10142   4.321   1.787  15.663  0.3983 -0.2245  0.3421
  686MPD2    C110143   4.270   1.699  15.757 -0.1981  0.2375 -0.1487
  686MPD2    C210144   4.353   1.595  15.804  0.0643 -0.1673  0.1742
  686MPD2    C310145   4.485   1.581  15.756 -0.2389 -0.3436  0.0696
  686MPD2    C410146   4.535   1.677  15.671 -0.8574  0.2877 -0.0620
  686MPD2    C510147   4.454   1.774  15.618  0.2527  0.4505  0.0981
  686MPD2     H10148   4.307   1.524  15.871  0.9977  0.4169  1.4244
  686MPD2    H110149   4.641   1.676  15.646 -0.8884  0.5421 -0.2040
  686MPD2    H210150   4.259   1.868  15.625  0.6760 -1.3778 -2.6201
  686MPD2    H310151   4.498   1.846  15.550  1.8803 -1.4006 -0.8262
  686MPD2     N10152   4.543   1.458  15.791  0.2342 -0.2050  0.2565
  686MPD2    H510153   4.492   1.403  15.859 -1.1854  1.9619  0.9422
  686MPD2    N110154   4.141   1.685  15.791 -0.2766  0.6345 -0.4663
  686MPD2    H710155   4.117   1.620  15.865 -0.2378  0.8388 -0.2728
  687TMC3    C110156   4.613   1.256  15.751  0.2884 -0.5571 -0.0418
  687TMC3    C210157   4.486   1.226  15.724  0.2584 -0.3275 -0.0897
  687TMC3    C310158   4.408   1.162  15.816  0.3787 -0.2947  0.2384
  687TMC3    C410159   4.674   1.220  15.869  0.1985 -0.6037 -0.2141
  687TMC3    C510160   4.595   1.146  15.957 -0.1197  0.1385 -0.2607
  687TMC3    C610161   4.457   1.112  15.929 -0.0613  0.0128  0.0820
  687TMC3     C10162   4.642   1.394  15.728  0.2835  1.0486  0.0349
  687TMC3     O10163   4.706   1.444  15.635 -0.2125 -0.4102 -0.2111
  687TMC3     H10164   4.456   1.264  15.627  1.8528  2.9282  0.7035
  687TMC3    H110165   0.041   1.268  15.904 -1.5009  1.7974  0.9034
  687TMC3    H210166   4.398   1.060  16.003  0.7944 -1.2159 -0.0864
  687TMC3    C710167   4.625   1.155  16.094  0.4268  0.8596  0.2808
  687TMC3    C810168   4.269   1.192  15.831 -0.6053 -0.6199  0.2361
  687TMC3    O110169   4.552   1.185  16.189  0.0713  0.2575  0.2932
  687TMC3    O210170   4.197   1.134  15.913  0.7516 -0.0735 -0.4276
  688MPD2     C10171   3.206   0.827  17.377 -0.6324  0.1861 -0.9682
  688MPD2    C110172   3.236   0.692  17.410  0.2694 -0.7009  0.5816
  688MPD2    C210173   3.327   0.620  17.338 -0.2353 -1.0924 -0.3218
  688MPD2    C310174   3.392   0.684  17.234  0.1125 -0.0568 -0.0080
  688MPD2    C410175   3.369   0.816  17.205  0.3260 -0.2489  0.6919
  688MPD2    C510176   3.282   0.892  17.282  0.8966 -0.2067  0.0062
  688MPD2     H10177   3.358   0.523  17.376 -1.1080 -0.6245  1.5566
  688MPD2    H110178   3.425   0.869  17.130  1.8904 -1.3340  1.1058
  688MPD2    H210179   3.142   0.894  17.434  1.9776  0.7338  1.2917
  688MPD2    H310180   3.268   0.999  17.284 -2.2592 -0.6277  1.3254
  688MPD2     N10181   3.495   0.621  17.153  0.1023  0.3831  0.5449
  688MPD2    H510182   3.553   0.686  17.101  1.1058 -2.3675 -1.7787
  688MPD2    N110183   3.177   0.627  17.522 -0.6199  0.2120  0.4101
  688MPD2    H710184   3.211   0.535  17.551  1.9155  0.8848 -0.4772
  689TMC3    C110185   3.089   0.607   0.034  0.4422 -0.3434  0.5648
  689TMC3    C210186   3.106   0.664   0.152  0.1701 -0.4387 -0.2794
  689TMC3    C310187   3.079   0.591   0.263  0.1632  0.0231 -0.7392
  689TMC3    C410188   3.050   0.478   0.026  0.4609 -0.7883 -0.9181
  689TMC3    C510189   3.021   0.409   0.139 -0.2776 -0.3519 -0.2302
  689TMC3    C610190   3.037   0.466   0.260 -0.5745  1.3191 -0.3988
  689TMC3     C10191   3.104   0.689  17.619 -0.8000 -0.4857  0.0909
  689TMC3     O10192   3.068   0.804  17.626  0.2596 -0.2923 -0.5092
  689TMC3     H10193   3.114   0.771   0.160 -1.5497 -0.3949  0.7315
  689TMC3    H110194   3.047   0.438  17.621  0.2522  2.5642 -2.2669
  689TMC3    H210195   3.017   0.413   0.353 -2.1577  3.7367  0.6582
  689TMC3    C710196   3.009   0.265   0.139  0.0247  0.1555 -0.0580
  689TMC3    C810197   3.095   0.654   0.395 -0.4154  0.7237  0.2815
  689TMC3    O110198   3.025   0.209   0.247 -0.1214  0.1709  0.1270
  689TMC3    O210199   3.026   0.620   0.489  0.0483 -0.4995  0.2683
  690MPD2     C10200   0.707   2.618  15.729  0.6529  0.3193  0.3136
  690MPD2    C110201   0.722   2.528  15.628 -0.0384 -0.4959 -0.5260
  690MPD2    C210202   0.833   2.530  15.549  0.8963  0.9190 -0.3817
  690MPD2    C310203   0.939   2.609  15.581 -0.4027 -0.1409 -0.5394
  690MPD2    C410204   0.929   2.683  15.697  0.3152 -0.5972 -0.0404
  690MPD2    C510205   0.811   2.698  15.770  0.4491 -1.0211  0.1585
  690MPD2     H10206   0.843   2.460  15.467  1.8726  0.3303  0.2489
  690MPD2    H110207   1.014   2.738  15.734  0.7489 -0.5052 -1.1805
  690MPD2    H210208   0.616   2.630  15.787  0.1915  0.1651 -0.3753
  690MPD2    H310209   0.802   2.752  15.864  1.6472 -0.6949  0.0833
  690MPD2     N10210   1.061   2.601  15.507  0.4244  0.6303 -0.0220
  690MPD2    H510211   1.055   2.561  15.414 -0.0063  0.0295  0.2641
  690MPD2    N110212   0.635   2.424  15.607 -0.1454  0.0818  0.4717
  690MPD2    H710213   0.643   2.361  15.527  1.8807  1.4395 -0.3856
  691TMC3    C110214   0.473   2.273  15.673 -0.2492  0.3553  1.3939
  691TMC3    C210215   0.353   2.247  15.736 -0.2470 -0.1619  1.1451
  691TMC3    C310216   0.311   2.118  15.744 -0.1213  0.5868  0.0044
  691TMC3    C410217   0.545   2.179  15.596 -0.0152 -0.1063  0.1502
  691TMC3    C510218   0.499   2.050  15.611 -0.2205  0.1895  0.2952
  691TMC3    C610219   0.388   2.019  15.687  0.0208 -0.0216 -0.9088
  691TMC3     C10220   0.523   2.403  15.682  0.5366 -0.3857 -0.1491
  691TMC3     O10221   0.462   2.480  15.756  0.3228 -0.6093 -0.6485
  691TMC3     H10222   0.300   2.333  15.775 -0.4754  0.2448 -0.0538
  691TMC3    H110223   0.643   2.196  15.554  0.0566  2.7298  1.4229
  691TMC3    H210224   0.367   1.914  15.704  1.7099  0.0835  2.0067
  691TMC3    C710225   0.576   1.940  15.559  0.2405 -0.7003 -0.0225
  691TMC3    C810226   0.180   2.082  15.797 -0.0445 -1.0320  0.2176
  691TMC3    O110227   0.690   1.954  15.516  0.2943  0.1627 -0.6502
  691TMC3    O210228   0.131   1.976  15.751  0.2980  0.0690 -0.2235
  692TMC3    C110229   2.752   3.592  16.047  0.6693  0.6667  0.3485
  692TMC3    C210230   2.874   3.619  16.110 -0.2253 -0.4914  1.1561
  692TMC3    C310231   2.965   3.519  16.100 -0.2535 -0.1457 -0.1655
  692TMC3    C410232   2.722   3.475  15.976  0.1354  0.4410  0.6206
  692TMC3    C510233   2.817   3.381  15.982 -0.7870  0.0681  0.0564
  692TMC3    C610234   2.948   3.407  16.019  0.0778 -0.1448  0.4055
  692TMC3     C10235   2.640   3.679  16.076  0.6591  0.4668 -0.8727
  692TMC3     O10236   2.532   3.620  16.073 -0.2817  0.6863  0.3607
  692TMC3     H10237   2.881   3.711  16.168 -0.1025  0.7585 -0.8511
  692TMC3    H110238   2.623   3.456  15.935 -0.4886  0.2284  2.2115
  692TMC3    H210239   3.022   3.327  16.017 -1.0463 -1.2473  2.0380
  692TMC3    C710240   2.764   3.242  15.969 -0.0355 -0.1714 -0.0532
  692TMC3    C810241   3.010   3.487  16.239 -0.1445 -0.6599 -0.0998
  692TMC3    O110242   2.664   3.226  15.901 -0.0961  0.8559  0.0878
  692TMC3    O210243   3.036   3.370  16.246 -0.0577  0.3859 -0.4619
  693MPD2     C10244   1.991   1.580  10.506  0.3292 -0.2187  0.3285
  693MPD2    C110245   1.960   1.443  10.516 -0.4050 -1.3056 -0.9574
  693MPD2    C210246   2.058   1.347  10.500  0.2862  0.8648 -0.2781
  693MPD2    C310247   2.186   1.392  10.495 -0.3299 -0.5503  0.4509
  693MPD2    C410248   2.215   1.523  10.488 -0.5816  0.4657 -0.1566
  693MPD2    C510249   2.120   1.624  10.501  0.4840  0.3004 -0.0011
  693MPD2     H10250   2.036   1.243  10.519 -0.2153  1.1158  0.5574
  693MPD2    H110251   2.319   1.555  10.489  0.5697 -3.3163  1.4797
  693MPD2    H210252   1.906   1.646  10.524  2.0190  1.8594  0.7174
  693MPD2    H310253   2.138   1.730  10.501 -2.3214  0.7743  0.4521
  693MPD2     N10254   2.291   1.301  10.509  0.0872  1.0242  0.2146
  693MPD2    H510255   2.385   1.337  10.520  0.3738  0.6551 -0.9474
  693MPD2    N110256   1.829   1.399  10.552 -0.1906  0.4612 -0.7582
  693MPD2    H710257   1.764   1.471  10.583 -0.5483 -0.8152  1.4710
  694TMC3    C110258   1.641   1.260  10.569 -0.4414 -0.4227 -0.3760
  694TMC3    C210259   1.579   1.152  10.515 -0.3320 -0.3515  0.4005
  694TMC3    C310260   1.467   1.108  10.582 -0.7245  0.5936 -0.1936
  694TMC3    C410261   1.611   1.313  10.694 -0.2606  0.0909 -0.0354
  694TMC3    C510262   1.502   1.259  10.753  0.0204 -0.2053 -0.4382
  694TMC3    C610263   1.418   1.164  10.704  0.1304 -0.2024  0.3038
  694TMC3     C10264   1.776   1.270  10.538 -0.3120  0.5258  0.0590
  694TMC3     O10265   1.827   1.178  10.473  0.5822 -0.0298  0.1287
  694TMC3     H10266   1.603   1.125  10.413 -0.3752  0.2489  0.2319
  694TMC3    H110267   1.671   1.384  10.750  1.6717 -1.7591  0.2351
  694TMC3    H210268   1.322   1.141  10.750 -0.5279 -0.2971 -1.1166
  694TMC3    C710269   1.477   1.300  10.888  0.1872 -0.0622 -0.2230
  694TMC3    C810270   1.390   0.999  10.527 -0.2481 -0.0223 -0.3477
  694TMC3    O110271   1.527   1.409  10.920  0.6244  0.7547  0.9062
  694TMC3    O210272   1.335   0.923  10.606  0.5747  0.3632  0.3578
  695MPD2     C10273   2.742   3.049  13.822 -0.2248  0.0163  0.0604
  695MPD2    C110274   2.714   3.071  13.956  0.2939  0.0279 -0.0281
  695MPD2    C210275   2.588   3.097  14.004  1.0493 -0.4541  0.6531
  695MPD2    C310276   2.480   3.113  13.926 -0.3831  0.1325  0.5471
  695MPD2    C410277   2.503   3.093  13.789 -0.4004  0.3519  0.4724
  695MPD2    C510278   2.628   3.069  13.740  0.0347  0.4273  0.6523
  695MPD2     H10279   2.572   3.107  14.110  0.6148  1.0477  0.4442
  695MPD2    H110280   2.421   3.079  13.720  0.5889  0.3996 -0.6974
  695MPD2    H210281   2.840   3.022  13.785 -0.2735 -0.3008  0.1656
  695MPD2    H310282   2.644   3.052  13.634 -0.4136  2.9641  0.1704
  695MPD2     N10283   2.357   3.157  13.985 -0.1386  0.5314  0.4491
  695MPD2    H510284   2.354   3.169  14.086 -1.3951 -2.1436  0.7281
  695MPD2    N110285   2.815   3.076  14.055  0.0771  0.7261  0.1216
  695MPD2    H710286   2.790   3.111  14.147  0.1382 -1.6757  1.0550
  696TMC3    C110287   2.129   3.226  13.986  0.2223 -0.2252 -0.4650
  696TMC3    C210288   2.148   3.237  14.124  0.7019 -0.1031  0.8318
  696TMC3    C310289   2.069   3.331  14.195 -0.1496  0.4411  0.5640
  696TMC3    C410290   2.044   3.314  13.924 -0.6098  0.5457 -0.1672
  696TMC3    C510291   1.962   3.394  14.003 -0.2655 -0.7932  0.2997
  696TMC3    C610292   1.977   3.408  14.137  0.2839  0.4490  0.1448
  696TMC3     C10293   2.247   3.192  13.907  0.6962 -0.1216 -0.0849
  696TMC3     O10294   2.241   3.193  13.787  0.4293 -0.2952 -0.7464
  696TMC3     H10295   2.222   3.178  14.177  2.3278  1.7807  0.6394
  696TMC3    H110296   2.048   3.324  13.816 -0.2649  1.2827 -0.0839
  696TMC3    H210297   1.926   3.482  14.198 -1.6439 -0.7314 -0.0544
  696TMC3    C710298   1.920   3.513  13.938  0.2409  0.7037  0.7966
  696TMC3    C810299   2.158   3.430  14.241 -0.4120 -0.0547 -0.1742
  696TMC3    O110300   1.871   3.500  13.825  0.3743  0.0243  0.2965
  696TMC3    O210301   2.127   3.545  14.209 -0.2219 -0.2186  0.1052
  697MPD2     C10302   1.992   0.683  15.915  0.5960  0.1665 -0.2413
  697MPD2    C110303   2.051   0.614  15.808  0.3738  0.1247  0.3362
  697MPD2    C210304   2.094   0.688  15.695  0.1474  0.2179  0.1135
  697MPD2    C310305   2.084   0.827  15.692  0.5010 -0.3734  0.1833
  697MPD2    C410306   2.011   0.887  15.794  0.6076  0.1727  0.2495
  697MPD2    C510307   1.962   0.815  15.902  0.5497 -0.3977  0.1094
  697MPD2     H10308   2.135   0.635  15.610 -0.2953  1.0612 -0.6274
  697MPD2    H110309   2.006   0.995  15.791 -0.2829  0.0590 -2.3338
  697MPD2    H210310   1.962   0.629  16.003  2.5535 -0.3354  0.1311
  697MPD2    H310311   1.926   0.874  15.986  0.7167  0.1284 -0.1927
  697MPD2     N10312   2.137   0.887  15.582  0.4141 -0.0950  0.1260
  697MPD2    H510313   2.185   0.816  15.528 -2.1460 -1.0635 -0.8746
  697MPD2    N110314   2.072   0.476  15.803 -0.1866 -0.2306  0.1878
  697MPD2    H710315   2.117   0.444  15.718 -1.3863 -0.1278 -0.4877
  698TMC3    C110316   2.221   1.057  15.430 -0.4202 -0.1730 -0.4751
  698TMC3    C210317   2.237   1.193  15.409  0.7215  0.1142 -0.1981
  698TMC3    C310318   2.324   1.225  15.304  0.2639  0.2281 -0.9153
  698TMC3    C410319   2.311   0.961  15.378 -0.2456 -0.5453  0.4234
  698TMC3    C510320   2.399   1.004  15.284 -0.4474 -0.0200 -0.3780
  698TMC3    C610321   2.413   1.137  15.253 -0.0457  0.5240  0.4287
  698TMC3     C10322   2.146   1.024  15.550 -0.5747 -0.5414 -0.5689
  698TMC3     O10323   2.103   1.121  15.614 -0.7798 -0.3746 -0.0268
  698TMC3     H10324   2.144   1.246  15.424  0.0602 -1.3363  0.7957
  698TMC3    H110325   2.298   0.855  15.393 -0.1434 -0.4136  1.4840
  698TMC3    H210326   2.485   1.171  15.180 -0.9326  0.1135 -0.6314
  698TMC3    C710327   2.407   0.909  15.174  0.1364  0.0094  0.1337
  698TMC3    C810328   2.352   1.366  15.303  0.4221  0.1741 -0.2372
  698TMC3    O110329   2.308   0.831  15.168  0.4737 -0.1615 -0.0264
  698TMC3    O210330   2.323   1.423  15.408  0.0179 -0.2778  0.1283
  699TMC3    C110331   2.229   3.803  12.904 -0.2239 -0.3224  0.6557
  699TMC3    C210332   2.297   3.711  12.983  0.0325 -0.4778 -0.1298
  699TMC3    C310333   2.262   3.693  13.115 -0.0262 -0.0077  0.4170
  699TMC3    C410334   2.125   3.872  12.955  0.2556 -0.1153 -0.1643
  699TMC3    C510335   2.077   3.846  13.085 -0.3966  0.2837 -0.0529
  699TMC3    C610336   2.157   3.768  13.167 -0.1402  0.0397 -0.4985
  699TMC3     C10337   2.284   3.871  12.797  0.0352 -1.3846  0.1629
  699TMC3     O10338   2.217   3.944  12.722  0.1437 -0.7942  0.5471
  699TMC3     H10339   2.365   3.643  12.932 -0.0873  0.3422 -1.3837
  699TMC3    H110340   2.082   3.953  12.897 -1.0617 -3.7861 -4.3172
  699TMC3    H210341   2.123   3.740  13.267 -1.8309  3.4869 -0.1164
  699TMC3    C710342   1.937   3.845  13.122  0.3636  0.0742 -0.2456
  699TMC3    C810343   2.310   3.590  13.197 -0.5407  0.0386  0.6874
  699TMC3    O110344   1.905   3.837  13.240  0.1545 -0.0001  0.4525
  699TMC3    O210345   2.223   3.532  13.263  0.0963  0.2113  0.2682
  700TMC3    C110346   0.959   1.010  17.265 -0.0295  0.3423  0.0988
  700TMC3    C210347   1.052   0.933  17.200  1.0001  0.2963 -0.0093
  700TMC3    C310348   1.153   0.874  17.262  0.1682 -0.4131  0.4721
  700TMC3    C410349   0.961   1.022  17.397 -0.2930  0.4367  0.4014
  700TMC3    C510350   1.070   0.975  17.462 -0.7482 -0.0639 -0.2654
  700TMC3    C610351   1.163   0.897  17.399 -0.0584  0.4688  0.2475
  700TMC3     C10352   0.908   1.130  17.203  0.1567 -0.3373 -0.1385
  700TMC3     O10353   0.798   1.161  17.236 -0.0462  0.2355  0.3919
  700TMC3     H10354   1.050   0.946  17.092 -1.2130  0.8887  0.0992
  700TMC3    H110355   0.888   1.092  17.435 -1.3080  0.7430 -2.1168
  700TMC3    H210356   1.258   0.884  17.448  0.4627 -1.0085 -1.1695
  700TMC3    C710357   1.119   1.060  17.574  0.1800 -0.5472  0.0866
  700TMC3    C810358   1.265   0.822  17.190 -0.8046  0.2479  0.1103
  700TMC3    O110359   1.243   1.077  17.578  0.3876  0.0233 -0.5376
  700TMC3    O210360   1.375   0.819  17.244 -0.0547  0.3275 -0.0349
  701TMC3    C110361   1.391   4.384  15.489  0.0227  0.9368  0.2565
  701TMC3    C210362   1.343   4.385  15.360 -0.3097  0.3568 -0.6618
  701TMC3    C310363   1.400   4.459  15.263 -0.3919  0.1952 -0.0242
  701TMC3    C410364   1.477   4.491  15.530 -0.0866 -0.5871  0.1433
  701TMC3    C510365   1.523   4.575  15.427 -0.0823  0.8541 -0.7988
  701TMC3    C610366   1.495   4.554  15.293 -0.0005 -0.8239  0.9248
  701TMC3     C10367   1.310   4.323  15.593 -0.8870  0.5879 -0.0488
  701TMC3     O10368   1.286   4.398  15.689  0.1028  0.0489 -0.1501
  701TMC3     H10369   1.261   4.320  15.332 -0.6658  0.3687  0.3830
  701TMC3    H110370   1.479   4.507  15.637 -0.1382  1.8252 -0.2103
  701TMC3    H210371   1.529   4.622  15.216 -1.1755 -0.7066  0.4956
  701TMC3    C710372   1.575   4.707  15.471 -1.0247  0.2060 -0.7821
  701TMC3    C810373   1.326   4.475  15.133  0.3156  0.3534  0.6241
  701TMC3    O110374   1.582   0.082  15.398 -0.1468  0.4008  0.0427
  701TMC3    O210375   1.313   4.592  15.103 -0.0598 -0.3719 -0.3871
  702MPD2     C10376   1.390   1.511  10.458  0.3157 -0.4967  0.1161
  702MPD2    C110377   1.322   1.627  10.457  0.0839  0.4265  0.1625
  702MPD2    C210378   1.358   1.729  10.366  0.3459  0.4683  0.1692
  702MPD2    C310379   1.460   1.714  10.276 -0.2073  0.3811  0.0785
  702MPD2    C410380   1.536   1.600  10.295 -0.5558  0.3616 -0.6567
  702MPD2    C510381   1.496   1.502  10.378 -0.5906 -0.2987  0.5231
  702MPD2     H10382   1.288   1.811  10.361  1.5743  1.5409  0.7299
  702MPD2    H110383   1.625   1.582  10.235 -0.8476 -0.9203 -0.7132
  702MPD2    H210384   1.371   1.431  10.528 -3.1071  0.5918  0.4364
  702MPD2    H310385   1.568   1.422  10.381 -0.5458 -0.3864 -2.8709
  702MPD2     N10386   1.498   1.813  10.189 -0.2958  0.8216  0.1499
  702MPD2    H510387   1.590   1.808  10.147 -0.1325  0.7380  0.5259
  702MPD2    N110388   1.218   1.650  10.550  0.2475 -0.1603 -0.5870
  702MPD2    H710389   1.168   1.738  10.552 -1.9380 -1.4262  0.3446
  703TMC3    C110390   1.502   2.050  10.168  0.0407 -0.5383 -0.5497
  703TMC3    C210391   1.434   2.167  10.160 -0.3193 -0.4028 -0.1987
  703TMC3    C310392   1.498   2.283  10.166  0.2655 -0.0802  0.3405
  703TMC3    C410393   1.636   2.051  10.202 -0.3148  0.0457 -0.1391
  703TMC3    C510394   1.700   2.170  10.203 -0.2414 -0.4873  0.7047
  703TMC3    C610395   1.638   2.289  10.181 -0.2547  0.1401  0.2587
  703TMC3     C10396   1.422   1.927  10.176 -0.0556 -0.1446 -0.1188
  703TMC3     O10397   1.298   1.945  10.187  0.3320  0.4287  0.5476
  703TMC3     H10398   1.335   2.147  10.122  0.8988 -3.5614 -1.7183
  703TMC3    H110399   1.696   1.964  10.228 -0.7040 -0.4675 -0.9553
  703TMC3    H210400   1.682   2.386  10.203  0.5557  0.1339 -1.3677
  703TMC3    C710401   1.840   2.161  10.227 -0.0094 -0.3850  0.9170
  703TMC3    C810402   1.416   2.401  10.181 -0.3806  0.3610 -0.6844
  703TMC3    O110403   1.895   2.066  10.281  0.0165  0.1911 -0.1069
  703TMC3    O210404   1.471   2.507  10.179  0.6127  0.5363 -0.7068
  704TMC3    C110405   3.324   0.437  12.453  0.0809  0.1523  0.2017
  704TMC3    C210406   3.458   0.466  12.443  0.4306  0.5048  0.2241
  704TMC3    C310407   3.539   0.409  12.539 -0.0037  0.4272 -0.2831
  704TMC3    C410408   3.268   0.356  12.551  0.2906  0.2815  0.5877
  704TMC3    C510409   3.355   0.295  12.634  0.1181  0.1059  0.7601
  704TMC3    C610410   3.488   0.318  12.627 -0.2957  0.0847 -0.2079
  704TMC3     C10411   3.259   0.427  12.326 -0.5085  0.4096  0.0070
  704TMC3     O10412   3.136   0.433  12.323 -0.5199 -0.0163  0.0943
  704TMC3     H10413   3.498   0.541  12.376  0.2883 -0.0802 -0.5225
  704TMC3    H110414   3.165   0.323  12.544  0.3720  0.1273  0.1298
  704TMC3    H210415   3.557   0.261  12.688  3.2481  0.9082 -3.4481
  704TMC3    C710416   3.323   0.154  12.649 -0.1358  0.3914  0.1147
  704TMC3    C810417   3.672   0.378  12.490 -0.1430 -0.1941 -0.1805
  704TMC3    O110418   3.408   0.071  12.625  0.3854  0.7416 -0.0537
  704TMC3    O210419   3.700   0.410  12.376  0.3436  0.2682  0.1372
  705MPD2     C10420   3.222   2.808  16.656  0.3193 -1.0442  0.0039
  705MPD2    C110421   3.173   2.929  16.613 -0.6939  0.1215 -0.2579
  705MPD2    C210422   3.057   2.973  16.666  0.6244 -0.0475  0.6097
  705MPD2    C310423   2.997   2.898  16.766  0.7569  0.4934 -0.1675
  705MPD2    C410424   3.037   2.775  16.804  0.5435 -0.3809  0.3054
  705MPD2    C510425   3.156   2.731  16.754  0.3338 -1.2145 -0.4505
  705MPD2     H10426   3.029   3.071  16.630  0.1135 -0.7391 -0.8693
  705MPD2    H110427   2.986   2.705  16.869 -0.2918 -1.2571 -1.3011
  705MPD2    H210428   3.305   2.754  16.612  1.1180 -0.0203  0.2372
  705MPD2    H310429   3.199   2.644  16.801  1.5056 -0.0226  0.7084
  705MPD2     N10430   2.873   2.945  16.823 -0.4430 -0.2916  0.6394
  705MPD2    H510431   2.817   2.878  16.875 -0.0990 -0.7613  0.3983
  705MPD2    N110432   3.229   2.990  16.496  0.4142 -0.4549 -0.2263
  705MPD2    H710433   3.172   3.055  16.444  0.1859  0.2694  0.9278
  706TMC3    C110434   3.476   3.026  16.105  0.2403  0.6564 -0.2399
  706TMC3    C210435   3.401   3.131  16.067 -0.4623  0.3440  0.4101
  706TMC3    C310436   3.316   3.188  16.156 -0.1476  1.0730 -0.7914
  706TMC3    C410437   3.464   2.961  16.225 -0.0296  0.3295 -0.6323
  706TMC3    C510438   3.373   3.020  16.310 -0.3494 -0.5407  0.1776
  706TMC3    C610439   3.297   3.134  16.280 -0.0693  0.2122 -0.5710
  706TMC3     C10440   3.566   2.975  16.007  0.7006  0.1933 -0.2481
  706TMC3     O10441   3.683   2.950  16.045 -0.6109 -0.3822 -0.1966
  706TMC3     H10442   3.426   3.188  15.978  2.9163 -0.3272  0.9159
  706TMC3    H110443   3.536   2.884  16.251  1.5717  1.8492 -0.5364
  706TMC3    H210444   3.243   3.189  16.356 -1.5922  0.1864 -1.6264
  706TMC3    C710445   3.349   2.948  16.432 -0.1827 -0.1654 -0.2362
  706TMC3    C810446   3.300   3.328  16.136  0.4041  0.8457 -0.1363
  706TMC3    O110447   3.431   2.856  16.449 -0.0321 -0.3233 -0.0695
  706TMC3    O210448   3.263   3.370  16.024  0.1022  0.0626  0.1110
  707TMC3    C110449   0.223   2.338   1.981  0.4904 -0.4778 -0.2184
  707TMC3    C210450   0.271   2.210   2.028  0.4764  0.1422 -0.1402
  707TMC3    C310451   0.186   2.134   2.099 -0.5123  0.2152  0.3058
  707TMC3    C410452   0.095   2.379   2.010 -0.0778 -0.0694  1.0390
  707TMC3    C510453   0.017   2.289   2.078 -0.3761  0.2929 -0.1802
  707TMC3    C610454   0.058   2.163   2.125 -0.8668  0.8779 -0.0912
  707TMC3     C10455   0.306   2.396   1.881  0.2591  0.6965 -0.1430
  707TMC3     O10456   0.422   2.355   1.879 -0.8006 -0.4292  0.3209
  707TMC3     H10457   0.372   2.180   2.005  0.9234  0.6016  1.2348
  707TMC3    H110458   0.074   2.481   1.979 -0.0569 -0.0977  0.9300
  707TMC3    H210459   4.714   2.091   2.169 -2.4504  1.7737 -1.0446
  707TMC3    C710460   4.602   2.335   2.103 -0.3182  0.3049 -0.4493
  707TMC3    C810461   0.226   2.008   2.150 -1.0433 -0.1541  0.5942
  707TMC3    O110462   4.580   2.457   2.110  0.0788 -0.3018  0.4356
  707TMC3    O210463   0.165   1.961   2.244 -0.4106 -0.4634  0.2449
  708MPD2     C10464   1.259   1.756  13.848 -0.0213  0.2941  0.2289
  708MPD2    C110465   1.168   1.657  13.875 -0.2503  0.2308  0.7372
  708MPD2    C210466   1.183   1.584  13.997 -0.5644 -0.1479  0.7975
  708MPD2    C310467   1.282   1.613  14.097  0.5582 -1.0769  0.1305
  708MPD2    C410468   1.368   1.723  14.073  0.0063 -0.0176 -0.4140
  708MPD2    C510469   1.344   1.791  13.950  0.0469  0.5290  0.3210
  708MPD2     H10470   1.119   1.500  14.020 -0.6903  0.9002  4.2120
  708MPD2    H110471   1.447   1.753  14.141  0.9871 -0.6341 -1.2676
  708MPD2    H210472   1.246   1.813  13.757 -1.5358  0.0978  0.3210
  708MPD2    H310473   1.399   1.884  13.934  1.1311 -0.0261  0.8668
  708MPD2     N10474   1.298   1.537  14.217  0.8304  0.0372  0.4378
  708MPD2    H510475   1.371   1.566  14.282  2.4883  0.7910 -1.7479
  708MPD2    N110476   1.055   1.640  13.797  0.2012  0.8985  0.2221
  708MPD2    H710477   1.046   1.678  13.704 -2.9688 -0.3057  0.0315
  709TMC3    C110478   0.823   1.600  13.741 -0.3041 -0.0906 -0.2934
  709TMC3    C210479   0.836   1.529  13.618  0.0305  0.3674  0.0776
  709TMC3    C310480   0.737   1.442  13.582 -0.3683  0.4166  0.8548
  709TMC3    C410481   0.713   1.574  13.819  0.3361 -0.0967 -0.2953
  709TMC3    C510482   0.613   1.485  13.784 -0.3959 -0.1725 -0.5066
  709TMC3    C610483   0.621   1.425  13.662 -0.1889 -0.3212  0.5511
  709TMC3     C10484   0.937   1.579  13.833 -0.1574 -0.3827  0.2264
  709TMC3     O10485   0.896   1.540  13.939 -0.1639  0.3553  0.4125
  709TMC3     H10486   0.931   1.533  13.565  0.4345  0.0394  0.7741
  709TMC3    H110487   0.701   1.628  13.913  1.5427 -3.2119  1.6581
  709TMC3    H210488   0.550   1.347  13.637 -2.3902  1.8758 -0.1213
  709TMC3    C710489   0.570   1.391  13.887 -0.3243  1.1546  0.5672
  709TMC3    C810490   0.734   1.382  13.445  0.3686 -0.5949  0.5688
  709TMC3    O110491   0.462   1.334  13.881  0.3872  0.1191 -0.2346
  709TMC3    O210492   0.639   1.309  13.428  0.3477  0.4491 -0.4076
  710TMC3    C110493   2.325   3.192   0.321  0.6935 -0.1763  0.2302
  710TMC3    C210494   2.354   3.150   0.194 -0.4858 -0.2687 -0.5443
  710TMC3    C310495   2.364   3.012   0.173 -0.2930  0.1492 -0.7011
  710TMC3    C410496   2.318   3.105   0.424  0.0725  0.4583 -0.1227
  710TMC3    C510497   2.329   2.972   0.399  0.0647  0.5342 -0.0691
  710TMC3    C610498   2.347   2.925   0.273 -0.0577 -0.0743 -0.3374
  710TMC3     C10499   2.292   3.332   0.335 -0.5272 -0.2851  0.0317
  710TMC3     O10500   2.302   3.397   0.233 -0.5125 -0.3924  0.8521
  710TMC3     H10501   2.362   3.217   0.109  2.3124  1.8288  1.3570
  710TMC3    H110502   2.291   3.135   0.524  1.6430 -2.9092  1.3208
  710TMC3    H210503   2.354   2.818   0.253  1.7771 -0.7433  3.8470
  710TMC3    C710504   2.396   2.891   0.502  0.5242 -0.2904 -0.1754
  710TMC3    C810505   2.439   2.954   0.065  0.9183 -0.3164 -0.1140
  710TMC3    O110506   2.364   2.911   0.619  0.1185 -0.4147 -0.0817
  710TMC3    O210507   2.500   2.853   0.096  0.3045 -0.0622 -0.2204
  711TMC3    C110508   2.249   4.054  14.986  0.2839 -0.2047 -0.0792
  711TMC3    C210509   2.253   4.109  15.113  0.2048 -0.0852 -0.1621
  711TMC3    C310510   2.355   4.068  15.200 -0.4687 -0.4044  0.2912
  711TMC3    C410511   2.348   3.972  14.948 -0.9015 -0.0493  0.4835
  711TMC3    C510512   2.441   3.932  15.038  0.2983 -0.5105 -0.9781
  711TMC3    C610513   2.456   3.989  15.158  0.4040  0.2538 -0.2574
  711TMC3     C10514   2.110   4.012  14.950  0.1637 -1.2124 -0.1345
  711TMC3     O10515   2.104   3.900  14.896  0.3441 -0.2851 -0.4876
  711TMC3     H10516   2.177   4.181  15.140 -0.8853 -1.0173 -0.7260
  711TMC3    H110517   2.347   3.914  14.856  1.8703 -1.4052  1.3098
  711TMC3    H210518   2.512   3.931  15.231  0.7665 -0.1421 -0.8539
  711TMC3    C710519   2.458   3.792  15.041  0.2514  0.3806 -0.1224
  711TMC3    C810520   2.343   4.105  15.342  0.0976  0.4158  0.0113
  711TMC3    O110521   2.564   3.756  15.089  0.4493  0.0743 -0.4132
  711TMC3    O210522   2.233   4.135  15.385 -0.3264  0.2641  0.5878
  712MPD2     C10523   3.138   0.281  13.466  0.2995  0.6363 -0.1458
  712MPD2    C110524   3.055   0.391  13.425  0.4205 -0.5848 -0.1653
  712MPD2    C210525   3.089   0.518  13.461 -0.0365 -0.1292  0.4736
  712MPD2    C310526   3.209   0.549  13.526 -0.1567 -0.4105  0.1647
  712MPD2    C410527   3.289   0.442  13.562 -0.5077 -0.0222 -0.1034
  712MPD2    C510528   3.244   0.309  13.541 -0.2349  0.3915 -0.1604
  712MPD2     H10529   3.023   0.591  13.417 -0.0841 -1.5994 -1.9031
  712MPD2    H110530   3.377   0.454  13.625  0.1175  0.2506 -1.0335
  712MPD2    H210531   3.096   0.181  13.470  1.5691  0.2095  2.3353
  712MPD2    H310532   3.293   0.227  13.592 -1.2947 -0.5058 -0.5796
  712MPD2     N10533   3.262   0.683  13.538  0.2905 -0.1815  0.6095
  712MPD2    H510534   3.360   0.692  13.563  0.6628  0.5990 -1.1546
  712MPD2    N110535   2.940   0.366  13.351  0.3517  0.7369 -0.7275
  712MPD2    H710536   2.900   0.446  13.301  2.0592  1.3611 -1.0797
  713TMC3    C110537   3.238   0.920  13.558 -0.0182 -0.3174  0.4490
  713TMC3    C210538   3.366   0.924  13.612  0.1120  0.9190  0.6543
  713TMC3    C310539   3.424   1.043  13.645  0.3620  0.0628  0.0364
  713TMC3    C410540   3.175   1.042  13.541  0.2056  0.8989  0.1173
  713TMC3    C510541   3.237   1.163  13.568 -0.5662  0.8915  0.1585
  713TMC3    C610542   3.364   1.165  13.612  0.3014  0.0090 -0.1752
  713TMC3     C10543   3.179   0.797  13.515 -0.5601  0.2216  0.4162
  713TMC3     O10544   3.064   0.798  13.482  0.8426  0.0689 -0.4984
  713TMC3     H10545   3.434   0.839  13.612 -0.6326  0.3288 -1.5214
  713TMC3    H110546   3.075   1.034  13.501  0.5088 -3.3038  0.1926
  713TMC3    H210547   3.409   1.261  13.633  2.3954 -0.6275 -1.8137
  713TMC3    C710548   3.168   1.287  13.548 -0.4221  0.4779  0.0860
  713TMC3    C810549   3.566   1.055  13.682 -0.2729 -0.0912 -0.9437
  713TMC3    O110550   3.247   1.376  13.530  0.0210  0.0050  0.8541
  713TMC3    O210551   3.624   1.165  13.668 -0.1727 -0.3626  0.5741
  714MPD2     C10552   0.798   3.053   1.494 -0.3225  0.4297 -0.0853
  714MPD2    C110553   0.898   3.102   1.407 -0.3219 -0.1000 -0.4137
  714MPD2    C210554   0.852   3.158   1.293 -0.3109  0.2776 -0.8886
  714MPD2    C310555   0.720   3.169   1.255 -0.0176  0.1943 -0.6174
  714MPD2    C410556   0.621   3.121   1.339 -0.5678 -0.4133  0.7826
  714MPD2    C510557   0.659   3.061   1.461  0.1420  0.0743 -0.4741
  714MPD2     H10558   0.917   3.185   1.210  1.5903 -0.4373  0.3768
  714MPD2    H110559   0.515   3.132   1.322 -0.2170  0.1433 -1.1172
  714MPD2    H210560   0.821   3.005   1.589 -0.5883  3.0959  1.3363
  714MPD2    H310561   0.589   3.024   1.536 -1.6591 -0.3271 -2.3700
  714MPD2     N10562   0.684   3.235   1.137  0.3894 -0.6898  0.4010
  714MPD2    H510563   0.759   3.280   1.086  2.2465 -2.6486  1.4302
  714MPD2    N110564   1.038   3.105   1.445  0.3311 -0.3468 -0.2113
  714MPD2    H710565   1.068   3.070   1.536 -2.7325 -0.6514  0.6925
  715TMC3    C110566   1.267   3.143   1.435  0.1416 -0.3190 -0.1749
  715TMC3    C210567   1.377   3.090   1.374 -0.2988 -0.7486 -0.8716
  715TMC3    C310568   1.480   3.046   1.448 -0.0548 -0.0216  0.3376
  715TMC3    C410569   1.259   3.158   1.578 -0.2641  0.0172  0.5585
  715TMC3    C510570   1.371   3.106   1.654  0.3427 -0.0694  0.3466
  715TMC3    C610571   1.484   3.064   1.584 -0.1667 -0.3656  0.3921
  715TMC3     C10572   1.144   3.148   1.361  0.2365  0.2344  0.2379
  715TMC3     O10573   1.144   3.161   1.237 -0.3032  0.2826 -0.2781
  715TMC3     H10574   1.372   3.068   1.268 -1.4569 -0.6407 -0.8412
  715TMC3    H110575   1.177   3.211   1.625 -0.3319 -1.8693  2.5567
  715TMC3    H210576   1.575   3.046   1.640  0.5194 -1.1995 -0.9594
  715TMC3    C710577   1.396   3.180   1.780 -0.1469 -0.7899  0.2756
  715TMC3    C810578   1.590   2.983   1.371 -0.2036  0.3698 -0.6071
  715TMC3    O110579   1.507   3.192   1.825  0.1964  0.6377  0.7132
  715TMC3    O210580   1.564   2.945   1.258  0.4869  0.2360  0.4810
  716MPD2     C10581   1.105   1.714   9.875  0.2885  0.3039 -0.2028
  716MPD2    C110582   1.078   1.729   9.743  0.5621  0.5598  0.1041
  716MPD2    C210583   1.080   1.615   9.654 -0.3177 -0.1136  0.0426
  716MPD2    C310584   1.125   1.494   9.710 -0.6501  0.4158 -0.1310
  716MPD2    C410585   1.153   1.485   9.843  0.2743 -0.1495 -0.2754
  716MPD2    C510586   1.147   1.596   9.920 -0.7874  0.7261 -0.0266
  716MPD2     H10587   1.066   1.618   9.546  0.5624  2.6479  0.0053
  716MPD2    H110588   1.203   1.398   9.884 -0.4466 -0.6407 -0.4602
  716MPD2    H210589   1.098   1.796   9.946 -1.8003  0.8746 -1.1020
  716MPD2    H310590   1.159   1.583  10.027 -2.2101 -1.9534 -0.1891
  716MPD2     N10591   1.125   1.383   9.626  0.0812  0.2709  0.2036
  716MPD2    H510592   1.122   1.407   9.527  2.2363 -1.5508 -0.3079
  716MPD2    N110593   1.041   1.855   9.691 -0.1346 -0.1311 -0.0367
  716MPD2    H710594   1.042   1.931   9.759  0.5369  0.1372 -0.3411
  717TMC3    C110595   1.164   1.174   9.540 -0.3219  0.8683 -0.3556
  717TMC3    C210596   1.090   1.207   9.429  0.0962  0.1376 -0.7488
  717TMC3    C310597   1.092   1.113   9.333  0.0636  0.0026 -0.0174
  717TMC3    C410598   1.226   1.050   9.556 -0.6714  0.2892 -0.3243
  717TMC3    C510599   1.238   0.974   9.447 -0.0644 -0.3798 -0.1819
  717TMC3    C610600   1.173   1.001   9.335  0.4029 -0.1005  0.4599
  717TMC3     C10601   1.159   1.258   9.659 -0.3148 -0.0184  0.2881
  717TMC3     O10602   1.174   1.202   9.766 -0.3163 -0.2393  0.3469
  717TMC3     H10603   1.005   1.274   9.431 -1.3209 -1.6454 -1.0749
  717TMC3    H110604   1.260   1.015   9.653  1.8591  1.7713 -0.6492
  717TMC3    H210605   1.183   0.951   9.240  0.4033 -0.1242  0.4725
  717TMC3    C710606   1.284   0.838   9.481  0.4229  0.1891 -0.0230
  717TMC3    C810607   1.001   1.129   9.222  0.1913 -0.2775 -0.4381
  717TMC3    O110608   1.347   0.823   9.583  0.5172 -0.4351 -0.7390
  717TMC3    O210609   0.962   1.240   9.195  0.7713  0.3670 -0.6311
  718MPD2     C10610   0.254   0.741  13.057 -0.0519  0.5889  0.1719
  718MPD2    C110611   0.217   0.719  12.927 -0.6383 -0.4205  0.1782
  718MPD2    C210612   0.082   0.724  12.905  0.4298 -0.2391  0.0850
  718MPD2    C310613   4.710   0.743  13.004  0.3062 -0.1389 -0.2456
  718MPD2    C410614   0.028   0.764  13.131  0.8890 -0.5095 -0.5373
  718MPD2    C510615   0.164   0.766  13.159  0.4965 -1.0002 -0.5522
  718MPD2     H10616   0.048   0.709  12.803 -0.6807  3.5107 -0.0909
  718MPD2    H110617   4.683   0.794  13.210  0.6791 -1.5055 -0.3365
  718MPD2    H210618   0.359   0.749  13.086  0.7537 -2.9812 -1.7960
  718MPD2    H310619   0.199   0.793  13.258  2.2869 -0.5861 -1.3046
  718MPD2     N10620   4.577   0.752  12.959  0.0171 -0.3656 -0.0579
  718MPD2    H510621   4.572   0.733  12.859 -2.3361 -1.8747  0.3455
  718MPD2    N110622   0.303   0.712  12.819 -0.2175  0.3042  0.1221
  718MPD2    H710623   0.254   0.698  12.732  2.4789  1.2417 -1.5537
  719TMC3    C110624   0.497   0.743  12.699  0.6186 -1.0575 -0.2919
  719TMC3    C210625   0.402   0.714  12.601 -0.0261  0.0461  0.0090
  719TMC3    C310626   0.377   0.798  12.495  0.5053  0.5120 -0.4754
  719TMC3    C410627   0.564   0.862  12.688  0.0864 -0.4485 -0.1373
  719TMC3    C510628   0.535   0.947  12.584 -0.5807 -0.3483 -0.4174
  719TMC3    C610629   0.441   0.914  12.487 -0.4614  0.4117 -0.3534
  719TMC3     C10630   0.436   0.732  12.827  0.4140 -0.1252 -0.4551
  719TMC3     O10631   0.506   0.773  12.918  0.1130  0.5954 -0.1841
  719TMC3     H10632   0.357   0.616  12.609  0.2938 -0.0086  1.0334
  719TMC3    H110633   0.643   0.880  12.760  0.4670  0.6580 -0.8359
  719TMC3    H210634   0.421   0.987  12.410  0.0001  0.6988 -0.2013
  719TMC3    C710635   0.618   1.065  12.556  0.4267 -0.3702 -0.0482
  719TMC3    C810636   0.233   0.797  12.471 -1.3287  0.1646  0.1572
  719TMC3    O110637   0.573   1.134  12.465  0.3917 -0.0939 -0.1205
  719TMC3    O210638   0.169   0.714  12.533 -0.1693  0.3319  0.5846
  720MPD2     C10639   3.384   2.189  14.010  0.1087 -0.4117 -0.5036
  720MPD2    C110640   3.449   2.282  13.935 -0.9621  0.8154  0.2477
  720MPD2    C210641   3.583   2.298  13.963 -0.4147  0.0353 -1.0491
  720MPD2    C310642   3.647   2.225  14.057  0.9481  0.1623  1.0918
  720MPD2    C410643   3.579   2.129  14.126  0.2785  0.2046 -0.0476
  720MPD2    C510644   3.444   2.115  14.107 -0.1467  0.4038 -0.5435
  720MPD2     H10645   3.639   2.372  13.907  1.1044 -0.6107 -0.3889
  720MPD2    H110646   3.623   2.061  14.198  1.3009  2.5876  1.5929
  720MPD2    H210647   3.279   2.167  13.990  0.0308  0.1718 -0.7421
  720MPD2    H310648   3.396   2.027  14.150 -0.4209 -0.3549 -2.3747
  720MPD2     N10649   3.786   2.246  14.085  0.1720  0.4858 -0.8385
  720MPD2    H510650   3.831   2.311  14.021  0.9498  1.9809  1.2325
  720MPD2    N110651   3.389   2.359  13.827  0.1486  0.3206  0.5278
  720MPD2    H710652   3.450   2.411  13.764  0.4162 -1.2000 -0.4882
  721TMC3    C110653   3.999   2.197  14.178  0.4751 -0.6852 -0.3983
  721TMC3    C210654   4.069   2.137  14.278 -0.1395  0.0575  0.3582
  721TMC3    C310655   4.208   2.144  14.286 -0.1233 -0.2339  0.3422
  721TMC3    C410656   4.065   2.262  14.076  0.2038  0.5514 -0.3690
  721TMC3    C510657   4.204   2.267  14.084 -0.3079 -0.5895  0.4867
  721TMC3    C610658   4.274   2.213  14.188  0.2325  0.0385  0.7414
  721TMC3     C10659   3.852   2.187  14.190  0.6961  0.9280 -0.5092
  721TMC3     O10660   3.807   2.126  14.284 -0.5089 -0.0648  0.3008
  721TMC3     H10661   4.011   2.070  14.341  1.4961 -0.3245  1.4409
  721TMC3    H110662   4.006   2.310  13.999 -0.8460 -0.6542 -0.3248
  721TMC3    H210663   4.382   2.220  14.198  0.1500  1.1785  0.7923
  721TMC3    C710664   4.266   2.302  13.960  0.4368 -0.0908  0.2464
  721TMC3    C810665   4.286   2.064  14.380 -0.2409 -0.0295 -0.4493
  721TMC3    O110666   4.189   2.308  13.866 -0.2163 -0.1928  0.7375
  721TMC3    O210667   4.401   2.037  14.351  0.3018 -0.1950 -0.0967
  722MPD2     C10668   2.058   0.946  13.288 -0.4207 -0.2558 -0.5431
  722MPD2    C110669   2.005   1.071  13.299  0.3449 -0.0448 -0.8528
  722MPD2    C210670   1.883   1.092  13.238  0.3896 -0.1739 -0.3634
  722MPD2    C310671   1.813   0.990  13.182  0.1062 -0.2709  0.4540
  722MPD2    C410672   1.872   0.872  13.166  0.3253  0.7983  0.5285
  722MPD2    C510673   1.994   0.848  13.223 -0.3906  0.3032  0.0699
  722MPD2     H10674   1.826   1.180  13.268 -0.8805 -0.5595 -1.6234
  722MPD2    H110675   1.821   0.792  13.114 -2.2369  3.2393 -0.6958
  722MPD2    H210676   2.159   0.920  13.318  0.0308  2.3710  0.2272
  722MPD2    H310677   2.041   0.750  13.222  0.0126  0.4764  1.8011
  722MPD2     N10678   1.686   1.023  13.129  0.1077  0.3055  0.4651
  722MPD2    H510679   1.660   1.121  13.122  1.1925  0.3995 -2.3143
  722MPD2    N110680   2.060   1.176  13.373  0.0474  0.6773 -0.2626
  722MPD2    H710681   2.021   1.268  13.353 -0.8164  0.6078  1.1231
  723TMC3    C110682   1.503   0.987  13.001 -0.7436 -0.6366  0.5022
  723TMC3    C210683   1.436   0.887  12.924  0.4930  0.6294 -0.4014
  723TMC3    C310684   1.353   0.920  12.818 -0.6105  0.1403 -0.4186
  723TMC3    C410685   1.470   1.118  12.982  0.7841 -0.5987  0.5958
  723TMC3    C510686   1.377   1.144  12.888 -0.5007  0.0248  0.1327
  723TMC3    C610687   1.322   1.053  12.801  0.2193  0.3314 -0.1265
  723TMC3     C10688   1.600   0.926  13.086  0.1644 -0.3304 -0.4967
  723TMC3     O10689   1.595   0.804  13.091  0.1827 -0.2243  0.3145
  723TMC3     H10690   1.450   0.781  12.944  2.3836  0.8299 -0.6630
  723TMC3    H110691   1.521   1.196  13.036  1.3012 -0.3990 -0.1734
  723TMC3    H210692   1.252   1.078  12.722  0.2984  0.4505 -0.1587
  723TMC3    C710693   1.373   1.277  12.836  0.5235 -0.5953  0.0154
  723TMC3    C810694   1.270   0.826  12.756 -0.0751  0.4553  0.3384
  723TMC3    O110695   1.368   1.290  12.716 -0.7547 -0.5817 -0.1325
  723TMC3    O210696   1.162   0.867  12.711  0.8068 -0.6498  0.3305
  724TMC3    C110697   2.492   4.190   9.439  0.0726 -0.1726 -0.2587
  724TMC3    C210698   2.502   4.257   9.317 -0.2401 -0.0389 -0.2900
  724TMC3    C310699   2.628   4.293   9.275 -0.6184  0.3426  0.7112
  724TMC3    C410700   2.606   4.159   9.508  1.1301  0.7601  0.1804
  724TMC3    C510701   2.727   4.180   9.452 -0.4952 -0.3494  0.5938
  724TMC3    C610702   2.737   4.241   9.334  0.1093  0.2404  0.2458
  724TMC3     C10703   2.367   4.116   9.455  0.5313 -0.1146  0.4810
  724TMC3     O10704   2.262   4.164   9.421 -0.0030  0.3991 -0.3224
  724TMC3     H10705   2.420   4.306   9.265 -0.8700 -0.2575  0.4950
  724TMC3    H110706   2.607   4.140   9.615 -1.1126  3.5558  0.7178
  724TMC3    H210707   2.830   4.272   9.286  0.3468 -1.5605 -0.4527
  724TMC3    C710708   2.844   4.157   9.529  0.1257  0.3926  0.0351
  724TMC3    C810709   2.640   4.392   9.169  0.3951  0.3710  0.2195
  724TMC3    O110710   2.940   4.217   9.488 -0.4427  0.0814 -0.2877
  724TMC3    O210711   2.569   4.373   9.068  0.1565 -0.2444  0.2718
  725TMC3    C110712   3.884   2.533  12.801 -0.8967 -0.7830 -0.0552
  725TMC3    C210713   3.785   2.606  12.733 -0.1456 -0.1789 -0.5842
  725TMC3    C310714   3.710   2.529  12.643 -0.1018  0.0060 -0.7668
  725TMC3    C410715   3.907   2.401  12.784  0.9196 -1.0344  1.0008
  725TMC3    C510716   3.822   2.335  12.706 -0.1104  0.2885  0.9197
  725TMC3    C610717   3.717   2.391  12.637 -0.1228 -0.0035  0.3065
  725TMC3     C10718   3.970   2.627  12.883 -0.2541 -0.3794 -0.5387
  725TMC3     O10719   3.962   2.748  12.863  0.0843  0.1259 -0.0749
  725TMC3     H10720   3.768   2.711  12.754  3.3531  0.1789  0.5998
  725TMC3    H110721   4.006   2.369  12.815  2.1988  0.6752 -1.2845
  725TMC3    H210722   3.644   2.341  12.574  1.7115 -1.9350 -0.2784
  725TMC3    C710723   3.842   2.192  12.702 -0.1254 -0.0526 -0.5738
  725TMC3    C810724   3.618   2.602  12.558 -0.7561  0.0343 -0.2190
  725TMC3    O110725   3.789   2.141  12.599 -0.1691  0.2154 -0.2283
  725TMC3    O210726   3.533   2.543  12.488 -0.3484 -0.5221  0.9046
  726MPD2     C10727   2.629   4.054  10.500  0.2098 -0.1797 -0.8145
  726MPD2    C110728   2.525   4.124  10.440  0.4442  0.4660 -1.0970
  726MPD2    C210729   2.392   4.089  10.446  0.2771  0.5209 -0.6101
  726MPD2    C310730   2.360   3.982  10.535 -0.1935  0.8329 -0.0204
  726MPD2    C410731   2.465   3.917  10.598  0.7480  0.4664  0.5729
  726MPD2    C510732   2.599   3.953  10.587  0.3544 -0.0343  0.2390
  726MPD2     H10733   2.315   4.151  10.400 -1.2767 -0.2867  0.9247
  726MPD2    H110734   2.437   3.839  10.669  0.0420 -0.3461 -0.5930
  726MPD2    H210735   2.735   4.075  10.496  0.4940 -1.1324  1.8275
  726MPD2    H310736   2.680   3.913  10.648 -0.9292 -2.5239  0.3251
  726MPD2     N10737   2.225   3.954  10.577 -0.4103  0.3521  0.2054
  726MPD2    H510738   2.214   3.898  10.660 -1.3937 -0.9890 -0.8278
  726MPD2    N110739   2.544   4.238  10.356 -0.3952 -0.3673  0.0412
  726MPD2    H710740   2.458   4.287  10.333 -0.9120 -2.7397 -3.1364
  727TMC3    C110741   2.639   4.424  10.263 -0.1792  0.7300  0.1461
  727TMC3    C210742   2.753   4.499  10.257 -0.3145 -0.2230  0.6336
  727TMC3    C310743   2.732   4.613  10.186 -0.1439 -0.1239 -0.0974
  727TMC3    C410744   2.521   4.455  10.202  0.5809 -0.0807 -0.1414
  727TMC3    C510745   2.515   4.566  10.128  0.4625 -0.2232 -0.3243
  727TMC3    C610746   2.616   4.661  10.131  0.5984  0.1892  0.3538
  727TMC3     C10747   2.661   4.295  10.324  0.5004  0.3070  0.3010
  727TMC3     O10748   2.780   4.257  10.332  0.0388 -0.7899  0.0228
  727TMC3     H10749   2.849   4.458  10.285 -0.9653 -2.0943  0.1192
  727TMC3    H110750   2.442   4.381  10.203  0.7863 -0.2725  1.9484
  727TMC3    H210751   2.620   0.024  10.066 -2.3243  0.9557  1.1945
  727TMC3    C710752   2.391   4.600  10.068 -0.2994 -0.0421  0.6740
  727TMC3    C810753   2.842   4.702  10.189 -0.1962 -0.9287 -0.0680
  727TMC3    O110754   2.299   4.511  10.070  0.1146  0.0860  0.4409
  727TMC3    O210755   2.949   4.646  10.218 -0.3472  0.2873  0.1643
  728TMC3    C110756   1.289   2.628  15.448 -0.1728  0.4940  0.3083
  728TMC3    C210757   1.409   2.670  15.502  0.0301  0.5739  0.4318
  728TMC3    C310758   1.510   2.705  15.412 -0.4139 -0.7934  0.0893
  728TMC3    C410759   1.260   2.642  15.310 -0.7047 -0.0637 -0.6261
  728TMC3    C510760   1.359   2.683  15.230 -0.1523  0.1142 -0.9049
  728TMC3    C610761   1.486   2.702  15.276  0.4453  0.4964  0.2240
  728TMC3     C10762   1.178   2.665  15.542  0.3982  0.5993 -0.2390
  728TMC3     O10763   1.216   2.707  15.648 -0.3229 -0.2982 -0.0992
  728TMC3     H10764   1.441   2.651  15.603  1.7952 -2.4068 -0.6929
  728TMC3    H110765   1.165   2.628  15.260 -0.8178 -0.5683 -0.2723
  728TMC3    H210766   1.556   2.740  15.203  0.1025  0.8090  0.0560
  728TMC3    C710767   1.334   2.722  15.091  0.0600 -0.3008 -0.2047
  728TMC3    C810768   1.640   2.758  15.461  0.1168  0.1223 -0.0844
  728TMC3    O110769   1.272   2.642  15.025 -0.8382 -0.3867  0.0008
  728TMC3    O210770   1.648   2.788  15.577 -0.0940 -0.1236 -0.0324
  729MPD2     C10771   3.290   3.992  17.271 -0.3837  0.4238  0.1003
  729MPD2    C110772   3.392   3.901  17.278  0.4162  0.5932 -0.9080
  729MPD2    C210773   3.423   3.847  17.404  0.3412  0.1430  0.1768
  729MPD2    C310774   3.360   3.891  17.515 -0.4725  1.4171  0.2534
  729MPD2    C410775   3.255   3.983  17.512  0.6098  0.3971  0.6113
  729MPD2    C510776   3.219   4.030  17.382 -0.0060 -0.4958  0.1756
  729MPD2     H10777   3.502   3.776  17.428  2.4513  2.0853 -1.1215
  729MPD2    H110778   3.197   4.018  17.597  0.7530  0.1564  0.8101
  729MPD2    H210779   3.243   4.023  17.178  0.0419 -1.6928 -0.8097
  729MPD2    H310780   3.145   4.107  17.363 -0.0285 -0.4672  0.3738
  729MPD2     N10781   3.405   3.838  17.641 -0.3283  0.3857  0.9012
  729MPD2    H510782   3.478   3.768  17.630  1.5139  2.6454 -1.3535
  729MPD2    N110783   3.451   3.865  17.156  0.3099 -1.1020 -0.1590
  729MPD2    H710784   3.422   3.913  17.071  0.2350 -1.2090 -0.1929
  730TMC3    C110785   3.527   3.938   0.117 -0.7345 -0.4565  1.3319
  730TMC3    C210786   3.621   3.860   0.070  0.2173 -0.2577  0.1349
  730TMC3    C310787   3.730   3.914   0.001  0.3204  0.6481  0.4255
  730TMC3    C410788   3.542   4.074   0.121 -0.2329 -0.2534 -0.3417
  730TMC3    C510789   3.657   4.131   0.058 -0.2861  0.1149  0.1315
  730TMC3    C610790   3.747   4.050  17.685 -0.2858  0.1700  0.1571
  730TMC3     C10791   3.395   3.913   0.068  0.5212  0.2855 -0.1084
  730TMC3     O10792   3.306   3.986   0.105 -0.1106 -0.1508  0.5729
  730TMC3     H10793   3.607   3.752   0.068 -1.4256 -0.0308 -0.9500
  730TMC3    H110794   3.470   4.131   0.178  0.4745 -0.1109  0.4085
  730TMC3    H210795   3.836   4.086  17.635  1.1639 -0.8573  1.9973
  730TMC3    C710796   3.619   4.255  17.689 -0.2458 -0.6497  0.6736
  730TMC3    C810797   3.792   3.823  17.600 -0.1839  0.1563  0.0724
  730TMC3    O110798   3.661   4.275  17.572  0.4630  0.0699  0.3118
  730TMC3    O210799   3.796   3.710  17.641 -0.4746  0.2987 -0.2951
  731MPD2     C10800   3.528   2.079  11.829 -0.2343 -0.2869 -0.7188
  731MPD2    C110801   3.439   1.991  11.890  0.0711 -0.6927 -0.9081
  731MPD2    C210802   3.430   1.997  12.029 -0.2175  0.6675  0.2907
  731MPD2    C310803   3.513   2.077  12.105  0.3102  0.6675 -0.0705
  731MPD2    C410804   3.601   2.164  12.043  0.9995 -0.2238 -0.4919
  731MPD2    C510805   3.601   2.165  11.905  0.0278 -0.1303 -0.1581
  731MPD2     H10806   3.348   1.944  12.077  0.2885  1.2783  1.8327
  731MPD2    H110807   3.657   2.237  12.101 -1.3393  0.0933  1.3285
  731MPD2    H210808   3.535   2.074  11.721 -0.7890  0.0056 -0.7679
  731MPD2    H310809   3.661   2.237  11.850  0.7279 -0.0746  0.6814
  731MPD2     N10810   3.511   2.068  12.240 -0.3179  0.0455 -0.0548
  731MPD2    H510811   3.560   2.146  12.284 -1.6183  0.0572  1.3579
  731MPD2    N110812   3.363   1.901  11.806 -0.0438  0.0371  0.1549
  731MPD2    H710813   3.375   1.905  11.705  2.1791  0.4641  0.4297
  732TMC3    C110814   3.246   1.719  11.731 -0.3838 -1.1744 -0.2421
  732TMC3    C210815   3.135   1.640  11.732 -0.3428 -0.0466  1.1205
  732TMC3    C310816   3.124   1.525  11.663  0.2955  0.6823  0.1356
  732TMC3    C410817   3.358   1.682  11.659  0.8825 -0.9465 -0.8791
  732TMC3    C510818   3.347   1.570  11.577  0.1792  0.0950 -0.4994
  732TMC3    C610819   3.227   1.493  11.577 -0.2129 -0.2209  0.0676
  732TMC3     C10820   3.270   1.811  11.844 -0.7708 -0.1417 -0.3593
  732TMC3     O10821   3.212   1.784  11.952 -0.4989 -0.1191 -0.2307
  732TMC3     H10822   3.052   1.675  11.793 -1.0401  0.1413  0.0724
  732TMC3    H110823   3.444   1.748  11.649  1.6952 -2.2196 -2.3228
  732TMC3    H210824   3.227   1.398  11.526 -5.6010 -0.5128  0.6590
  732TMC3    C710825   3.468   1.488  11.578 -0.0535 -0.0906  0.3761
  732TMC3    C810826   3.000   1.446  11.650  0.1821 -0.2268 -0.0265
  732TMC3    O110827   3.504   1.423  11.480  0.3641 -0.9790  0.6653
  732TMC3    O210828   2.989   1.361  11.565  0.1119 -0.4326 -0.5045
  733TMC3    C110829   4.156   0.841  12.880  0.2653  0.8954 -0.1360
  733TMC3    C210830   4.248   0.830  12.975  0.3635  0.1710  0.5968
  733TMC3    C310831   4.375   0.858  12.938  0.3802 -0.1878 -0.2440
  733TMC3    C410832   4.192   0.878  12.750  0.0486 -0.1543  0.3117
  733TMC3    C510833   4.319   0.890  12.711 -0.2764  0.3072  0.3172
  733TMC3    C610834   4.419   0.892  12.809  0.0040 -0.5765  0.1845
  733TMC3     C10835   4.035   0.899  12.919  0.0263 -0.3879 -0.3627
  733TMC3     O10836   3.993   1.002  12.862  0.3560  0.0059 -0.3272
  733TMC3     H10837   4.234   0.789  13.075 -1.4333 -0.9991 -0.1409
  733TMC3    H110838   4.111   0.888  12.678  1.2885 -3.4215 -1.5519
  733TMC3    H210839   4.522   0.919  12.789 -0.2785  0.8224  0.5853
  733TMC3    C710840   4.341   0.930  12.571  0.0610 -0.1179  0.2667
  733TMC3    C810841   4.473   0.801  13.030  0.2850 -0.4855  0.3490
  733TMC3    O110842   4.258   0.974  12.496 -0.0431  0.6172  0.2740
  733TMC3    O210843   4.449   0.807  13.146 -0.6554  0.0129 -0.1855
  734MPD2     C10844   2.058   2.797  12.470 -0.8496  0.2805 -0.5454
  734MPD2    C110845   1.958   2.752  12.390 -0.3187 -0.5716  0.3382
  734MPD2    C210846   1.963   2.786  12.254  0.2350 -0.4029  0.2148
  734MPD2    C310847   2.066   2.853  12.206 -0.1085  0.0038 -0.2088
  734MPD2    C410848   2.169   2.891  12.283 -0.0118 -0.2976  0.8104
  734MPD2    C510849   2.167   2.861  12.413  0.2539  0.0642 -0.1271
  734MPD2     H10850   1.894   2.749  12.180 -0.2575  0.8087  0.0602
  734MPD2    H110851   2.262   2.928  12.241 -1.3009  1.0017 -0.9008
  734MPD2    H210852   2.060   2.746  12.565 -0.2139  1.3810  0.0433
  734MPD2    H310853   2.258   2.874  12.470  2.2733  1.4666 -3.6909
  734MPD2     N10854   2.068   2.868  12.062 -0.1907 -0.1894  0.7313
  734MPD2    H510855   1.984   2.841  12.012 -1.3012 -0.7643  2.9064
  734MPD2    N110856   1.866   2.657  12.435  0.2876 -0.4458  0.4016
  734MPD2    H710857   1.883   2.628  12.531 -0.8523  0.2832  0.8240
  735TMC3    C110858   1.693   2.500  12.421  0.3671  0.0565 -0.6661
  735TMC3    C210859   1.595   2.460  12.336 -0.9342  0.1663  0.1595
  735TMC3    C310860   1.579   2.326  12.302  0.5475  0.1350  0.6916
  735TMC3    C410861   1.777   2.404  12.470 -0.2663 -0.9561  0.9774
  735TMC3    C510862   1.762   2.272  12.433 -0.4561 -0.4560 -0.1423
  735TMC3    C610863   1.663   2.231  12.347 -0.6397 -0.5799 -0.4826
  735TMC3     C10864   1.762   2.609  12.358 -0.5485  0.3176 -0.5591
  735TMC3     O10865   1.721   2.632  12.246  0.4141  0.1749 -0.3994
  735TMC3     H10866   1.528   2.536  12.298 -0.9327  0.3796  0.5755
  735TMC3    H110867   1.859   2.421  12.540 -2.4135 -1.9647  3.7375
  735TMC3    H210868   1.658   2.132  12.305 -1.4675 -0.3183 -1.0077
  735TMC3    C710869   1.893   2.222  12.393 -0.2341  0.5580  0.7476
  735TMC3    C810870   1.562   2.314  12.159  0.6231 -0.0527  0.2928
  735TMC3    O110871   1.959   2.302  12.322  0.2107  0.0165 -0.1436
  735TMC3    O210872   1.511   2.213  12.118 -0.1536 -0.1784 -0.2420
  736MPD2     C10873   2.029   1.885  12.429 -0.1387  0.7058  0.3100
  736MPD2    C110874   2.020   2.012  12.378  0.8449 -0.6189 -0.0984
  736MPD2    C210875   2.110   2.057  12.282 -0.3204  0.3133  0.3189
  736MPD2    C310876   2.215   1.977  12.243  0.1010 -0.7307  0.1060
  736MPD2    C410877   2.234   1.861  12.311  0.0301 -0.0562 -0.3976
  736MPD2    C510878   2.143   1.813  12.402  0.5097 -0.5174 -0.2949
  736MPD2     H10879   2.096   2.148  12.225 -0.7853  0.0482  0.0071
  736MPD2    H110880   2.324   1.801  12.308  0.7991  1.1233 -0.6422
  736MPD2    H210881   1.960   1.841  12.500 -1.1276 -0.3319 -1.2944
  736MPD2    H310882   2.153   1.716  12.449  1.8967  0.2652  1.0074
  736MPD2     N10883   2.315   2.017  12.150  0.0518 -1.2997 -0.2515
  736MPD2    H510884   2.379   1.946  12.115 -2.0284 -2.7295 -1.1675
  736MPD2    N110885   1.906   2.089  12.411  0.0017 -0.2777 -0.8153
  736MPD2    H710886   1.840   2.037  12.469  0.4702 -0.3572 -0.3468
  737TMC3    C110887   2.449   2.142  12.022  0.2823  0.3344 -1.1582
  737TMC3    C210888   2.489   2.269  11.986  0.4104 -0.4992 -0.5413
  737TMC3    C310889   2.587   2.281  11.893 -0.2102 -0.2526 -0.2217
  737TMC3    C410890   2.487   2.024  11.962 -0.3775  0.2736 -0.2809
  737TMC3    C510891   2.577   2.044  11.860  0.4886 -0.6437 -0.2911
  737TMC3    C610892   2.630   2.168  11.823  0.0730  0.3574 -0.8696
  737TMC3     C10893   2.325   2.143  12.093 -0.1348 -0.0060 -0.1773
  737TMC3     O10894   2.276   2.247  12.131  0.1465  0.4756  0.3066
  737TMC3     H10895   2.480   2.361  12.042  2.3089 -2.2013  2.5722
  737TMC3    H110896   2.435   1.929  11.974 -1.4332  0.8028 -0.6785
  737TMC3    H210897   2.701   2.189  11.744  0.6421 -0.8792 -0.6829
  737TMC3    C710898   2.637   1.927  11.799  0.3300 -0.1194 -0.0096
  737TMC3    C810899   2.627   2.414  11.867  0.4669  0.9349  0.2542
  737TMC3    O110900   2.602   1.824  11.857  0.3153  1.0249  0.3040
  737TMC3    O210901   2.636   2.492  11.960 -0.3165 -0.0079 -0.7349
  738MPD2     C10902   2.486   1.629  15.252 -0.0079 -0.2121  0.0661
  738MPD2    C110903   2.475   1.533  15.158  0.0885  0.0183  0.2954
  738MPD2    C210904   2.543   1.541  15.038  0.7220  0.1065 -0.0724
  738MPD2    C310905   2.623   1.658  15.014 -0.3808  0.1476 -0.5654
  738MPD2    C410906   2.622   1.757  15.109 -0.1066 -0.5303 -0.5303
  738MPD2    C510907   2.562   1.740  15.233  0.5477 -0.2273  0.2441
  738MPD2     H10908   2.553   1.457  14.971 -1.2135 -1.1205  1.1814
  738MPD2    H110909   2.675   1.849  15.087 -2.1981  0.7339 -0.2878
  738MPD2    H210910   2.430   1.623  15.345 -1.2139  1.1745 -0.5676
  738MPD2    H310911   2.558   1.813  15.313 -0.1601  0.8013 -0.7473
  738MPD2     N10912   2.713   1.679  14.907  0.6731 -0.3144 -0.0070
  738MPD2    H510913   2.780   1.754  14.915 -0.9775  1.2689 -0.9920
  738MPD2    N110914   2.401   1.408  15.183 -0.1313 -0.0585 -0.5245
  738MPD2    H710915   2.410   1.339  15.109 -0.5745  0.0475 -0.6778
  739TMC3    C110916   2.860   1.629  14.740  0.0404 -0.6159  0.5063
  739TMC3    C210917   2.871   1.630  14.605 -0.2961  0.8404  0.5050
  739TMC3    C310918   2.994   1.664  14.554 -0.5908 -0.0696 -0.1019
  739TMC3    C410919   2.966   1.656  14.829 -0.1435  0.3744 -0.2058
  739TMC3    C510920   3.093   1.673  14.774  0.6322  1.0610  0.2225
  739TMC3    C610921   3.108   1.682  14.633  0.0458 -0.0141 -0.6382
  739TMC3     C10922   2.733   1.596  14.800 -0.2548 -0.5518  0.6556
  739TMC3     O10923   2.669   1.500  14.759 -0.2433 -0.3724 -0.4652
  739TMC3     H10924   2.780   1.628  14.546  0.6111  1.4588 -0.9180
  739TMC3    H110925   2.962   1.651  14.937  2.9657 -4.2312 -0.3156
  739TMC3    H210926   3.202   1.713  14.589  0.3384 -0.6198 -0.4307
  739TMC3    C710927   3.206   1.701  14.857 -0.4101 -0.0029 -0.0956
  739TMC3    C810928   2.996   1.666  14.407 -0.2293 -0.6455 -0.2657
  739TMC3    O110929   3.311   1.699  14.795 -0.6034 -0.1203  0.5303
  739TMC3    O210930   2.902   1.631  14.333 -0.0283  0.4847 -0.1531
  740TMC3    C110931   3.282   2.745  14.428 -0.3644 -0.0959 -1.1232
  740TMC3    C210932   3.268   2.689  14.554  0.1080  0.7507  0.2139
  740TMC3    C310933   3.375   2.628  14.604  0.0540 -0.4276 -0.0136
  740TMC3    C410934   3.388   2.712  14.347 -0.0006  0.1712 -0.0193
  740TMC3    C510935   3.488   2.637  14.395 -0.3405  0.2424  0.2509
  740TMC3    C610936   3.482   2.593  14.524  0.4352 -0.8773  0.2589
  740TMC3     C10937   3.160   2.764  14.351  0.4518  0.4289  0.1886
  740TMC3     O10938   3.178   2.779  14.229 -0.6984 -0.5285 -0.3805
  740TMC3     H10939   3.190   2.733  14.617  0.8787  2.3661  0.0326
  740TMC3    H110940   3.385   2.746  14.244  2.1291  1.8720  0.4838
  740TMC3    H210941   3.564   2.532  14.559  1.0490 -0.7892 -1.0330
  740TMC3    C710942   3.598   2.601  14.305 -0.1462  0.5962 -0.0243
  740TMC3    C810943   3.338   2.534  14.708 -0.5255 -0.3181 -0.1443
  740TMC3    O110944   3.697   2.542  14.349  0.2883 -0.9499 -0.5399
  740TMC3    O210945   3.219   2.523  14.727 -0.2835 -0.4773  0.2716
  741TMC3    C110946   2.858   2.079  13.955 -0.0683  0.7835  0.2859
  741TMC3    C210947   2.757   1.986  13.965 -0.0955  0.0292  0.1297
  741TMC3    C310948   2.758   1.902  14.078 -0.3512  0.4289 -0.2187
  741TMC3    C410949   2.957   2.096  14.051  0.7198 -0.4811 -0.3329
  741TMC3    C510950   2.950   2.017  14.162 -1.1067 -0.1776  0.2396
  741TMC3    C610951   2.849   1.915  14.173  0.3226 -0.5693  0.5100
  741TMC3     C10952   2.806   2.203  13.889 -0.6467  0.0451  0.6297
  741TMC3     O10953   2.690   2.213  13.871 -0.0520  0.0767 -0.1377
  741TMC3     H10954   2.676   1.992  13.894  0.1505  0.5440 -0.1048
  741TMC3    H110955   3.039   2.165  14.033  1.0175 -0.3796  1.4689
  741TMC3    H210956   2.847   1.866  14.270 -2.0820 -0.4376  0.5179
  741TMC3    C710957   3.040   2.055  14.266  0.5484  0.5423  0.4220
  741TMC3    C810958   2.638   1.831  14.102 -0.7249 -0.5296 -0.1163
  741TMC3    O110959   3.130   2.138  14.244 -0.3080  0.3525 -0.3836
  741TMC3    O210960   2.557   1.841  14.014 -0.0356 -0.1035  0.1170
  742TMC3    C110961   2.511   0.463  15.478  0.7043 -0.9929  0.2866
  742TMC3    C210962   2.450   0.470  15.358 -0.0718  0.8047  0.6093
  742TMC3    C310963   2.518   0.423  15.251 -0.4095  0.3299 -0.2628
  742TMC3    C410964   2.630   0.408  15.508 -0.2443  0.2729 -0.0445
  742TMC3    C510965   2.688   0.356  15.398 -0.2901  0.1530 -0.2578
  742TMC3    C610966   2.637   0.357  15.269  0.2709 -1.0362 -0.6611
  742TMC3     C10967   2.436   0.547  15.575 -0.7980  0.6382  1.2493
  742TMC3     O10968   2.370   0.640  15.534  0.0136  0.6191 -0.0620
  742TMC3     H10969   2.362   0.531  15.339 -0.1919 -0.0069 -1.3964
  742TMC3    H110970   2.672   0.409  15.608 -2.6237 -0.5234  0.9583
  742TMC3    H210971   2.698   0.339  15.182  1.2791  0.8472 -0.3292
  742TMC3    C710972   2.784   0.254  15.427  0.3023  0.2678 -0.0920
  742TMC3    C810973   2.464   0.427  15.112 -0.3250 -0.0697  0.3419
  742TMC3    O110974   2.857   0.225  15.335  0.0357  0.2389 -0.2545
  742TMC3    O210975   2.523   0.360  15.025  0.6892 -0.0417 -0.0839
  743MPD2     C10976   0.958   1.075   1.961  0.1407  0.9143  0.2880
  743MPD2    C110977   1.044   1.179   1.927 -0.1792 -0.2648 -0.2199
  743MPD2    C210978   1.180   1.169   1.973 -0.5593  0.8567 -0.6522
  743MPD2    C310979   1.222   1.057   2.042  0.3565  0.0363 -0.0798
  743MPD2    C410980   1.128   0.955   2.075 -0.5772 -0.5044  0.0880
  743MPD2    C510981   1.000   0.959   2.032  0.6606 -0.4024 -0.0017
  743MPD2     H10982   1.258   1.243   1.955  0.8444 -0.2575  0.8679
  743MPD2    H110983   1.163   0.869   2.132  0.6633  1.1776  1.8344
  743MPD2    H210984   0.850   1.086   1.950  0.2714  2.4392  0.5986
  743MPD2    H310985   0.926   0.886   2.063  1.1429 -0.2635  1.4637
  743MPD2     N10986   1.358   1.056   2.073 -0.3375 -0.5231 -0.0011
  743MPD2    H510987   1.410   1.134   2.033 -0.6175 -0.4162 -0.1587
  743MPD2    N110988   0.995   1.298   1.870  0.0693  0.3553 -0.1828
  743MPD2    H710989   0.899   1.325   1.888  0.2216  1.7201 -1.4399
  744TMC3    C110990   1.004   1.495   1.749 -0.0120 -0.1279 -0.0522
  744TMC3    C210991   0.904   1.539   1.828  0.3597  0.6578 -0.0076
  744TMC3    C310992   0.844   1.656   1.776  0.1661  0.0290  0.2931
  744TMC3    C410993   1.047   1.555   1.635  0.4588 -0.2703 -0.1822
  744TMC3    C510994   0.971   1.655   1.581 -0.1362  0.6027 -0.4236
  744TMC3    C610995   0.869   1.712   1.651  0.2354  0.5811  0.3715
  744TMC3     C10996   1.076   1.381   1.794  0.0864  0.0139 -0.2655
  744TMC3     O10997   1.181   1.357   1.747 -0.0077 -0.1897  0.3335
  744TMC3     H10998   0.894   1.520   1.934 -1.7877  2.1730  0.0686
  744TMC3    H110999   1.123   1.510   1.572  2.6308  1.1079  1.4888
  744TMC3    H211000   0.823   1.807   1.628 -0.7634 -0.1912 -0.8151
  744TMC3    C711001   0.979   1.680   1.440 -0.2240  0.8837 -0.0240
  744TMC3    C811002   0.735   1.718   1.847  0.5865 -0.3091  0.1631
  744TMC3    O111003   1.078   1.646   1.376 -0.2232  0.4878 -0.1090
  744TMC3    O211004   0.689   1.828   1.813  0.1845 -0.6199  0.4629
  745TMC3    C111005   2.755   0.277  13.272  0.2045 -0.1261  0.8203
  745TMC3    C211006   2.645   0.228  13.344  0.0033 -0.1226 -0.0621
  745TMC3    C311007   2.539   0.304  13.367 -0.3722  0.3876 -0.0382
  745TMC3    C411008   2.743   0.405  13.216  0.1900  0.7038 -0.3068
  745TMC3    C511009   2.623   0.464  13.213  0.0143 -0.1208  0.0008
  745TMC3    C611010   2.522   0.419  13.297 -0.1697 -0.1982 -0.2788
  745TMC3     C11011   2.878   0.243  13.337  0.1116  0.5209  0.0186
  745TMC3     O11012   2.871   0.147  13.412  0.7916 -0.2008 -0.1234
  745TMC3     H11013   2.651   0.133  13.396 -0.4018  0.1127  0.4105
  745TMC3    H111014   2.822   0.427  13.144  0.9615  1.7302  0.8515
  745TMC3    H211015   2.424   0.466  13.299 -1.1326 -2.1904 -0.3889
  745TMC3    C711016   2.595   0.578  13.132  0.2964  0.1666 -0.1217
  745TMC3    C811017   2.503   0.319  13.506 -0.1532 -0.0635  0.0620
  745TMC3    O111018   2.492   0.633  13.152 -0.3040 -0.0651 -0.4297
  745TMC3    O211019   2.401   0.380  13.531  0.3847 -0.4266 -0.3766
  746TMC3    C111020   1.098   1.742  10.935  0.5608  0.3286 -0.6099
  746TMC3    C211021   1.149   1.712  10.808  0.4454  0.4998  0.1241
  746TMC3    C311022   1.085   1.612  10.734 -0.2823  0.8856 -0.0575
  746TMC3    C411023   0.975   1.690  10.972 -0.4698  0.0389  0.5660
  746TMC3    C511024   0.924   1.595  10.893 -0.3419 -0.0006  0.0574
  746TMC3    C611025   0.976   1.542  10.785 -0.2460  0.0699  0.5482
  746TMC3     C11026   1.134   1.866  11.000 -0.1764  0.9424 -0.6879
  746TMC3     O11027   1.068   1.909  11.095  0.0259  0.8430  0.1482
  746TMC3     H11028   1.248   1.745  10.779  0.2010  0.2626 -0.9557
  746TMC3    H111029   0.918   1.729  11.056 -0.4785  0.7265  0.2465
  746TMC3    H211030   0.932   1.468  10.719  1.8022  0.6852 -1.5103
  746TMC3    C711031   0.794   1.552  10.907 -0.0985 -1.2140 -0.0610
  746TMC3    C811032   1.156   1.553  10.627  0.2458  0.2081 -0.0168
  746TMC3    O111033   0.730   1.548  10.801 -0.3395 -0.4973  0.1184
  746TMC3    O211034   1.165   1.431  10.617 -0.5909 -0.1319  0.0229
  747TMC3    C111035   3.228   2.014  10.959 -0.2263 -0.0682  0.3814
  747TMC3    C211036   3.160   1.911  11.014 -0.7774 -0.7932  0.4525
  747TMC3    C311037   3.134   1.927  11.145  0.1716  0.2478 -1.0679
  747TMC3    C411038   3.287   2.108  11.040  0.6702 -0.3095  0.3239
  747TMC3    C511039   3.273   2.110  11.177  0.1395  0.3615 -0.0539
  747TMC3    C611040   3.208   2.004  11.235  0.6712 -0.2346  0.4394
  747TMC3     C11041   3.208   2.052  10.824  0.1861 -0.0432  0.7866
  747TMC3     O11042   3.224   2.172  10.796 -0.1252 -0.2419  0.2048
  747TMC3     H11043   3.111   1.832  10.958  2.6515 -1.5049 -1.5416
  747TMC3    H111044   3.348   2.187  10.998  0.9285 -0.9168 -0.4408
  747TMC3    H211045   3.185   2.006  11.341 -1.3148  3.3167 -0.0565
  747TMC3    C711046   3.322   2.208  11.268  0.1543  0.0317 -0.5235
  747TMC3    C811047   3.039   1.834  11.194  0.5364  0.5279 -0.1691
  747TMC3    O111048   3.310   2.178  11.386  0.1428  0.5997  0.5191
  747TMC3    O211049   3.051   1.717  11.162  0.5573 -0.3448 -0.2193
  748MPD2     C11050   4.567   2.972   0.956 -0.0290  0.4134 -0.6736
  748MPD2    C111051   4.622   2.887   1.045 -0.2044 -0.2273  0.0220
  748MPD2    C211052   0.030   2.846   1.025 -0.1175 -0.8624  0.0932
  748MPD2    C311053   0.101   2.897   0.915  0.0683  0.2118  0.4317
  748MPD2    C411054   0.042   2.979   0.822 -0.0636 -0.0227 -0.2220
  748MPD2    C511055   4.631   3.004   0.842  0.3239  0.1389  0.0218
  748MPD2     H11056   0.079   2.772   1.087 -0.7307 -2.5282 -1.3984
  748MPD2    H111057   0.098   3.028   0.743  0.0389  0.7723  0.3489
  748MPD2    H211058   4.467   3.012   0.972 -0.4393 -0.3727 -1.2603
  748MPD2    H311059   4.576   3.066   0.772  0.5565  0.9986  0.5886
  748MPD2     N11060   0.244   2.881   0.912 -0.5712  0.4415  0.6159
  748MPD2    H511061   0.281   2.856   1.003  0.2093 -0.7044 -0.0183
  748MPD2    N111062   4.551   2.844   1.157  0.9709 -0.0789 -0.4689
  748MPD2    H711063   4.465   2.895   1.168  0.5957 -1.2471  1.9151
  749TMC3    C111064   0.469   2.883   0.863 -0.2526  0.1782  0.3084
  749TMC3    C211065   0.493   2.805   0.976 -0.3986  0.1432 -0.7227
  749TMC3    C311066   0.618   2.822   1.042  0.0046  0.0537 -0.5569
  749TMC3    C411067   0.574   2.960   0.810 -0.4185  0.0326 -0.4994
  749TMC3    C511068   0.693   2.968   0.881 -0.0665 -0.1834 -0.5152
  749TMC3    C611069   0.719   2.904   0.998 -0.0858 -0.0162 -0.7952
  749TMC3     C11070   0.338   2.903   0.809 -0.0085  0.1732  0.6506
  749TMC3     O11071   0.319   2.940   0.694  0.7434 -0.0133  0.0446
  749TMC3     H11072   0.421   2.739   1.021  1.1158 -0.8305  0.2795
  749TMC3    H111073   0.564   3.006   0.713  0.8751 -0.5745 -0.9198
  749TMC3    H211074   0.812   2.920   1.050 -0.6011  1.4065 -0.3140
  749TMC3    C711075   0.797   3.046   0.829 -0.2149  0.4844  0.2015
  749TMC3    C811076   0.632   2.760   1.171 -0.0761 -0.1670 -0.2697
  749TMC3    O111077   0.866   3.103   0.918  0.2265 -0.2433 -0.4102
  749TMC3    O211078   0.539   2.755   1.252  0.4623 -0.5691  0.1686
  750MPD2     C11079   1.447   3.903  11.295 -0.7732  0.6216  0.1346
  750MPD2    C111080   1.320   3.883  11.325  0.3980 -0.2334  0.0220
  750MPD2    C211081   1.246   3.796  11.246 -0.1199  0.4078  0.5009
  750MPD2    C311082   1.310   3.716  11.151 -0.2333  0.5017 -0.8492
  750MPD2    C411083   1.441   3.746  11.116 -0.5506  0.8975  1.1431
  750MPD2    C511084   1.508   3.844  11.187  0.4251  0.2829  0.5793
  750MPD2     H11085   1.143   3.771  11.269  0.7058 -1.4039  2.2258
  750MPD2    H111086   1.498   3.687  11.045 -1.1568 -1.8779  2.9826
  750MPD2    H211087   1.501   3.979  11.350 -0.9028  1.2446 -0.5961
  750MPD2    H311088   1.615   3.860  11.180  0.1558  2.3199  1.1808
  750MPD2     N11089   1.245   3.621  11.070  0.3161  0.3104  0.5875
  750MPD2    H511090   1.312   3.583  11.004 -1.5338  2.1386 -2.3106
  750MPD2    N111091   1.272   3.951  11.440  0.3734  0.2194 -0.1801
  750MPD2    H711092   1.337   4.008  11.494  0.1973 -1.0773  1.3932
  751TMC3    C111093   1.064   3.487  10.973 -0.7982  0.5959  0.5149
  751TMC3    C211094   0.943   3.428  10.995  0.0090 -0.3262  0.1825
  751TMC3    C311095   0.869   3.378  10.889 -0.1653 -0.0977 -0.3786
  751TMC3    C411096   1.117   3.492  10.852 -0.0372  0.3813  0.0427
  751TMC3    C511097   1.054   3.435  10.746  0.5613  0.5149  0.1733
  751TMC3    C611098   0.925   3.390  10.758 -0.5714 -0.2124  0.4665
  751TMC3     C11099   1.113   3.572  11.084 -0.0699  0.1007 -0.1940
  751TMC3     O11100   1.029   3.600  11.168 -0.2236  0.3343 -0.2678
  751TMC3     H11101   0.903   3.419  11.096  1.3789  2.2998  0.9792
  751TMC3    H111102   1.210   3.545  10.839 -0.8395  2.2472  1.7753
  751TMC3    H211103   0.863   3.357  10.676 -0.1352  0.8980 -0.3123
  751TMC3    C711104   1.135   3.357  10.660  0.1466 -0.2305 -0.4715
  751TMC3    C811105   0.821   3.242  10.908 -0.0485 -0.5576  0.8831
  751TMC3    O111106   1.257   3.378  10.666  0.0114 -0.2983 -0.6547
  751TMC3    O211107   0.839   3.160  10.819 -0.6988 -0.7513  0.2606
  752TMC3    C111108   4.186   2.981  17.338  0.7941 -0.2263 -0.8072
  752TMC3    C211109   4.264   2.868  17.356 -0.1342  0.0590 -0.1497
  752TMC3    C311110   4.224   2.785  17.459 -0.9721 -0.0744 -0.5988
  752TMC3    C411111   4.093   3.025  17.428 -0.6866 -0.3360 -0.2831
  752TMC3    C511112   4.061   2.934  17.529 -0.0886 -0.3618 -0.0361
  752TMC3    C611113   4.114   2.808  17.540 -0.4300 -0.0250 -0.1232
  752TMC3     C11114   4.218   3.054  17.213 -1.1945 -0.5404  0.4878
  752TMC3     O11115   4.325   3.028  17.153  0.1127  0.2049  0.0352
  752TMC3     H11116   4.341   2.842  17.284  0.4990 -3.3671  1.7711
  752TMC3    H111117   4.061   3.128  17.433 -1.9352 -0.8062  1.3251
  752TMC3    H211118   4.078   2.737  17.614  0.2825  2.2345  2.3781
  752TMC3    C711119   3.939   2.948  17.604  0.9646  0.0910  0.2955
  752TMC3    C811120   4.311   2.666  17.481 -0.3161 -0.4354 -0.2503
  752TMC3    O111121   3.900   2.853  17.675  0.3274  0.2722  0.1000
  752TMC3    O211122   4.408   2.653  17.409  0.4153  0.4852 -0.5031
  753TMC3    C111123   1.734   0.317  13.437 -0.3099 -0.4285  0.6277
  753TMC3    C211124   1.813   0.310  13.547  0.1273  0.5135  0.0185
  753TMC3    C311125   1.848   0.186  13.601 -0.4060 -0.1249  0.0407
  753TMC3    C411126   1.674   0.208  13.386 -0.1389  0.4078  0.3623
  753TMC3    C511127   1.719   0.093  13.431  0.9631 -0.1718 -0.4602
  753TMC3    C611128   1.803   0.074  13.535 -0.4884  0.0247  0.6396
  753TMC3     C11129   1.695   0.449  13.386 -0.2854 -0.7746 -0.0548
  753TMC3     O11130   1.606   0.454  13.301 -0.0413  0.3772 -0.4512
  753TMC3     H11131   1.853   0.395  13.602 -0.1906  0.6291  0.0677
  753TMC3    H111132   1.610   0.213  13.298 -1.0692 -0.0906  1.0105
  753TMC3    H211133   1.834   4.694  13.549  0.9930  0.4425  0.4591
  753TMC3    C711134   1.664   4.697  13.368  0.1290 -0.1917 -0.3808
  753TMC3    C811135   1.968   0.178  13.687  0.5711 -0.4499 -0.2512
  753TMC3    O111136   1.738   4.597  13.349  0.0695 -0.3263  0.0764
  753TMC3    O211137   2.051   0.096  13.651  0.6544 -0.2666 -0.5878
  754MPD2     C11138   0.458   3.432  12.862 -0.0823  0.1386  0.2169
  754MPD2    C111139   0.402   3.356  12.958  0.0512  0.1121 -0.6497
  754MPD2    C211140   0.265   3.336  12.964 -0.2349  0.3292  1.0425
  754MPD2    C311141   0.184   3.392  12.864 -0.1209  0.2847  0.4531
  754MPD2    C411142   0.237   3.461  12.763  0.6135  0.4137  0.4065
  754MPD2    C511143   0.368   3.486  12.767  0.0788  0.8746  0.1685
  754MPD2     H11144   0.228   3.265  13.038  2.0135 -2.1798 -0.2350
  754MPD2    H111145   0.172   3.500  12.684 -1.0024  0.2493  1.6436
  754MPD2    H211146   0.563   3.452  12.847  0.4099 -2.5877  0.0415
  754MPD2    H311147   0.406   3.537  12.680  0.0079 -0.8258 -0.8604
  754MPD2     N11148   0.040   3.388  12.857 -0.0051  0.7775  0.7212
  754MPD2    H511149   4.721   3.446  12.786 -1.4799  1.4006  2.1284
  754MPD2    N111150   0.472   3.302  13.062 -0.0358  0.4257  0.4203
  754MPD2    H711151   0.417   3.268  13.140  1.1298 -1.2496  0.5129
  755MPD2     C11152   3.838   3.763  13.042 -0.4458  0.3259 -0.3534
  755MPD2    C111153   3.974   3.810  13.032 -0.6080 -0.1951 -0.5081
  755MPD2    C211154   4.072   3.723  12.992  0.3988  0.1036  0.3068
  755MPD2    C311155   4.037   3.585  12.966  0.2827  0.3904  0.1624
  755MPD2    C411156   3.909   3.546  12.974  0.3295 -0.5893  0.0290
  755MPD2    C511157   3.810   3.636  12.997 -0.0177  1.1306  0.0599
  755MPD2     H11158   4.177   3.750  12.985 -0.0557  2.0832  1.2134
  755MPD2    H111159   3.887   3.445  12.944 -0.7167 -0.0320 -1.0649
  755MPD2    H211160   3.752   3.823  13.072 -1.2542 -0.0198 -2.0285
  755MPD2    H311161   3.705   3.609  13.003  0.2836  0.3118  1.6449
  755MPD2     N11162   4.127   3.483  12.930  0.1195  0.1677  0.0490
  755MPD2    H511163   4.091   3.398  12.890  2.1945 -0.0898 -1.2727
  755MPD2    N111164   4.007   3.946  13.069 -0.6156  0.9893  0.0331
  755MPD2    H711165   4.105   3.967  13.058 -0.6546  0.6568 -0.9807
  756MPD2     C11166   0.686   4.506   9.359 -0.1999  0.0257 -0.3281
  756MPD2    C111167   0.633   4.447   9.477 -0.3277 -0.4256  0.2696
  756MPD2    C211168   0.505   4.392   9.462 -0.7139  0.5333 -0.3810
  756MPD2    C311169   0.436   4.405   9.343 -0.5817  0.4050  0.2504
  756MPD2    C411170   0.490   4.468   9.229 -1.1564 -0.6004  0.7776
  756MPD2    C511171   0.616   4.510   9.243 -1.2249  0.1057 -0.1966
  756MPD2     H11172   0.459   4.341   9.545  1.2722 -2.4067 -1.1023
  756MPD2    H111173   0.442   4.462   9.131  0.1877 -1.0650  0.1529
  756MPD2    H211174   0.780   4.559   9.371 -1.1667  1.5354  0.6904
  756MPD2    H311175   0.650   4.569   9.159 -0.5269  2.6450  1.8469
  756MPD2     N11176   0.309   4.334   9.342  0.4068 -0.4263 -0.1737
  756MPD2    H511177   0.292   4.271   9.420 -1.8312 -0.2667 -0.5198
  756MPD2    N111178   0.715   4.425   9.589 -0.0721 -0.4880  0.0736
  756MPD2    H711179   0.667   4.365   9.655  0.1841  0.1819  0.8587
  757MPD2     C11180   0.054   3.682   9.854  0.4782 -0.3449 -0.0307
  757MPD2    C111181   0.161   3.712   9.771 -0.6279 -0.2534  0.2324
  757MPD2    C211182   0.141   3.803   9.669 -0.0435  0.3564  0.6791
  757MPD2    C311183   0.029   3.888   9.657 -0.3279 -0.5475  0.5507
  757MPD2    C411184   4.658   3.873   9.756  0.0851 -0.0401 -0.7595
  757MPD2    C511185   4.676   3.772   9.854  0.4982 -0.1233  0.5459
  757MPD2     H11186   0.228   3.815   9.605  0.2313 -1.2377  0.7574
  757MPD2    H111187   4.574   3.939   9.771 -0.0831  0.0020 -1.9152
  757MPD2    H211188   0.069   3.611   9.935 -2.8848 -1.1796 -0.1340
  757MPD2    H311189   4.598   3.755   9.927  1.1041  1.9618  1.6830
  757MPD2     N11190   0.030   3.985   9.546 -0.4147  0.7351  0.2533
  757MPD2    H511191   0.116   3.987   9.493 -0.4689 -0.4466  0.1206
  757MPD2    N111192   0.271   3.622   9.778  0.4070 -0.8044 -0.5553
  757MPD2    H711193   0.242   3.545   9.838 -0.2951  0.0598  0.2091
  758MPD2     C11194   0.299   2.870  15.831  0.1592  0.2995 -0.6283
  758MPD2    C111195   0.385   2.965  15.879 -0.3140  0.0441  0.2930
  758MPD2    C211196   0.380   3.001  16.011 -0.2353  0.1354 -0.5998
  758MPD2    C311197   0.285   2.944  16.093 -0.7271 -0.2621 -0.3914
  758MPD2    C411198   0.188   2.861  16.034 -0.1429 -0.3736 -0.1779
  758MPD2    C511199   0.203   2.821  15.900  0.7086  0.4673 -0.2778
  758MPD2     H11200   0.445   3.074  16.058  0.5261  0.8131 -2.7246
  758MPD2    H111201   0.100   2.834  16.092 -0.7423 -0.1421 -0.9786
  758MPD2    H211202   0.293   2.837  15.728 -1.4614  0.3149 -0.5442
  758MPD2    H311203   0.135   2.749  15.857 -0.1455  1.6435 -0.8904
  758MPD2     N11204   0.260   2.983  16.229  0.1897 -0.0557  0.1039
  758MPD2    H511205   0.166   2.971  16.265 -0.1149  0.0739 -0.6377
  758MPD2    N111206   0.466   3.037  15.792 -0.2303 -0.1663 -0.1168
  758MPD2    H711207   0.472   2.998  15.698  3.4457  1.4090 -0.5419
  759MPD2     C11208   0.257   1.535  10.018  0.4622 -0.3242 -0.8358
  759MPD2    C111209   0.125   1.580  10.012 -0.0589  1.6908 -0.0660
  759MPD2    C211210   0.104   1.686   9.928 -0.6327  0.4752 -0.0399
  759MPD2    C311211   0.211   1.746   9.849  0.0397  0.4317  0.4328
  759MPD2    C411212   0.343   1.695   9.866 -0.2945  0.4438  0.2869
  759MPD2    C511213   0.361   1.586   9.948 -0.8537 -0.5106 -0.1011
  759MPD2     H11214   0.005   1.721   9.901 -0.1684  3.3036  1.9554
  759MPD2    H111215   0.430   1.727   9.810 -1.7325  1.8212 -1.1738
  759MPD2    H211216   0.288   1.462  10.090 -1.9803  0.3857  0.9528
  759MPD2    H311217   0.459   1.542   9.962 -0.5381  1.0201  2.3667
  759MPD2     N11218   0.182   1.858   9.765  0.1391 -0.0625  0.2100
  759MPD2    H511219   0.089   1.897   9.775  0.6602  1.1510  0.2978
  759MPD2    N111220   0.019   1.513  10.081  0.1383  0.6468 -0.1688
  759MPD2    H711221   4.647   1.542  10.057 -0.7797 -0.6928  1.8809
  760MPD2     C11222   3.591   4.098  11.960 -0.1195  0.0600  0.5818
  760MPD2    C111223   3.718   4.067  11.978 -0.0927 -0.1176 -0.0005
  760MPD2    C211224   3.755   3.969  12.069  0.4830 -0.3498  0.4629
  760MPD2    C311225   3.662   3.893  12.135 -0.3229 -0.0316 -0.0443
  760MPD2    C411226   3.534   3.920  12.105 -0.5647 -0.0735  0.0528
  760MPD2    C511227   3.495   4.023  12.018  0.4974  0.0190 -0.2402
  760MPD2     H11228   3.860   3.944  12.078  1.1404  2.4994  0.9307
  760MPD2    H111229   3.452   3.857  12.137 -1.3500  0.8033 -0.2338
  760MPD2    H211230   3.569   4.178  11.891 -2.3685 -1.9608 -1.0890
  760MPD2    H311231   3.396   4.051  11.986 -0.0388 -0.9741  0.5603
  760MPD2     N11232   3.688   3.779  12.216 -0.0569 -0.0408  0.1441
  760MPD2    H511233   3.611   3.717  12.240 -0.6300  0.3858 -0.5945
  760MPD2    N111234   3.827   4.142  11.920  0.1435 -0.2530 -0.1106
  760MPD2    H711235   3.920   4.118  11.952  1.1454  3.0387 -0.5671
  761MPD2     C11236   0.565   2.875  11.147 -0.2629  0.0803  0.3482
  761MPD2    C111237   0.631   2.869  11.032  0.3292  0.0559  0.0918
  761MPD2    C211238   0.693   2.986  10.990 -0.2961 -0.5029  1.2418
  761MPD2    C311239   0.687   3.104  11.065 -0.2285 -0.0773  0.8088
  761MPD2    C411240   0.618   3.104  11.180  0.1024 -0.4082  0.0460
  761MPD2    C511241   0.547   2.992  11.220 -0.2332  0.3870 -0.2743
  761MPD2     H11242   0.755   2.979  10.901 -2.8757 -1.1353 -0.5305
  761MPD2    H111243   0.611   3.187  11.249  1.2605  1.1948 -1.7782
  761MPD2    H211244   0.527   2.787  11.196 -0.2191 -0.8774 -1.3363
  761MPD2    H311245   0.490   2.987  11.311  1.1937  1.1145  0.6560
  761MPD2     N11246   0.753   3.227  11.026  0.0249  0.1023 -0.5237
  761MPD2    H511247   0.741   3.303  11.092 -0.5470 -1.3994  1.1064
  761MPD2    N111248   0.642   2.748  10.962  0.2282 -0.5633  0.4691
  761MPD2    H711249   0.597   2.672  11.012 -0.4230 -0.6773 -0.2818
  762MPD2     C11250   0.987   2.647  10.296  0.1628  0.4474  0.1464
  762MPD2    C111251   0.997   2.531  10.371 -0.1254  0.1916  0.7354
  762MPD2    C211252   1.095   2.435  10.345  0.1818 -0.3533  0.1717
  762MPD2    C311253   1.181   2.460  10.245  0.0441  0.1344 -1.0338
  762MPD2    C411254   1.170   2.579  10.175 -0.9557 -0.1387 -0.1146
  762MPD2    C511255   1.073   2.670  10.198  0.6365  0.3586 -0.3132
  762MPD2     H11256   1.112   2.345  10.403 -0.0945  0.6499  1.8057
  762MPD2    H111257   1.253   2.607  10.110 -0.4997  1.7831  1.2728
  762MPD2    H211258   0.903   2.714  10.315 -1.3132 -1.2859 -0.2255
  762MPD2    H311259   1.071   2.761  10.139 -0.4052  1.0652  0.7987
  762MPD2     N11260   1.292   2.374  10.231 -0.2062 -0.1798  0.3548
  762MPD2    H511261   1.280   2.280  10.267 -1.4638 -0.0372  0.3179
  762MPD2    N111262   0.905   2.509  10.471 -0.0544 -0.0565  0.4457
  762MPD2    H711263   0.842   2.584  10.498 -1.2429 -1.5172  1.7494
  763MPD2     C11264   2.515   3.075  16.362 -0.8974  0.8079 -0.2820
  763MPD2    C111265   2.463   3.178  16.274  0.3730 -0.9161 -1.0132
  763MPD2    C211266   2.476   3.309  16.323  0.1766  0.4596  0.8530
  763MPD2    C311267   2.537   3.339  16.446  0.1698  0.6509 -0.6796
  763MPD2    C411268   2.609   3.238  16.507  0.0156 -0.1196 -0.1839
  763MPD2    C511269   2.600   3.109  16.463 -0.2173  0.4088  0.3615
  763MPD2     H11270   2.436   3.389  16.262  2.0819  2.4127  2.1553
  763MPD2    H111271   2.665   3.262  16.596 -1.0048  0.9106  0.1783
  763MPD2    H211272   2.499   2.969  16.346 -1.4766  0.7577  0.6578
  763MPD2    H311273   2.641   3.028  16.522  0.7547  0.4069 -0.3147
  763MPD2     N11274   2.549   3.468  16.498 -0.3545  0.0218 -0.2645
  763MPD2    H511275   2.625   3.478  16.564 -0.6000  2.4498 -0.3576
  763MPD2    N111276   2.401   3.153  16.148 -0.0918  0.0129 -0.6607
  763MPD2    H711277   2.359   3.230  16.098 -2.9668 -0.5988  0.7815
  764MPD2     C11278   0.648   4.553  17.299  0.0872 -0.4391 -0.3765
  764MPD2    C111279   0.524   4.499  17.304  0.1493 -0.7128 -0.1110
  764MPD2    C211280   0.517   4.373  17.357  0.0351 -0.4142 -0.7578
  764MPD2    C311281   0.625   4.296  17.402 -0.0361  0.2565  0.3696
  764MPD2    C411282   0.750   4.354  17.399  0.5914 -0.4716 -0.1708
  764MPD2    C511283   0.762   4.483  17.344  0.1522 -0.0022  0.1391
  764MPD2     H11284   0.418   4.333  17.371  0.2003 -0.4106  0.4170
  764MPD2    H111285   0.839   4.299  17.427 -0.2665 -2.4127 -1.2991
  764MPD2    H211286   0.660   4.656  17.268  0.4501 -0.7584 -1.2923
  764MPD2    H311287   0.860   4.527  17.337 -0.2308  0.8179 -0.1206
  764MPD2     N11288   0.602   4.166  17.451 -0.0392  0.2627  0.1003
  764MPD2    H511289   0.510   4.128  17.433  0.0563 -0.5218  1.2690
  764MPD2    N111290   0.406   4.558  17.260  0.0906 -0.0303  0.4414
  764MPD2    H711291   0.321   4.503  17.264 -0.9094  1.5643  0.7714
  765MPD2     C11292   4.437   2.244  15.940  0.1065  0.3888 -0.3968
  765MPD2    C111293   4.522   2.350  15.920  0.8411  0.6158  0.3633
  765MPD2    C211294   4.657   2.340  15.896 -1.0005  0.9702  0.0594
  765MPD2    C311295   4.703   2.210  15.871  0.0264  0.7276 -0.3917
  765MPD2    C411296   4.621   2.102  15.882  0.0159  0.3059  0.2463
  765MPD2    C511297   4.485   2.118  15.905 -0.4395  0.1223 -1.1283
  765MPD2     H11298   0.006   2.420  15.886 -1.0927  1.1348  0.7238
  765MPD2    H111299   4.658   2.002  15.864 -0.1438  0.1234  0.9187
  765MPD2    H211300   4.334   2.260  15.970  0.6320  0.1249  1.5057
  765MPD2    H311301   4.428   2.026  15.903 -1.1245  0.5761 -2.3633
  765MPD2     N11302   0.112   2.193  15.835 -0.6984 -0.1721 -0.1489
  765MPD2    H511303   0.167   2.278  15.837  0.3061 -0.7651 -2.0395
  765MPD2    N111304   4.459   2.479  15.926  0.2901  0.5070  0.0764
  765MPD2    H711305   4.357   2.479  15.929  0.2901 -0.0703  0.0569
  766MPD2     C11306   4.020   2.623  15.500  0.5283  0.5966 -0.2266
  766MPD2    C111307   4.129   2.702  15.531 -0.7552  0.0286 -0.8071
  766MPD2    C211308   4.223   2.724  15.434  0.5233  0.2646 -0.3952
  766MPD2    C311309   4.198   2.688  15.308  0.5899  0.0598  0.0811
  766MPD2    C411310   4.073   2.632  15.271 -0.6308  0.4740 -0.0218
  766MPD2    C511311   3.983   2.597  15.370 -0.7863  0.6176  0.0772
  766MPD2     H11312   4.319   2.770  15.456  1.3220 -0.0005 -3.2871
  766MPD2    H111313   4.053   2.611  15.167 -1.6315  0.4233  0.1837
  766MPD2    H211314   3.953   2.591  15.578  1.2200  0.4860  0.3180
  766MPD2    H311315   3.888   2.552  15.342  1.0661 -3.4648  0.4921
  766MPD2     N11316   4.294   2.695  15.198  0.2988 -0.1547  0.0780
  766MPD2    H511317   4.262   2.673  15.104  0.1392 -4.3829  1.1392
  766MPD2    N111318   4.151   2.742  15.668  0.5556 -0.4874 -0.1393
  766MPD2    H711319   4.083   2.714  15.738  0.4299 -1.2838 -0.5779
  767MPD2     C11320   4.095   3.150  15.155 -0.7895  0.0527  0.6624
  767MPD2    C111321   4.115   3.207  15.029 -0.5386 -0.1293 -0.2578
  767MPD2    C211322   4.090   3.131  14.911 -0.1771 -0.3475  0.1379
  767MPD2    C311323   4.074   2.996  14.917 -0.0839  0.0850 -0.0575
  767MPD2    C411324   4.056   2.942  15.047 -0.6494 -0.3128 -0.3787
  767MPD2    C511325   4.071   3.016  15.161  0.4876  0.5866  0.0301
  767MPD2     H11326   4.128   3.175  14.819 -0.7198  0.4013  0.2700
  767MPD2    H111327   4.032   2.838  15.067  0.8544 -1.0270 -2.1672
  767MPD2    H211328   4.114   3.215  15.240  1.1955  0.2942  0.0336
  767MPD2    H311329   4.045   2.975  15.258 -0.7243 -0.8783 -0.9149
  767MPD2     N11330   4.061   2.914  14.802 -0.3479  0.3151 -0.2913
  767MPD2    H511331   4.084   2.959  14.714  1.8409  0.5328  0.4084
  767MPD2    N111332   4.162   3.342  15.022 -0.5453 -0.0396  0.4846
  767MPD2    H711333   4.179   3.376  15.116 -2.6067  0.2713  0.7372
  768MPD2     C11334   0.505   1.284  10.566 -0.2861  0.0657 -0.1752
  768MPD2    C111335   0.453   1.250  10.689  0.2308 -0.1195 -0.0332
  768MPD2    C211336   0.537   1.233  10.797  0.3215  0.1004 -0.0702
  768MPD2    C311337   0.675   1.242  10.778  0.3263  0.5828  0.5669
  768MPD2    C411338   0.724   1.286  10.657  0.3628 -0.7113 -0.4520
  768MPD2    C511339   0.640   1.295  10.550  0.5448  0.1987 -0.0928
  768MPD2     H11340   0.495   1.226  10.897  0.6388  0.9066  0.1211
  768MPD2    H111341   0.831   1.301  10.650  0.2865 -1.1084 -2.4818
  768MPD2    H211342   0.451   1.305  10.475 -1.8417 -0.3340  0.6667
  768MPD2    H311343   0.685   1.309  10.452  1.9171  0.3791  0.5594
  768MPD2     N11344   0.772   1.221  10.882 -0.2037  0.5346 -0.0759
  768MPD2    H511345   0.868   1.251  10.866  0.5242 -1.9262 -0.3477
  768MPD2    N111346   0.310   1.241  10.715  0.1751  0.2628  0.1415
  768MPD2    H711347   0.289   1.214  10.811  1.8748 -3.9833 -0.6605
  769MPD2     C11348   1.136   4.347  14.666 -0.0179 -0.3803 -0.8505
  769MPD2    C111349   1.169   4.227  14.735  0.0525 -0.4696 -0.4158
  769MPD2    C211350   1.210   4.232  14.868  0.0771 -0.3965  0.1047
  769MPD2    C311351   1.242   4.351  14.932  0.3199  0.2189 -0.7076
  769MPD2    C411352   1.207   4.464  14.863  0.9886 -0.4505 -0.0724
  769MPD2    C511353   1.147   4.457  14.745 -0.2377 -0.3523 -0.1022
  769MPD2     H11354   1.230   4.141  14.923 -0.3730  0.6192  1.9353
  769MPD2    H111355   1.235   4.562  14.899  1.1477 -0.2559 -0.7276
  769MPD2    H211356   1.105   4.347  14.563  0.5656  0.6965 -1.0276
  769MPD2    H311357   1.122   4.551  14.698 -0.9140 -0.9529 -0.9481
  769MPD2     N11358   1.306   4.361  15.059 -0.0337 -0.9856  0.2633
  769MPD2    H511359   1.317   4.272  15.107 -0.1171 -0.4836  1.2087
  769MPD2    N111360   1.143   4.107  14.670  0.4758 -0.1424 -0.2631
  769MPD2    H711361   1.131   4.109  14.570  1.1189 -2.7760 -0.3788
  770MPD2     C11362   0.915   3.040  14.715 -0.0786 -0.8268  0.0902
  770MPD2    C111363   0.808   3.105  14.656  0.3316  0.3851 -0.7340
  770MPD2    C211364   0.827   3.242  14.625  0.4848  0.5779 -0.1746
  770MPD2    C311365   0.945   3.315  14.665  0.0006  0.8435  0.0219
  770MPD2    C411366   1.041   3.242  14.745 -0.6235 -0.1703 -0.7024
  770MPD2    C511367   1.024   3.107  14.762 -0.5780  0.0777 -0.1521
  770MPD2     H11368   0.751   3.304  14.577  0.7510  0.7649 -0.3582
  770MPD2    H111369   1.130   3.290  14.785 -0.1580 -0.3841 -1.4807
  770MPD2    H211370   0.905   2.940  14.754  1.6451 -1.0032  0.1116
  770MPD2    H311371   1.099   3.047  14.812 -1.4741 -2.8260 -2.2841
  770MPD2     N11372   0.946   3.448  14.640  0.7334 -0.5707 -0.6038
  770MPD2    H511373   0.867   3.489  14.592 -0.2547  0.3435  1.8214
  770MPD2    N111374   0.699   3.026  14.620 -0.5208 -0.1529 -0.1353
  770MPD2    H711375   0.719   2.932  14.654  1.0801 -0.0630 -0.8524
  771MPD2     C11376   2.135   2.319  13.427 -0.1622 -0.8841  0.9878
  771MPD2    C111377   2.036   2.412  13.446 -0.4917  0.1194  0.5531
  771MPD2    C211378   1.908   2.374  13.445 -0.6864 -0.4391  0.1954
  771MPD2    C311379   1.872   2.241  13.418 -0.0666 -0.4730  0.5914
  771MPD2    C411380   1.974   2.149  13.400  0.4533  0.0778  0.7665
  771MPD2    C511381   2.105   2.188  13.409  0.0697 -0.2319 -0.6274
  771MPD2     H11382   1.831   2.449  13.456 -0.2411 -0.3109  2.3804
  771MPD2    H111383   1.956   2.044  13.379 -0.9827  0.4979 -0.0869
  771MPD2    H211384   2.239   2.350  13.426 -0.2752 -0.5530 -0.5026
  771MPD2    H311385   2.186   2.118  13.402  1.4764  1.4091 -0.7747
  771MPD2     N11386   1.737   2.213  13.412  0.2675  0.2234 -0.7291
  771MPD2    H511387   1.673   2.291  13.420  2.1479  1.7203 -0.2598
  771MPD2    N111388   2.061   2.548  13.462 -0.0267  0.2200  1.1112
  771MPD2    H711389   1.986   2.614  13.479 -1.6307 -0.8408 -1.8789
  772MPD2     C11390   1.745   3.121  13.761  0.0593  0.7139 -0.0774
  772MPD2    C111391   1.767   2.990  13.738 -0.1159 -0.1323 -0.1542
  772MPD2    C211392   1.656   2.897  13.744 -0.0083 -0.2974  0.4128
  772MPD2    C311393   1.529   2.935  13.781  1.3671  0.3394  0.1373
  772MPD2    C411394   1.511   3.075  13.795  0.3708  0.1083 -0.7980
  772MPD2    C511395   1.620   3.164  13.781  0.4241 -0.2125  0.0407
  772MPD2     H11396   1.691   2.794  13.741 -0.1277 -0.3384  0.4078
  772MPD2    H111397   1.413   3.111  13.822  0.1832 -1.0362  0.0091
  772MPD2    H211398   1.820   3.199  13.757  0.6799  0.2233  2.0362
  772MPD2    H311399   1.599   3.270  13.778 -1.8828 -0.6941 -0.6235
  772MPD2     N11400   1.425   2.853  13.809 -0.3547  0.2728 -0.2612
  772MPD2    H511401   1.334   2.896  13.818 -1.0326 -1.1284 -0.4895
  772MPD2    N111402   1.893   2.940  13.696  0.6132 -0.2150  0.0986
  772MPD2    H711403   1.887   2.840  13.683 -1.5157 -0.0825  0.0425
  773MPD2     C11404   1.473   3.350   0.183  0.1388  0.1406 -0.0614
  773MPD2    C111405   1.376   3.263   0.143  0.1165 -0.4530  0.2734
  773MPD2    C211406   1.395   3.130   0.179  0.0045  0.0953 -0.2003
  773MPD2    C311407   1.516   3.089   0.233  0.8982 -0.5715 -0.7065
  773MPD2    C411408   1.611   3.186   0.275  0.3051 -0.1129  0.0667
  773MPD2    C511409   1.595   3.316   0.242  0.2059  0.6587 -0.4557
  773MPD2     H11410   1.320   3.058   0.148 -0.7293 -0.5060  2.9226
  773MPD2    H111411   1.711   3.159   0.306  1.2542  1.7858 -1.3426
  773MPD2    H211412   1.461   3.458   0.175 -3.1627 -0.1851  0.6460
  773MPD2    H311413   1.676   3.385   0.258 -0.4668  0.9257  1.7710
  773MPD2     N11414   1.531   2.950   0.264 -0.0107  0.3738  0.2507
  773MPD2    H511415   1.447   2.896   0.246  2.0227 -3.0708  1.2027
  773MPD2    N111416   1.251   3.309   0.086 -0.5709 -0.2611 -0.5154
  773MPD2    H711417   1.174   3.244   0.084 -2.1173  1.5731 -0.8415
  774MPD2     C11418   0.889   2.436  13.277 -0.3403  0.5380 -0.6426
  774MPD2    C111419   0.759   2.466  13.295  0.6856 -0.8472  0.3414
  774MPD2    C211420   0.726   2.603  13.287  0.4141  0.4781  0.0004
  774MPD2    C311421   0.811   2.701  13.239  0.3982 -0.5196 -0.0289
  774MPD2    C411422   0.939   2.663  13.223 -0.3959  0.1674  0.2932
  774MPD2    C511423   0.975   2.539  13.247  0.3226 -0.4262 -0.5390
  774MPD2     H11424   0.629   2.644  13.313  0.4674  1.0078 -0.6363
  774MPD2    H111425   1.018   2.736  13.208  1.6585 -1.5517  2.7212
  774MPD2    H211426   0.929   2.338  13.301 -0.1681  1.5268  3.0998
  774MPD2    H311427   1.080   2.513  13.236  0.7246  1.4632 -1.0360
  774MPD2     N11428   0.768   2.832  13.249  0.4544 -0.2010  0.7779
  774MPD2    H511429   0.670   2.851  13.268  0.7613  1.5325  0.6435
  774MPD2    N111430   0.671   2.366  13.344  0.6469  0.0481  0.3037
  774MPD2    H711431   0.708   2.279  13.381  0.5995 -0.6891 -1.3881
  775MPD2     C11432   1.972   4.138  16.030  0.8170  0.8542 -0.1274
  775MPD2    C111433   1.873   4.232  16.021  0.2513  0.5198  0.7693
  775MPD2    C211434   1.912   4.365  16.011  0.0557  0.2537 -0.1508
  775MPD2    C311435   2.037   4.400  15.984  0.6163  0.3385  0.8601
  775MPD2    C411436   2.133   4.305  15.984 -0.1567 -0.0041 -0.0045
  775MPD2    C511437   2.105   4.172  16.015 -0.6984 -0.0863  0.4612
  775MPD2     H11438   1.830   4.436  16.016  0.2597  0.3158  2.2261
  775MPD2    H111439   2.238   4.332  15.970 -0.0835 -1.4354 -2.2290
  775MPD2    H211440   1.947   4.033  16.035 -0.4517  1.0393 -2.4750
  775MPD2    H311441   2.189   4.105  16.013 -0.6997 -0.1278  1.8684
  775MPD2     N11442   2.079   4.527  15.946  0.0989 -0.0962  0.2956
  775MPD2    H511443   2.177   4.535  15.918  0.0540  0.7692  0.3681
  775MPD2    N111444   1.736   4.182  16.026 -0.4370 -0.4003 -0.0111
  775MPD2    H711445   1.719   4.082  16.031 -0.1409 -0.4587 -0.2337
  776MPD2     C11446   1.597   4.364  11.781  0.3816 -0.2690 -0.0999
  776MPD2    C111447   1.461   4.347  11.811  0.5087 -0.2561  0.8439
  776MPD2    C211448   1.386   4.470  11.805  0.4174  0.6346 -0.0478
  776MPD2    C311449   1.434   4.587  11.753  0.7543  0.8436 -0.7098
  776MPD2    C411450   1.565   4.602  11.740 -0.5743 -0.4706  0.1638
  776MPD2    C511451   1.641   4.489  11.755  0.2996  0.1979  0.4725
  776MPD2     H11452   1.278   4.462  11.810  0.4277  0.5846  0.0982
  776MPD2    H111453   1.607   4.698  11.711 -2.1427  0.4672  1.0220
  776MPD2    H211454   1.671   4.288  11.803 -0.4270 -1.3664 -1.1822
  776MPD2    H311455   1.748   4.492  11.739 -0.2142 -0.2608 -3.0230
  776MPD2     N11456   1.355   4.698  11.720 -0.2660 -0.1072 -0.2282
  776MPD2    H511457   1.398   0.054  11.675  1.2350 -0.6814  0.1937
  776MPD2    N111458   1.401   4.217  11.831  0.1201  0.1063 -0.1809
  776MPD2    H711459   1.451   4.130  11.817 -2.1456 -0.8551 -2.3696
  777MPD2     C11460   1.639   2.194   0.804  0.4369  0.5375 -0.5985
  777MPD2    C111461   1.577   2.132   0.909 -0.7982  0.0550  0.1383
  777MPD2    C211462   1.536   2.004   0.892 -0.4325  0.3834 -0.1480
  777MPD2    C311463   1.551   1.931   0.774 -0.2428  0.0539 -0.9119
  777MPD2    C411464   1.621   1.991   0.674  0.3668 -0.3349  0.2123
  777MPD2    C511465   1.669   2.120   0.694 -0.0394  0.0304  0.1190
  777MPD2     H11466   1.476   1.960   0.970 -1.5010  0.7724 -0.7449
  777MPD2    H111467   1.657   1.936   0.588  2.5374  0.0618  0.8859
  777MPD2    H211468   1.674   2.297   0.805  0.2579  0.5726  1.7955
  777MPD2    H311469   1.731   2.154   0.612 -0.4348 -1.0802 -0.6464
  777MPD2     N11470   1.497   1.800   0.766  0.0152  1.0984  0.2009
  777MPD2    H511471   1.442   1.790   0.851  1.0627 -0.8965  0.6469
  777MPD2    N111472   1.552   2.206   1.029  0.4105  0.8011 -0.0534
  777MPD2    H711473   1.553   2.307   1.032  0.6923  0.7786  0.5534
  778MPD2     C11474   1.876   2.201  14.865 -0.6471 -0.1806 -0.0219
  778MPD2    C111475   1.903   2.066  14.837 -0.6424 -0.2206  0.7118
  778MPD2    C211476   1.957   2.041  14.714  0.7743 -0.4612  0.0421
  778MPD2    C311477   1.972   2.138  14.613 -0.2136 -0.0379 -0.6115
  778MPD2    C411478   1.919   2.262  14.644 -0.2020 -0.4006 -0.5249
  778MPD2    C511479   1.879   2.296  14.770 -0.3346  0.5338  0.5529
  778MPD2     H11480   1.983   1.938  14.694 -0.6094 -0.7294 -0.3400
  778MPD2    H111481   1.900   2.328  14.560 -0.4092 -0.4191 -0.4922
  778MPD2    H211482   1.847   2.241  14.962  0.7830 -0.0002  0.3311
  778MPD2    H311483   1.843   2.398  14.779  0.0980  0.7686 -0.3282
  778MPD2     N11484   2.029   2.109  14.486  0.1943  0.0679 -0.0864
  778MPD2    H511485   2.046   2.009  14.479 -2.5893 -0.3008 -1.5395
  778MPD2    N111486   1.895   1.964  14.927  0.0097 -0.0254  0.8050
  778MPD2    H711487   1.913   1.868  14.897  0.7142  0.5577 -0.6093
  779MPD2     C11488   1.594   1.119  14.548  0.0697 -0.0553  0.0010
  779MPD2    C111489   1.684   1.095  14.443 -0.3690 -0.5148  0.4871
  779MPD2    C211490   1.707   1.200  14.363  0.2277 -0.5005 -0.1018
  779MPD2    C311491   1.663   1.325  14.388  0.2419  0.3486  0.5188
  779MPD2    C411492   1.565   1.346  14.481  0.0358  0.3609  0.5331
  779MPD2    C511493   1.530   1.237  14.556  0.1261 -0.2226  0.2758
  779MPD2     H11494   1.765   1.189  14.272 -0.6552 -1.0643 -0.5965
  779MPD2    H111495   1.533   1.444  14.515  1.7849  1.9693 -2.4270
  779MPD2    H211496   1.580   1.044  14.625 -0.1832  1.7599  1.7150
  779MPD2    H311497   1.458   1.245  14.637 -1.9628 -1.1585 -1.5037
  779MPD2     N11498   1.723   1.428  14.313  0.1126  0.1903 -0.4624
  779MPD2    H511499   1.784   1.401  14.236 -2.6415 -2.2064 -1.8047
  779MPD2    N111500   1.757   0.976  14.430 -0.7836 -0.2526  0.3132
  779MPD2    H711501   1.818   0.963  14.350 -0.7229 -0.6608  0.4312
  780MPD2     C11502   0.470   0.553   0.674  0.5879  0.2673 -0.8076
  780MPD2    C111503   0.528   0.667   0.736 -0.4329 -0.3992  1.2012
  780MPD2    C211504   0.630   0.730   0.664  0.1656  0.1083  0.3968
  780MPD2    C311505   0.654   0.701   0.532  0.3045 -0.5562 -0.3739
  780MPD2    C411506   0.598   0.586   0.482  0.2252 -0.2944  0.9332
  780MPD2    C511507   0.501   0.520   0.543  0.4647 -0.3373  0.2746
  780MPD2     H11508   0.690   0.807   0.711 -0.8147  1.1984 -0.1673
  780MPD2    H111509   0.628   0.556   0.382 -1.5429  1.8130 -0.2364
  780MPD2    H211510   0.396   0.497   0.730  1.0510  0.5118  0.0367
  780MPD2    H311511   0.459   0.433   0.494 -1.6766  0.4038  0.7948
  780MPD2     N11512   0.756   0.760   0.451 -0.3248  0.1944  0.2708
  780MPD2    H511513   0.773   0.720   0.359  1.5843  0.0506  0.6793
  780MPD2    N111514   0.487   0.702   0.867  0.3919  0.9298  0.0967
  780MPD2    H711515   0.419   0.642   0.914  2.0471 -2.5987 -2.0558
  781MPD2     C11516   2.859   2.545  12.260 -0.1674 -1.1060  0.3931
  781MPD2    C111517   2.975   2.504  12.315 -0.6949 -0.6597 -0.1295
  781MPD2    C211518   3.092   2.534  12.253 -0.0743  0.1306  0.7715
  781MPD2    C311519   3.097   2.589  12.124  0.4434  0.4550  0.1474
  781MPD2    C411520   2.977   2.609  12.065 -0.0519 -0.0084 -0.6416
  781MPD2    C511521   2.856   2.592  12.133  0.3757 -0.0305 -0.1649
  781MPD2     H11522   3.180   2.492  12.301 -0.2646 -0.9291  0.2105
  781MPD2    H111523   2.972   2.641  11.961 -0.9825 -0.8719 -0.8690
  781MPD2    H211524   2.766   2.545  12.316  0.4320 -0.0295  1.4091
  781MPD2    H311525   2.763   2.624  12.088  1.3234  0.3382 -1.8564
  781MPD2     N11526   3.218   2.600  12.052 -0.0568  0.1343 -0.2710
  781MPD2    H511527   3.209   2.631  11.956  3.6527  1.1124 -0.2713
  781MPD2    N111528   2.984   2.453  12.445  0.4032 -0.1055  0.0333
  781MPD2    H711529   3.075   2.448  12.489 -0.2901  1.1371  1.6331
  782MPD2     C11530   1.495   3.720  10.091 -0.1047 -0.4209 -0.1673
  782MPD2    C111531   1.597   3.658  10.156 -0.0897  0.2354  0.7817
  782MPD2    C211532   1.660   3.707  10.263  0.6713  0.2508  0.0570
  782MPD2    C311533   1.622   3.829  10.308  0.0861  0.0156 -0.3246
  782MPD2    C411534   1.522   3.901  10.239  0.2785 -0.7801  0.0805
  782MPD2    C511535   1.457   3.845  10.134  0.1195  0.1159  0.3893
  782MPD2     H11536   1.739   3.646  10.306  0.4805 -1.0592 -1.4380
  782MPD2    H111537   1.489   3.998  10.273 -0.8007 -1.4694  0.9882
  782MPD2    H211538   1.441   3.670  10.012 -0.1939 -2.6482  1.2971
  782MPD2    H311539   1.381   3.903  10.083  2.0115  1.0648 -1.3641
  782MPD2     N11540   1.689   3.887  10.420 -0.2247 -0.0886 -0.4139
  782MPD2    H511541   1.770   3.837  10.453 -0.6139  0.0883  0.8258
  782MPD2    N111542   1.625   3.533  10.098 -0.3951 -0.1937 -0.0960
  782MPD2    H711543   1.562   3.498  10.027 -1.5120 -0.8336  1.2151
  783MPD2     C11544   1.054   3.028  10.517  0.2267  0.0668  0.2481
  783MPD2    C111545   1.125   3.148  10.531 -0.2507  0.4609  0.4208
  783MPD2    C211546   1.248   3.174  10.458 -0.2775  0.0919  0.0044
  783MPD2    C311547   1.292   3.080  10.361 -0.2105  0.1387 -0.3724
  783MPD2    C411548   1.224   2.959  10.349  0.5388  0.0086 -0.0803
  783MPD2    C511549   1.110   2.937  10.428  0.1139  0.5993 -0.8630
  783MPD2     H11550   1.297   3.269  10.475  0.6953 -0.1754 -1.3110
  783MPD2    H111551   1.257   2.886  10.276  1.2261  0.5991 -0.3651
  783MPD2    H211552   0.974   2.997  10.583  0.9948 -1.3743  0.5096
  783MPD2    H311553   1.079   2.833  10.437 -1.8115  1.4922  2.9573
  783MPD2     N11554   1.399   3.117  10.277 -0.7481  1.0673  0.0814
  783MPD2    H511555   1.432   3.212  10.291  1.0213  0.3666  0.6745
  783MPD2    N111556   1.076   3.239  10.629 -0.0028 -0.5930  0.4076
  783MPD2    H711557   0.987   3.224  10.676  0.4301 -0.2170  1.3501
  784MPD2     C11558   3.926   4.475   0.822  0.1356  0.0076 -0.1779
  784MPD2    C111559   3.898   4.428   0.954  0.3146 -0.3108  0.5542
  784MPD2    C211560   3.773   4.375   0.990 -0.1185  0.5555 -0.4295
  784MPD2    C311561   3.666   4.384   0.898 -0.2208  0.8644 -0.3098
  784MPD2    C411562   3.698   4.432   0.771  0.2984 -0.7268  0.2172
  784MPD2    C511563   3.827   4.478   0.735  0.8183  0.3987 -0.3650
  784MPD2     H11564   3.750   4.334   1.088 -0.1844  1.0441 -0.2435
  784MPD2    H111565   3.623   4.442   0.694  0.5108 -0.6047  0.0256
  784MPD2    H211566   4.014   4.537   0.804  0.9916 -2.1858 -3.3927
  784MPD2    H311567   3.844   4.519   0.636 -0.5959 -1.8476 -1.5663
  784MPD2     N11568   3.541   4.322   0.926 -0.5540  0.2980 -0.1053
  784MPD2    H511569   3.532   4.271   1.013 -2.5485 -1.1473 -1.1567
  784MPD2    N111570   3.989   4.430   1.058  0.0083  0.0055  0.5973
  784MPD2    H711571   3.969   4.402   1.154  0.5884 -0.3709  0.6146
  785MPD2     C11572   3.971   2.076  10.610  0.3552  0.3509  0.4619
  785MPD2    C111573   3.914   2.148  10.711  0.6158  0.1909  0.7512
  785MPD2    C211574   3.796   2.219  10.697  0.6793  0.1080  0.4914
  785MPD2    C311575   3.723   2.201  10.578  0.0538 -0.9009  0.3736
  785MPD2    C411576   3.774   2.112  10.479 -0.3374 -0.0604 -0.2544
  785MPD2    C511577   3.893   2.052  10.503  0.4226  0.4611 -0.3150
  785MPD2     H11578   3.763   2.304  10.756  0.7190  0.1529  0.4483
  785MPD2    H111579   3.727   2.084  10.385  0.9761 -4.8204  0.5228
  785MPD2    H211580   4.061   2.016  10.621  0.8390  1.2821  1.6624
  785MPD2    H311581   3.930   1.980  10.432 -1.4928 -1.7370  0.9050
  785MPD2     N11582   3.601   2.272  10.572  0.8860 -0.4778 -0.3677
  785MPD2    H511583   3.588   2.345  10.640  0.8860  0.4236 -1.3321
  785MPD2    N111584   4.001   2.173  10.819 -0.0407  0.4287 -0.0427
  785MPD2    H711585   4.086   2.119  10.823  0.3215  1.1286  1.5419
  786MPD2     C11586   2.116   0.522  14.742 -0.0687  0.1370 -0.2621
  786MPD2    C111587   2.223   0.429  14.760 -0.1640  0.0995  0.0975
  786MPD2    C211588   2.304   0.431  14.876  0.4873 -0.3867  0.1962
  786MPD2    C311589   2.279   0.515  14.980 -0.1768 -0.2787  0.0702
  786MPD2    C411590   2.175   0.604  14.963 -0.2822 -0.0829  0.7976
  786MPD2    C511591   2.088   0.597  14.851 -0.4895  0.1924 -0.3379
  786MPD2     H11592   2.380   0.355  14.881  0.5753 -0.2174  1.3334
  786MPD2    H111593   2.151   0.683  15.033 -0.4204 -0.2181  0.9035
  786MPD2    H211594   2.050   0.520  14.656 -1.0130 -1.8427  0.5224
  786MPD2    H311595   2.002   0.664  14.847 -2.2827 -2.1596 -0.9021
  786MPD2     N11596   2.350   0.507  15.098 -1.0416  0.3942  0.0144
  786MPD2    H511597   2.322   0.574  15.168  0.8685  1.1629  0.0180
  786MPD2    N111598   2.251   0.321  14.674 -0.1266  0.4153  0.6085
  786MPD2    H711599   2.334   0.280  14.714  0.1312  0.1173 -0.2329
  787MPD2     C11600   2.684   4.651  14.838  0.2307 -0.4650  0.8336
  787MPD2    C111601   2.672   4.633  14.707 -0.7325  0.3384 -0.1715
  787MPD2    C211602   2.774   4.565  14.636  0.5528  0.7681  0.2283
  787MPD2    C311603   2.889   4.532  14.708 -1.2306 -0.3958 -0.1694
  787MPD2    C411604   2.904   4.557  14.839  0.3467 -0.0018  0.3753
  787MPD2    C511605   2.796   4.607  14.904 -0.2750 -0.2997 -0.3304
  787MPD2     H11606   2.767   4.561  14.528 -2.1830 -0.3858  0.4471
  787MPD2    H111607   2.993   4.531  14.897  0.2049 -0.3668  0.4327
  787MPD2    H211608   2.614   4.714  14.893 -2.8751 -2.9476 -0.2784
  787MPD2    H311609   2.797   4.628  15.010 -0.8872 -1.8762 -0.0218
  787MPD2     N11610   2.998   4.476  14.635  0.0603 -0.4233  0.4880
  787MPD2    H511611   2.991   4.467  14.534 -0.1379 -1.1380  0.5706
  787MPD2    N111612   2.554   4.688  14.650  0.4945  0.1444 -0.3375
  787MPD2    H711613   2.510   0.035  14.709  0.9412 -0.2725  0.5035
  788MPD2     C11614   3.814   3.068   1.285 -0.6936 -0.0422  0.1609
  788MPD2    C111615   3.889   3.000   1.192 -0.7586 -0.2792  0.3227
  788MPD2    C211616   3.967   3.070   1.103 -0.6306  0.3366 -0.3571
  788MPD2    C311617   3.953   3.210   1.089  0.2616  0.2806 -0.1225
  788MPD2    C411618   3.858   3.265   1.166  0.4336  0.0746 -0.1512
  788MPD2    C511619   3.795   3.199   1.266  1.0059 -0.1221 -0.3280
  788MPD2     H11620   4.013   3.022   1.017  3.1803  2.3824  0.5163
  788MPD2    H111621   3.830   3.368   1.146 -0.7019  0.1751  1.8978
  788MPD2    H211622   3.772   3.017   1.371 -3.3728  1.3940 -0.2870
  788MPD2    H311623   3.733   3.250   1.338 -2.3724 -1.6339 -2.1920
  788MPD2     N11624   4.004   3.292   0.982 -0.0866 -0.1136 -0.1003
  788MPD2    H511625   3.974   3.389   0.986 -3.6355 -1.1707 -0.9665
  788MPD2    N111626   3.893   2.860   1.185 -0.4866  0.2082 -0.1858
  788MPD2    H711627   3.972   2.814   1.140 -0.9731 -0.2572 -0.5654
  789MPD2     C11628   0.125   2.734  16.461 -0.0252 -0.2829  0.1899
  789MPD2    C111629   0.089   2.698  16.590  0.2999  0.0877  0.0817
  789MPD2    C211630   4.684   2.738  16.629 -0.0985  0.7856  0.5958
  789MPD2    C311631   4.595   2.799  16.542 -0.3342 -0.4926  0.4596
  789MPD2    C411632   4.637   2.829  16.419 -0.5779  0.1183 -0.1232
  789MPD2    C511633   0.040   2.797  16.379 -0.4563 -0.0783  0.5823
  789MPD2     H11634   4.648   2.708  16.727 -1.3313 -2.1751 -0.7748
  789MPD2    H111635   4.568   2.863  16.342 -0.2328 -1.3666 -1.0820
  789MPD2    H211636   0.218   2.705  16.414 -0.0995  1.9173 -1.2865
  789MPD2    H311637   0.066   2.832  16.280 -1.9165 -0.3609  0.0890
  789MPD2     N11638   4.460   2.830  16.571  0.2790 -0.0526  0.2809
  789MPD2    H511639   4.413   2.889  16.503 -0.4920  2.8421  3.3398
  789MPD2    N111640   0.160   2.613  16.670 -0.0352 -0.2626 -0.3803
  789MPD2    H711641   0.101   2.568  16.739 -1.9189  1.0106 -1.1831
  790MPD2     C11642   1.085   0.179  13.561 -0.2554  0.1787 -0.0311
  790MPD2    C111643   1.040   0.067  13.628  0.1233  0.5859 -0.1098
  790MPD2    C211644   0.916   0.012  13.590  1.0048  0.2319 -0.0814
  790MPD2    C311645   0.868   0.049  13.462 -0.4722 -0.4650  0.1253
  790MPD2    C411646   0.931   0.142  13.386 -0.2555  0.5931 -0.0246
  790MPD2    C511647   1.041   0.210  13.438  0.2288 -0.3896 -0.5235
  790MPD2     H11648   0.872   4.653  13.645  1.9457  0.1757  0.5804
  790MPD2    H111649   0.878   0.187  13.302 -0.1384 -0.2255 -0.5334
  790MPD2    H211650   1.171   0.237  13.592  0.7252 -0.7455 -1.0314
  790MPD2    H311651   1.089   0.291  13.384  0.5200 -0.8081 -0.8925
  790MPD2     N11652   0.754   4.699  13.411 -0.2519  0.2386 -0.3185
  790MPD2    H511653   0.732   4.609  13.453 -1.5753 -0.7536 -3.1667
  790MPD2    N111654   1.086   0.016  13.751 -0.1088 -0.2359 -0.0810
  790MPD2    H711655   1.043   4.649  13.772 -2.2749  0.8825  0.3181
  791MPD2     C11656   0.115   0.081  12.920  0.8974  0.2308 -0.3519
  791MPD2    C111657   0.170   4.676  12.921 -0.4807  0.1717 -0.0840
  791MPD2    C211658   0.109   4.573  12.853  0.4026 -0.1758  0.0933
  791MPD2    C311659   4.714   4.599  12.779 -0.8912 -0.2482  0.1648
  791MPD2    C411660   4.673   0.005  12.774  0.3154 -0.2481 -0.2158
  791MPD2    C511661   0.005   0.103  12.843 -0.0282 -0.1417  0.0638
  791MPD2     H11662   0.134   4.468  12.862  0.1442 -0.1431  1.1826
  791MPD2    H111663   4.590   0.037  12.712 -1.5782 -0.8611  1.9820
  791MPD2    H211664   0.155   0.166  12.973 -0.5612 -0.7263  2.2775
  791MPD2    H311665   4.684   0.200  12.823  3.3296  1.2900 -0.3067
  791MPD2     N11666   4.648   4.486  12.725  0.2976 -0.3831 -0.4966
  791MPD2    H511667   4.688   4.396  12.750  0.4777 -0.1648  0.0175
  791MPD2    N111668   0.293   4.660  12.994 -0.3139 -0.5943 -0.1240
  791MPD2    H711669   0.307   0.017  13.055  0.1631  0.1524 -1.2008
  792MPD2     C11670   1.313   4.552  11.439 -0.7963 -0.0840  0.7893
  792MPD2    C111671   1.199   4.590  11.374 -0.5848  0.8190 -0.2460
  792MPD2    C211672   1.117   4.491  11.310  0.4474  0.0194  0.3647
  792MPD2    C311673   1.162   4.360  11.313 -0.2578  0.7732  0.5234
  792MPD2    C411674   1.272   4.326  11.386  0.3058  1.0646 -0.0521
  792MPD2    C511675   1.340   4.418  11.451 -0.0909  0.2789 -0.6937
  792MPD2     H11676   1.038   4.516  11.241  0.8513  0.4158  0.0506
  792MPD2    H111677   1.304   4.224  11.402  2.2102  1.5730 -0.5993
  792MPD2    H211678   1.382   4.619  11.489 -0.5412 -0.9122  1.5707
  792MPD2    H311679   1.423   4.387  11.513 -0.6168  0.4922  0.1305
  792MPD2     N11680   1.102   4.252  11.243  0.2809 -0.3995  0.3640
  792MPD2    H511681   1.154   4.167  11.229  2.4046  1.1394 -1.0108
  792MPD2    N111682   1.187   0.007  11.340  0.0526  0.4536  0.0751
  792MPD2    H711683   1.262   0.068  11.368  1.0023 -1.3635  1.4880
  793MPD2     C11684   0.605   4.381  10.309 -0.2172  0.4103  0.3242
  793MPD2    C111685   0.729   4.322  10.296  0.2396  0.0885  0.8050
  793MPD2    C211686   0.790   4.253  10.403 -0.8529 -0.1347  0.3460
  793MPD2    C311687   0.729   4.242  10.528 -0.4154 -0.9288  0.5378
  793MPD2    C411688   0.592   4.288  10.530 -0.3362  0.6930 -0.0826
  793MPD2    C511689   0.540   4.352  10.426 -0.4096 -0.2861  0.3014
  793MPD2     H11690   0.892   4.221  10.386 -2.1212 -2.6650 -2.5265
  793MPD2    H111691   0.522   4.283  10.612 -1.5808  1.3801 -1.1082
  793MPD2    H211692   0.554   4.433  10.230 -1.0241  1.7281  1.7044
  793MPD2    H311693   0.436   4.384  10.429 -0.1145  0.5746  1.3564
  793MPD2     N11694   0.793   4.181  10.641  0.2846  0.1848  0.4310
  793MPD2    H511695   0.888   4.144  10.634  0.5592  1.2284 -1.2646
  793MPD2    N111696   0.809   4.342  10.181 -0.3651  0.2749 -0.3887
  793MPD2    H711697   0.897   4.291  10.179  0.2794  1.4002 -0.9599
  794MPD2     C11698   0.855   3.892  17.250 -0.2019 -0.6835  0.2815
  794MPD2    C111699   0.806   3.764  17.239  0.8864  0.0488 -0.5018
  794MPD2    C211700   0.711   3.741  17.136 -0.2424 -0.5287 -0.1861
  794MPD2    C311701   0.665   3.850  17.070  0.5569  0.1211  0.1948
  794MPD2    C411702   0.716   3.977  17.084  0.3351  0.0449 -0.3957
  794MPD2    C511703   0.816   4.000  17.172  0.3867  0.1125 -0.0271
  794MPD2     H11704   0.670   3.643  17.113 -1.9199  0.1448 -0.0427
  794MPD2    H111705   0.669   4.063  17.038  0.3498 -0.3125 -1.0685
  794MPD2    H211706   0.944   3.916  17.307 -0.9519  0.6360  0.8939
  794MPD2    H311707   0.851   4.102  17.184 -0.2958  0.1935  1.2269
  794MPD2     N11708   0.555   3.847  16.977  0.2335 -0.6570 -0.5009
  794MPD2    H511709   0.524   3.930  16.928 -0.5566  0.2784  1.5363
  794MPD2    N111710   0.856   3.652  17.310  0.6307  0.1544  0.4668
  794MPD2    H711711   0.818   3.560  17.292 -1.2869  1.1217 -0.4540
  795MPD2     C11712   2.781   1.581  13.379 -0.4569  0.2567  0.3763
  795MPD2    C111713   2.730   1.464  13.422  0.0123 -0.3749 -0.5327
  795MPD2    C211714   2.819   1.368  13.468  0.1779 -0.6831 -0.4423
  795MPD2    C311715   2.951   1.387  13.485  0.3928 -0.4477 -0.3691
  795MPD2    C411716   3.003   1.505  13.451 -0.0345  0.2668 -0.2044
  795MPD2    C511717   2.912   1.598  13.393  0.8428 -0.0614  0.0022
  795MPD2     H11718   2.781   1.269  13.492  0.6028 -0.8805 -0.5717
  795MPD2    H111719   3.105   1.535  13.470 -0.5054 -0.3829  3.3029
  795MPD2    H211720   2.720   1.659  13.336  1.1982  0.8991 -0.8043
  795MPD2    H311721   2.952   1.696  13.366 -1.1155  1.0769  1.2555
  795MPD2     N11722   3.032   1.284  13.527  0.1424  0.0065 -0.1474
  795MPD2    H511723   2.989   1.195  13.553 -2.5602  0.8695 -1.7257
  795MPD2    N111724   2.591   1.423  13.418  0.2135  0.2839  0.2644
  795MPD2    H711725   2.567   1.339  13.471 -3.7431  0.2151 -1.6162
  796MPD2     C11726   2.793   2.727  16.003 -0.6685 -0.4319 -0.3735
  796MPD2    C111727   2.892   2.785  16.080 -0.7316 -0.2047  0.1038
  796MPD2    C211728   2.916   2.919  16.082  0.6574  0.0606 -0.3414
  796MPD2    C311729   2.834   3.006  16.014 -0.1411 -0.5061 -0.5096
  796MPD2    C411730   2.733   2.946  15.939  0.2120 -0.8116 -0.1842
  796MPD2    C511731   2.711   2.814  15.935  0.0716 -0.6047  0.5632
  796MPD2     H11732   2.992   2.961  16.148  0.7672  0.0105 -0.4361
  796MPD2    H111733   2.656   3.000  15.886  0.7440 -0.3277 -0.4720
  796MPD2    H211734   2.781   2.620  15.998  3.5920 -0.8850 -0.7653
  796MPD2    H311735   2.636   2.782  15.863  1.7866  0.2996 -1.6032
  796MPD2     N11736   2.853   3.149  16.010 -0.0858 -0.1189  0.6407
  796MPD2    H511737   2.930   3.184  16.065  0.6274  1.3833 -1.3243
  796MPD2    N111738   2.962   2.696  16.166  0.3101  0.4679 -0.3798
  796MPD2    H711739   2.908   2.611  16.179  1.4138 -0.0057  1.0694
  797MPD2     C11740   3.861   2.069   0.007  0.0541 -1.0129 -0.0218
  797MPD2    C111741   3.980   2.063  17.629  0.5213 -0.0005 -0.9580
  797MPD2    C211742   3.998   2.155  17.526 -0.7273 -0.8036  0.5929
  797MPD2    C311743   3.900   2.245  17.487 -0.3063  0.6873 -0.2939
  797MPD2    C411744   3.783   2.255  17.557 -0.5691  1.0061 -0.1900
  797MPD2    C511745   3.766   2.172  17.669 -0.0641  0.2872 -0.9320
  797MPD2     H11746   4.089   2.137  17.470  0.5782  0.2081  2.4365
  797MPD2    H111747   3.702   2.320  17.524 -2.9404 -1.7289  0.2750
  797MPD2    H211748   3.830   2.000   0.084 -1.3329 -0.5867 -0.1947
  797MPD2    H311749   3.673   2.169   0.031  0.8721 -2.9339  0.4627
  797MPD2     N11750   3.937   2.326  17.376 -0.2032 -0.6793 -0.0818
  797MPD2    H511751   4.026   2.316  17.329 -0.5989 -0.5384 -0.8535
  797MPD2    N111752   4.090   1.974  17.658  0.4422 -0.2991  0.1580
  797MPD2    H711753   4.181   1.994  17.616 -0.0613 -2.7091 -2.0594
  798MPD2     C11754   4.611   2.240  17.210 -0.9430 -0.9500  0.5676
  798MPD2    C111755   4.473   2.228  17.223 -1.1989 -0.2185  0.7779
  798MPD2    C211756   4.429   2.122  17.298 -0.1637  0.3645 -0.1579
  798MPD2    C311757   4.512   2.031  17.365  0.8306 -0.3529 -0.1610
  798MPD2    C411758   4.648   2.052  17.350 -0.4013 -0.1447 -0.3476
  798MPD2    C511759   4.693   2.154  17.272 -0.0213  0.3037  0.5028
  798MPD2     H11760   4.322   2.108  17.303  0.0870 -0.7172  2.3100
  798MPD2    H111761   4.712   1.970  17.380  1.0831  0.8414 -0.8299
  798MPD2    H211762   4.653   2.321  17.150 -1.4811 -2.1591 -1.4388
  798MPD2    H311763   0.075   2.153  17.244 -0.7062  1.3651 -2.1237
  798MPD2     N11764   4.445   1.926  17.438 -0.3914  0.7531 -0.3190
  798MPD2    H511765   4.346   1.920  17.417 -0.5792  0.3340  0.7090
  798MPD2    N111766   4.384   2.326  17.166  0.3966  0.3801  0.0207
  798MPD2    H711767   4.428   2.405  17.120  0.5231 -1.0158 -2.1983
  799MPD2     C11768   2.792   3.916  14.733 -0.4014  0.7470  0.0554
  799MPD2    C111769   2.662   3.870  14.694  0.0717  0.0595  0.4343
  799MPD2    C211770   2.576   3.954  14.625  0.6946  0.0676  0.0996
  799MPD2    C311771   2.609   4.087  14.598  0.0786 -0.2511  0.3610
  799MPD2    C411772   2.741   4.131  14.633 -0.4244  0.2868  0.1897
  799MPD2    C511773   2.830   4.041  14.688 -0.4183 -0.0230  1.3332
  799MPD2     H11774   2.482   3.911  14.595  1.0411  0.4726 -1.5670
  799MPD2    H111775   2.775   4.233  14.618  1.7003 -0.8134 -2.3050
  799MPD2    H211776   2.857   3.866  14.804 -0.5144  0.7500  0.1624
  799MPD2    H311777   2.931   4.072  14.713  0.3547 -1.4290 -0.0546
  799MPD2     N11778   2.534   4.177  14.526  0.1945 -0.2931 -0.2641
  799MPD2    H511779   2.587   4.250  14.481 -1.6634  0.8779 -0.5413
  799MPD2    N111780   2.602   3.755  14.736 -0.1032  0.5988  0.4218
  799MPD2    H711781   2.511   3.738  14.695 -0.5750  2.6872  0.5984
  800MPD2     C11782   2.715   0.478  13.932 -0.2298  0.4020 -0.2143
  800MPD2    C111783   2.813   0.415  13.857 -0.3679 -0.2591  0.1567
  800MPD2    C211784   2.775   0.353  13.736  0.0386 -0.3510 -0.3236
  800MPD2    C311785   2.647   0.351  13.699 -0.8420 -0.3642  0.1683
  800MPD2    C411786   2.551   0.393  13.788  0.0653  0.3111 -0.6422
  800MPD2    C511787   2.587   0.462  13.903  0.1935  0.5561  0.5477
  800MPD2     H11788   2.849   0.307  13.673 -0.6173  0.0658 -1.4084
  800MPD2    H111789   2.444   0.398  13.773  0.0231  1.0803 -0.0764
  800MPD2    H211790   2.736   0.519  14.030 -1.1153  0.9917 -0.2718
  800MPD2    H311791   2.514   0.514  13.964  0.9667  0.4569  1.5704
  800MPD2     N11792   2.621   0.296  13.573 -0.0764  0.5309 -0.7352
  800MPD2    H511793   2.701   0.256  13.526 -0.7282 -0.7437 -0.7616
  800MPD2    N111794   2.952   0.425  13.893  0.5143 -0.2055  0.3113
  800MPD2    H711795   2.963   0.499  13.962 -1.7240  2.1900 -1.8935
  801MPD2     C11796   3.310   1.015  13.953 -0.0390 -0.2482  0.4570
  801MPD2    C111797   3.219   0.922  13.994 -0.2050 -0.4667 -0.7274
  801MPD2    C211798   3.124   0.958  14.092 -0.5982 -0.0453 -1.1277
  801MPD2    C311799   3.126   1.089  14.145  0.1414  0.1428  0.8386
  801MPD2    C411800   3.214   1.178  14.097  0.4939 -0.4879  0.1692
  801MPD2    C511801   3.309   1.139  14.008  0.1487 -0.8039  0.6711
  801MPD2     H11802   3.054   0.881  14.119 -1.1458  1.8215  2.7491
  801MPD2    H111803   3.215   1.283  14.127  1.1226 -0.3575 -0.3181
  801MPD2    H211804   3.379   0.990  13.874 -0.2075 -0.8228  0.4880
  801MPD2    H311805   3.385   1.211  13.980 -2.5749  1.5676 -0.5878
  801MPD2     N11806   3.037   1.122  14.250  0.4730 -0.2514 -0.0292
  801MPD2    H511807   3.058   1.208  14.299 -3.1237 -0.3241  1.6245
  801MPD2    N111808   3.221   0.787  13.951  0.4327  0.5523  0.1941
  801MPD2    H711809   3.137   0.737  13.978  0.4994 -0.2924 -1.1960
  802MPD2     C11810   2.340   0.615   0.164  0.2463 -0.1682  0.2016
  802MPD2    C111811   2.303   0.736   0.117  0.2847 -0.1040  0.1997
  802MPD2    C211812   2.310   0.771  17.674  0.1295  0.1139  0.9515
  802MPD2    C311813   2.358   0.675  17.588  0.5722 -0.0043 -0.6384
  802MPD2    C411814   2.402   0.550  17.642  0.4484  0.0095 -0.2280
  802MPD2    C511815   2.389   0.524   0.079 -0.4150  0.7287 -0.5465
  802MPD2     H11816   2.277   0.866  17.632 -1.6484  0.7733  3.8327
  802MPD2    H111817   2.445   0.472  17.580  0.2491 -0.2264 -0.0720
  802MPD2    H211818   2.333   0.587   0.269 -4.4962 -0.6655 -0.2337
  802MPD2    H311819   2.430   0.433   0.119 -2.6898 -0.6616 -1.3918
  802MPD2     N11820   2.357   0.710  17.453  0.6796 -0.0213 -0.1094
  802MPD2    H511821   2.302   0.792  17.428  1.0060  0.9026  2.2182
  802MPD2    N111822   2.248   0.834   0.203 -0.8218 -0.1527  0.0238
  802MPD2    H711823   2.222   0.919   0.154  0.8745  0.5272  0.2983
  803MPD2     C11824   3.798   4.650  11.809  0.0251  0.3326  0.3038
  803MPD2    C111825   3.871   4.628  11.929  0.1628 -0.7231  0.1691
  803MPD2    C211826   3.804   4.559  12.028 -0.5638 -0.4221  0.0438
  803MPD2    C311827   3.672   4.519  12.019 -0.0803 -0.4397  0.0808
  803MPD2    C411828   3.609   4.550  11.902 -0.0543  0.0808 -0.6886
  803MPD2    C511829   3.667   4.623  11.805 -0.0394 -0.4193  0.2225
  803MPD2     H11830   3.863   4.536  12.116  0.6884 -0.9630 -0.9392
  803MPD2    H111831   3.507   4.515  11.892  0.8130 -2.1947 -1.5086
  803MPD2    H211832   3.839   4.709  11.728 -0.5038 -0.8691 -0.8504
  803MPD2    H311833   3.618   4.664  11.718 -0.9770  0.9845  1.4164
  803MPD2     N11834   3.610   4.444  12.122  0.0310 -0.7759 -0.0416
  803MPD2    H511835   3.670   4.435  12.203  0.4920 -1.7806 -0.4964
  803MPD2    N111836   4.009   4.653  11.950  0.4581 -0.0388 -0.1222
  803MPD2    H711837   4.047   4.641  12.044  0.0825  2.2266  0.3254
  804MPD2     C11838   2.982   1.054  17.102 -0.3592  0.2100  0.4849
  804MPD2    C111839   2.952   1.007  17.223  0.6324  0.0911 -0.0053
  804MPD2    C211840   2.987   1.076  17.343 -0.0099 -0.5152  0.1355
  804MPD2    C311841   3.056   1.195  17.329 -0.1499  0.6487 -0.3179
  804MPD2    C411842   3.093   1.237  17.201 -0.1635 -0.3933  0.4521
  804MPD2    C511843   3.056   1.174  17.087  0.1414  0.1230 -1.0819
  804MPD2     H11844   2.967   1.025  17.436  1.4837  1.5012  1.5432
  804MPD2    H111845   3.165   1.319  17.193 -1.8710  1.0242 -0.4460
  804MPD2    H211846   2.957   0.993  17.015  0.7574  1.2759 -0.5929
  804MPD2    H311847   3.088   1.195  16.985 -1.0571  2.1860 -1.0550
  804MPD2     N11848   3.122   1.257  17.438 -0.5515 -0.5750  0.2384
  804MPD2    H511849   3.188   1.328  17.409 -2.4026  1.2553  0.4929
  804MPD2    N111850   2.909   0.876  17.245 -0.7234  0.7885 -0.0926
  804MPD2    H711851   2.889   0.842  17.338  0.0953  1.1490  0.2135
  805MPD2     C11852   2.406   4.134  15.626 -0.9155 -0.1308  0.1451
  805MPD2    C111853   2.495   4.146  15.530 -0.1114 -0.2580 -0.5020
  805MPD2    C211854   2.627   4.165  15.565  0.3813  0.0995  0.1226
  805MPD2    C311855   2.672   4.173  15.696  0.4670  0.6644 -0.1010
  805MPD2    C411856   2.578   4.163  15.794 -0.0531 -0.8164  0.1280
  805MPD2    C511857   2.449   4.143  15.756 -0.1978 -0.9341 -0.5297
  805MPD2     H11858   2.703   4.168  15.488  0.0158  1.2868 -0.1871
  805MPD2    H111859   2.608   4.156  15.898 -0.5722 -2.3099  0.1631
  805MPD2    H211860   2.303   4.111  15.605 -0.3324 -1.5655 -1.1109
  805MPD2    H311861   2.381   4.126  15.840 -0.8643 -2.5987 -1.3972
  805MPD2     N11862   2.811   4.184  15.720 -0.6493 -0.0525 -0.2607
  805MPD2    H511863   2.870   4.161  15.640 -0.3501 -2.5374  0.6707
  805MPD2    N111864   2.468   4.120  15.395  0.6757  0.7052 -0.2087
  805MPD2    H711865   2.548   4.124  15.332  1.9643 -2.5770  1.2260
  806MPD2     C11866   3.885   3.871   1.265 -0.3587  0.5108  0.4717
  806MPD2    C111867   3.786   3.794   1.204  0.9786  0.9188  0.4298
  806MPD2    C211868   3.744   3.832   1.079 -0.9009 -0.3412  0.1799
  806MPD2    C311869   3.788   3.944   1.011  0.7287  0.4379 -0.0034
  806MPD2    C411870   3.894   4.017   1.071  0.3097 -0.5074 -0.4170
  806MPD2    C511871   3.937   3.982   1.197 -0.0096  0.1606  0.0863
  806MPD2     H11872   3.673   3.768   1.029 -0.6748  1.2580 -2.2157
  806MPD2    H111873   3.946   4.094   1.016  0.2534  0.5389  1.0109
  806MPD2    H211874   3.913   3.854   1.368  1.1152  0.6393  0.0930
  806MPD2    H311875   4.011   4.045   1.244  0.0924  1.0723 -1.2786
  806MPD2     N11876   3.734   3.986   0.883  0.4136  0.8414  0.1712
  806MPD2    H511877   3.770   4.076   0.853  2.1578  0.6121  1.6306
  806MPD2    N111878   3.734   3.685   1.274  0.1563  0.0655 -0.0049
  806MPD2    H711879   3.752   3.686   1.374 -0.8689 -2.2409  0.1951
  807MPD2     C11880   3.483   3.552   1.977 -0.0399  0.0586 -0.4986
  807MPD2    C111881   3.384   3.497   1.890  0.9542 -0.2827  0.1041
  807MPD2    C211882   3.267   3.452   1.946 -0.0322  0.1834  0.7354
  807MPD2    C311883   3.245   3.469   2.081 -0.1260 -0.2177 -0.0430
  807MPD2    C411884   3.349   3.513   2.165  0.0684 -0.0319 -0.1538
  807MPD2    C511885   3.460   3.564   2.111  0.0482 -0.6031  0.3462
  807MPD2     H11886   3.193   3.400   1.886  0.7778  0.2542 -0.3096
  807MPD2    H111887   3.343   3.498   2.272 -0.1096  0.9114 -0.0294
  807MPD2    H211888   3.584   3.583   1.952  0.3274 -2.3581 -1.9831
  807MPD2    H311889   3.545   3.597   2.169  0.8389 -2.7517  0.3819
  807MPD2     N11890   3.121   3.429   2.138 -0.2082 -0.4911  0.6033
  807MPD2    H511891   3.052   3.386   2.076  0.1870 -0.2258 -0.0266
  807MPD2    N111892   3.406   3.471   1.757 -0.2471  0.2504 -0.4986
  807MPD2    H711893   3.326   3.442   1.701 -0.2791  1.4100 -1.0515
  808MPD2     C11894   3.496   0.700   8.906 -0.3739 -0.9150  0.1594
  808MPD2    C111895   3.514   0.699   9.041 -0.6817 -0.1533 -0.2808
  808MPD2    C211896   3.622   0.762   9.092 -0.7436  0.4234 -0.6619
  808MPD2    C311897   3.704   0.850   9.018  0.1602  0.1588 -0.2289
  808MPD2    C411898   3.675   0.859   8.885 -0.0993  0.1714  0.3193
  808MPD2    C511899   3.581   0.773   8.836 -0.1803  0.6486 -0.0854
  808MPD2     H11900   3.631   0.755   9.200 -0.7237 -0.0059 -0.6909
  808MPD2    H111901   3.730   0.920   8.815  0.3475 -0.7923 -0.1784
  808MPD2    H211902   3.429   0.631   8.856 -3.4815  2.0585  0.2348
  808MPD2    H311903   3.570   0.786   8.729  0.9310  0.5391 -0.2144
  808MPD2     N11904   3.815   0.920   9.076 -0.7804 -0.1027  0.2550
  808MPD2    H511905   3.881   0.965   9.013 -0.8688  0.2378  0.4074
  808MPD2    N111906   3.428   0.625   9.129 -0.9631 -0.2240  0.0424
  808MPD2    H711907   3.471   0.592   9.215 -4.1751 -1.2468  1.2388
  809MPD2     C11908   0.002   0.976   8.833 -0.6922 -0.3879 -0.3089
  809MPD2    C111909   4.597   0.963   8.783 -0.2775  0.2499  0.0114
  809MPD2    C211910   4.488   0.991   8.858 -0.1080 -0.6988  0.5652
  809MPD2    C311911   4.511   1.043   8.988  0.1545 -0.5574 -1.2780
  809MPD2    C411912   4.641   1.063   9.033  0.7670  0.2985  0.6703
  809MPD2    C511913   0.023   1.036   8.949 -0.5167  0.4456 -0.3002
  809MPD2     H11914   4.391   0.977   8.812  0.3711  1.9945 -1.2876
  809MPD2    H111915   4.657   1.109   9.130 -0.7252  1.3796  0.4143
  809MPD2    H211916   0.096   0.942   8.790  0.8191  2.3543  0.8000
  809MPD2    H311917   0.124   1.045   8.988 -0.6318 -0.0945  0.1226
  809MPD2     N11918   4.404   1.085   9.072 -0.0266 -0.0814 -0.2069
  809MPD2    H511919   4.422   1.113   9.168 -1.3059 -0.7408  0.2233
  809MPD2    N111920   4.573   0.887   8.670 -0.1841  0.4378  0.5922
  809MPD2    H711921   4.476   0.880   8.640  0.6684 -1.3228 -1.7558
  810MPD2     C11922   3.412   4.240  10.424  0.4175 -0.2248  0.4525
  810MPD2    C111923   3.386   4.271  10.293  0.8179 -0.0064 -0.6197
  810MPD2    C211924   3.440   4.387  10.241 -0.1503 -0.3498 -0.1973
  810MPD2    C311925   3.509   4.474  10.325 -1.0381 -0.5639  0.4228
  810MPD2    C411926   3.520   4.447  10.464 -0.4643  0.3049 -0.9163
  810MPD2    C511927   3.482   4.323  10.506 -0.1842 -0.1688  0.2174
  810MPD2     H11928   3.413   4.428  10.144 -0.6838 -1.4125 -0.4919
  810MPD2    H111929   3.574   4.508  10.536 -4.0275  0.2789  1.7876
  810MPD2    H211930   3.386   4.143  10.466 -1.2975 -0.1629 -0.4446
  810MPD2    H311931   3.491   4.293  10.610  1.1340  1.1662  0.4900
  810MPD2     N11932   3.548   4.606  10.288 -0.1302 -0.5657  0.6385
  810MPD2    H511933   3.570   4.668  10.365  0.0488 -0.8831  0.8446
  810MPD2    N111934   3.269   4.204  10.240 -0.4851  0.4580 -0.2495
  810MPD2    H711935   3.242   4.117  10.284 -1.8441  0.2596 -1.4616
  811MPD2     C11936   2.408   4.183   9.837  0.2066  0.0842  0.1431
  811MPD2    C111937   2.519   4.256   9.852 -0.6562 -0.1190  0.6229
  811MPD2    C211938   2.525   4.383   9.806  0.9372  0.6068  0.1819
  811MPD2    C311939   2.419   4.447   9.746 -0.3932 -0.2266 -0.1332
  811MPD2    C411940   2.297   4.378   9.749 -0.0621 -0.0294  0.0796
  811MPD2    C511941   2.302   4.248   9.783 -0.3310 -0.0448 -0.8213
  811MPD2     H11942   2.619   4.437   9.815  0.9832  0.0625  3.0438
  811MPD2    H111943   2.202   4.420   9.717  0.1463  0.3883  0.0122
  811MPD2    H211944   2.388   4.084   9.875 -0.7903  0.4676  0.6241
  811MPD2    H311945   2.216   4.183   9.786  0.8829 -1.6837 -1.6351
  811MPD2     N11946   2.429   4.588   9.710 -0.3264  0.0260 -0.1575
  811MPD2    H511947   2.523   4.626   9.710 -0.3464  0.0663 -2.9387
  811MPD2    N111948   2.636   4.196   9.919 -0.2361 -0.1228 -0.1821
  811MPD2    H711949   2.629   4.097   9.941  2.1236 -0.3564 -0.5424
  812MPD2     C11950   1.764   4.521  12.231  0.0577 -0.6331  0.4025
  812MPD2    C111951   1.645   4.532  12.291 -0.1596 -0.4327 -0.1501
  812MPD2    C211952   1.600   4.425  12.368 -0.4481  0.1545 -0.0725
  812MPD2    C311953   1.681   4.304  12.389  0.3342  0.5687 -0.0680
  812MPD2    C411954   1.804   4.298  12.322 -0.0214  0.4373 -0.1353
  812MPD2    C511955   1.842   4.410  12.250  0.2046 -0.0306  0.6761
  812MPD2     H11956   1.508   4.430  12.425 -1.5746  1.0649 -1.9769
  812MPD2    H111957   1.870   4.218  12.353  0.3438  0.4410 -0.9229
  812MPD2    H211958   1.808   4.598  12.169  0.0371 -0.0856  1.0662
  812MPD2    H311959   1.945   4.422  12.218  0.5222 -1.2896  1.2018
  812MPD2     N11960   1.632   4.212  12.485 -0.0868 -0.1206  0.3788
  812MPD2    H511961   1.549   4.243  12.536 -0.4109 -1.5540  0.7249
  812MPD2    N111962   1.570   4.651  12.275  0.2748 -0.1733  0.3754
  812MPD2    H711963   1.612   4.718  12.212 -0.6360 -1.5069 -1.6446
  813MPD2     C11964   0.506   1.906  12.585 -0.1789 -0.3956 -0.0651
  813MPD2    C111965   0.607   1.839  12.649 -0.1007 -0.0063  0.7308
  813MPD2    C211966   0.579   1.762  12.758 -0.2916  0.0909  0.1975
  813MPD2    C311967   0.445   1.743  12.803 -0.1882 -0.8140 -0.1049
  813MPD2    C411968   0.344   1.806  12.736  0.0172 -0.0464 -0.4603
  813MPD2    C511969   0.374   1.884  12.623 -0.1923 -0.4957 -0.5130
  813MPD2     H11970   0.656   1.716  12.818  0.7181 -0.5324 -1.5675
  813MPD2    H111971   0.242   1.777  12.757  0.0110 -1.7473 -2.8554
  813MPD2    H211972   0.531   1.974  12.505 -0.5117 -0.7214 -0.4468
  813MPD2    H311973   0.293   1.930  12.568  0.5686  2.9658  1.2727
  813MPD2     N11974   0.437   1.665  12.919 -0.4273 -0.0440  0.0408
  813MPD2    H511975   0.523   1.614  12.938 -0.0968  0.5051  0.0382
  813MPD2    N111976   0.741   1.864  12.606  0.0716  0.5482  0.2335
  813MPD2    H711977   0.757   1.943  12.544 -0.3386  1.7389  1.6218
  814MPD2     C11978   1.468   2.837  12.121  1.1604  0.1970  0.0464
  814MPD2    C111979   1.436   2.900  12.003  0.4897  0.2309 -0.1751
  814MPD2    C211980   1.463   3.039  11.993  0.2983  0.2648 -0.6940
  814MPD2    C311981   1.524   3.110  12.096  1.0211  0.7410  0.0059
  814MPD2    C411982   1.571   3.034  12.202  0.2756  0.2033 -0.9595
  814MPD2    C511983   1.525   2.909  12.216 -1.2796 -0.4651 -1.0906
  814MPD2     H11984   1.455   3.083  11.894  1.4202 -0.9932 -1.3514
  814MPD2    H111985   1.618   3.090  12.282  0.1934  1.7238 -1.9545
  814MPD2    H211986   1.446   2.733  12.142 -0.8106  0.6445  0.2718
  814MPD2    H311987   1.533   2.858  12.311  0.7114  1.1508 -0.3812
  814MPD2     N11988   1.563   3.244  12.101 -0.0007 -0.1681 -0.3303
  814MPD2    H511989   1.620   3.270  12.180 -0.1146 -0.8718 -0.0177
  814MPD2    N111990   1.384   2.839  11.890  0.0622 -0.0664  0.5180
  814MPD2    H711991   1.392   2.897  11.807  0.3406  1.6784  1.7779
  815MPD2     C11992   1.660   1.819  11.816  0.2405 -0.2288  0.4325
  815MPD2    C111993   1.615   1.689  11.803  0.5996  0.2405 -0.6508
  815MPD2    C211994   1.488   1.656  11.860  0.1057  0.2303 -0.3447
  815MPD2    C311995   1.419   1.756  11.929 -0.0046 -0.4431 -0.8524
  815MPD2    C411996   1.466   1.885  11.927  0.4350  0.2448  1.0135
  815MPD2    C511997   1.589   1.917  11.876 -0.6938 -0.1845  0.1677
  815MPD2     H11998   1.451   1.556  11.843 -1.5899  0.3409  2.7320
  815MPD2    H111999   1.412   1.959  11.984 -0.3325  0.0200  0.5677
  815MPD2    H212000   1.759   1.847  11.783  0.8875 -1.6287  1.2063
  815MPD2    H312001   1.620   2.019  11.893 -1.7672  0.2509 -0.5003
  815MPD2     N12002   1.289   1.722  11.976  0.3334 -0.1587  0.0609
  815MPD2    H512003   1.254   1.628  11.965  1.3871 -0.7345  1.7177
  815MPD2    N112004   1.694   1.593  11.735  0.9227 -1.2491  0.0009
  815MPD2    H712005   1.781   1.619  11.689  0.1233 -1.0113 -1.3866
  816MPD2     C12006   1.250   0.636  16.874  0.0952 -0.2719 -0.2323
  816MPD2    C112007   1.307   0.681  16.989  0.6541  0.7357 -0.9219
  816MPD2    C212008   1.436   0.634  17.015 -0.3391  0.9045  0.4107
  816MPD2    C312009   1.511   0.567  16.921  0.1411 -0.7129 -0.2085
  816MPD2    C412010   1.451   0.525  16.803  0.2101 -0.1068  0.1837
  816MPD2    C512011   1.319   0.557  16.782 -0.2086  0.5834 -0.7811
  816MPD2     H12012   1.485   0.667  17.106 -0.9316  1.4295  0.5370
  816MPD2    H112013   1.502   0.459  16.733  1.0542  1.3737 -0.5866
  816MPD2    H212014   1.146   0.654  16.849  0.2074  0.1826 -0.3808
  816MPD2    H312015   1.276   0.522  16.689 -1.3636  2.1156 -0.8231
  816MPD2     N12016   1.644   0.536  16.953  0.0951 -0.5380  0.4603
  816MPD2    H512017   1.678   0.558  17.046 -0.7459  1.1715  0.3717
  816MPD2    N112018   1.230   0.774  17.068  0.3073  0.2268  0.0963
  816MPD2    H712019   1.135   0.780  17.031  1.7253 -0.6461 -3.6653
  817MPD2     C12020   1.254   2.169   9.776  0.0580 -0.0614 -0.0996
  817MPD2    C112021   1.292   2.138   9.640 -0.8205 -0.0301 -0.4607
  817MPD2    C212022   1.268   2.240   9.539 -0.8210 -0.0741 -0.2788
  817MPD2    C312023   1.196   2.354   9.569 -0.2159 -0.0153 -0.9003
  817MPD2    C412024   1.166   2.378   9.699 -0.7898 -0.7708 -0.1474
  817MPD2    C512025   1.195   2.288   9.801  0.6307 -0.0093 -0.0254
  817MPD2     H12026   1.297   2.209   9.439 -1.0320  1.2658 -0.7586
  817MPD2    H112027   1.116   2.471   9.725 -1.0834 -0.5107 -1.6389
  817MPD2    H212028   1.269   2.103   9.861 -3.1865  0.7093  1.0496
  817MPD2    H312029   1.159   2.324   9.897 -2.2306 -1.1067 -0.6846
  817MPD2     N12030   1.159   2.440   9.464  0.0019 -0.5315 -0.2708
  817MPD2    H512031   1.203   2.421   9.375 -0.3574 -0.2109 -0.5184
  817MPD2    N112032   1.358   2.015   9.603 -0.2557  0.1651 -0.2051
  817MPD2    H712033   1.383   2.004   9.505 -0.2489 -1.2587 -0.0481
  818MPD2     C12034   0.495   2.144   9.710 -0.3325  0.0694 -0.1493
  818MPD2    C112035   0.518   2.075   9.827  0.3522 -0.3628  0.0616
  818MPD2    C212036   0.582   1.949   9.824 -0.2702  0.0991 -0.6817
  818MPD2    C312037   0.625   1.895   9.704  0.0560 -0.1563  0.0671
  818MPD2    C412038   0.592   1.959   9.588  0.2732  1.1510  0.0264
  818MPD2    C512039   0.533   2.087   9.595 -0.1026 -0.1364  0.9200
  818MPD2     H12040   0.592   1.897   9.918  0.6185  2.0642  0.2997
  818MPD2    H112041   0.616   1.914   9.492 -0.2039  0.2542  0.3260
  818MPD2    H212042   0.463   2.248   9.708  1.3895  0.6171  0.6984
  818MPD2    H312043   0.512   2.139   9.502  2.5855  0.4413  0.6557
  818MPD2     N12044   0.696   1.771   9.687  0.5866 -0.0031  0.7984
  818MPD2    H512045   0.704   1.739   9.591  0.5399  0.7823  0.5315
  818MPD2    N112046   0.478   2.119   9.952 -0.4301 -0.3072 -0.2626
  818MPD2    H712047   0.505   2.063  10.032 -1.3818  0.3603  0.5265
  819MPD2     C12048   2.984   3.605  15.745  0.8618 -0.0831 -0.0497
  819MPD2    C112049   3.012   3.477  15.699  0.3053 -0.1178  0.0810
  819MPD2    C212050   3.144   3.427  15.697 -0.6025  0.0380  0.3726
  819MPD2    C312051   3.243   3.511  15.746  0.1418  0.0463  0.0759
  819MPD2    C412052   3.211   3.640  15.783  0.6990 -0.2073 -0.2120
  819MPD2    C512053   3.089   3.687  15.790 -0.9094 -0.1558  0.1680
  819MPD2     H12054   3.171   3.328  15.663  0.0555  0.4989 -0.4162
  819MPD2    H112055   3.294   3.708  15.797 -0.6358  1.3866 -0.0658
  819MPD2    H212056   2.881   3.639  15.749  1.3669  1.5096 -0.4057
  819MPD2    H312057   3.073   3.787  15.828 -1.5282  0.2604 -1.2058
  819MPD2     N12058   3.372   3.463  15.751 -0.8751 -0.2965  0.2369
  819MPD2    H512059   3.397   3.372  15.713 -0.2437  0.4082 -1.0133
  819MPD2    N112060   2.899   3.395  15.651  0.0160  0.2802 -0.0250
  819MPD2    H712061   2.815   3.450  15.639  0.3050  1.2819  2.5609
  820MPD2     C12062   2.186   3.547  15.010 -0.1788 -0.6711  0.1892
  820MPD2    C112063   2.310   3.591  15.045 -0.5299 -0.0640 -0.0161
  820MPD2    C212064   2.394   3.518  15.126 -0.2158  0.2931  0.0175
  820MPD2    C312065   2.354   3.396  15.173  0.3950  0.1937  0.7711
  820MPD2    C412066   2.233   3.345  15.123  0.0063  0.1666 -0.0581
  820MPD2    C512067   2.153   3.419  15.040  0.2243  0.8449  0.7066
  820MPD2     H12068   2.494   3.550  15.154  0.0067  0.0073 -0.4661
  820MPD2    H112069   2.204   3.248  15.162 -1.0992  0.0209 -1.2409
  820MPD2    H212070   2.123   3.615  14.955  1.2544 -0.6777 -1.4844
  820MPD2    H312071   2.060   3.377  15.003  1.1216 -0.2369 -0.3189
  820MPD2     N12072   2.431   3.325  15.269  0.9337 -0.8394 -0.6069
  820MPD2    H512073   2.408   3.226  15.278 -1.0622 -0.6262 -3.3777
  820MPD2    N112074   2.339   3.726  15.012  0.7171 -0.2433 -0.6662
  820MPD2    H712075   2.265   3.787  14.976  0.4778  0.1008  0.4042
  821MPD2     C12076   2.613   0.825  12.945  0.5164 -0.2324 -0.3441
  821MPD2    C112077   2.716   0.738  12.978  0.2924 -0.2345  0.0606
  821MPD2    C212078   2.842   0.771  12.939 -0.0740  0.1784 -0.0534
  821MPD2    C312079   2.881   0.869  12.849  0.8208  0.4971  1.0273
  821MPD2    C412080   2.776   0.941  12.799 -0.3835 -0.3017 -0.0754
  821MPD2    C512081   2.647   0.925  12.854  0.4027 -0.0854 -0.2038
  821MPD2     H12082   2.926   0.708  12.968 -0.1976 -0.4655 -1.0683
  821MPD2    H112083   2.796   1.024  12.732  1.6641  0.1514  1.1127
  821MPD2    H212084   2.514   0.828  12.988  0.2858 -2.2227 -0.7085
  821MPD2    H312085   2.570   0.993  12.817 -1.0493 -1.5891  0.0823
  821MPD2     N12086   3.010   0.914  12.820 -0.1230 -0.5264 -0.3015
  821MPD2    H512087   3.008   0.982  12.746 -0.1889 -0.6235 -0.3890
  821MPD2    N112088   2.706   0.624  13.063 -0.0771 -0.3886 -0.3363
  821MPD2    H712089   2.788   0.568  13.084 -2.6343 -3.4618  1.3490
  822MPD2     C12090   3.602   0.074  15.907  0.6820 -0.0490 -0.0344
  822MPD2    C112091   3.591   0.070  16.043  0.2071 -0.5333  0.6263
  822MPD2    C212092   3.541   0.186  16.106  0.9401 -0.5653 -0.1624
  822MPD2    C312093   3.508   0.296  16.034  0.4227 -0.8153  0.1838
  822MPD2    C412094   3.494   0.284  15.896  0.7867 -0.6150  0.5143
  822MPD2    C512095   3.550   0.176  15.830  0.0261 -0.0581 -0.2657
  822MPD2     H12096   3.554   0.192  16.213 -0.0081  1.4955 -0.1663
  822MPD2    H112097   3.477   0.369  15.830  1.1641 -1.0793 -0.1846
  822MPD2    H212098   3.648   4.713  15.856  0.4621 -0.7925  0.9983
  822MPD2    H312099   3.573   0.192  15.726  2.1324  3.1411  0.6984
  822MPD2     N12100   3.456   0.401  16.110 -0.1819 -0.6847  0.6340
  822MPD2    H512101   3.454   0.391  16.211 -1.9969  2.0012  0.8726
  822MPD2    N112102   3.651   4.685  16.116 -0.6857  0.2230  0.0924
  822MPD2    H712103   3.650   4.694  16.217  2.4835 -0.2244  0.1767
  823MPD2     C12104   3.149   0.663  16.829  0.8229 -0.9074 -0.0585
  823MPD2    C112105   3.178   0.566  16.732 -0.1590  0.0303 -0.2822
  823MPD2    C212106   3.212   0.443  16.780  0.3022  0.2831  1.1171
  823MPD2    C312107   3.213   0.408  16.917  0.0938 -0.1776  0.4143
  823MPD2    C412108   3.200   0.507  17.006  0.3867 -0.0396 -0.2630
  823MPD2    C512109   3.156   0.629  16.960 -0.2249  0.1727 -0.5132
  823MPD2     H12110   3.236   0.365  16.708 -1.0615 -1.5717  2.6664
  823MPD2    H112111   3.202   0.501  17.114  3.6864 -0.4259 -0.3383
  823MPD2    H212112   3.107   0.757  16.794  1.5792 -0.5984 -0.1311
  823MPD2    H312113   3.124   0.706  17.029  0.2830  1.8320 -2.1330
  823MPD2     N12114   3.228   0.274  16.963  0.5384  0.1920  0.1265
  823MPD2    H512115   3.223   0.267  17.064  2.4225  0.2664  0.2174
  823MPD2    N112116   3.192   0.608  16.601  0.6441  0.2843  0.1234
  823MPD2    H712117   3.175   0.705  16.575 -0.6648 -0.0397 -0.2563
  824MPD2     C12118   3.940   3.864  16.075  0.3476 -0.1113  0.6824
  824MPD2    C112119   4.004   3.987  16.094 -0.0880  0.5901 -0.4106
  824MPD2    C212120   4.143   3.986  16.068  0.2406 -0.0870 -0.1347
  824MPD2    C312121   4.210   3.876  16.035 -0.4044 -0.2996  0.5638
  824MPD2    C412122   4.149   3.753  16.042 -0.4187 -0.4693  0.0634
  824MPD2    C512123   4.018   3.749  16.055 -0.6502  0.0682 -0.1877
  824MPD2     H12124   4.184   4.086  16.055 -0.7801  0.9313  4.3140
  824MPD2    H112125   4.196   3.656  16.029 -0.9848 -0.5838 -1.0835
  824MPD2    H212126   3.835   3.843  16.087  0.1054 -0.5828 -2.2511
  824MPD2    H312127   3.972   3.651  16.044 -1.2576  0.1539  1.6186
  824MPD2     N12128   4.350   3.891  16.002 -0.2263 -0.0648  0.3293
  824MPD2    H512129   4.394   3.983  16.001  0.0880 -0.2408 -1.0660
  824MPD2    N112130   3.923   4.099  16.128  0.4632  0.7547 -0.2287
  824MPD2    H712131   3.824   4.077  16.128  0.5207  0.5277  1.6033
  825MPD2     C12132   0.134   3.960  15.341  0.0296 -0.0953 -0.1084
  825MPD2    C112133   0.051   4.024  15.432 -0.0793  0.4226  0.6236
  825MPD2    C212134   0.021   4.158  15.400  0.3584  0.2530 -0.2512
  825MPD2    C312135   0.062   4.221  15.288  0.0386 -0.4985 -0.1442
  825MPD2    C412136   0.135   4.150  15.199 -0.4710  0.0463 -0.3656
  825MPD2    C512137   0.170   4.018  15.222  0.0628  0.5589 -0.0475
  825MPD2     H12138   4.677   4.216  15.461 -0.8284 -1.0925 -0.2855
  825MPD2    H112139   0.170   4.188  15.104  0.2745 -0.2252 -0.2020
  825MPD2    H212140   0.165   3.857  15.354 -0.3651 -0.4965 -2.3355
  825MPD2    H312141   0.245   3.965  15.164 -0.3422 -1.2469  1.0628
  825MPD2     N12142   0.061   4.359  15.264  0.5027  0.2996 -0.2129
  825MPD2    H512143   0.100   4.394  15.177 -4.2167  2.8953 -1.2834
  825MPD2    N112144   0.008   3.955  15.549  0.2990 -0.1660  0.1161
  825MPD2    H712145   0.040   3.859  15.553 -3.8180 -1.5186  0.6320
  826MPD2     C12146   0.239   4.229  13.673 -0.2711  0.0584  0.8740
  826MPD2    C112147   0.119   4.223  13.606 -0.2297  0.5727 -0.4759
  826MPD2    C212148   0.026   4.333  13.615  0.1223 -0.4823 -0.3230
  826MPD2    C312149   0.066   4.451  13.673  0.5989  0.4540 -1.1284
  826MPD2    C412150   0.192   4.456  13.729  0.4249 -0.0430  0.4204
  826MPD2    C512151   0.276   4.348  13.722  0.0871  0.1470  0.1317
  826MPD2     H12152   4.649   4.315  13.577 -0.0067  0.7347 -0.5538
  826MPD2    H112153   0.231   4.543  13.780  3.0270 -2.0597  1.8736
  826MPD2    H212154   0.309   4.146  13.672 -0.5179 -0.1527  1.9025
  826MPD2    H312155   0.374   4.362  13.767 -0.2849  0.9668  0.6811
  826MPD2     N12156   4.706   4.566  13.666 -0.3445  0.4061  0.2652
  826MPD2    H512157   0.031   4.653  13.687  0.2909  0.2341 -0.4711
  826MPD2    N112158   0.077   4.091  13.576 -0.2096 -0.1972 -0.4080
  826MPD2    H712159   0.135   4.011  13.597 -3.4293 -2.1000  1.3103
  827MPD2     C12160   0.538   0.834  10.027  0.3125  0.4864  0.2390
  827MPD2    C112161   0.525   0.716  10.087  0.1498 -0.2910 -0.5285
  827MPD2    C212162   0.487   0.605  10.005  0.7468 -0.5482 -0.6567
  827MPD2    C312163   0.451   0.618   9.873 -0.2364  0.2933 -0.0170
  827MPD2    C412164   0.451   0.750   9.825  0.0787 -0.0713  0.2330
  827MPD2    C512165   0.488   0.856   9.900  0.5414  0.6990  0.0059
  827MPD2     H12166   0.497   0.504  10.043 -1.2211 -0.1460  0.9304
  827MPD2    H112167   0.414   0.784   9.729 -1.6780  2.1696  1.6884
  827MPD2    H212168   0.578   0.919  10.080  0.4323  0.1092  0.7556
  827MPD2    H312169   0.489   0.952   9.850 -0.3944 -0.4626 -2.2821
  827MPD2     N12170   0.400   0.498   9.800  0.1162  0.3728  0.4462
  827MPD2    H512171   0.391   0.410   9.850 -0.4814  1.3593  2.0564
  827MPD2    N112172   0.563   0.711  10.221 -0.0075  0.0673  0.7918
  827MPD2    H712173   0.609   0.792  10.261  1.5460  0.5939 -2.0320
  828MPD2     C12174   3.749   0.623  12.796  0.6609  0.0008  0.4795
  828MPD2    C112175   3.759   0.673  12.667  0.0898  0.3468  0.2264
  828MPD2    C212176   3.881   0.661  12.595 -0.3087 -0.5753  0.1705
  828MPD2    C312177   3.990   0.613  12.654  0.3313  0.1138 -0.8872
  828MPD2    C412178   3.986   0.572  12.784 -0.1886 -0.3714  0.5415
  828MPD2    C512179   3.866   0.578  12.851  0.3231  0.0680  0.6987
  828MPD2     H12180   3.883   0.679  12.488 -1.6200  1.8943  0.5702
  828MPD2    H112181   4.067   0.525  12.839  0.4590  0.0969 -0.0170
  828MPD2    H212182   3.659   0.604  12.852  0.2769  4.2898  1.2792
  828MPD2    H312183   3.861   0.546  12.955 -1.4021 -1.3832  0.1665
  828MPD2     N12184   4.117   0.591  12.588  0.2431 -0.3544 -0.7477
  828MPD2    H512185   4.181   0.534  12.643  1.7140  1.0628 -0.9841
  828MPD2    N112186   3.651   0.722  12.593  0.7317 -0.3950 -0.2418
  828MPD2    H712187   3.663   0.741  12.494 -0.4189 -1.4393 -0.5799
  829MPD2     C12188   3.581   0.604  11.769 -0.3143  0.6305  0.2874
  829MPD2    C112189   3.473   0.694  11.782 -0.2206  0.3377  0.0850
  829MPD2    C212190   3.448   0.743  11.911 -0.4250  0.4000  0.5041
  829MPD2    C312191   3.524   0.709  12.020  0.5334  0.6239 -0.2904
  829MPD2    C412192   3.638   0.630  12.003  0.4384  0.3015  0.1150
  829MPD2    C512193   3.668   0.589  11.874  0.8364  0.6900 -0.3936
  829MPD2     H12194   3.358   0.801  11.928 -2.0175 -1.9026 -0.0583
  829MPD2    H112195   3.708   0.616  12.086  1.5752  0.6254 -0.7945
  829MPD2    H212196   3.613   0.557  11.677 -0.3140  1.4727 -0.1417
  829MPD2    H312197   3.759   0.530  11.865  0.1811 -0.1964 -1.1171
  829MPD2     N12198   3.482   0.744  12.154 -0.1332 -0.2650 -0.4108
  829MPD2    H512199   3.549   0.737  12.230  0.2136  2.3300 -0.4981
  829MPD2    N112200   3.398   0.725  11.666  0.6097 -0.2680  0.3767
  829MPD2    H712201   3.437   0.687  11.579  3.3002  0.8017  1.1241
  830MPD2     C12202   4.184   3.204  15.627 -0.8710  0.5698 -0.0904
  830MPD2    C112203   4.071   3.268  15.591 -0.5808 -0.5137  0.0519
  830MPD2    C212204   4.068   3.365  15.490 -0.1587 -0.1263 -0.5563
  830MPD2    C312205   4.192   3.413  15.444  0.1295  0.5877  0.0361
  830MPD2    C412206   4.310   3.348  15.484  0.6865 -0.7685  0.4998
  830MPD2    C512207   4.307   3.239  15.566 -0.7727  0.4086 -0.0972
  830MPD2     H12208   3.984   3.432  15.477 -0.9981 -1.5138 -2.2285
  830MPD2    H112209   4.405   3.393  15.458  1.2399 -1.1436  1.8649
  830MPD2    H212210   4.186   3.127  15.703  0.7401 -1.1928 -1.9039
  830MPD2    H312211   4.394   3.181  15.593 -1.1148  0.3788  0.9428
  830MPD2     N12212   4.208   3.524  15.364 -0.2191  0.4674 -0.5304
  830MPD2    H512213   4.292   3.580  15.366 -0.6070  1.0808 -1.6367
  830MPD2    N112214   3.953   3.252  15.666 -0.7652  0.2694  0.2870
  830MPD2    H712215   3.956   3.180  15.736 -0.8057 -0.9158 -0.9229
  831MPD2     C12216   3.717   0.569  16.366  0.3699 -0.1668  0.8119
  831MPD2    C112217   3.751   0.435  16.336 -0.0811  0.2750 -0.0476
  831MPD2    C212218   3.678   0.334  16.391 -0.3509  0.1378 -0.1088
  831MPD2    C312219   3.585   0.353  16.492  0.1038 -0.5700 -0.7386
  831MPD2    C412220   3.568   0.484  16.541  0.6572  0.3061 -1.0237
  831MPD2    C512221   3.631   0.592  16.474 -0.7871  0.7134 -0.1526
  831MPD2     H12222   3.697   0.233  16.355 -0.1046  0.3632 -0.6047
  831MPD2    H112223   3.493   0.497  16.618  0.3780  0.3198 -1.2984
  831MPD2    H212224   3.772   0.649  16.316  0.8142  0.5742  2.4755
  831MPD2    H312225   3.619   0.692  16.513  0.8891  0.4998  0.9178
  831MPD2     N12226   3.490   0.256  16.541  0.2621 -0.0632 -0.3889
  831MPD2    H512227   3.408   0.288  16.591 -0.0963 -0.8973 -0.4423
  831MPD2    N112228   3.847   0.406  16.231 -0.0257  0.1806 -0.0930
  831MPD2    H712229   3.868   0.483  16.169  1.4228 -0.9288 -0.9807
  832MPD2     C12230   2.085   1.367  17.134  0.3261  0.1161  0.6864
  832MPD2    C112231   2.086   1.491  17.194  0.0983 -0.2275  0.4684
  832MPD2    C212232   1.996   1.583  17.148 -0.3981 -0.8095  0.5548
  832MPD2    C312233   1.907   1.549  17.045  0.5925  0.3153  0.6939
  832MPD2    C412234   1.920   1.422  16.988 -0.4553 -0.0863 -0.1832
  832MPD2    C512235   2.011   1.336  17.032 -0.2902 -0.4588  0.0323
  832MPD2     H12236   1.980   1.670  17.211  2.4510 -1.1137  1.7035
  832MPD2    H112237   1.856   1.380  16.912 -3.3061  0.6291  1.8092
  832MPD2    H212238   2.156   1.290  17.164  0.2698 -0.4628 -0.6553
  832MPD2    H312239   2.018   1.238  16.985 -0.2005  0.4104 -1.7462
  832MPD2     N12240   1.796   1.628  17.014  0.1663 -0.0236  0.3223
  832MPD2    H512241   1.727   1.584  16.955  1.0391  0.8325 -1.3680
  832MPD2    N112242   2.178   1.510  17.298 -0.0588 -0.1785  0.2201
  832MPD2    H712243   2.222   1.431  17.343 -1.9955 -0.9301  0.8097
  833MPD2     C12244   0.000   3.503  12.483 -0.0403  0.0636 -0.0214
  833MPD2    C112245   0.008   3.367  12.492 -0.3689  0.4007 -0.4125
  833MPD2    C212246   0.119   3.308  12.434 -0.4644 -0.0526  0.2262
  833MPD2    C312247   0.211   3.383  12.363  0.2322  0.0831 -0.0898
  833MPD2    C412248   0.209   3.521  12.373 -0.6076  0.4272 -0.3499
  833MPD2    C512249   0.100   3.576  12.432  0.3909 -0.3018  0.1834
  833MPD2     H12250   0.137   3.202  12.436 -1.2092 -0.2077 -0.8887
  833MPD2    H112251   0.275   3.590  12.322 -2.4529  2.4537 -0.0350
  833MPD2    H212252   4.636   3.556  12.520 -0.3135  0.1506 -0.7908
  833MPD2    H312253   0.091   3.684  12.434  1.2758 -0.2580  2.3336
  833MPD2     N12254   0.304   3.332  12.274  0.3480  0.1818  1.2486
  833MPD2    H512255   0.349   3.403  12.217  0.9782  0.1630  1.7192
  833MPD2    N112256   4.621   3.291  12.538  0.2690 -0.4934  0.3360
  833MPD2    H712257   4.537   3.345  12.553 -0.1210 -0.2611 -2.7193
  834MPD2     C12258   0.289   2.338  11.836  0.8658  0.3207  0.7225
  834MPD2    C112259   0.253   2.418  11.730 -0.4221 -0.3043  0.0735
  834MPD2    C212260   0.277   2.557  11.749 -0.0540  0.3618 -0.3572
  834MPD2    C312261   0.324   2.608  11.871  0.6472 -0.0394  0.1712
  834MPD2    C412262   0.372   2.519  11.962  0.4088 -0.0054 -0.6751
  834MPD2    C512263   0.345   2.386  11.950 -0.4760 -0.2586 -0.8960
  834MPD2     H12264   0.254   2.625  11.668  0.4945  0.5748 -0.3337
  834MPD2    H112265   0.416   2.545  12.057  0.8216  0.1223 -0.8970
  834MPD2    H212266   0.281   2.230  11.823  0.2460  0.6362 -1.4348
  834MPD2    H312267   0.364   2.315  12.029 -0.3037  0.9013  0.1072
  834MPD2     N12268   0.320   2.750  11.899  0.2795 -0.1431 -0.4543
  834MPD2    H512269   0.275   2.813  11.833  1.6737 -2.4357 -3.5937
  834MPD2    N112270   0.211   2.357  11.605  0.4077 -0.1799  0.0384
  834MPD2    H712271   0.181   2.260  11.610  0.2119 -0.0960  0.5105
  835MPD2     C12272   0.263   1.007  11.111 -0.4032 -0.2274 -0.2520
  835MPD2    C112273   0.162   0.915  11.124 -0.2568  0.6975 -0.2369
  835MPD2    C212274   0.115   0.894  11.256  0.4917  0.0236 -0.5116
  835MPD2    C312275   0.166   0.967  11.364  0.0624 -0.1932  0.0011
  835MPD2    C412276   0.267   1.061  11.350  0.1360 -0.0350 -0.0288
  835MPD2    C512277   0.325   1.073  11.224 -0.3575 -0.3894 -0.3223
  835MPD2     H12278   0.028   0.832  11.273  0.0962  0.4855 -0.8318
  835MPD2    H112279   0.305   1.124  11.429 -0.6760  0.1387  0.2230
  835MPD2    H212280   0.304   1.019  11.012  1.7548 -0.5092  0.5969
  835MPD2    H312281   0.409   1.136  11.196 -0.3207  1.0781  3.0326
  835MPD2     N12282   0.101   0.941  11.488 -0.4111 -0.6756  0.3629
  835MPD2    H512283   0.017   0.885  11.484 -0.9454  0.3468 -2.6160
  835MPD2    N112284   0.090   0.854  11.016  0.0947 -0.3454 -0.3162
  835MPD2    H712285   0.014   0.791  11.039 -0.4127 -0.5683 -2.6481
  836MPD2     C12286   4.291   0.675  11.511  0.0006 -1.0750  0.0887
  836MPD2    C112287   4.302   0.737  11.632  0.2368  0.2518 -0.1898
  836MPD2    C212288   4.191   0.766  11.706 -0.0907  0.9102  0.3343
  836MPD2    C312289   4.067   0.745  11.646  0.2852 -0.3473 -0.0927
  836MPD2    C412290   4.058   0.682  11.523  0.6005 -0.2207  0.5706
  836MPD2    C512291   4.173   0.644  11.455  0.2044 -0.6073 -0.1601
  836MPD2     H12292   4.198   0.815  11.803  0.8619  0.1295  0.6625
  836MPD2    H112293   3.961   0.654  11.484  0.9827 -1.8929  0.8625
  836MPD2    H212294   4.382   0.637  11.467  1.0041 -0.6678  1.8478
  836MPD2    H312295   4.177   0.602  11.355 -0.0707 -0.4993 -0.2165
  836MPD2     N12296   3.945   0.789  11.701 -0.1702  0.7732 -0.0172
  836MPD2    H512297   3.866   0.778  11.638 -1.2520  0.2338  1.4368
  836MPD2    N112298   4.429   0.753  11.681 -0.5564  0.1501 -0.3550
  836MPD2    H712299   4.502   0.717  11.621 -2.3212 -0.4324 -2.1577
  837MPD2     C12300   2.610   0.510  10.046  0.1689 -0.1168 -0.0928
  837MPD2    C112301   2.551   0.558   9.935  0.2549  1.2977 -0.2273
  837MPD2    C212302   2.496   0.685   9.923 -0.1513  0.3426  0.2349
  837MPD2    C312303   2.504   0.774  10.025  0.9563 -0.6284  0.1251
  837MPD2    C412304   2.587   0.742  10.133 -0.1228  1.2155  0.1473
  837MPD2    C512305   2.634   0.607  10.142 -0.0851 -0.2936  0.0189
  837MPD2     H12306   2.432   0.711   9.839 -0.5584  0.0275  0.4475
  837MPD2    H112307   2.585   0.817  10.210  1.1304  1.0086  0.3819
  837MPD2    H212308   2.654   0.412  10.061 -1.4948 -1.2906 -2.8554
  837MPD2    H312309   2.684   0.569  10.231 -1.3552 -0.2048  0.7827
  837MPD2     N12310   2.422   0.889  10.018 -0.1537 -0.3970  0.3326
  837MPD2    H512311   2.368   0.899   9.933 -1.6939  0.8958  1.4624
  837MPD2    N112312   2.526   0.477   9.822 -0.4827  0.1064  0.3310
  837MPD2    H712313   2.479   0.525   9.745  0.6851 -1.4435 -1.3432
  838MPD2     C12314   1.242   3.515  11.452 -0.5359  0.4902 -0.5491
  838MPD2    C112315   1.174   3.536  11.569  0.0785  0.0853 -0.2006
  838MPD2    C212316   1.059   3.465  11.602  0.3751  0.8094  0.1875
  838MPD2    C312317   1.020   3.371  11.510  0.1157 -0.0358 -0.3428
  838MPD2    C412318   1.089   3.341  11.392  0.2150 -0.0941  0.9026
  838MPD2    C512319   1.203   3.414  11.365  0.0135  0.0542 -0.4518
  838MPD2     H12320   0.997   3.481  11.690  1.0595  4.1913  0.0385
  838MPD2    H112321   1.051   3.259  11.331  2.4000 -0.2040 -0.3334
  838MPD2    H212322   1.330   3.573  11.426 -2.4726  2.7708 -2.1290
  838MPD2    H312323   1.270   3.397  11.282  0.5772 -1.7159  0.3656
  838MPD2     N12324   0.911   3.294  11.549 -0.1080  0.0796 -0.4678
  838MPD2    H512325   0.860   3.301  11.636 -2.4672  4.3240 -2.1690
  838MPD2    N112326   1.234   3.626  11.662  0.0758  0.6834 -0.2852
  838MPD2    H712327   1.189   3.633  11.752 -0.8485  1.4826 -0.8218
  839MPD2     C12328   1.064   2.925  11.666  1.0087  0.3530  0.3778
  839MPD2    C112329   1.132   2.951  11.543 -0.3376 -0.8455  0.5020
  839MPD2    C212330   1.235   3.045  11.529 -0.6810  0.2804 -0.1819
  839MPD2    C312331   1.261   3.122  11.640  0.1683  0.3817 -0.1707
  839MPD2    C412332   1.191   3.105  11.757  0.0788  0.0216  0.5270
  839MPD2    C512333   1.094   3.011  11.767 -0.4331  0.5657 -0.0964
  839MPD2     H12334   1.288   3.049  11.435 -0.9750  0.3888 -0.3435
  839MPD2    H112335   1.207   3.175  11.839  0.0016  0.4032  0.2189
  839MPD2    H212336   0.992   2.847  11.687  0.7655 -0.6107 -3.9805
  839MPD2    H312337   1.044   2.982  11.859 -1.0101  1.7878 -0.0289
  839MPD2     N12338   1.355   3.225  11.636 -0.3737  0.1415 -0.4094
  839MPD2    H512339   1.347   3.288  11.714  1.2049 -0.7655  0.4771
  839MPD2    N112340   1.107   2.865  11.429  0.0009  0.1571  0.1011
  839MPD2    H712341   1.160   2.878  11.344 -0.1497 -0.7301 -0.1289
  840MPD2     C12342   1.185   0.715  10.159 -0.6203 -0.6357  0.5608
  840MPD2    C112343   1.156   0.721  10.294 -0.2961  0.3609  0.1910
  840MPD2    C212344   1.234   0.805  10.369  0.3964 -0.4692  0.4705
  840MPD2    C312345   1.334   0.887  10.321 -0.3132 -0.1373  0.2855
  840MPD2    C412346   1.368   0.872  10.192 -0.3506  0.2662  0.1983
  840MPD2    C512347   1.296   0.787  10.114 -0.4984  0.1807 -0.3442
  840MPD2     H12348   1.204   0.813  10.473 -0.8910  2.6158 -0.1460
  840MPD2    H112349   1.454   0.925  10.153 -0.9726  0.4336 -0.9281
  840MPD2    H212350   1.123   0.663  10.087 -1.1928  2.2253 -1.0436
  840MPD2    H312351   1.322   0.777  10.009  0.5815 -0.4555 -0.0121
  840MPD2     N12352   1.395   0.991  10.394 -0.0279  1.2291 -0.4462
  840MPD2    H512353   1.438   1.066  10.342 -0.4392  2.2143  0.6402
  840MPD2    N112354   1.035   0.669  10.334  0.0750 -0.2461  0.1856
  840MPD2    H712355   0.981   0.618  10.265 -0.6267  0.4083  0.2455
  841MPD2     C12356   0.966   0.591  15.482 -0.0160 -0.0257 -0.5352
  841MPD2    C112357   0.850   0.575  15.414  0.2840  0.1473 -0.3524
  841MPD2    C212358   0.780   0.686  15.383  0.7386 -0.4668  0.2742
  841MPD2    C312359   0.811   0.816  15.429  0.0106  0.0896  0.3123
  841MPD2    C412360   0.922   0.829  15.514 -0.0080  0.5149 -0.4060
  841MPD2    C512361   0.988   0.709  15.541 -0.6282  0.3950  0.0621
  841MPD2     H12362   0.695   0.680  15.315 -0.1271 -0.0185  1.3068
  841MPD2    H112363   0.953   0.922  15.560 -0.5219 -0.1995  1.3992
  841MPD2    H212364   1.035   0.511  15.506 -0.0431  0.1103 -0.0096
  841MPD2    H312365   1.074   0.713  15.607  0.1868  0.7236 -1.0140
  841MPD2     N12366   0.751   0.919  15.364  0.2561  0.2214  0.6089
  841MPD2    H512367   0.683   0.903  15.291  1.5645 -3.0476  0.1276
  841MPD2    N112368   0.804   0.453  15.357  0.2768  0.0092 -0.1360
  841MPD2    H712369   0.717   0.454  15.305 -1.0902 -0.5876  2.1398
  842MPD2     C12370   1.449   2.241  16.901 -0.0824 -0.0201  0.2401
  842MPD2    C112371   1.343   2.153  16.920 -0.4910 -0.3039 -0.0598
  842MPD2    C212372   1.306   2.111  17.042  0.2198  0.9928  0.3281
  842MPD2    C312373   1.367   2.170  17.149 -0.0457 -0.3386 -0.1699
  842MPD2    C412374   1.479   2.253  17.134  0.1413 -0.2935  0.3769
  842MPD2    C512375   1.517   2.291  17.012 -0.0186 -0.2769  0.0542
  842MPD2     H12376   1.217   2.050  17.050  0.4525  0.4528 -1.3136
  842MPD2    H112377   1.521   2.315  17.212  2.9967  0.8189 -2.0267
  842MPD2    H212378   1.469   2.284  16.804  1.7719  1.0087  1.0724
  842MPD2    H312379   1.604   2.355  16.998 -1.2758  1.1379 -1.3168
  842MPD2     N12380   1.315   2.165  17.284 -0.1428  0.0111 -0.0281
  842MPD2    H512381   1.362   2.232  17.343 -0.5601 -1.7101  2.2541
  842MPD2    N112382   1.273   2.120  16.804  0.2398  0.3642  0.5441
  842MPD2    H712383   1.310   2.161  16.719  0.2581 -2.0368 -0.6070
  843MPD2     C12384   3.262   2.133  17.520 -0.0645  0.2248  0.0964
  843MPD2    C112385   3.264   2.096  17.654 -0.1613 -0.4882 -1.0807
  843MPD2    C212386   3.352   2.168   0.037 -0.2798 -0.2160 -0.0371
  843MPD2    C312387   3.428   2.278  17.688  0.0520 -0.5280  0.9372
  843MPD2    C412388   3.425   2.306  17.552 -0.2535  0.2755 -0.6228
  843MPD2    C512389   3.343   2.232  17.474 -0.3077  0.3232 -0.0123
  843MPD2     H12390   3.355   2.152   0.144 -2.1211  1.7195  0.3047
  843MPD2    H112391   3.483   2.388  17.512  0.1016 -0.2952 -1.2721
  843MPD2    H212392   3.193   2.084  17.453 -2.3542 -0.7187  3.1452
  843MPD2    H312393   3.339   2.266  17.371  0.0672 -1.7725 -0.7228
  843MPD2     N12394   3.496   2.374   0.075 -0.4721  0.1918  0.7000
  843MPD2    H512395   3.524   2.466   0.042 -1.5290  0.0532 -0.6012
  843MPD2    N112396   3.186   1.991   0.001 -0.1257 -0.7478 -0.0919
  843MPD2    H712397   3.107   1.958  17.641 -1.1266  0.0182  0.8904
  844MPD2     C12398   1.753   1.549  16.556 -1.2265  0.0654 -1.2381
  844MPD2    C112399   1.859   1.463  16.577 -0.4354  0.0332  0.1712
  844MPD2    C212400   1.972   1.503  16.655  0.4980 -0.1941  0.6181
  844MPD2    C312401   1.979   1.634  16.707  0.9721 -0.5249 -0.1498
  844MPD2    C412402   1.870   1.715  16.687  0.6780  0.0534 -0.1034
  844MPD2    C512403   1.763   1.678  16.606 -0.2362 -0.0843 -0.7160
  844MPD2     H12404   2.057   1.439  16.678  0.0634 -0.0269  2.7401
  844MPD2    H112405   1.871   1.819  16.720 -1.7708 -0.1809  0.7359
  844MPD2    H212406   1.668   1.536  16.491 -0.2649 -0.4336 -2.3783
  844MPD2    H312407   1.688   1.751  16.577 -0.5859 -0.9277 -1.9627
  844MPD2     N12408   2.094   1.672  16.779 -0.0077 -0.4268 -0.8225
  844MPD2    H512409   2.163   1.599  16.796 -0.0960 -0.2786  0.1907
  844MPD2    N112410   1.867   1.344  16.500 -0.1990  0.0918  0.0542
  844MPD2    H712411   1.945   1.283  16.521  0.5100  1.2102  0.6583
  845MPD2     C12412   2.374   2.532  17.209 -1.1369 -0.1994 -0.7845
  845MPD2    C112413   2.246   2.478  17.221  0.0481  0.4068  0.0400
  845MPD2    C212414   2.225   2.342  17.195 -0.4029 -0.0260  1.0204
  845MPD2    C312415   2.332   2.264  17.149 -0.4110  0.4328 -0.1134
  845MPD2    C412416   2.460   2.313  17.133 -0.3880 -0.4508 -0.6953
  845MPD2    C512417   2.478   2.446  17.161 -0.1078  0.7049 -0.4260
  845MPD2     H12418   2.127   2.295  17.204 -0.8082  0.8041  1.0151
  845MPD2    H112419   2.551   2.256  17.115 -0.4399 -0.0279 -2.3190
  845MPD2    H212420   2.392   2.639  17.206 -0.3742 -0.2917  0.8588
  845MPD2    H312421   2.576   2.486  17.140 -0.7894  3.0563  0.9194
  845MPD2     N12422   2.312   2.126  17.123  0.2563 -0.2671 -0.5436
  845MPD2    H512423   2.214   2.101  17.112  0.6805 -2.1486 -0.0284
  845MPD2    N112424   2.138   2.574  17.254  0.1344  0.4180  0.3447
  845MPD2    H712425   2.142   2.671  17.225 -1.2280  1.0702  2.3345
  846MPD2     C12426   3.817   2.603  13.839  0.6049 -1.4739 -0.6716
  846MPD2    C112427   3.692   2.648  13.821  0.3749  0.0733  0.7980
  846MPD2    C212428   3.611   2.654  13.939  0.1632  0.3279  0.3622
  846MPD2    C312429   3.654   2.613  14.062  0.0138 -0.6563 -0.5611
  846MPD2    C412430   3.784   2.560  14.071  0.5660 -0.0564 -0.2700
  846MPD2    C512431   3.861   2.557  13.958 -0.6629 -0.2404  0.1974
  846MPD2     H12432   3.510   2.693  13.931 -0.2744 -1.1109 -1.1050
  846MPD2    H112433   3.834   2.531  14.163 -0.2985  0.9210  0.5084
  846MPD2    H212434   3.880   2.587  13.752  0.1754 -1.9372 -0.8993
  846MPD2    H312435   3.967   2.534  13.967 -0.4845  0.8783  0.9496
  846MPD2     N12436   3.566   2.631  14.174  0.3857 -0.0480 -0.3730
  846MPD2    H512437   3.480   2.680  14.151  1.2562  1.1138 -1.1481
  846MPD2    N112438   3.645   2.698  13.696 -0.6662 -0.4118  0.1516
  846MPD2    H712439   3.559   2.752  13.686  0.1163  0.7473 -0.3262
  847MPD2     C12440   4.066   3.923  13.817 -0.0201  0.2514 -0.1284
  847MPD2    C112441   4.087   3.808  13.899 -0.8616 -0.4045 -0.0540
  847MPD2    C212442   4.008   3.698  13.870 -0.3569  0.0464  0.8142
  847MPD2    C312443   3.904   3.698  13.777  0.3813  0.0171 -0.3548
  847MPD2    C412444   3.879   3.813  13.701  0.0678 -0.8549 -0.0349
  847MPD2    C512445   3.967   3.915  13.720  0.2582 -1.0067 -0.4480
  847MPD2     H12446   4.022   3.611  13.934 -0.1026  0.0445  0.7558
  847MPD2    H112447   3.807   3.821  13.620  2.0489  0.5587 -1.6738
  847MPD2    H212448   4.118   4.017  13.833  1.1517 -0.3385 -0.5314
  847MPD2    H312449   3.954   4.006  13.662  1.3637 -0.8237 -0.4076
  847MPD2     N12450   3.822   3.587  13.771 -0.2728 -0.2532  0.6255
  847MPD2    H512451   3.854   3.506  13.823 -1.9674 -1.1593  0.2320
  847MPD2    N112452   4.172   3.797  14.011 -0.3785 -0.0951  0.4979
  847MPD2    H712453   4.176   3.705  14.053 -1.9368 -0.7304 -0.7376
  848MPD2     C12454   1.513   1.944  16.421  0.4353  0.1844  0.4507
  848MPD2    C112455   1.548   2.032  16.519 -0.0825  0.4071 -0.0387
  848MPD2    C212456   1.611   2.146  16.467  0.2091  0.2501 -0.0005
  848MPD2    C312457   1.615   2.175  16.334 -0.0073 -0.7751 -0.1499
  848MPD2    C412458   1.568   2.085  16.245  0.0493  0.4164  0.3748
  848MPD2    C512459   1.509   1.973  16.290 -0.4569  0.4052 -0.4512
  848MPD2     H12460   1.643   2.218  16.541  0.2081  0.5938 -0.3372
  848MPD2    H112461   1.581   2.092  16.137 -0.7422 -0.4633  0.2264
  848MPD2    H212462   1.465   1.849  16.439  3.1452 -1.1778  0.5347
  848MPD2    H312463   1.471   1.891  16.230 -1.5161  1.1442 -0.7913
  848MPD2     N12464   1.664   2.295  16.276  0.5080  0.0894  0.3153
  848MPD2    H512465   1.662   2.300  16.175  2.6831 -1.5871  0.1795
  848MPD2    N112466   1.554   1.999  16.657  0.7169 -0.3150 -0.2193
  848MPD2    H712467   1.623   2.046  16.715  0.8104 -2.6538  1.5543
  849MPD2     C12468   0.576   1.240  14.160 -0.4115 -1.2694  0.5141
  849MPD2    C112469   0.678   1.322  14.108  0.4625  0.0252  0.4463
  849MPD2    C212470   0.791   1.329  14.181  0.1445  0.2699  0.3618
  849MPD2    C312471   0.804   1.264  14.305  1.4182  0.1018  0.5544
  849MPD2    C412472   0.696   1.193  14.358 -0.2249 -0.1454  0.3437
  849MPD2    C512473   0.584   1.189  14.286  0.3841  0.3610 -0.2705
  849MPD2     H12474   0.878   1.384  14.144  0.0531  1.0118  1.2360
  849MPD2    H112475   0.697   1.152  14.458 -2.0272 -1.0254  0.0100
  849MPD2    H212476   0.495   1.204  14.097 -1.6277  1.9502  0.2544
  849MPD2    H312477   0.507   1.124  14.325  0.3311 -0.2256 -1.3636
  849MPD2     N12478   0.920   1.286  14.372  0.0883 -0.4520  0.0044
  849MPD2    H512479   0.991   1.325  14.311 -0.9343 -1.7876 -2.0221
  849MPD2    N112480   0.673   1.379  13.979 -0.0028 -0.4215  0.5906
  849MPD2    H712481   0.760   1.424  13.951 -0.4955  0.4600  0.4845
  850MPD2     C12482   3.688   4.636  15.016  0.2110  0.8365 -0.4380
  850MPD2    C112483   3.735   4.595  15.137 -0.3770 -0.9658 -1.0554
  850MPD2    C212484   3.844   4.515  15.137  0.4336 -0.3560  0.0489
  850MPD2    C312485   3.906   4.484  15.024 -0.0036  0.3278  0.2543
  850MPD2    C412486   3.868   4.538  14.905 -0.1256  0.0571  0.4572
  850MPD2    C512487   3.751   4.608  14.902 -0.3318  0.3952 -0.3870
  850MPD2     H12488   3.871   4.477  15.235 -0.4846  0.1303  0.4876
  850MPD2    H112489   3.917   4.523  14.810  0.6546  1.4346  0.6489
  850MPD2    H212490   3.598   4.695  15.006 -1.6606 -1.9367  0.1337
  850MPD2    H312491   3.718   4.642  14.804 -0.9711 -0.2996 -0.4174
  850MPD2     N12492   4.031   4.416  15.025 -0.6204  0.2547 -0.1978
  850MPD2    H512493   4.092   4.426  14.945 -1.8868  0.4738 -1.1226
  850MPD2    N112494   3.676   4.633  15.264 -0.0844  0.2202 -0.0638
  850MPD2    H712495   3.722   4.592  15.345 -1.0247  1.6928  1.2043
  851MPD2     C12496   3.782   4.239  15.795  0.4243 -0.8948  0.7387
  851MPD2    C112497   3.812   4.328  15.696 -0.2729 -1.4019 -0.8140
  851MPD2    C212498   3.885   4.281  15.591  0.4814  0.0307 -0.6370
  851MPD2    C312499   3.931   4.148  15.593 -0.4372  0.5969  0.2346
  851MPD2    C412500   3.904   4.063  15.701 -0.2159 -0.4333  0.5900
  851MPD2    C512501   3.830   4.111  15.806 -0.4530 -0.9232  0.0982
  851MPD2     H12502   3.915   4.339  15.504 -0.1497  1.6590  0.2183
  851MPD2    H112503   3.936   3.959  15.700  0.5403 -0.2216  2.7638
  851MPD2    H212504   3.709   4.260  15.871 -0.6969  0.0774 -0.6176
  851MPD2    H312505   3.814   4.044  15.890  1.2193 -0.6895  0.5965
  851MPD2     N12506   4.005   4.096  15.476  0.3286  0.6856  0.0828
  851MPD2    H512507   3.998   4.139  15.385  1.2149  0.3852 -0.1253
  851MPD2    N112508   3.748   4.454  15.701 -0.5067  0.3008 -0.2370
  851MPD2    H712509   3.685   4.471  15.779  1.1605 -0.9851  1.3767
  852MPD2     C12510   3.627   2.862  10.144  0.9567  0.2155  0.3414
  852MPD2    C112511   3.681   2.810  10.255  0.2336  0.9033 -0.1598
  852MPD2    C212512   3.814   2.815  10.274  0.1894 -0.3386 -0.0046
  852MPD2    C312513   3.900   2.871  10.176  0.0150  0.2823  0.5936
  852MPD2    C412514   3.843   2.926  10.063 -0.1133  0.3220  0.1365
  852MPD2    C512515   3.705   2.929  10.054  0.4975 -0.6184 -0.0362
  852MPD2     H12516   3.850   2.764  10.362  0.0171  0.5573  0.5837
  852MPD2    H112517   3.894   2.991   9.993 -1.3923 -0.4338 -1.5106
  852MPD2    H212518   3.520   2.867  10.133  1.0274  0.1940 -0.3335
  852MPD2    H312519   3.664   2.994   9.978  1.0278 -0.3281 -0.0766
  852MPD2     N12520   4.042   2.867  10.193 -0.0008  0.2013 -0.4700
  852MPD2    H512521   4.078   2.833  10.281  1.1064 -0.4814 -1.1890
  852MPD2    N112522   3.600   2.732  10.345  0.3101  0.6397 -0.1099
  852MPD2    H712523   3.639   2.709  10.436  0.0993  2.8448  0.5578
  853MPD2     C12524   0.296   2.084  12.272 -0.2947 -0.8083 -0.0326
  853MPD2    C112525   0.420   2.150  12.275  0.3346 -1.0455 -0.4748
  853MPD2    C212526   0.501   2.139  12.157 -0.8637 -0.0119 -0.0481
  853MPD2    C312527   0.456   2.071  12.047 -0.3832  0.4023 -0.1426
  853MPD2    C412528   0.336   2.012  12.050 -0.2044 -0.1125 -0.0974
  853MPD2    C512529   0.251   2.023  12.156  0.1437 -0.5427  0.6348
  853MPD2     H12530   0.592   2.196  12.143 -0.1793 -0.5667  2.0693
  853MPD2    H112531   0.298   1.953  11.968  1.7763  0.6213 -1.5554
  853MPD2    H212532   0.236   2.090  12.362  0.5466 -3.9387  0.7144
  853MPD2    H312533   0.152   1.981  12.163 -1.5148  3.2702  0.0889
  853MPD2     N12534   0.524   2.057  11.925  0.4124  0.4537  0.0651
  853MPD2    H512535   0.484   2.008  11.846 -0.3680 -0.7735  1.2273
  853MPD2    N112536   0.454   2.216  12.395 -0.7226 -0.0898 -0.1496
  853MPD2    H712537   0.392   2.204  12.475  0.5422  0.2831  0.8926
  854MPD2     C12538   1.442   2.391  12.654  0.1554 -0.4350 -0.1480
  854MPD2    C112539   1.529   2.468  12.726  0.0096  0.0028  0.3589
  854MPD2    C212540   1.620   2.407  12.806  0.4679 -0.0920 -0.3850
  854MPD2    C312541   1.616   2.269  12.810  0.1352 -0.4038 -0.2874
  854MPD2    C412542   1.532   2.195  12.737  0.0735 -0.1794 -0.4760
  854MPD2    C512543   1.446   2.256  12.650  0.4660 -1.0595  0.4230
  854MPD2     H12544   1.687   2.461  12.872  1.0119 -1.2013 -0.0245
  854MPD2    H112545   1.536   2.087  12.743  1.5329 -0.1173 -0.4967
  854MPD2    H212546   1.372   2.443  12.589 -1.2712 -3.8936 -1.3517
  854MPD2    H312547   1.383   2.201  12.581 -0.7477  1.7679 -0.7144
  854MPD2     N12548   1.706   2.188  12.893 -0.0004 -0.4085  0.1994
  854MPD2    H512549   1.697   2.087  12.885  0.3538 -0.3839 -0.5535
  854MPD2    N112550   1.518   2.610  12.705  0.4812 -0.3133  0.5079
  854MPD2    H712551   1.474   2.640  12.619  1.4504 -0.4829 -0.0418
  855MPD2     C12552   2.602   2.124  13.377 -0.2494  0.2828  0.6727
  855MPD2    C112553   2.538   2.001  13.377  0.2746 -0.1173 -0.5371
  855MPD2    C212554   2.426   1.980  13.311 -0.1358  0.4193 -0.4717
  855MPD2    C312555   2.376   2.084  13.229  0.1171 -0.5113  0.3427
  855MPD2    C412556   2.452   2.197  13.209 -0.1898 -0.1342  0.0160
  855MPD2    C512557   2.560   2.220  13.290  0.3427  0.1316 -0.0042
  855MPD2     H12558   2.373   1.886  13.316 -1.7550  1.4835  2.0388
  855MPD2    H112559   2.408   2.276  13.149 -0.2438 -1.3245 -1.5196
  855MPD2    H212560   2.678   2.163  13.443 -0.9572  2.4066  0.2296
  855MPD2    H312561   2.615   2.313  13.290 -0.1288  0.4099  0.4007
  855MPD2     N12562   2.256   2.075  13.149 -0.4095  0.0865 -0.4929
  855MPD2    H512563   2.233   2.147  13.082 -0.0688  0.4615 -0.2049
  855MPD2    N112564   2.576   1.897  13.459 -0.2011  0.7187  0.2128
  855MPD2    H712565   2.507   1.824  13.444 -1.2430  2.1612 -2.1660
  856MPD2     C12566   4.511   2.795  13.844 -0.5026  0.2316  0.3385
  856MPD2    C112567   4.595   2.878  13.919  0.6302  0.4298  0.8582
  856MPD2    C212568   4.587   3.010  13.889 -0.2283 -0.2066 -0.6436
  856MPD2    C312569   4.491   3.062  13.800 -0.4682 -0.8113  0.3131
  856MPD2    C412570   4.414   2.982  13.726 -0.2314 -0.4489 -0.5147
  856MPD2    C512571   4.426   2.846  13.749  0.2073 -0.1770 -0.4468
  856MPD2     H12572   4.648   3.080  13.945 -1.1620 -0.0527  0.1826
  856MPD2    H112573   4.329   3.007  13.663  0.0609  1.8797  0.0037
  856MPD2    H212574   4.518   2.692  13.876 -0.8635 -0.2822 -1.2247
  856MPD2    H312575   4.352   2.787  13.694 -1.3118  0.3769  0.9941
  856MPD2     N12576   4.482   3.201  13.780  0.1795  0.0268 -0.5521
  856MPD2    H512577   4.438   3.219  13.691 -0.0110  1.9107 -0.0699
  856MPD2    N112578   4.689   2.833  14.016 -0.7222 -0.0674  0.0094
  856MPD2    H712579   0.043   2.897  14.034  0.3235 -1.8403  1.7879
  857MPD2     C12580   1.149   0.355  12.620  0.7222  0.3847  0.5967
  857MPD2    C112581   1.281   0.357  12.658  0.0712 -0.2252 -0.1840
  857MPD2    C212582   1.340   0.468  12.714  0.2078 -0.2926 -0.2765
  857MPD2    C312583   1.270   0.588  12.705 -0.1943  0.2810  1.0039
  857MPD2    C412584   1.144   0.584  12.660  0.4633  0.0917 -0.0980
  857MPD2    C512585   1.085   0.471  12.614 -0.6865 -0.1133 -0.4585
  857MPD2     H12586   1.439   0.468  12.758  0.0184  0.7569  0.1628
  857MPD2    H112587   1.081   0.672  12.662 -1.5513 -1.4163  1.9787
  857MPD2    H212588   1.105   0.269  12.570  0.0990  2.2588 -2.0565
  857MPD2    H312589   0.983   0.478  12.579 -0.4928 -0.0233 -1.0012
  857MPD2     N12590   1.329   0.703  12.751 -0.1727  0.0137  0.0162
  857MPD2    H512591   1.424   0.698  12.786  0.2583 -2.3463 -1.4737
  857MPD2    N112592   1.352   0.234  12.645  0.0153 -0.7429 -0.1909
  857MPD2    H712593   1.297   0.159  12.603 -1.2393  0.1995 -0.2302
  858MPD2     C12594   2.084   4.055  16.669 -0.1159  0.1884 -0.0097
  858MPD2    C112595   2.217   4.080  16.680 -0.2651 -0.3398 -0.3351
  858MPD2    C212596   2.261   4.168  16.776  0.2347 -0.1084  0.8068
  858MPD2    C312597   2.172   4.236  16.848  0.2941  0.3894  0.9153
  858MPD2    C412598   2.036   4.215  16.830 -0.4609  0.6712  0.1157
  858MPD2    C512599   1.996   4.125  16.743  0.2473 -0.4050 -0.0233
  858MPD2     H12600   2.363   4.184  16.806  0.9291  1.2179 -2.2911
  858MPD2    H112601   1.959   4.268  16.885 -1.2998  1.4956 -1.8458
  858MPD2    H212602   2.047   3.987  16.593 -0.7610 -0.2592  0.7000
  858MPD2    H312603   1.889   4.133  16.723  0.3281 -0.0742 -0.3463
  858MPD2     N12604   2.201   4.328  16.951 -0.9630 -0.2929  0.1485
  858MPD2    H512605   2.116   4.373  16.984 -0.0582  0.6997  1.1576
  858MPD2    N112606   2.308   4.007  16.597 -0.4753 -0.3124  0.2326
  858MPD2    H712607   2.269   3.922  16.559 -2.0916 -0.8199  3.0064
  859MPD2     C12608   1.204   1.215  15.739  0.4488 -0.1702 -0.0320
  859MPD2    C112609   1.151   1.253  15.614 -0.5310 -0.0378 -0.1450
  859MPD2    C212610   1.172   1.156  15.515 -0.0841 -0.3912 -0.2426
  859MPD2    C312611   1.252   1.041  15.529  0.2320 -0.4046 -0.7174
  859MPD2    C412612   1.304   1.014  15.648  0.2510 -0.2826  0.2003
  859MPD2    C512613   1.278   1.102  15.750  0.4850 -0.7459 -0.1610
  859MPD2     H12614   1.128   1.173  15.418 -2.0519 -0.7206  0.5862
  859MPD2    H112615   1.371   0.932  15.669 -0.1185 -1.2603 -2.4538
  859MPD2    H212616   1.186   1.282  15.823 -1.6555 -1.4300  0.5087
  859MPD2    H312617   1.306   1.066  15.848 -1.7349  1.7013  1.3761
  859MPD2     N12618   1.266   0.954  15.413  0.1773 -0.8237  0.1821
  859MPD2    H512619   1.195   0.973  15.343  0.5997 -1.0171 -0.3007
  859MPD2    N112620   1.091   1.383  15.601  0.3447  0.3122 -0.0783
  859MPD2    H712621   1.086   1.436  15.688 -1.2057 -2.3048  1.4339
  860MPD2     C12622   2.724   1.317  11.705 -0.8689  0.1717 -0.0933
  860MPD2    C112623   2.796   1.396  11.791 -0.1623 -0.5964  0.3202
  860MPD2    C212624   2.746   1.418  11.918 -0.5910 -0.3006  1.1130
  860MPD2    C312625   2.620   1.370  11.953 -0.0158  0.5309 -0.2470
  860MPD2    C412626   2.542   1.300  11.858  0.4257  0.1819  0.2134
  860MPD2    C512627   2.603   1.263  11.743  0.1885  0.0848 -0.7995
  860MPD2     H12628   2.798   1.471  11.997 -0.7270 -2.1722  2.4494
  860MPD2    H112629   2.440   1.268  11.875  0.7103 -1.4363 -1.1357
  860MPD2    H212630   2.768   1.279  11.614 -1.3435  1.4231 -0.8420
  860MPD2    H312631   2.553   1.199  11.672  2.0613 -0.8072 -1.3117
  860MPD2     N12632   2.573   1.408  12.083  0.4812  0.0589  0.1921
  860MPD2    H512633   2.627   1.481  12.129 -1.0364  1.3973 -0.1654
  860MPD2    N112634   2.922   1.458  11.764 -0.1538  0.1541  0.8812
  860MPD2    H712635   2.960   1.523  11.833  1.6421 -0.0713  0.1086
  861MPD2     C12636   2.377   0.412  10.982 -0.3933  0.0187  0.3389
  861MPD2    C112637   2.276   0.445  11.069 -0.3046 -0.4940  0.4089
  861MPD2    C212638   2.153   0.472  11.014  0.1342 -0.0856  0.2899
  861MPD2    C312639   2.123   0.448  10.879 -0.1970  0.1774  0.7424
  861MPD2    C412640   2.229   0.419  10.796  0.0775  0.0604  0.0987
  861MPD2    C512641   2.357   0.418  10.842  0.4030  0.0831 -0.1442
  861MPD2     H12642   2.078   0.506  11.085  0.3064  0.1238  0.3718
  861MPD2    H112643   2.208   0.400  10.692  1.1835  0.3468 -0.1809
  861MPD2    H212644   2.479   0.401  11.014 -0.7476 -1.3892  0.9975
  861MPD2    H312645   2.442   0.400  10.778  1.0623  0.1492  0.7065
  861MPD2     N12646   2.003   0.484  10.810 -0.3441  0.0736 -0.1100
  861MPD2    H512647   1.998   0.463  10.711  0.2758  0.8900 -0.3154
  861MPD2    N112648   2.301   0.456  11.212  0.1626 -0.7942  0.2163
  861MPD2    H712649   2.219   0.480  11.267  0.7560  2.3274 -0.3030
  862MPD2     C12650   1.622   0.486  10.244 -0.0253 -0.0027  0.2608
  862MPD2    C112651   1.754   0.482  10.286 -0.2005 -0.6845 -0.8355
  862MPD2    C212652   1.822   0.366  10.250  0.5246 -0.2527 -0.3483
  862MPD2    C312653   1.768   0.250  10.192  0.2370  0.1952  0.6944
  862MPD2    C412654   1.637   0.265  10.147 -0.4668 -0.4465  0.2968
  862MPD2    C512655   1.566   0.381  10.182  0.8228  0.6135  0.1736
  862MPD2     H12656   1.921   0.362  10.295  0.9664 -1.6801 -1.4341
  862MPD2    H112657   1.595   0.175  10.102  0.2054 -1.1598  1.1030
  862MPD2    H212658   1.563   0.576  10.259  2.9648  1.4366  3.3812
  862MPD2    H312659   1.465   0.387  10.143  0.3001  0.9238  1.5656
  862MPD2     N12660   1.832   0.127  10.187  0.4189  0.5475 -0.0653
  862MPD2    H512661   1.776   0.053  10.145  2.4342  0.1080 -1.9809
  862MPD2    N112662   1.820   0.567  10.379 -0.1422  0.3257 -0.1784
  862MPD2    H712663   1.917   0.545  10.403  0.1193  2.1916  0.4669
  863MPD2     C12664   0.836   3.397  16.649  0.0871  0.1959  0.4168
  863MPD2    C112665   0.750   3.319  16.719  0.0621  0.3185 -1.0849
  863MPD2    C212666   0.780   3.289  16.846 -0.5334  0.0050 -0.5778
  863MPD2    C312667   0.892   3.337  16.906 -0.2171  0.0515 -0.0251
  863MPD2    C412668   0.962   3.427  16.844  0.5864  0.2074 -0.3520
  863MPD2    C512669   0.943   3.458  16.713  1.1779 -0.0260  0.5736
  863MPD2     H12670   0.712   3.219  16.893 -2.1741  1.1216 -1.3138
  863MPD2    H112671   1.049   3.459  16.900 -0.6106 -2.0782  2.7866
  863MPD2    H212672   0.819   3.417  16.544 -2.4785 -1.4797  0.5177
  863MPD2    H312673   1.010   3.531  16.669  1.6514  0.7377  2.5837
  863MPD2     N12674   0.934   3.284  17.029 -0.4708 -0.2472 -0.1684
  863MPD2    H512675   1.006   3.338  17.076  0.7520 -1.3053 -0.8205
  863MPD2    N112676   0.631   3.276  16.646 -0.6509  0.0485  0.4829
  863MPD2    H712677   0.632   3.298  16.547  2.8027  0.4365  0.5901
  864MPD2     C12678   0.773   4.592  16.757 -0.3553 -0.1483  0.0533
  864MPD2    C112679   0.881   4.597  16.849  0.1764  0.8249  0.3131
  864MPD2    C212680   0.979   4.696  16.837  0.4672 -0.0968 -0.0389
  864MPD2    C312681   0.969   0.070  16.736 -0.7432 -0.3110 -0.5443
  864MPD2    C412682   0.865   0.063  16.650 -0.7192  0.0661  0.1101
  864MPD2    C512683   0.771   4.685  16.656 -0.2406 -0.2419  0.3173
  864MPD2     H12684   1.068   4.691  16.898  0.8070  0.5736 -0.4858
  864MPD2    H112685   0.854   0.134  16.569  1.4812 -0.9350 -1.0395
  864MPD2    H212686   0.687   4.529  16.773  0.6057 -1.3329  0.5129
  864MPD2    H312687   0.688   4.695  16.588 -1.6995 -0.5716  2.0358
  864MPD2     N12688   1.073   0.159  16.706  0.2291 -0.0980  0.2596
  864MPD2    H512689   1.061   0.209  16.618 -1.2532  0.5507  0.8270
  864MPD2    N112690   0.893   4.496  16.951  0.2034  0.3153  0.1422
  864MPD2    H712691   0.832   4.416  16.937  1.2490 -0.4482 -0.0724
  865MPD2     C12692   1.275   4.692  15.866  0.2319  0.2073  0.0013
  865MPD2    C112693   1.247   4.616  15.978  0.1301 -0.9625 -0.5077
  865MPD2    C212694   1.257   4.676  16.100  0.0704  0.0897  0.3015
  865MPD2    C312695   1.295   0.084  16.104  0.9393  0.4809 -0.1446
  865MPD2    C412696   1.316   0.162  15.993 -0.3156  0.5674 -0.3043
  865MPD2    C512697   1.302   0.103  15.869  0.1261 -0.3815  0.9810
  865MPD2     H12698   1.232   4.624  16.192  1.4414 -0.2450  0.4817
  865MPD2    H112699   1.330   0.270  15.996  0.5303  0.4556 -0.0562
  865MPD2    H212700   1.283   4.643  15.770 -2.6250  0.7620 -0.5214
  865MPD2    H312701   1.317   0.157  15.775  0.8122 -2.3524 -0.0443
  865MPD2     N12702   1.307   0.150  16.231 -0.2118 -0.2501  0.7128
  865MPD2    H512703   1.349   0.243  16.237 -3.7317  1.3456  0.4349
  865MPD2    N112704   1.242   4.469  15.958  0.1402 -0.0657 -0.9195
  865MPD2    H712705   1.260   4.434  15.864 -0.0886  0.2825 -1.0958
  866MPD2     C12706   2.771   0.692  11.546 -0.0298  0.2168  0.4790
  866MPD2    C112707   2.784   0.647  11.418 -0.5112 -0.2670  0.3275
  866MPD2    C212708   2.681   0.682  11.330  0.5752 -0.4304  0.0712
  866MPD2    C312709   2.570   0.759  11.366  0.4792 -0.3717 -0.2988
  866MPD2    C412710   2.564   0.809  11.494  0.1233 -0.2449 -0.1500
  866MPD2    C512711   2.669   0.783  11.575 -0.4892  0.2506 -0.7367
  866MPD2     H12712   2.689   0.651  11.226 -1.7933 -0.0203 -0.2409
  866MPD2    H112713   2.486   0.873  11.532 -0.1834 -1.6822  1.6128
  866MPD2    H212714   2.837   0.672  11.630  0.8562 -0.8346 -0.4736
  866MPD2    H312715   2.670   0.814  11.679 -0.1780  1.4454 -1.0925
  866MPD2     N12716   2.461   0.786  11.281 -0.7107 -0.5565 -0.1540
  866MPD2    H512717   2.381   0.836  11.317  1.5687  3.1140 -0.0875
  866MPD2    N112718   2.894   0.581  11.367 -0.7081 -0.1286  0.2903
  866MPD2    H712719   2.907   0.583  11.266 -3.4371  0.5240 -0.0606
  867MPD2     C12720   4.577   4.186  16.675 -0.5114 -0.0309 -0.2478
  867MPD2    C112721   4.687   4.181  16.754  0.0197  0.6997 -0.1757
  867MPD2    C212722   4.718   4.291  16.837  0.7522 -0.2406 -0.1109
  867MPD2    C312723   4.645   4.407  16.821 -0.0396 -0.1910  0.0271
  867MPD2    C412724   4.543   4.411  16.724  0.1058  0.4130 -0.7008
  867MPD2    C512725   4.521   4.302  16.644  0.4651 -0.2200 -0.9135
  867MPD2     H12726   0.079   4.283  16.906  0.2469 -1.9654  0.3112
  867MPD2    H112727   4.482   4.496  16.696 -1.5858 -0.4098  0.4568
  867MPD2    H212728   4.537   4.099  16.624 -3.2857  2.6653 -2.6861
  867MPD2    H312729   4.447   4.312  16.566 -1.1853 -0.9285  0.5635
  867MPD2     N12730   4.683   4.516  16.907  0.1479  0.5222  0.0610
  867MPD2    H512731   4.640   4.607  16.894  1.4419  0.8148 -2.1909
  867MPD2    N112732   0.038   4.063  16.748 -0.3638 -0.8659  0.2427
  867MPD2    H712733   4.713   3.981  16.712 -1.4905 -0.1145  0.0135
  868MPD2     C12734   1.681   3.695  12.910 -0.1860 -0.1754 -0.7169
  868MPD2    C112735   1.727   3.746  13.027 -0.7381 -0.7599  0.6916
  868MPD2    C212736   1.657   3.733  13.143 -0.3514  1.0991 -0.7277
  868MPD2    C312737   1.532   3.672  13.139 -0.0135  0.6276 -0.3517
  868MPD2    C412738   1.494   3.609  13.025  0.5499 -0.2462 -0.1202
  868MPD2    C512739   1.568   3.621  12.909 -0.1813 -0.5872 -0.1629
  868MPD2     H12740   1.699   3.780  13.231 -1.1288 -0.2655  0.3723
  868MPD2    H112741   1.399   3.557  13.014  1.5622 -2.3482  1.1639
  868MPD2    H212742   1.746   3.695  12.823  1.9518 -0.9982  0.8910
  868MPD2    H312743   1.535   3.578  12.815 -1.3385 -0.6315  0.2713
  868MPD2     N12744   1.459   3.666  13.257 -0.6391 -0.1722 -0.4954
  868MPD2    H512745   1.508   3.694  13.341  0.5216  0.5699 -1.4213
  868MPD2    N112746   1.860   3.792  13.018  0.2568 -0.2157 -0.7914
  868MPD2    H712747   1.912   3.770  12.934 -1.0735 -2.2035 -1.0802
  869MPD2     C12748   2.591   1.219   1.630  0.7662  0.5631 -0.3377
  869MPD2    C112749   2.704   1.278   1.683  0.5495  0.5311 -0.3043
  869MPD2    C212750   2.761   1.378   1.610 -0.2019 -0.0807  0.2760
  869MPD2    C312751   2.723   1.396   1.478 -0.1715  0.0522  0.2484
  869MPD2    C412752   2.624   1.322   1.424  0.9376  0.0707 -0.5266
  869MPD2    C512753   2.547   1.252   1.506 -0.2290 -0.3847  0.0608
  869MPD2     H12754   2.853   1.418   1.650  0.9186  0.2661 -2.6005
  869MPD2    H112755   2.596   1.345   1.322  4.3573  1.7958 -1.0788
  869MPD2    H212756   2.531   1.151   1.689  1.2728  0.7872  0.4348
  869MPD2    H312757   2.453   1.203   1.483  1.3484 -2.7791 -1.2165
  869MPD2     N12758   2.779   1.487   1.387  0.2923  0.0641 -0.1754
  869MPD2    H512759   2.736   1.507   1.298 -0.6108  1.2015  0.5271
  869MPD2    N112760   2.742   1.235   1.812 -0.4421 -0.0651  0.3125
  869MPD2    H712761   2.695   1.147   1.829 -0.4594  0.0179  0.6868
  870MPD2     C12762   2.394   0.361   1.917  0.2791  0.5421  0.6083
  870MPD2    C112763   2.429   0.275   1.815  0.5221  0.1110  0.0902
  870MPD2    C212764   2.348   0.267   1.701  0.8376 -0.5532 -0.0447
  870MPD2    C312765   2.238   0.339   1.696 -0.2702  0.1751  0.3584
  870MPD2    C412766   2.211   0.431   1.791 -0.6763  0.4769 -0.7194
  870MPD2    C512767   2.287   0.445   1.906 -0.0345 -0.0413 -0.0137
  870MPD2     H12768   2.365   0.194   1.623 -0.9858 -0.9555 -0.0572
  870MPD2    H112769   2.124   0.494   1.781 -0.9779  0.3801  1.2402
  870MPD2    H212770   2.457   0.362   2.005  1.0296 -2.0104  0.1166
  870MPD2    H312771   2.266   0.509   1.991  2.1116  0.6743 -0.0337
  870MPD2     N12772   2.145   0.312   1.596 -0.2313  0.3979 -0.4061
  870MPD2    H512773   2.167   0.263   1.510  0.2183  1.2262 -0.7639
  870MPD2    N112774   2.553   0.206   1.834  0.0260 -1.1033 -0.0294
  870MPD2    H712775   2.603   0.243   1.915 -0.3377 -1.2387  0.2549
  871MPD2     C12776   3.215   4.272  16.625  0.3567  0.1504 -0.3140
  871MPD2    C112777   3.265   4.285  16.753  0.3373  0.2441  0.3252
  871MPD2    C212778   3.362   4.196  16.792 -0.3391 -0.0266 -0.8693
  871MPD2    C312779   3.415   4.104  16.699 -0.1203  0.3793 -0.3555
  871MPD2    C412780   3.367   4.095  16.568 -0.5662 -0.3146 -0.2176
  871MPD2    C512781   3.268   4.183  16.535  0.0240  0.0632 -0.8889
  871MPD2     H12782   3.418   4.195  16.884  0.0746 -0.2469 -1.1218
  871MPD2    H112783   3.398   4.022  16.495 -1.5178 -0.0050 -0.9232
  871MPD2    H212784   3.135   4.331  16.582  0.1635  0.7639  0.8909
  871MPD2    H312785   3.230   4.186  16.434  0.5570  0.7150 -1.0660
  871MPD2     N12786   3.502   4.012  16.759 -0.5571 -0.0143  0.5549
  871MPD2    H512787   3.497   4.018  16.860 -1.0842  2.9201  0.3676
  871MPD2    N112788   3.209   4.385  16.839  1.0079 -0.9987 -0.4504
  871MPD2    H712789   3.135   4.442  16.799 -0.4961 -2.3039  0.4991
  872MPD2     C12790   4.590   2.487  13.617  0.1243  0.3445  0.1762
  872MPD2    C112791   4.658   2.413  13.704 -0.6382 -0.2962 -0.5537
  872MPD2    C212792   4.596   2.368  13.818  0.3150  0.2266 -0.6609
  872MPD2    C312793   4.461   2.374  13.833  0.4605  0.0136 -0.6022
  872MPD2    C412794   4.395   2.454  13.747  1.5682 -1.0983 -0.5800
  872MPD2    C512795   4.461   2.507  13.636 -0.2945 -0.0142  0.2164
  872MPD2     H12796   4.656   2.312  13.890 -2.7823  1.0960  2.6146
  872MPD2    H112797   4.289   2.474  13.739  1.8788  1.6217  2.1086
  872MPD2    H212798   4.643   2.525  13.530  0.7398 -0.9823 -0.0232
  872MPD2    H312799   4.401   2.564  13.566 -0.7108  0.2501  0.7918
  872MPD2     N12800   4.403   2.314  13.951  0.2249  0.2202  0.2517
  872MPD2    H512801   4.465   2.294  14.029  0.3086  0.9683  0.3836
  872MPD2    N112802   0.065   2.363  13.675 -0.1765  0.2655  0.1605
  872MPD2    H712803   0.112   2.299  13.738  2.9052 -0.6032 -2.9887
  873MPD2     C12804   1.920   2.219   1.033  0.1444 -0.5139 -0.4589
  873MPD2    C112805   1.962   2.201   1.161 -0.0199  0.1414  0.0636
  873MPD2    C212806   2.017   2.077   1.191 -0.0993  0.1458  0.0275
  873MPD2    C312807   2.023   1.975   1.099  0.0216  0.0511 -0.1911
  873MPD2    C412808   1.987   2.000   0.973 -0.3247  0.1380  0.0652
  873MPD2    C512809   1.934   2.119   0.942  0.6992 -0.2753 -0.3438
  873MPD2     H12810   2.049   2.054   1.292 -0.3492  0.2849  0.1398
  873MPD2    H112811   1.979   1.923   0.897  0.9842  0.6388 -0.5853
  873MPD2    H212812   1.867   2.309   1.004  0.5788  0.1569  0.8428
  873MPD2    H312813   1.904   2.131   0.839  1.8413  1.5182 -0.4642
  873MPD2     N12814   2.046   1.839   1.131 -0.1000 -0.1689 -0.1220
  873MPD2    H512815   2.031   1.776   1.053 -0.3627 -0.0180 -0.1919
  873MPD2    N112816   1.935   2.303   1.258  0.5060 -0.1739 -0.2566
  873MPD2    H712817   1.894   2.391   1.231  0.8164 -0.2280 -0.9186
  874MPD2     C12818   1.069   2.503  16.116  0.2874 -0.6691  0.2813
  874MPD2    C112819   1.159   2.409  16.167 -0.1995 -0.7789 -0.4798
  874MPD2    C212820   1.291   2.423  16.141 -0.0124  0.4201  0.0773
  874MPD2    C312821   1.335   2.529  16.067  0.0288 -0.1521 -0.8124
  874MPD2    C412822   1.242   2.616  16.008  0.3113  0.6205 -0.1774
  874MPD2    C512823   1.110   2.596  16.031 -0.2053  0.1975 -0.1937
  874MPD2     H12824   1.361   2.351  16.181 -0.0820 -1.6074 -3.4684
  874MPD2    H112825   1.265   2.697  15.941  0.6366  0.5267 -0.1787
  874MPD2    H212826   0.968   2.480  16.147  0.4012 -3.8688 -1.7198
  874MPD2    H312827   1.036   2.663  15.990 -0.0019  0.7961  0.4165
  874MPD2     N12828   1.474   2.532  16.049 -0.2492 -0.0664 -0.2549
  874MPD2    H512829   1.523   2.459  16.100  0.3654  1.1162  0.8597
  874MPD2    N112830   1.105   2.311  16.258 -0.2663  0.4910  0.0490
  874MPD2    H712831   1.005   2.293  16.256 -0.1632 -0.1837  0.9122
  875MPD2     C12832   2.529   0.833  14.686  0.2341 -0.5474  0.2809
  875MPD2    C112833   2.405   0.842  14.753  0.4224  0.4729 -0.0093
  875MPD2    C212834   2.404   0.874  14.886 -0.1481 -0.4887  0.2573
  875MPD2    C312835   2.517   0.903  14.954  0.5355  0.0704 -0.1237
  875MPD2    C412836   2.642   0.898  14.889  0.7153  0.0140 -0.3545
  875MPD2    C512837   2.647   0.858  14.758 -0.1449 -0.5262 -0.1879
  875MPD2     H12838   2.313   0.899  14.939  0.4122 -2.6965  2.2570
  875MPD2    H112839   2.731   0.909  14.948 -0.8145 -0.4655  2.0273
  875MPD2    H212840   2.543   0.794  14.585  2.0826 -0.7694  0.6372
  875MPD2    H312841   2.741   0.853  14.704 -1.5305 -1.0055 -2.5721
  875MPD2     N12842   2.516   0.937  15.092  0.0254 -0.6555  0.1215
  875MPD2    H512843   2.599   0.979  15.131  0.8622 -1.2363 -1.0225
  875MPD2    N112844   2.284   0.811  14.688 -1.0084  0.8211  0.2714
  875MPD2    H712845   2.202   0.844  14.738 -0.4445 -1.3873  2.6940
  876MPD2     C12846   0.783   1.917  16.208  0.6530  0.3474 -0.5856
  876MPD2    C112847   0.911   1.891  16.164  0.9174 -0.5573 -0.4646
  876MPD2    C212848   0.976   1.770  16.191 -0.3317  0.5517  0.0219
  876MPD2    C312849   0.906   1.676  16.266 -0.5151 -0.5833 -0.2668
  876MPD2    C412850   0.781   1.712  16.318  0.3775  0.0547 -0.1301
  876MPD2    C512851   0.720   1.828  16.286 -0.1894 -0.9778 -0.1799
  876MPD2     H12852   1.081   1.754  16.166 -0.2386 -1.5217  1.7051
  876MPD2    H112853   0.719   1.646  16.378 -0.8436  0.5505 -0.8269
  876MPD2    H212854   0.729   2.005  16.176  0.1784 -0.2751 -1.5136
  876MPD2    H312855   0.620   1.857  16.317 -0.2467 -1.2296 -0.1283
  876MPD2     N12856   0.970   1.553  16.286  0.2191  0.5581 -0.4958
  876MPD2    H512857   1.066   1.556  16.252  0.8196 -2.1652  0.9639
  876MPD2    N112858   0.977   1.998  16.094 -0.0612  0.3832 -0.0889
  876MPD2    H712859   0.934   2.085  16.065  2.5115  0.7244 -2.8651
  877MPD2     C12860   0.923   2.253  15.378  0.6943 -0.5067 -0.5787
  877MPD2    C112861   1.054   2.266  15.420 -0.0616 -0.2091  0.0519
  877MPD2    C212862   1.148   2.297  15.325  0.9778 -0.2704  0.2015
  877MPD2    C312863   1.112   2.308  15.189  0.9408  0.2646 -0.1076
  877MPD2    C412864   0.979   2.284  15.147  0.0837 -0.6259  1.0312
  877MPD2    C512865   0.893   2.254  15.245  0.0667 -0.3555  0.8519
  877MPD2     H12866   1.246   2.314  15.370  1.1306 -1.3649  0.2633
  877MPD2    H112867   0.952   2.296  15.042 -2.3251 -0.7646  1.6556
  877MPD2    H212868   0.844   2.215  15.442 -0.8904  1.7970 -1.1997
  877MPD2    H312869   0.795   2.225  15.207 -1.4905  2.5033  2.6801
  877MPD2     N12870   1.204   2.332  15.087  0.0148 -0.2028 -0.2026
  877MPD2    H512871   1.172   2.333  14.991  0.3058  2.9603 -0.2787
  877MPD2    N112872   1.095   2.250  15.560 -0.5436  0.4295  0.1669
  877MPD2    H712873   1.196   2.248  15.577 -0.4727  0.6044 -0.2531
  878MPD2     C12874   0.793   1.458  12.937 -0.1166  0.3343 -0.5205
  878MPD2    C112875   0.877   1.539  13.010 -0.4247 -0.0860 -0.1222
  878MPD2    C212876   0.883   1.544  13.149  0.3243 -0.5386 -0.1153
  878MPD2    C312877   0.798   1.455  13.215 -0.7402 -0.3852  0.4826
  878MPD2    C412878   0.713   1.366  13.141  0.2922 -0.4621 -0.0257
  878MPD2    C512879   0.711   1.368  13.006  0.4193 -0.0180  0.1360
  878MPD2     H12880   0.953   1.601  13.209  0.6129 -0.3788 -0.6067
  878MPD2    H112881   0.645   1.289  13.178  0.5205 -0.8591 -0.4351
  878MPD2    H212882   0.795   1.464  12.829 -4.4172  2.9323 -0.4518
  878MPD2    H312883   0.662   1.292  12.946 -2.9338  1.4063  1.1431
  878MPD2     N12884   0.802   1.464  13.357 -0.3535  0.1297  0.0050
  878MPD2    H512885   0.869   1.535  13.387 -3.3420  3.3545 -0.9342
  878MPD2    N112886   0.954   1.623  12.922  0.5724 -0.1206  0.0205
  878MPD2    H712887   0.935   1.622  12.822  0.2328  1.3782  0.0650
  879MPD2     C12888   1.512   3.483  16.959  0.1053  1.2254 -0.5032
  879MPD2    C112889   1.518   3.357  17.009  0.1982  0.0889 -0.0018
  879MPD2    C212890   1.423   3.261  16.975 -0.2141 -0.1140 -0.2537
  879MPD2    C312891   1.322   3.304  16.888 -0.0881 -0.3170 -0.7070
  879MPD2    C412892   1.320   3.432  16.843 -0.2189 -0.4690 -0.2925
  879MPD2    C512893   1.409   3.526  16.877 -0.2038 -0.1474  0.0700
  879MPD2     H12894   1.426   3.160  17.013 -0.0916  0.5696  1.5571
  879MPD2    H112895   1.251   3.471  16.769  2.0597  0.2443 -2.0305
  879MPD2    H212896   1.581   3.561  16.989  1.6090 -0.0932 -0.5445
  879MPD2    H312897   1.408   3.629  16.841 -0.4897  0.9495  3.1663
  879MPD2     N12898   1.225   3.219  16.833  0.4224  0.3132 -0.3947
  879MPD2    H512899   1.178   3.260  16.753 -0.8741 -1.3369 -0.4749
  879MPD2    N112900   1.620   3.332  17.101 -0.0208  0.4500 -0.5497
  879MPD2    H712901   1.669   3.414  17.136 -0.0111  0.7633 -1.2827
  880MPD2     C12902   2.543   4.330   0.704  0.4016  0.1999  0.7825
  880MPD2    C112903   2.648   4.415   0.676  0.2538  0.2841 -0.2241
  880MPD2    C212904   2.777   4.373   0.702 -0.0950 -0.1820  0.1941
  880MPD2    C312905   2.806   4.249   0.764 -0.4155  0.0524 -0.3566
  880MPD2    C412906   2.706   4.159   0.778  0.2532 -0.0373 -0.0535
  880MPD2    C512907   2.578   4.205   0.754  0.1058  0.1341 -0.1736
  880MPD2     H12908   2.859   4.441   0.679  0.0677 -0.5197 -0.2253
  880MPD2    H112909   2.722   4.059   0.815 -1.3504  0.7101  2.6063
  880MPD2    H212910   2.441   4.363   0.688 -0.3414 -2.0106  0.9456
  880MPD2    H312911   2.497   4.134   0.766  1.4627 -1.5287 -0.9304
  880MPD2     N12912   2.939   4.231   0.797  0.2847  0.6120  0.0477
  880MPD2    H512913   3.001   4.309   0.775  0.0365  1.2436  1.6370
  880MPD2    N112914   2.613   4.541   0.627 -0.1429 -0.0531  0.6617
  880MPD2    H712915   2.515   4.561   0.612  0.1155 -0.7897 -1.9342
  881MPD2     C12916   2.739   0.727   0.095 -0.1093  0.7601 -0.3094
  881MPD2    C112917   2.749   0.599   0.041  0.0184 -0.2619 -0.1603
  881MPD2    C212918   2.709   0.490   0.108  1.0112  0.7188  0.7180
  881MPD2    C312919   2.684   0.508   0.241  1.3782  0.2325  0.8658
  881MPD2    C412920   2.686   0.629   0.301  0.8058  0.9462 -0.5408
  881MPD2    C512921   2.704   0.740   0.225 -0.2502  0.4364  0.2906
  881MPD2     H12922   2.699   0.393   0.062  0.0961  2.4097 -2.6450
  881MPD2    H112923   2.653   0.646   0.402  0.0331  0.7695 -0.7650
  881MPD2    H212924   2.777   0.808   0.034 -0.2511 -0.5961 -2.2068
  881MPD2    H312925   2.690   0.839   0.267 -1.1835  0.3568  0.1669
  881MPD2     N12926   2.637   0.403   0.325  0.2903 -0.6334 -0.0992
  881MPD2    H512927   2.618   0.424   0.423 -1.3358  0.3851 -0.6363
  881MPD2    N112928   2.769   0.600  17.592  0.0157  0.4577  0.0729
  881MPD2    H712929   2.793   0.691  17.553  2.0341 -0.4717 -0.8245
  882MPD2     C12930   1.386   2.091  14.349 -0.5106  0.6079 -0.0846
  882MPD2    C112931   1.310   2.182  14.420  0.1129  0.2822 -0.1750
  882MPD2    C212932   1.182   2.211  14.388 -0.3746  0.1215  0.6493
  882MPD2    C312933   1.123   2.138  14.282 -0.1422 -0.0022  0.2641
  882MPD2    C412934   1.197   2.046  14.211 -0.5128  0.5723 -0.1754
  882MPD2    C512935   1.324   2.030  14.235  0.0958 -0.3700  0.3712
  882MPD2     H12936   1.123   2.284  14.443 -0.4171  1.7528 -1.5486
  882MPD2    H112937   1.149   1.991  14.131 -2.1663 -0.0498  1.2495
  882MPD2    H212938   1.488   2.062  14.374 -0.2352  2.1955  0.5896
  882MPD2    H312939   1.384   1.953  14.187  0.2058  0.7583 -1.3034
  882MPD2     N12940   0.983   2.157  14.250  0.5830 -0.1813  0.3865
  882MPD2    H512941   0.935   2.077  14.210 -1.9463  1.2620  0.4747
  882MPD2    N112942   1.370   2.217  14.537  0.3688  0.1425  0.4798
  882MPD2    H712943   1.462   2.177  14.556  0.5534 -0.5244 -1.7191
  883MPD2     C12944   3.298   2.160  16.379  0.5794  0.2220 -0.5102
  883MPD2    C112945   3.397   2.216  16.305 -0.0230 -0.4630  0.6047
  883MPD2    C212946   3.530   2.223  16.357  0.1363 -0.0574 -0.2791
  883MPD2    C312947   3.567   2.184  16.482 -0.3018  0.5567 -0.3352
  883MPD2    C412948   3.463   2.146  16.570 -0.3993 -0.1207 -0.0424
  883MPD2    C512949   3.338   2.123  16.509 -0.0702 -0.3405 -0.1700
  883MPD2     H12950   3.608   2.274  16.300  0.0342 -1.8129 -1.9765
  883MPD2    H112951   3.475   2.133  16.677  2.7316 -2.6935 -0.7045
  883MPD2    H212952   3.196   2.143  16.347  1.4081 -1.4359 -2.2424
  883MPD2    H312953   3.260   2.078  16.569  0.1413  0.7214  0.9119
  883MPD2     N12954   3.702   2.210  16.517  0.1545 -0.8284  0.0125
  883MPD2    H512955   3.762   2.234  16.439  1.5732 -1.1886  0.9840
  883MPD2    N112956   3.380   2.262  16.172  0.1015 -0.2476 -0.3336
  883MPD2    H712957   3.464   2.307  16.137  0.2028  0.7073  1.1196
  884MPD2     C12958   0.244   3.216  15.130  1.0243  0.0862  0.3884
  884MPD2    C112959   0.175   3.200  15.018 -0.4861 -1.0239  0.3272
  884MPD2    C212960   0.059   3.270  14.992 -0.5246  0.1649  0.5641
  884MPD2    C312961   0.017   3.367  15.079  0.1481  0.9475  0.2418
  884MPD2    C412962   0.085   3.388  15.196  0.1418 -0.3088  0.9236
  884MPD2    C512963   0.200   3.314  15.219  0.1445  0.2610 -0.1430
  884MPD2     H12964   0.017   3.257  14.893  0.1639 -1.0633  0.4387
  884MPD2    H112965   0.050   3.456  15.273 -0.3587  2.4343 -1.7072
  884MPD2    H212966   0.347   3.186  15.151  0.6381 -0.4799  1.4677
  884MPD2    H312967   0.261   3.341  15.305 -0.6659 -1.2972  0.9237
  884MPD2     N12968   4.628   3.442  15.044  0.0599  0.0422  0.6324
  884MPD2    H512969   4.582   3.416  14.958  0.7015  0.8327  0.0508
  884MPD2    N112970   0.225   3.117  14.914 -0.4642 -0.5052 -0.2629
  884MPD2    H712971   0.183   3.129  14.822 -0.5889  1.0936 -0.0066
  885MPD2     C12972   3.121   3.410   0.271 -0.3069  0.2994  0.7064
  885MPD2    C112973   3.129   3.283   0.210 -0.4613  0.1046 -0.3758
  885MPD2    C212974   3.174   3.273   0.078 -0.7007  0.5749  0.1195
  885MPD2    C312975   3.195   3.384   0.003  0.1446 -1.0326  0.9855
  885MPD2    C412976   3.198   3.507   0.071 -0.1173 -0.0309  0.7109
  885MPD2    C512977   3.157   3.520   0.198  0.4792  0.0882 -0.1809
  885MPD2     H12978   3.193   3.181   0.023 -1.7345  0.8818 -0.7542
  885MPD2    H112979   3.229   3.600   0.025 -1.7679 -0.5671 -1.5091
  885MPD2    H212980   3.072   3.419   0.367 -0.6349  3.0523  0.2910
  885MPD2    H312981   3.159   3.621   0.239  0.0698  0.0779 -0.1326
  885MPD2     N12982   3.236   3.372  17.565 -0.2765 -0.1626  0.3759
  885MPD2    H512983   3.258   3.279  17.530 -3.0607 -0.7057  0.0718
  885MPD2    N112984   3.092   3.174   0.292 -0.4008  0.1737  0.7598
  885MPD2    H712985   3.057   3.195   0.385 -2.4492  0.4352 -0.0581
  886MPD2     C12986   4.493   1.539  15.123 -0.3656  0.1419 -0.7800
  886MPD2    C112987   4.597   1.556  15.209  0.1450 -0.0752  0.1889
  886MPD2    C212988   4.625   1.683  15.259 -0.2177 -0.2874 -0.7017
  886MPD2    C312989   4.539   1.793  15.234  0.0397 -0.5007  0.0746
  886MPD2    C412990   4.431   1.771  15.155 -0.1152  0.1539 -0.3810
  886MPD2    C512991   4.409   1.643  15.112 -0.6456  0.0339 -0.6813
  886MPD2     H12992   4.704   1.692  15.333 -0.6107  2.7250 -0.6377
  886MPD2    H112993   4.360   1.848  15.129  0.5337  0.5354 -1.0003
  886MPD2    H212994   4.463   1.442  15.082 -1.6172 -0.3564  1.3409
  886MPD2    H312995   4.320   1.632  15.052 -1.3191  1.8675 -0.0189
  886MPD2     N12996   4.567   1.928  15.273  0.7889 -0.5367  0.2041
  886MPD2    H512997   4.496   1.997  15.250  0.9863 -1.0579 -1.9763
  886MPD2    N112998   4.680   1.446  15.250  0.6219  0.0230  0.3052
  886MPD2    H712999   0.029   1.477  15.313  0.6705  2.8647 -1.1738
  887MPD2     C13000   0.587   1.436  15.526 -0.1095 -0.0149  0.3783
  887MPD2    C113001   0.473   1.480  15.459 -0.7476  0.2048  0.5536
  887MPD2    C213002   0.444   1.615  15.453 -0.2067  0.5076 -0.2884
  887MPD2    C313003   0.533   1.707  15.504  0.3877 -0.1072  1.2512
  887MPD2    C413004   0.658   1.658  15.552 -0.2376 -0.5734 -0.0931
  887MPD2    C513005   0.679   1.527  15.566 -0.8249  0.5338  0.1202
  887MPD2     H13006   0.346   1.645  15.416 -1.2229 -0.4420  1.6279
  887MPD2    H113007   0.725   1.733  15.592  1.4959 -2.1010 -0.0959
  887MPD2    H213008   0.605   1.330  15.543 -0.5652  0.2617  2.5223
  887MPD2    H313009   0.768   1.497  15.620 -0.9075  0.9050  0.4580
  887MPD2     N13010   0.489   1.839  15.530 -0.3211  0.3688 -0.6311
  887MPD2    H513011   0.389   1.854  15.528 -0.3423  0.4785  1.7595
  887MPD2    N113012   0.391   1.386  15.396 -0.1837 -0.2328 -0.0175
  887MPD2    H713013   0.312   1.431  15.351 -1.0209 -1.0901  0.5847
  888MPD2     C13014   2.262   1.841  14.767  0.0895  0.7623 -0.3766
  888MPD2    C113015   2.267   1.898  14.889  0.7158  0.4775 -0.3209
  888MPD2    C213016   2.298   2.035  14.890 -0.0195  0.8722  0.3040
  888MPD2    C313017   2.322   2.104  14.774  0.3058  0.3561 -0.8089
  888MPD2    C413018   2.316   2.040  14.647  0.2165 -1.2010 -0.4868
  888MPD2    C513019   2.276   1.910  14.651 -0.5480  0.7420  0.0069
  888MPD2     H13020   2.287   2.080  14.988  0.5679 -1.3967  1.4223
  888MPD2    H113021   2.335   2.091  14.553 -2.3681 -2.0827 -1.5009
  888MPD2    H213022   2.240   1.737  14.745  2.8485  0.2336 -0.6128
  888MPD2    H313023   2.278   1.860  14.554  2.6441  1.1075 -0.1158
  888MPD2     N13024   2.342   2.242  14.787 -0.4610 -0.1736 -0.5393
  888MPD2    H513025   2.378   2.276  14.876 -1.0612 -1.1488  0.0704
  888MPD2    N113026   2.233   1.840  15.011  0.5095 -0.5385 -0.3684
  888MPD2    H713027   2.251   1.896  15.093  2.3708  0.5359 -1.5260
  889MPD2     C13028   1.391   1.562  12.790 -0.1428  0.0176  0.4400
  889MPD2    C113029   1.375   1.510  12.913  0.1376  0.2778  1.0957
  889MPD2    C213030   1.391   1.598  13.022  0.1809 -0.3368  0.9402
  889MPD2    C313031   1.387   1.729  13.001  0.4190 -0.4140 -0.4802
  889MPD2    C413032   1.403   1.779  12.877  0.5142  0.3576  0.2018
  889MPD2    C513033   1.402   1.693  12.767 -0.5048 -1.5308 -0.1016
  889MPD2     H13034   1.365   1.564  13.122 -1.0042 -0.0768  0.7158
  889MPD2    H113035   1.413   1.885  12.854  1.3304 -0.1594 -1.7842
  889MPD2    H213036   1.403   1.502  12.700 -0.8121  0.7792 -0.1647
  889MPD2    H313037   1.417   1.733  12.667  0.0841  1.3886  1.1723
  889MPD2     N13038   1.387   1.815  13.115  0.3898 -0.1782  0.1701
  889MPD2    H513039   1.398   1.770  13.205 -1.0751 -0.2265  0.3272
  889MPD2    N113040   1.382   1.370  12.935  0.3808 -0.2606 -0.1654
  889MPD2    H713041   1.388   1.341  13.033 -1.1372 -1.4842 -0.4377
  890MPD2     C13042   1.377   2.985  14.661  0.4736  0.3842  0.2812
  890MPD2    C113043   1.432   3.066  14.755  0.0111  0.0016  0.1599
  890MPD2    C213044   1.439   3.020  14.884  0.7192  0.4384 -0.5626
  890MPD2    C313045   1.397   2.888  14.914 -0.1550  0.6775 -0.8513
  890MPD2    C413046   1.352   2.798  14.813  0.6428 -0.7975  0.2786
  890MPD2    C513047   1.343   2.853  14.683  0.5146  0.4538 -1.0050
  890MPD2     H13048   1.477   3.080  14.966 -1.8037 -0.2204  1.1003
  890MPD2    H113049   1.333   2.691  14.820 -1.8721 -0.3444  0.4841
  890MPD2    H213050   1.346   3.008  14.560 -0.8410 -1.7912  0.2006
  890MPD2    H313051   1.292   2.788  14.613 -2.7977  1.8232  0.1375
  890MPD2     N13052   1.390   2.842  15.050  0.2293  0.1276 -0.1339
  890MPD2    H513053   1.425   2.899  15.127  1.1726 -0.3019 -0.2510
  890MPD2    N113054   1.465   3.191  14.706 -0.1827 -0.0431  0.0474
  890MPD2    H713055   1.440   3.214  14.611 -0.7905  0.4734  0.3398
  891MPD2     C13056   3.692   0.894  16.710  0.8162 -0.2071 -0.2598
  891MPD2    C113057   3.717   1.027  16.698 -0.3605 -0.0877  0.4883
  891MPD2    C213058   3.833   1.072  16.760 -0.0447  0.4001  0.2151
  891MPD2    C313059   3.884   0.991  16.864 -0.3969 -0.1380 -0.6474
  891MPD2    C413060   3.829   0.871  16.896 -0.3640 -0.3033 -0.6361
  891MPD2    C513061   3.734   0.819  16.813  0.3603  0.3466  0.3350
  891MPD2     H13062   3.870   1.172  16.742 -1.8572  1.0271  0.0010
  891MPD2    H113063   3.867   0.813  16.979 -1.1439 -2.4880 -1.8292
  891MPD2    H213064   3.611   0.851  16.650  0.4663  0.3297 -0.1698
  891MPD2    H313065   3.700   0.718  16.837 -0.4373  1.2349  2.9088
  891MPD2     N13066   3.985   1.039  16.947 -0.2016 -0.1271 -1.0007
  891MPD2    H513067   4.034   1.120  16.911  1.1369 -1.1490 -1.4460
  891MPD2    N113068   3.630   1.101  16.618 -0.6533 -0.2091  0.0457
  891MPD2    H713069   3.552   1.052  16.576 -2.3122  2.6766 -0.2736
  892MPD2     C13070   0.393   2.470  14.967 -0.1528  0.5451  0.3996
  892MPD2    C113071   0.310   2.490  14.858  0.7956  0.3947 -0.1252
  892MPD2    C213072   0.355   2.454  14.732 -0.1123 -0.0260  0.3139
  892MPD2    C313073   0.478   2.384  14.725  0.1084  0.1061  1.0629
  892MPD2    C413074   0.553   2.359  14.841 -0.0639 -0.0678  0.1641
  892MPD2    C513075   0.513   2.413  14.956 -0.3827  0.7088 -0.4780
  892MPD2     H13076   0.294   2.481  14.646  1.7163  1.8486 -0.3821
  892MPD2    H113077   0.644   2.301  14.828  0.0458  0.1951 -0.2107
  892MPD2    H213078   0.375   2.509  15.067 -1.5622  0.5342  0.1459
  892MPD2    H313079   0.578   2.424  15.043 -0.3319 -0.5942 -0.3595
  892MPD2     N13080   0.538   2.348  14.603  0.1862  0.2459  0.6036
  892MPD2    H513081   0.635   2.321  14.616  0.6306  0.8837 -1.4473
  892MPD2    N113082   0.182   2.554  14.869 -0.8667 -0.5015  0.0332
  892MPD2    H713083   0.137   2.566  14.779 -0.9702  0.2713  0.1874
  893MPD2     C13084   1.588   0.633   1.985  0.2262 -0.0196 -0.2322
  893MPD2    C113085   1.602   0.703   1.874 -0.6586  0.8067 -0.3160
  893MPD2    C213086   1.493   0.763   1.810 -0.3545 -0.0443  0.5707
  893MPD2    C313087   1.361   0.751   1.858  0.5599 -0.4395 -0.9471
  893MPD2    C413088   1.350   0.679   1.975 -0.1656 -0.8835 -0.0846
  893MPD2    C513089   1.455   0.616   2.035 -0.2249  0.6850 -0.4415
  893MPD2     H13090   1.502   0.835   1.729 -2.0070  1.1790  1.4770
  893MPD2    H113091   1.255   0.660   2.024 -0.7328  1.5214 -0.2867
  893MPD2    H213092   1.670   0.579   2.030  0.0739 -1.9393 -2.2893
  893MPD2    H313093   1.440   0.560   2.127 -0.1772  2.3577  0.5969
  893MPD2     N13094   1.245   0.810   1.790 -0.5317 -0.3281 -0.4032
  893MPD2    H513095   1.156   0.785   1.832 -0.1362  1.5654  1.5513
  893MPD2    N113096   1.735   0.697   1.810 -0.3375  0.3716  0.3720
  893MPD2    H713097   1.815   0.656   1.858 -1.1009 -2.6338 -0.8838
  894MPD2     C13098   4.521   3.423   0.753 -0.3412  0.5611  0.4910
  894MPD2    C113099   4.567   3.362   0.866  0.4674  0.1929 -0.2012
  894MPD2    C213100   4.699   3.317   0.866  0.0841 -0.3090 -0.2854
  894MPD2    C313101   0.052   3.330   0.757  0.0943 -0.2164  1.0381
  894MPD2    C413102   0.000   3.380   0.639 -0.2236 -0.3791  0.2042
  894MPD2    C513103   4.589   3.419   0.639  0.3182 -0.2098  0.5015
  894MPD2     H13104   0.012   3.274   0.959 -0.0491  1.7695  0.7206
  894MPD2    H113105   0.060   3.388   0.549  0.3104 -1.2744  0.4917
  894MPD2    H213106   4.424   3.472   0.745 -1.5568 -1.9538 -0.1285
  894MPD2    H313107   4.541   3.473   0.558  1.1407  1.7045  1.2857
  894MPD2     N13108   0.194   3.312   0.770  0.3214  0.4376  0.1314
  894MPD2    H513109   0.222   3.311   0.868  0.4086  0.6576  0.1094
  894MPD2    N113110   4.491   3.339   0.980  0.3605  0.1591 -0.4242
  894MPD2    H713111   4.536   3.300   1.062 -1.7082 -0.2098  0.5156
  895MPD2     C13112   4.452   1.832  13.260 -0.5506 -0.2101 -0.2979
  895MPD2    C113113   4.370   1.771  13.358 -0.8000  0.4297  0.1035
  895MPD2    C213114   4.415   1.653  13.419 -0.2017 -0.2383 -0.2123
  895MPD2    C313115   4.537   1.599  13.385  0.1235 -0.3130 -0.5000
  895MPD2    C413116   4.613   1.656  13.284 -0.4289 -0.0465  0.3670
  895MPD2    C513117   4.579   1.777  13.230 -0.0230  0.4613  0.0473
  895MPD2     H13118   4.367   1.627  13.512  1.4581 -1.3653  0.3181
  895MPD2    H113119   4.700   1.597  13.259  0.1532  1.6953 -1.8019
  895MPD2    H213120   4.416   1.925  13.217  2.6761  1.2025  0.1088
  895MPD2    H313121   4.642   1.828  13.158  2.0402  1.1722  2.3619
  895MPD2     N13122   4.595   1.479  13.435  0.1906  0.4799 -0.4911
  895MPD2    H513123   4.696   1.475  13.424  0.2974  1.6609 -0.0162
  895MPD2    N113124   4.241   1.818  13.382 -0.3376  0.4325  0.0006
  895MPD2    H713125   4.187   1.752  13.436 -0.9029  1.2310  0.4203
  896MPD2     C13126   1.813   4.042   2.036  0.1700  0.3066  0.4896
  896MPD2    C113127   1.815   3.995   1.908 -0.1598  0.1546 -0.0868
  896MPD2    C213128   1.704   3.949   1.853  0.3682 -0.4782 -1.0664
  896MPD2    C313129   1.589   3.936   1.929 -0.4728  0.4285  0.4298
  896MPD2    C413130   1.589   3.969   2.063  0.7306 -0.1523 -0.4122
  896MPD2    C513131   1.705   4.016   2.115 -0.4916 -0.1831  0.9297
  896MPD2     H13132   1.704   3.905   1.754  1.2784 -0.4964 -1.0547
  896MPD2    H113133   1.505   3.954   2.129 -0.3166  1.1740 -1.4348
  896MPD2    H213134   1.907   4.081   2.072 -0.3555  1.7513  0.2986
  896MPD2    H313135   1.693   4.052   2.217 -2.2983  0.6323  0.4410
  896MPD2     N13136   1.476   3.881   1.852 -0.4759  0.2702  1.2325
  896MPD2    H513137   1.483   3.871   1.752  0.7628 -1.1460  1.4720
  896MPD2    N113138   1.938   3.998   1.831 -0.2145  0.0776 -0.4220
  896MPD2    H713139   2.026   4.014   1.879 -0.2996  0.3427 -0.3559
  897MPD2     C13140   3.080   0.918  10.355 -0.3545 -0.0199 -0.2809
  897MPD2    C113141   3.003   1.028  10.338  0.4590 -0.0046  0.2901
  897MPD2    C213142   2.868   1.022  10.367  0.0188  0.8733  0.9558
  897MPD2    C313143   2.819   0.911  10.439  1.1640 -0.0651 -0.1519
  897MPD2    C413144   2.895   0.796  10.456 -0.0419 -0.3546 -0.2164
  897MPD2    C513145   3.022   0.805  10.417 -0.0749 -0.9584  0.2424
  897MPD2     H13146   2.807   1.111  10.358  0.0047  0.7819  0.2007
  897MPD2    H113147   2.866   0.709  10.515  3.2152 -2.6048 -1.9237
  897MPD2    H213148   3.185   0.922  10.328  0.2450  2.4343  2.3607
  897MPD2    H313149   3.089   0.726  10.449 -0.5717 -1.8635 -0.9594
  897MPD2     N13150   2.691   0.926  10.496  0.3833  0.3847  0.1092
  897MPD2    H513151   2.642   1.011  10.469  1.1821  1.4571  2.0490
  897MPD2    N113152   3.053   1.135  10.265 -0.1306  0.3058  0.0041
  897MPD2    H713153   3.138   1.112  10.214  0.4185 -0.3268  1.2116
  898MPD2     C13154   4.404   2.100   0.621 -0.2697 -0.0057  0.3644
  898MPD2    C113155   4.522   2.083   0.556 -0.2301  0.4128  0.3114
  898MPD2    C213156   4.566   2.182   0.466  0.0449 -0.5241  0.7678
  898MPD2    C313157   4.484   2.289   0.438  0.2064 -0.4836 -0.1548
  898MPD2    C413158   4.356   2.291   0.489  0.1840  0.3347 -0.2126
  898MPD2    C513159   4.328   2.210   0.592  0.9294  0.3025 -0.8374
  898MPD2     H13160   4.661   2.175   0.415 -0.9965 -1.2463 -1.0817
  898MPD2    H113161   4.273   2.347   0.448 -1.2987  0.8481  3.4939
  898MPD2    H213162   4.375   2.027   0.695  0.7388 -1.2336 -0.4456
  898MPD2    H313163   4.228   2.223   0.631  1.1235  1.6340 -0.7825
  898MPD2     N13164   4.529   2.374   0.336 -0.2327  0.2138 -0.7711
  898MPD2    H513165   4.609   2.350   0.278 -1.6547 -0.7661 -2.3013
  898MPD2    N113166   4.610   1.975   0.577  0.1372  0.3863  0.1832
  898MPD2    H713167   4.697   1.969   0.525 -0.4267  2.4720 -0.9966
  899MPD2     C13168   0.687   2.702  17.521 -0.6806 -1.1988  0.6613
  899MPD2    C113169   0.815   2.740  17.554  0.3140 -0.0281  0.3636
  899MPD2    C213170   0.867   2.696  17.676  0.3711 -0.0585  0.0245
  899MPD2    C313171   0.803   2.593   0.041  0.3987 -0.1822  0.2955
  899MPD2    C413172   0.688   2.538  17.681  1.0008  0.0911 -0.0162
  899MPD2    C513173   0.624   2.591  17.575 -0.0942  0.6681 -0.1456
  899MPD2     H13174   0.951   2.749   0.024 -2.8350  2.8471  2.6937
  899MPD2    H113175   0.638   2.455   0.035  1.3839  0.9236  1.8188
  899MPD2    H213176   0.636   2.750  17.438 -1.0262 -0.2161  1.4373
  899MPD2    H313177   0.528   2.553  17.542 -0.4981  0.3865  1.3326
  899MPD2     N13178   0.846   2.535   0.159  0.0958  0.1075  0.1514
  899MPD2    H513179   0.792   2.461   0.204  0.5865  0.0001  0.5683
  899MPD2    N113180   0.867   2.852  17.479  0.5907 -0.4240 -0.5049
  899MPD2    H713181   0.798   2.892  17.416  1.1648 -0.3438 -1.0763
  900MPD2     C13182   0.767   4.609  12.817  0.0993  0.0792  0.3943
  900MPD2    C113183   0.725   4.510  12.729 -0.1492 -0.2063 -0.3797
  900MPD2    C213184   0.602   4.527  12.669  0.3047 -0.5935 -0.8400
  900MPD2    C313185   0.529   4.645  12.692 -0.5814 -0.2961 -0.1242
  900MPD2    C413186   0.567   0.013  12.787  0.4707  0.1318  0.4400
  900MPD2    C513187   0.682   4.707  12.855 -0.2142  0.7073  0.7887
  900MPD2     H13188   0.573   4.445  12.604 -0.0788 -1.5408  0.5317
  900MPD2    H113189   0.512   0.099  12.822 -1.1027 -0.8219  0.3302
  900MPD2    H213190   0.866   4.609  12.861  0.0088  1.0011  0.6070
  900MPD2    H313191   0.703   0.065  12.924 -0.2636 -0.3720  2.0703
  900MPD2     N13192   0.400   4.651  12.633  0.6385  0.0382  0.8392
  900MPD2    H513193   0.370   4.563  12.591  0.2102 -0.4458  2.1556
  900MPD2    N113194   0.811   4.395  12.708 -0.4618  0.0786 -0.3524
  900MPD2    H713195   0.895   4.393  12.765 -1.4071 -1.3282  1.0244
  901MPD2     C13196   0.679   3.381  12.521  0.4118 -0.4015  0.3415
  901MPD2    C113197   0.806   3.382  12.575 -0.0118 -0.1050 -0.2182
  901MPD2    C213198   0.860   3.503  12.622  0.7636  0.3337 -1.0170
  901MPD2    C313199   0.795   3.621  12.601 -0.1144 -0.2129 -0.3897
  901MPD2    C413200   0.675   3.616  12.526  0.5038 -0.3093 -0.4010
  901MPD2    C513201   0.618   3.500  12.491 -0.1257  0.7879 -0.2155
  901MPD2     H13202   0.953   3.506  12.677 -0.8794 -2.2643  1.9044
  901MPD2    H113203   0.626   3.703  12.483 -1.2766 -1.0244  0.1602
  901MPD2    H213204   0.623   3.290  12.503  1.2794 -1.5856  3.6820
  901MPD2    H313205   0.518   3.507  12.450  0.5474 -0.3206 -2.0327
  901MPD2     N13206   0.855   3.743  12.651 -0.3006 -0.4646  0.0655
  901MPD2    H513207   0.945   3.732  12.697 -0.3532  1.0205  0.5220
  901MPD2    N113208   0.875   3.260  12.594  0.3314  0.0563  0.0745
  901MPD2    H713209   0.828   3.179  12.556 -1.1917  1.1817 -0.3956
  902MPD2     C13210   4.043   1.990  12.933 -0.2209  0.3978  0.1800
  902MPD2    C113211   3.958   2.011  12.826 -0.1087  0.4207 -0.2173
  902MPD2    C213212   3.924   1.909  12.745 -0.0551  0.0012  0.2306
  902MPD2    C313213   3.973   1.780  12.767  0.3870  0.4768 -0.0937
  902MPD2    C413214   4.043   1.757  12.883 -0.2656 -0.2078 -0.5380
  902MPD2    C513215   4.075   1.860  12.968 -0.1295  0.3402 -0.3660
  902MPD2     H13216   3.871   1.930  12.653  2.3650 -0.2768 -1.2071
  902MPD2    H113217   4.060   1.652  12.906  0.3069 -0.1137 -0.5491
  902MPD2    H213218   4.075   2.075  12.992  0.1495 -0.0005  0.5548
  902MPD2    H313219   4.141   1.840  13.052  0.6527  0.6450 -0.9109
  902MPD2     N13220   3.951   1.672  12.675 -0.3089  0.2566  0.1313
  902MPD2    H513221   3.993   1.584  12.701 -0.6784 -0.3820 -1.4206
  902MPD2    N113222   3.919   2.144  12.806  0.5167 -0.2318  0.2946
  902MPD2    H713223   3.941   2.214  12.877  0.6943  2.0818 -2.0593
  903MPD2     C13224   3.888   1.348  11.853  0.1528  0.1673  0.1966
  903MPD2    C113225   3.789   1.388  11.935 -0.0182  0.3448  0.3272
  903MPD2    C213226   3.666   1.423  11.881 -0.3409 -0.6081 -0.0302
  903MPD2    C313227   3.639   1.428  11.747  0.2241  0.2788 -0.6331
  903MPD2    C413228   3.745   1.388  11.663 -0.4031 -0.9936  0.3458
  903MPD2    C513229   3.864   1.352  11.717 -0.5627  0.1452  0.5991
  903MPD2     H13230   3.585   1.446  11.949 -0.3439  3.3307 -1.3702
  903MPD2    H113231   3.735   1.396  11.556 -1.7866 -1.2298  0.4556
  903MPD2    H213232   3.985   1.319  11.892  2.7343  3.5912 -3.6532
  903MPD2    H313233   3.940   1.326  11.645 -0.8960 -0.4037  0.4484
  903MPD2     N13234   3.513   1.478  11.706 -0.2360  0.7885  0.1836
  903MPD2    H513235   3.451   1.518  11.775 -0.1219 -0.1562  0.8320
  903MPD2    N113236   3.813   1.377  12.073 -0.4315 -0.2810 -0.6283
  903MPD2    H713237   3.904   1.336  12.095  1.0157  2.4433 -1.4995
  904MPD2     C13238   3.712   1.237  14.043 -0.0990 -0.4282  0.0331
  904MPD2    C113239   3.776   1.358  14.048 -0.3564 -0.0289  0.4996
  904MPD2    C213240   3.914   1.370  14.073  0.3222 -0.1770 -0.6237
  904MPD2    C313241   3.987   1.247  14.085  0.5070  0.4738  0.0152
  904MPD2    C413242   3.923   1.130  14.069 -0.5581  0.6242  0.6289
  904MPD2    C513243   3.789   1.126  14.053  0.4096 -0.1916 -0.0818
  904MPD2     H13244   3.968   1.464  14.073  0.6138 -0.3370  0.7519
  904MPD2    H113245   3.977   1.035  14.073 -0.0925  0.8879  0.6394
  904MPD2    H213246   3.612   1.217  14.006 -0.6551  0.6703  0.9349
  904MPD2    H313247   3.747   1.028  14.032 -0.6826  0.6486 -1.8256
  904MPD2     N13248   4.121   1.248  14.096  0.2448  0.4297  0.1998
  904MPD2    H513249   4.162   1.340  14.100 -0.0046  0.5609 -0.2901
  904MPD2    N113250   3.698   1.474  14.025 -0.1829 -0.2837 -0.4408
  904MPD2    H713251   3.600   1.458  14.006 -0.1670 -1.1436  0.2500
  905MPD2     C13252   3.574   1.393  13.429 -0.4696 -0.3186 -0.1216
  905MPD2    C113253   3.670   1.478  13.483 -0.2978 -0.7760  0.1683
  905MPD2    C213254   3.804   1.447  13.461 -0.4555 -0.4680 -0.1381
  905MPD2    C313255   3.837   1.345  13.375 -0.0531 -0.2386  0.7213
  905MPD2    C413256   3.741   1.261  13.316  0.0378 -0.3180  0.4105
  905MPD2    C513257   3.614   1.283  13.355  0.1696  0.2416  0.1212
  905MPD2     H13258   3.886   1.509  13.494 -3.3245  2.6248  1.1095
  905MPD2    H113259   3.763   1.177  13.251 -1.8916  0.2458 -1.0041
  905MPD2    H213260   3.468   1.404  13.450 -0.3850  0.7521 -0.2325
  905MPD2    H313261   3.535   1.230  13.301  0.0111 -0.1304  0.7218
  905MPD2     N13262   3.972   1.321  13.335 -0.2735  0.0163 -0.4099
  905MPD2    H513263   3.991   1.231  13.293 -1.1562 -0.6811  0.6918
  905MPD2    N113264   3.630   1.580  13.565 -0.8954 -0.1332  0.1027
  905MPD2    H713265   3.530   1.591  13.578 -1.0979 -0.8246 -0.8789
  906MPD2     C13266   1.470   1.289  11.181  0.1107  0.0062 -0.5419
  906MPD2    C113267   1.410   1.197  11.100 -0.3980 -0.0488  0.5203
  906MPD2    C213268   1.348   1.094  11.160  0.0855  0.7129 -0.9747
  906MPD2    C313269   1.352   1.074  11.292 -0.7624  0.6001 -0.5890
  906MPD2    C413270   1.422   1.159  11.372 -0.2109 -0.1774  0.3894
  906MPD2    C513271   1.484   1.264  11.317  0.5067 -0.7102 -0.3367
  906MPD2     H13272   1.297   1.018  11.102  1.6455 -1.0086 -0.1121
  906MPD2    H113273   1.444   1.128  11.473  0.3798 -2.4566 -0.4330
  906MPD2    H213274   1.505   1.384  11.143  0.1926  0.4243  0.5681
  906MPD2    H313275   1.536   1.339  11.377 -0.4466 -0.5865  0.3178
  906MPD2     N13276   1.280   0.964  11.343 -0.4669  0.5044 -0.4750
  906MPD2    H513277   1.223   0.912  11.278  0.5869 -2.5117  0.9947
  906MPD2    N113278   1.417   1.205  10.962  0.6097  0.3960  0.3084
  906MPD2    H713279   1.380   1.125  10.912  0.1616  0.7205  0.1239
  907MPD2     C13280   0.034   0.395  15.651  0.6632 -0.3418  0.4387
  907MPD2    C113281   0.075   0.262  15.660 -0.5554 -0.3546  0.1143
  907MPD2    C213282   0.142   0.216  15.774  0.1191  0.4173  0.3962
  907MPD2    C313283   0.157   0.302  15.879  0.0542  0.2352  0.1652
  907MPD2    C413284   0.115   0.435  15.866 -0.2273  0.3704 -0.5399
  907MPD2    C513285   0.055   0.480  15.755  0.6490 -0.4681 -0.0742
  907MPD2     H13286   0.183   0.115  15.778  0.6768  0.6522  0.6521
  907MPD2    H113287   0.143   0.508  15.941 -0.5865  0.8701 -0.8955
  907MPD2    H213288   4.714   0.429  15.558 -1.3715 -1.4697  0.9844
  907MPD2    H313289   0.024   0.584  15.746  0.5884 -0.5800 -1.2411
  907MPD2     N13290   0.231   0.257  15.995  0.3400  0.4351  0.7835
  907MPD2    H513291   0.252   0.158  15.997  2.5102  0.8578 -0.8025
  907MPD2    N113292   0.069   0.169  15.547  0.3009 -0.5540 -0.0059
  907MPD2    H713293   0.098   0.073  15.561  1.5451 -0.0396  0.9368
  908MPD2     C13294   2.746   1.033   9.572 -0.0494  0.8599  0.3898
  908MPD2    C113295   2.860   0.986   9.633 -0.4673 -0.9838 -0.5882
  908MPD2    C213296   2.937   1.078   9.692 -0.3196  0.7699  0.0236
  908MPD2    C313297   2.904   1.212   9.702  0.1602  0.2902  0.8779
  908MPD2    C413298   2.801   1.266   9.634 -0.0552  0.6084  0.1880
  908MPD2    C513299   2.723   1.171   9.565 -0.6366 -0.4987  0.4700
  908MPD2     H13300   3.029   1.033   9.727 -0.2077 -0.3793 -1.7605
  908MPD2    H113301   2.749   1.359   9.653  0.0765  0.4221  1.4737
  908MPD2    H213302   2.682   0.967   9.514 -0.8619  0.8816  1.2555
  908MPD2    H313303   2.638   1.210   9.511 -0.2739  1.3816  1.2928
  908MPD2     N13304   2.981   1.289   9.792 -0.3013 -0.3763  0.0697
  908MPD2    H513305   3.052   1.235   9.840  0.9401  0.2623 -1.0699
  908MPD2    N113306   2.904   0.851   9.639  0.5200 -0.4293 -0.5578
  908MPD2    H713307   2.988   0.830   9.693 -1.3441  1.2118  3.0047
  909MPD2     C13308   3.110   3.976  11.902  0.1913  0.3149 -0.2041
  909MPD2    C113309   3.158   4.100  11.870  0.2905  0.0069  0.3284
  909MPD2    C213310   3.108   4.202  11.944 -0.7120  0.0389 -0.4321
  909MPD2    C313311   3.027   4.191  12.057  0.4150 -0.0421 -0.4528
  909MPD2    C413312   2.995   4.065  12.094 -0.0842  0.2814  0.0734
  909MPD2    C513313   3.038   3.956  12.018  0.5502 -0.2127  0.8829
  909MPD2     H13314   3.145   4.298  11.909  0.3497 -0.8946 -1.8175
  909MPD2    H113315   2.934   4.033  12.178 -0.5628  1.1558  0.0567
  909MPD2    H213316   3.164   3.893  11.858  1.6554  0.9622  0.4007
  909MPD2    H313317   3.012   3.854  12.047 -0.0394 -0.3708 -0.2182
  909MPD2     N13318   2.969   4.301  12.114  0.2403  0.4979 -0.3112
  909MPD2    H513319   3.000   4.392  12.082  0.1087  0.6226 -0.0883
  909MPD2    N113320   3.251   4.123  11.762  0.1733  0.2359  0.5724
  909MPD2    H713321   3.262   4.219  11.732  2.9997 -0.6681 -1.2385
  910MPD2     C13322   3.984   0.696  15.578  0.4653  0.3851  0.8215
  910MPD2    C113323   4.049   0.586  15.523 -0.5349 -0.3994  0.0905
  910MPD2    C213324   4.051   0.565  15.383  0.0051 -0.1943 -0.1617
  910MPD2    C313325   3.954   0.623  15.308  0.2768 -0.0382  0.4303
  910MPD2    C413326   3.873   0.719  15.358 -0.1813 -0.7622 -0.3052
  910MPD2    C513327   3.895   0.753  15.493  0.1004  0.3768 -0.0754
  910MPD2     H13328   4.114   0.491  15.335  0.2853 -0.3153  0.3845
  910MPD2    H113329   3.802   0.774  15.298  1.2220  4.2110  2.5549
  910MPD2    H213330   3.987   0.717  15.684 -1.3724  2.1708  0.5000
  910MPD2    H313331   3.821   0.827  15.523  1.2153  1.9396 -1.1413
  910MPD2     N13332   3.939   0.598  15.168 -0.5782 -0.4403  0.2909
  910MPD2    H513333   3.865   0.644  15.116 -0.4896  0.7772  1.2547
  910MPD2    N113334   4.138   0.517  15.595  0.3819  0.6290  0.0419
  910MPD2    H713335   4.202   0.453  15.549  0.1975 -0.6468  1.5440
  911MPD2     C13336   2.590   1.662  16.752 -0.2255  0.2210 -0.1726
  911MPD2    C113337   2.504   1.603  16.663  0.0770 -0.0441 -0.5227
  911MPD2    C213338   2.405   1.681  16.603 -0.6534 -0.1684 -0.0296
  911MPD2    C313339   2.394   1.819  16.629 -0.3867 -0.3801 -0.1140
  911MPD2    C413340   2.488   1.877  16.711 -0.5397 -0.2701 -0.2710
  911MPD2    C513341   2.579   1.794  16.775  0.2436 -0.4774 -0.1684
  911MPD2     H13342   2.337   1.638  16.530 -1.6954  0.2624  0.6784
  911MPD2    H113343   2.479   1.982  16.736  1.3208 -0.7181  2.2550
  911MPD2    H213344   2.660   1.603  16.810  1.4709  2.3664 -0.0374
  911MPD2    H313345   2.646   1.839  16.848  2.1643 -1.4300 -1.3408
  911MPD2     N13346   2.287   1.894  16.573 -0.8962 -0.1806  0.3242
  911MPD2    H513347   2.226   1.838  16.515 -0.1803 -2.1619  1.4749
  911MPD2    N113348   2.519   1.465  16.652 -0.2330 -0.5086 -1.0247
  911MPD2    H713349   2.571   1.417  16.725 -2.3176  0.7732  1.2978
  912MPD2     C13350   1.990   1.809  15.943 -0.5706  0.1535  0.3418
  912MPD2    C113351   1.941   1.797  16.073 -0.4528  0.7387 -1.0386
  912MPD2    C213352   1.908   1.670  16.112  0.0176  0.1187 -0.2589
  912MPD2    C313353   1.929   1.559  16.024 -0.0562  0.7587 -0.5817
  912MPD2    C413354   1.991   1.584  15.902  0.7143 -0.3869 -0.2828
  912MPD2    C513355   2.020   1.705  15.861 -0.2141 -0.4806 -0.1224
  912MPD2     H13356   1.848   1.659  16.201 -1.5025  0.5160 -1.2342
  912MPD2    H113357   2.033   1.500  15.848 -1.0245 -1.9514  0.7859
  912MPD2    H213358   2.027   1.907  15.915  0.4552 -1.2998 -3.4338
  912MPD2    H313359   2.069   1.706  15.764  0.6130  1.8787  0.3261
  912MPD2     N13360   1.895   1.436  16.072 -0.6381  0.5208 -0.5274
  912MPD2    H513361   1.852   1.438  16.164  1.2171  2.0305  0.3003
  912MPD2    N113362   1.937   1.919  16.158 -0.0650  0.2852  0.7789
  912MPD2    H713363   1.956   2.011  16.119  1.8328  0.0817  1.2487
  913MPD2     C13364   2.997   2.360  10.717  0.2024 -0.3100 -0.4926
  913MPD2    C113365   3.046   2.479  10.770 -1.4561  0.3177 -0.0127
  913MPD2    C213366   3.060   2.584  10.682  0.5546 -0.0129 -0.3284
  913MPD2    C313367   3.011   2.581  10.555  0.6114 -0.6453  0.3243
  913MPD2    C413368   2.966   2.463  10.499  0.3227  0.2035  0.3997
  913MPD2    C513369   2.963   2.353  10.581  0.4072  0.3409  0.0635
  913MPD2     H13370   3.100   2.676  10.724  2.6047 -0.1441 -2.0244
  913MPD2    H113371   2.932   2.443  10.398 -1.4088  0.6492  0.9031
  913MPD2    H213372   2.984   2.277  10.785 -0.5956  0.0929 -0.1515
  913MPD2    H313373   2.929   2.255  10.550 -1.7893  1.4615 -1.1335
  913MPD2     N13374   3.004   2.699  10.468 -0.1822  0.2077  0.1374
  913MPD2    H513375   2.972   2.688  10.372 -0.4915 -0.2275  0.2917
  913MPD2    N113376   3.068   2.482  10.906  0.4364 -0.0707  0.0025
  913MPD2    H713377   3.028   2.411  10.967 -1.1498  1.2504  0.5167
  914MPD2     C13378   0.884   2.732  11.925  0.4801  0.2474  0.1947
  914MPD2    C113379   0.824   2.848  11.964  0.5495  0.5046  0.2476
  914MPD2    C213380   0.846   2.889  12.094 -0.2972  0.0081 -0.2614
  914MPD2    C313381   0.918   2.815  12.188  0.2344 -0.0352  0.2446
  914MPD2    C413382   0.972   2.690  12.149 -0.1483 -0.5953  0.0465
  914MPD2    C513383   0.965   2.660  12.014 -0.0718  0.4873  0.3458
  914MPD2     H13384   0.788   2.976  12.124 -0.0477  0.6824 -1.6977
  914MPD2    H113385   1.034   2.632  12.215  1.8467  1.1271 -0.3188
  914MPD2    H213386   0.883   2.692  11.825  0.5068  0.6249  0.0431
  914MPD2    H313387   1.012   2.571  11.975  0.3383  0.6448  0.4802
  914MPD2     N13388   0.916   2.863  12.319  0.3170 -0.0231  0.2709
  914MPD2    H513389   0.862   2.946  12.339  1.0301  1.0258 -2.1700
  914MPD2    N113390   0.753   2.924  11.869  0.0286  0.0912  0.3122
  914MPD2    H713391   0.745   2.874  11.781  1.7432 -1.2099  0.9092
  915MPD2     C13392   3.695   2.895  15.515  0.8386  0.2519  0.0456
  915MPD2    C113393   3.557   2.889  15.528  0.3470  0.3175 -0.8691
  915MPD2    C213394   3.502   2.910  15.650 -0.5286  0.3447 -0.1217
  915MPD2    C313395   3.588   2.936  15.757 -0.4204 -0.2875 -0.8571
  915MPD2    C413396   3.727   2.938  15.750  0.1250 -0.2809 -0.9490
  915MPD2    C513397   3.779   2.921  15.623  0.1763  0.0030 -0.3869
  915MPD2     H13398   3.394   2.902  15.657 -0.5918  0.3973 -1.0085
  915MPD2    H113399   3.792   2.961  15.834 -2.4218  1.4102  0.5810
  915MPD2    H213400   3.742   2.881  15.418  0.6619  0.7378 -0.1133
  915MPD2    H313401   3.882   2.936  15.593  0.0896  2.0580  0.3452
  915MPD2     N13402   3.516   2.960  15.882 -0.5372 -0.9289  0.4690
  915MPD2    H513403   3.415   2.961  15.870 -0.4857 -1.5825 -0.0086
  915MPD2    N113404   3.481   2.845  15.412  0.5501 -0.0435 -0.5711
  915MPD2    H713405   3.532   2.834  15.325  1.8233 -0.6140  0.2542
  916MPD2     C13406   1.508   1.433  16.013 -0.5828 -0.3878 -0.2411
  916MPD2    C113407   1.459   1.312  16.061 -0.0017  0.7116 -0.0307
  916MPD2    C213408   1.504   1.199  15.992 -0.6505  0.0256  0.0170
  916MPD2    C313409   1.595   1.207  15.882  0.0839 -0.3760 -0.0997
  916MPD2    C413410   1.637   1.329  15.843  0.4455  0.0214 -0.0309
  916MPD2    C513411   1.595   1.440  15.906 -0.0088 -0.5878 -0.8232
  916MPD2     H13412   1.471   1.101  16.022  1.2770 -0.6812 -0.1385
  916MPD2    H113413   1.705   1.349  15.762 -0.4967 -1.1883 -1.1268
  916MPD2    H213414   1.471   1.532  16.041  0.9023  0.1305 -0.1188
  916MPD2    H313415   1.631   1.537  15.872 -3.0277  0.1154 -2.0291
  916MPD2     N13416   1.629   1.088  15.818 -0.2355  0.2331 -0.3321
  916MPD2    H513417   1.571   1.006  15.834 -0.3340  1.0246  3.1573
  916MPD2    N113418   1.361   1.317  16.165  0.1799  0.3497 -0.5384
  916MPD2    H713419   1.334   1.407  16.204  0.0631 -0.2188  0.7228
  917MPD2     C13420   2.119   3.566  10.966  0.5261  0.2559 -0.3353
  917MPD2    C113421   2.195   3.584  11.082 -0.2321 -0.6101 -0.5808
  917MPD2    C213422   2.312   3.666  11.070 -0.3072  0.0324  0.2842
  917MPD2    C313423   2.345   3.729  10.951  0.2430  0.8591  0.8203
  917MPD2    C413424   2.262   3.709  10.843 -0.4955  0.0610  0.5923
  917MPD2    C513425   2.145   3.635  10.852 -0.5181 -0.0926 -0.2363
  917MPD2     H13426   2.369   3.683  11.161 -0.1283  1.1842 -0.0434
  917MPD2    H113427   2.269   3.750  10.743  1.9855 -1.6669  0.0666
  917MPD2    H213428   2.028   3.507  10.974  1.2481 -0.6553  1.1482
  917MPD2    H313429   2.087   3.615  10.763 -3.2732  0.8144  1.3636
  917MPD2     N13430   2.457   3.821  10.959  0.6151  0.0800  0.0201
  917MPD2    H513431   2.458   3.887  10.881  2.4266 -1.3855 -1.1944
  917MPD2    N113432   2.151   3.525  11.202  0.5290  0.1405  0.2731
  917MPD2    H713433   2.063   3.474  11.202  0.3847  0.4029 -2.0548
  918MPD2     C13434   2.018   4.086  11.822  0.4333  0.4254 -0.2070
  918MPD2    C113435   2.133   4.017  11.854  1.1653  0.4131  0.2214
  918MPD2    C213436   2.134   3.886  11.818  0.0056 -0.3655  0.0229
  918MPD2    C313437   2.022   3.828  11.757  0.5204 -0.1588  0.2458
  918MPD2    C413438   1.905   3.899  11.715  0.1738  0.0602  0.7751
  918MPD2    C513439   1.909   4.028  11.754  0.2360  0.3327 -0.1217
  918MPD2     H13440   2.218   3.823  11.847 -0.7901 -2.1538 -1.5024
  918MPD2    H113441   1.822   3.860  11.658  2.0119  0.3072 -2.0614
  918MPD2    H213442   2.003   4.188  11.856 -0.4749  0.1867  0.1071
  918MPD2    H313443   1.818   4.078  11.725  1.0143  1.3659 -0.7826
  918MPD2     N13444   2.045   3.691  11.734  0.3420  0.2596 -0.7341
  918MPD2    H513445   2.139   3.660  11.756  0.7864  3.0787  1.3185
  918MPD2    N113446   2.244   4.074  11.924  0.5217  0.9059  0.0905
  918MPD2    H713447   2.319   4.012  11.953 -1.0423 -0.4996  1.0890
  919MPD2     C13448   2.775   2.640  11.723  0.1972 -0.3418 -0.3029
  919MPD2    C113449   2.708   2.535  11.657 -0.5323 -0.1916 -0.2228
  919MPD2    C213450   2.691   2.531  11.515 -0.6288 -0.1024  0.1629
  919MPD2    C313451   2.735   2.639  11.444  0.6551 -0.0718  0.6823
  919MPD2    C413452   2.800   2.736  11.510 -0.6399  1.5200 -0.1987
  919MPD2    C513453   2.828   2.740  11.644 -0.6920 -0.6059  0.1279
  919MPD2     H13454   2.638   2.450  11.466  0.9639  0.1937 -2.0317
  919MPD2    H113455   2.830   2.827  11.461  1.6780  0.4482 -0.7707
  919MPD2    H213456   2.776   2.642  11.831 -0.0556 -1.9782 -0.2701
  919MPD2    H313457   2.862   2.830  11.695  0.2216 -1.6526  1.3633
  919MPD2     N13458   2.716   2.660  11.306  0.0579 -0.3388 -0.3674
  919MPD2    H513459   2.730   2.753  11.270  1.1742  0.4123  2.0057
  919MPD2    N113460   2.644   2.431  11.728 -0.2782 -0.0119 -0.7961
  919MPD2    H713461   2.623   2.354  11.667 -0.4078 -1.3719  0.9692
  920MPD2     C13462   2.619   3.136  10.454  0.7073  0.3684  0.1348
  920MPD2    C113463   2.579   3.009  10.417  0.4718 -0.7029 -0.4024
  920MPD2    C213464   2.630   2.902  10.494 -0.3033  0.1976  0.0025
  920MPD2    C313465   2.715   2.918  10.602  0.1995  0.6319 -1.0291
  920MPD2    C413466   2.767   3.045  10.628 -0.6468  0.2226  0.2794
  920MPD2    C513467   2.715   3.149  10.559  0.3693 -0.7104  0.5120
  920MPD2     H13468   2.608   2.799  10.468  0.8180 -0.5177  1.9732
  920MPD2    H113469   2.837   3.054  10.710  1.7487  0.1378 -1.7417
  920MPD2    H213470   2.578   3.222  10.402 -1.3278 -0.1446  0.8685
  920MPD2    H313471   2.740   3.245  10.602  0.1662  0.0848 -1.1851
  920MPD2     N13472   2.745   2.803  10.676 -0.0884  0.6698 -0.1204
  920MPD2    H513473   2.720   2.712  10.639 -2.0614  1.3358 -0.4243
  920MPD2    N113474   2.501   2.976  10.300 -0.1699  0.8480 -0.0231
  920MPD2    H713475   2.478   2.877  10.293 -0.9660  1.0154  0.1605
  921MPD2     C13476   3.009   1.498  16.935 -0.6620 -0.2027  0.4098
  921MPD2    C113477   3.031   1.411  16.826 -0.0231  0.5013 -0.1772
  921MPD2    C213478   2.945   1.303  16.807  0.2193  0.3239 -0.3120
  921MPD2    C313479   2.820   1.297  16.867  0.3834 -0.0617  0.5880
  921MPD2    C413480   2.796   1.401  16.955 -0.3104 -0.1321  0.8451
  921MPD2    C513481   2.891   1.491  16.995 -0.4277 -0.0417  0.1136
  921MPD2     H13482   2.971   1.228  16.734 -0.2572  0.1365 -0.2897
  921MPD2    H113483   2.701   1.397  17.007 -0.0437  3.1499  1.5409
  921MPD2    H213484   3.083   1.573  16.961 -2.2009  1.6473 -0.4927
  921MPD2    H313485   2.858   1.566  17.066  0.5774  0.2664  0.2555
  921MPD2     N13486   2.728   1.199  16.847  0.0746  0.5319  0.6419
  921MPD2    H513487   2.644   1.211  16.903 -1.1015 -0.7104 -0.8859
  921MPD2    N113488   3.157   1.420  16.763  0.5542 -0.1295 -0.2012
  921MPD2    H713489   3.198   1.512  16.770 -0.2449  0.2116  0.0128
  922MPD2     C13490   4.071   3.697  17.197  1.3157  0.0666  0.4943
  922MPD2    C113491   4.068   3.832  17.198  0.4989  0.7853  0.5682
  922MPD2    C213492   4.002   3.887  17.306  0.0336  0.0180 -0.0250
  922MPD2    C313493   3.917   3.811  17.389 -0.1628 -0.4963  0.0616
  922MPD2    C413494   3.910   3.672  17.375  0.3341  0.1551  0.7177
  922MPD2    C513495   3.990   3.617  17.275 -0.5147  0.0802 -0.6175
  922MPD2     H13496   4.009   3.994  17.321 -0.7411  0.3813 -2.2170
  922MPD2    H113497   3.844   3.602  17.424 -0.0631 -1.1534 -1.6688
  922MPD2    H213498   4.125   3.646  17.118  2.0345 -0.2504  1.1917
  922MPD2    H313499   4.001   3.510  17.259 -2.4674 -0.4642  1.6751
  922MPD2     N13500   3.861   3.880  17.501  0.2201  0.1669  0.2507
  922MPD2    H513501   3.874   3.981  17.504 -1.0782  0.4081 -1.7143
  922MPD2    N113502   4.145   3.920  17.118 -0.0679  0.0289  0.0345
  922MPD2    H713503   4.131   4.017  17.146 -1.1383  0.2678 -1.2973
  923MPD2     C13504   0.760   0.960   8.798 -0.2209  0.2704 -0.7678
  923MPD2    C113505   0.774   1.086   8.849  0.8509  0.9070 -0.9807
  923MPD2    C213506   0.848   1.107   8.964  0.2574 -0.3473 -0.6857
  923MPD2    C313507   0.892   0.998   9.037 -0.0190  0.7832  0.5283
  923MPD2    C413508   0.883   0.870   8.983  0.1950  0.2319 -0.0291
  923MPD2    C513509   0.817   0.857   8.862  1.0397 -0.0254 -0.4438
  923MPD2     H13510   0.878   1.205   9.001 -1.2497  0.0597 -0.5318
  923MPD2    H113511   0.917   0.779   9.033 -0.6884 -0.0753  0.0166
  923MPD2    H213512   0.698   0.941   8.711 -2.4891  0.1152  0.8838
  923MPD2    H313513   0.810   0.752   8.834  1.8767  0.0198 -0.8312
  923MPD2     N13514   0.966   1.017   9.161 -0.0219  0.3377 -0.2920
  923MPD2    H513515   1.008   0.933   9.201  2.0747  0.3355 -2.5410
  923MPD2    N113516   0.707   1.192   8.778  0.2873  0.3326  0.2107
  923MPD2    H713517   0.679   1.177   8.682 -0.1492  0.1431  0.3659
  924MPD2     C13518   0.538   4.241  16.003  0.1172 -0.3723  0.5852
  924MPD2    C113519   0.498   4.278  16.127  0.1962  0.3939  0.2729
  924MPD2    C213520   0.514   4.410  16.168 -0.3636 -0.4827 -0.4141
  924MPD2    C313521   0.560   4.510  16.084  0.2693 -0.2351  0.2807
  924MPD2    C413522   0.594   4.469  15.956 -0.5863  0.0991  0.0296
  924MPD2    C513523   0.595   4.338  15.922 -0.6319  1.1811  0.3525
  924MPD2     H13524   0.484   4.431  16.270 -1.7212 -0.3860 -0.8436
  924MPD2    H113525   0.639   4.539  15.886 -0.6830  0.1116 -0.0195
  924MPD2    H213526   0.520   4.139  15.971 -1.5521  0.2595 -0.5244
  924MPD2    H313527   0.634   4.316  15.823 -0.0844  0.4771  0.7305
  924MPD2     N13528   0.558   4.650  16.114 -0.0038  0.2284 -0.2674
  924MPD2    H513529   0.574   4.713  16.036  1.4344 -0.3693 -0.4648
  924MPD2    N113530   0.443   4.172  16.203  0.0407  0.3754 -0.1998
  924MPD2    H713531   0.426   4.083  16.157 -1.1936  0.6618 -0.3101
  925MPD2     C13532   4.338   1.819  14.541  0.9338  0.3012  0.2818
  925MPD2    C113533   4.247   1.921  14.578  0.3189 -1.1275 -0.1846
  925MPD2    C213534   4.183   1.911  14.703 -0.4766  0.0138 -0.2789
  925MPD2    C313535   4.192   1.794  14.782 -0.5737 -0.7653 -0.0376
  925MPD2    C413536   4.277   1.698  14.744 -0.4041 -0.0670 -0.1336
  925MPD2    C513537   4.355   1.719  14.634  0.6262  0.4513  0.2569
  925MPD2     H13538   4.114   1.990  14.731 -1.7725 -1.1659 -0.1289
  925MPD2    H113539   4.292   1.611  14.807 -3.2121  0.6216  1.4893
  925MPD2    H213540   4.379   1.821  14.441 -0.7859  0.6815 -0.4160
  925MPD2    H313541   4.441   1.653  14.623  1.5241  2.1398 -2.7321
  925MPD2     N13542   4.120   1.779  14.902  0.5594  0.2321  0.2694
  925MPD2    H513543   4.104   1.685  14.937 -1.8403  1.0797  1.4733
  925MPD2    N113544   4.213   2.029  14.493  0.2704  0.7275  0.0472
  925MPD2    H713545   4.140   2.094  14.518 -0.5835  0.5672 -2.0300
  926MPD2     C13546   2.544   0.710  13.618 -0.0777  0.0532  0.5701
  926MPD2    C113547   2.463   0.825  13.597  0.0048  0.4382 -1.0436
  926MPD2    C213548   2.513   0.915  13.502  0.0496  0.3054  0.2382
  926MPD2    C313549   2.629   0.890  13.426 -0.5791  0.4098 -0.4162
  926MPD2    C413550   2.696   0.772  13.444  0.6557 -0.3382 -0.4586
  926MPD2    C513551   2.657   0.690  13.544  0.1859  0.1950 -0.1368
  926MPD2     H13552   2.452   1.000  13.473  0.8858  0.7606 -0.1591
  926MPD2    H113553   2.786   0.735  13.396  1.1008 -0.8077  0.7235
  926MPD2    H213554   2.507   0.640  13.693 -0.0402 -1.1174 -0.4932
  926MPD2    H313555   2.709   0.598  13.567 -0.0413  0.2978  0.7980
  926MPD2     N13556   2.686   0.981  13.332  0.0125  0.2938 -0.0233
  926MPD2    H513557   2.773   0.950  13.290  1.2133 -0.4150  3.0076
  926MPD2    N113558   2.335   0.853  13.655 -0.3389  0.1936 -0.1809
  926MPD2    H713559   2.288   0.941  13.632  0.1643  0.3558 -0.6034
  927MPD2     C13560   2.490   3.040  17.400  0.0634  0.2488  0.3728
  927MPD2    C113561   2.499   2.966  17.517 -0.4108  0.0971  0.5797
  927MPD2    C213562   2.561   2.844  17.516  0.7013  0.1681 -0.8865
  927MPD2    C313563   2.628   2.808  17.401  0.4184  0.1415  0.0917
  927MPD2    C413564   2.624   2.885  17.285  0.1427 -0.3800 -0.0900
  927MPD2    C513565   2.557   3.009  17.289  0.1375 -0.2694 -0.2658
  927MPD2     H13566   2.575   2.783  17.605 -1.5797  0.1284 -0.5613
  927MPD2    H113567   2.674   2.857  17.193  0.3691  0.9026 -0.3566
  927MPD2    H213568   2.435   3.133  17.401 -0.1599  0.0684  4.1143
  927MPD2    H313569   2.558   3.066  17.197  1.0507  1.0786  0.5792
  927MPD2     N13570   2.701   2.689  17.418  0.2875  0.7768  0.3117
  927MPD2    H513571   2.704   2.649  17.511  0.4001  0.1894  0.0535
  927MPD2    N113572   2.431   3.016  17.637 -0.5199  0.2508 -0.4910
  927MPD2    H713573   2.372   3.097  17.621 -0.4167  0.5405  0.6249
  928MPD2     C13574   0.705   1.801   1.228 -0.1275 -0.3134  0.2692
  928MPD2    C113575   0.827   1.738   1.253 -0.5992 -0.5133 -0.0694
  928MPD2    C213576   0.916   1.706   1.152  0.1482 -0.1467 -0.1080
  928MPD2    C313577   0.885   1.728   1.022 -0.7694  0.5961 -0.1751
  928MPD2    C413578   0.759   1.787   0.994 -0.8722 -0.2184  0.9949
  928MPD2    C513579   0.673   1.819   1.099 -0.1198 -0.0367 -1.4516
  928MPD2     H13580   1.017   1.671   1.172  0.1862  0.7260  1.1869
  928MPD2    H113581   0.720   1.820   0.898  0.0607 -1.9672  0.0167
  928MPD2    H213582   0.633   1.819   1.307 -0.0230 -0.7020  0.4495
  928MPD2    H313583   0.578   1.863   1.069 -0.3136 -0.4284 -1.4056
  928MPD2     N13584   0.970   1.708   0.909 -0.1644 -0.1341  0.0871
  928MPD2    H513585   0.932   1.732   0.818 -3.0174  0.0471  1.3307
  928MPD2    N113586   0.860   1.720   1.387 -0.3942  0.3073 -0.0862
  928MPD2    H713587   0.781   1.742   1.446 -0.3522 -0.6511  0.3353
  929MPD2     C13588   1.033   1.176  10.377  0.0172 -0.7700  0.5472
  929MPD2    C113589   0.921   1.105  10.343 -0.2205  0.3644 -0.3208
  929MPD2    C213590   0.862   1.129  10.221 -0.4097 -0.2307 -0.4721
  929MPD2    C313591   0.932   1.217  10.130  0.4187  0.3469  0.0397
  929MPD2    C413592   1.053   1.274  10.167  0.2508 -0.3027 -0.5890
  929MPD2    C513593   1.102   1.250  10.288 -0.6527 -0.4964  0.4397
  929MPD2     H13594   0.774   1.077  10.185  1.2762 -3.4034  0.0550
  929MPD2    H113595   1.107   1.333  10.095 -0.9200 -0.0783 -1.2831
  929MPD2    H213596   1.074   1.160  10.476  2.2414 -1.6306 -0.5061
  929MPD2    H313597   1.194   1.302  10.312 -0.8362  0.1673 -0.3377
  929MPD2     N13598   0.872   1.273  10.016  0.3313 -0.3018 -0.2746
  929MPD2    H513599   0.921   1.352   9.974  1.2339 -1.5284 -1.5208
  929MPD2    N113600   0.867   1.029  10.447 -0.9442 -0.3449  0.6167
  929MPD2    H713601   0.914   1.034  10.537  0.3692 -1.3639 -0.0169
  930MPD2     C13602   2.621   3.610  14.399 -0.6507 -0.0786 -0.2052
  930MPD2    C113603   2.524   3.678  14.331 -0.2637  0.2012 -0.2269
  930MPD2    C213604   2.404   3.605  14.307  0.2046 -0.1682 -0.2667
  930MPD2    C313605   2.386   3.474  14.337 -0.3700  0.1458  0.6916
  930MPD2    C413606   2.495   3.408  14.404  0.1316 -0.9021  0.6967
  930MPD2    C513607   2.609   3.483  14.449  0.1069  0.4561  0.3201
  930MPD2     H13608   2.318   3.649  14.259 -0.7570 -0.6050  1.0739
  930MPD2    H113609   2.487   3.307  14.441 -0.8814 -0.8112  0.7189
  930MPD2    H213610   2.720   3.651  14.417  0.2336 -1.3838 -2.1591
  930MPD2    H313611   2.695   3.430  14.490  0.8873  0.6676 -1.0336
  930MPD2     N13612   2.274   3.394  14.303  0.1644 -0.4370  0.6238
  930MPD2    H513613   2.286   3.295  14.320 -1.2647 -0.3106  2.4079
  930MPD2    N113614   2.543   3.803  14.279 -0.0365  0.1583 -0.2588
  930MPD2    H713615   2.633   3.846  14.299  0.5036 -1.7612  1.4745
  931MPD2     C13616   2.705   2.695   0.444 -0.5926  0.5069  0.0733
  931MPD2    C113617   2.615   2.770   0.518  0.1623  0.2811 -0.5236
  931MPD2    C213618   2.632   2.780   0.659  0.4332  0.6275 -1.0086
  931MPD2    C313619   2.760   2.746   0.710 -0.5437  0.0106  0.7839
  931MPD2    C413620   2.846   2.669   0.636  0.0181 -0.1212 -0.4634
  931MPD2    C513621   2.815   2.635   0.505 -0.3841  0.1512 -0.0657
  931MPD2     H13622   2.568   2.840   0.723  0.7910  0.3327 -0.3689
  931MPD2    H113623   2.935   2.628   0.681 -0.3991 -0.4946  0.0284
  931MPD2    H213624   2.687   2.672   0.339 -2.1542 -2.8201  1.0528
  931MPD2    H313625   2.876   2.568   0.444  1.7286  1.6022  0.4453
  931MPD2     N13626   2.794   2.752   0.848  0.5309  0.0764 -0.6115
  931MPD2    H513627   2.875   2.702   0.883 -1.1209 -3.4942 -1.9621
  931MPD2    N113628   2.505   2.825   0.448  0.3606  0.1143 -0.1533
  931MPD2    H713629   2.514   2.829   0.347  0.1911  2.2846 -0.0797
  932MPD2     C13630   4.502   1.844  11.382 -0.0205 -0.3015  1.3716
  932MPD2    C113631   4.590   1.916  11.454  0.0586  0.2506  0.2832
  932MPD2    C213632   4.645   1.859  11.566 -0.2269 -0.4387 -0.3930
  932MPD2    C313633   4.607   1.727  11.608 -0.4428  0.4808 -0.0491
  932MPD2    C413634   4.512   1.657  11.529  1.1250  0.4224  0.8739
  932MPD2    C513635   4.472   1.717  11.418  0.0286  0.3742  0.2194
  932MPD2     H13636   4.721   1.918  11.615 -0.3057  0.7029 -1.6423
  932MPD2    H113637   4.475   1.560  11.558 -0.1945 -0.1673 -2.7069
  932MPD2    H213638   4.448   1.890  11.300 -1.7227  0.4467  2.9090
  932MPD2    H313639   4.389   1.673  11.364  2.1175 -1.1319 -1.7296
  932MPD2     N13640   4.640   1.670  11.730 -0.4070  0.5702  0.4484
  932MPD2    H513641   4.619   1.572  11.747  1.1369  0.2137  0.2930
  932MPD2    N113642   4.638   2.045  11.419  0.4579 -0.2056  0.0918
  932MPD2    H713643   4.700   2.094  11.483  1.1460  2.5434 -2.6866
  933MPD2     C13644   0.527   1.587   2.119 -0.1104  0.4629 -0.1393
  933MPD2    C113645   0.553   1.670   2.010 -0.1929  0.0127 -0.3666
  933MPD2    C213646   0.485   1.794   1.998  0.8135  0.3664  0.1911
  933MPD2    C313647   0.387   1.827   2.091 -0.2858  0.9826  0.1957
  933MPD2    C413648   0.362   1.742   2.198 -0.4348  0.3606 -0.6694
  933MPD2    C513649   0.432   1.628   2.208  0.3253  0.3468 -0.0133
  933MPD2     H13650   0.504   1.859   1.914 -0.0848  2.3254  1.5139
  933MPD2    H113651   0.287   1.771   2.271 -2.2735  1.1460 -2.8434
  933MPD2    H213652   0.572   1.490   2.136 -1.7603 -0.4398 -0.8803
  933MPD2    H313653   0.403   1.558   2.285 -2.4613  1.7454  0.1981
  933MPD2     N13654   0.322   1.949   2.074 -0.1491 -0.3742  0.2774
  933MPD2    H513655   0.336   1.998   1.987  1.3464 -0.9748  0.1739
  933MPD2    N113656   0.665   1.637   1.934 -0.6448  0.1649  0.3684
  933MPD2    H713657   0.694   1.541   1.947 -0.4391  0.1045 -0.5437
  934MPD2     C13658   1.227   3.511   2.140  0.1056  0.3683 -0.1190
  934MPD2    C113659   1.356   3.467   2.111 -0.3178  0.4080 -0.5567
  934MPD2    C213660   1.371   3.360   2.020  0.0288 -0.4639 -0.1335
  934MPD2    C313661   1.267   3.296   1.962 -0.2507  0.2994  0.5886
  934MPD2    C413662   1.142   3.333   2.004 -0.2478  0.5930  0.0120
  934MPD2    C513663   1.126   3.437   2.088  0.2735  0.1331  0.1900
  934MPD2     H13664   1.473   3.334   1.994  0.0922  0.9737 -1.3082
  934MPD2    H113665   1.046   3.297   1.967 -0.1563 -2.5682  2.8001
  934MPD2    H213666   1.205   3.601   2.195 -0.6827  0.6284 -0.8665
  934MPD2    H313667   1.023   3.466   2.105 -0.0966 -1.9741  1.6379
  934MPD2     N13668   1.279   3.206   1.851  0.8219  0.2821 -0.4221
  934MPD2    H513669   1.194   3.163   1.817  0.6911  0.1370  0.0873
  934MPD2    N113670   1.476   3.525   2.157  0.8640  0.0559  0.1456
  934MPD2    H713671   1.562   3.489   2.117 -0.1991 -1.9896 -0.2928
  935MPD2     C13672   2.072   2.834   1.280 -0.2227  0.1044  0.2369
  935MPD2    C113673   1.956   2.802   1.214  0.2117  0.1138  0.0353
  935MPD2    C213674   1.835   2.850   1.267 -0.2016 -0.3326  0.0658
  935MPD2    C313675   1.836   2.935   1.381  0.4945  0.7744 -1.1361
  935MPD2    C413676   1.955   2.981   1.432  0.4227  0.0853 -0.5930
  935MPD2    C513677   2.066   2.922   1.384  0.5244 -0.2136 -0.6386
  935MPD2     H13678   1.741   2.828   1.218 -0.0241 -0.6915 -0.1088
  935MPD2    H113679   1.976   3.040   1.521 -0.2229  1.1871 -1.1820
  935MPD2    H213680   2.170   2.805   1.243 -0.3353  1.6709 -1.3409
  935MPD2    H313681   2.154   2.978   1.414 -1.8262  2.3250  1.5613
  935MPD2     N13682   1.717   2.999   1.430  0.2534 -0.3039  0.0602
  935MPD2    H513683   1.724   3.060   1.511  0.2716 -0.3434  0.0890
  935MPD2    N113684   1.939   2.713   1.106  0.4739  0.1802  0.1213
  935MPD2    H713685   1.846   2.711   1.064  1.0869  0.4530 -1.2463
  936MPD2     C13686   4.504   0.997  12.336  0.6444  0.2107 -0.2984
  936MPD2    C113687   4.543   0.920  12.445  0.4711  0.0761 -0.0985
  936MPD2    C213688   4.675   0.884  12.464 -0.3876  0.8758  0.1499
  936MPD2    C313689   0.049   0.931  12.377 -0.1137  0.2534  0.1187
  936MPD2    C413690   0.005   1.009  12.267 -0.0297 -0.2670  0.2288
  936MPD2    C513691   4.597   1.033  12.245  0.2676  0.1488  0.1782
  936MPD2     H13692   4.696   0.810  12.541 -1.4315  1.2704  0.8143
  936MPD2    H113693   0.074   1.043  12.190  0.1752  1.9763  1.3865
  936MPD2    H213694   4.404   1.033  12.316 -0.0320 -0.9077  1.0048
  936MPD2    H313695   4.561   1.071  12.150  0.8922 -0.5225 -0.3276
  936MPD2     N13696   0.184   0.905  12.395  0.2210 -0.4201  0.2630
  936MPD2    H513697   0.245   0.973  12.351 -0.0322 -0.4589 -0.1374
  936MPD2    N113698   4.464   0.885  12.550 -0.3922 -0.2042  0.9668
  936MPD2    H713699   4.512   0.831  12.622 -0.5563  0.8734  1.8790
  937MPD2     C13700   2.727   1.735  11.576 -0.6860  0.2395  0.2618
  937MPD2    C113701   2.753   1.867  11.579 -0.0659  0.0892 -0.9225
  937MPD2    C213702   2.814   1.920  11.468  0.2952  0.4379 -0.4120
  937MPD2    C313703   2.881   1.830  11.378 -0.0175 -0.6788  0.3198
  937MPD2    C413704   2.874   1.695  11.389 -0.0083  0.4647 -0.3709
  937MPD2    C513705   2.797   1.654  11.492  0.5728 -0.1845 -0.3088
  937MPD2     H13706   2.815   2.027  11.450 -1.8652  0.3428 -1.1307
  937MPD2    H113707   2.925   1.623  11.327  1.2649  1.4299 -0.4483
  937MPD2    H213708   2.670   1.685  11.653 -0.9114 -1.3594 -0.9624
  937MPD2    H313709   2.780   1.547  11.494  1.3776 -0.2540  1.8892
  937MPD2     N13710   2.958   1.894  11.284  0.0305 -0.1709 -1.0347
  937MPD2    H513711   2.961   1.996  11.282 -1.2442 -0.1474 -1.8026
  937MPD2    N113712   2.689   1.952  11.673  0.2581  0.1320 -0.2868
  937MPD2    H713713   2.693   2.049  11.643  3.0128  0.3700  0.8247
  938MPD2     C13714   1.075   3.232   0.434  0.1923  0.0994 -0.5376
  938MPD2    C113715   1.089   3.254   0.572 -0.0345  0.0140 -0.5403
  938MPD2    C213716   1.000   3.191   0.660  0.3506 -0.0084 -0.0087
  938MPD2    C313717   0.882   3.134   0.617  0.7333  0.5189  0.2738
  938MPD2    C413718   0.856   3.148   0.482  0.1244 -0.9730 -0.4427
  938MPD2    C513719   0.949   3.198   0.395 -0.2011 -0.1707 -0.5592
  938MPD2     H13720   1.016   3.176   0.766  0.5475 -0.8972 -0.1595
  938MPD2    H113721   0.769   3.098   0.442 -0.4427 -1.4557  1.3610
  938MPD2    H213722   1.147   3.268   0.361  0.6930  1.1116  0.4651
  938MPD2    H313723   0.934   3.185   0.288  2.4880 -0.0633 -0.9402
  938MPD2     N13724   0.794   3.060   0.690  0.0736  0.3701 -0.0276
  938MPD2    H513725   0.741   2.995   0.633 -0.0420  0.9075 -0.5344
  938MPD2    N113726   1.208   3.297   0.630 -0.2995 -0.0479 -0.0136
  938MPD2    H713727   1.213   3.279   0.730 -0.1892 -3.0390 -0.5764
  939MPD2     C13728   1.841   4.674   1.362  0.1705 -0.2148 -0.6681
  939MPD2    C113729   1.745   4.720   1.274 -0.9694 -0.5837  0.0525
  939MPD2    C213730   1.780   0.015   1.143  0.2468  0.0320  0.2040
  939MPD2    C313731   1.906   4.694   1.096 -0.0296 -0.3779  0.2670
  939MPD2    C413732   1.999   4.656   1.186  0.1456  0.4044 -0.3838
  939MPD2    C513733   1.969   4.653   1.320 -0.4278 -0.2316  0.0491
  939MPD2     H13734   1.709   0.057   1.073  0.0065 -1.2996 -0.3506
  939MPD2    H113735   2.100   4.629   1.156  0.1729 -0.1302  0.1880
  939MPD2    H213736   1.825   4.656   1.468  0.4601  2.0737 -0.2293
  939MPD2    H313737   2.056   4.626   1.379 -0.9435 -1.3928  0.2757
  939MPD2     N13738   1.939   4.714   0.955  0.3392 -0.0703 -0.1869
  939MPD2    H513739   1.869   0.019   0.887  0.9703  1.7201 -0.1072
  939MPD2    N113740   1.624   0.034   1.327 -0.0584  0.5259 -0.2995
  939MPD2    H713741   1.604   0.003   1.421 -0.3195 -0.1596 -0.5805
  940MPD2     C13742   0.622   0.240  13.695  0.4096  0.4594  0.8321
  940MPD2    C113743   0.740   0.308  13.719  0.1184 -0.2347  0.1269
  940MPD2    C213744   0.794   0.392  13.625 -0.1556 -0.2802 -0.1607
  940MPD2    C313745   0.721   0.415  13.509 -0.3400 -0.1197  0.2125
  940MPD2    C413746   0.598   0.365  13.501  0.2424 -0.8577 -0.7134
  940MPD2    C513747   0.548   0.281  13.592  0.2175  0.2948 -0.1633
  940MPD2     H13748   0.895   0.431  13.633 -1.2468  2.5798 -0.0582
  940MPD2    H113749   0.528   0.398  13.424  1.2531  1.9246 -0.4376
  940MPD2    H213750   0.577   0.171  13.766 -0.5603  0.5750  0.3166
  940MPD2    H313751   0.449   0.238  13.580  0.0526  0.1319  1.6756
  940MPD2     N13752   0.776   0.469  13.392 -0.5163  0.4205  0.1612
  940MPD2    H513753   0.720   0.472  13.307  3.2807 -0.0727 -2.3667
  940MPD2    N113754   0.818   0.286  13.833  0.0255  0.8250  0.8595
  940MPD2    H713755   0.911   0.328  13.833 -1.0826  3.2467 -3.0883
  941MPD2     C13756   4.687   4.500   9.583 -0.3775  0.2927  0.0434
  941MPD2    C113757   0.080   4.491   9.662  0.1656 -0.3617 -0.2660
  941MPD2    C213758   0.083   4.402   9.770  0.3080 -0.2276 -0.3379
  941MPD2    C313759   4.689   4.323   9.791  0.0576  0.5714  0.3233
  941MPD2    C413760   4.574   4.341   9.724 -0.7445 -0.0829 -0.5857
  941MPD2    C513761   4.575   4.428   9.622  0.2140 -0.0628  0.0041
  941MPD2     H13762   0.165   4.390   9.840 -0.4268 -1.3568  0.3109
  941MPD2    H113763   4.477   4.296   9.742 -0.9129  0.6324  0.3238
  941MPD2    H213764   4.681   4.572   9.502  3.0048 -1.8753 -2.1317
  941MPD2    H313765   4.480   4.435   9.572  0.1517 -0.9597  0.0091
  941MPD2     N13766   4.682   4.221   9.886  0.6517 -0.1134  0.3682
  941MPD2    H513767   4.596   4.167   9.892 -0.1681  1.1725  0.3231
  941MPD2    N113768   0.192   4.571   9.639  0.0888  0.1414  0.3966
  941MPD2    H713769   0.261   4.562   9.713  2.6829 -2.6832 -2.3643
  942MPD2     C13770   4.197   0.535   8.365 -0.5175  0.4852 -0.7291
  942MPD2    C113771   4.165   0.636   8.457 -1.0911  0.0420  0.0466
  942MPD2    C213772   4.215   0.767   8.444 -0.2723  0.6814 -0.0981
  942MPD2    C313773   4.313   0.782   8.352 -0.2681  0.6603 -0.2339
  942MPD2    C413774   4.344   0.681   8.260 -0.5085 -0.5153  0.1863
  942MPD2    C513775   4.288   0.557   8.263 -0.8353  0.0754  0.3073
  942MPD2     H13776   4.198   0.856   8.504 -2.5478 -0.1939  0.5590
  942MPD2    H113777   4.431   0.690   8.195  1.7969 -0.5615  3.2347
  942MPD2    H213778   4.157   0.435   8.375  1.3853 -0.2124 -0.0948
  942MPD2    H313779   4.317   0.473   8.200  1.9284 -1.5673  3.8182
  942MPD2     N13780   4.374   0.918   8.331  0.1174 -0.3903 -0.6965
  942MPD2    H513781   4.425   0.925   8.244  1.3699 -0.3033  0.0446
  942MPD2    N113782   4.072   0.611   8.560 -0.1751  0.5970 -0.1208
  942MPD2    H713783   4.065   0.687   8.627 -1.3914 -0.1579  0.6115
  943MPD2     C13784   3.582   3.759   9.468  0.0658 -0.4651 -0.3221
  943MPD2    C113785   3.654   3.815   9.569 -0.4698 -0.2233  0.5375
  943MPD2    C213786   3.680   3.945   9.570 -0.2526 -0.2939 -0.0544
  943MPD2    C313787   3.627   4.020   9.460 -0.3915  0.2624 -0.1912
  943MPD2    C413788   3.570   3.964   9.354 -0.2233  0.5736  0.9268
  943MPD2    C513789   3.554   3.829   9.352  0.0262  0.4290 -0.4791
  943MPD2     H13790   3.734   3.988   9.653  0.0148  1.0389 -0.9112
  943MPD2    H113791   3.530   4.020   9.269  0.8054 -1.7235 -1.0586
  943MPD2    H213792   3.576   3.650   9.472  0.9963 -0.4854  0.5340
  943MPD2    H313793   3.495   3.793   9.269 -0.3970 -0.5447  0.2405
  943MPD2     N13794   3.645   4.161   9.443  0.5122 -0.4067 -0.2618
  943MPD2    H513795   3.625   4.191   9.348 -1.6951 -1.3156 -0.0726
  943MPD2    N113796   3.701   3.722   9.672  0.1767 -0.2784 -0.1130
  943MPD2    H713797   3.642   3.642   9.696 -0.7580  0.3396 -0.3842
  944MPD2     C13798   3.139   3.011  10.972 -0.0008 -0.0650  0.1020
  944MPD2    C113799   3.236   3.111  10.958 -0.0989  0.3234 -0.4089
  944MPD2    C213800   3.217   3.230  11.028 -0.4047  0.5659 -0.3620
  944MPD2    C313801   3.133   3.237  11.136  0.6083  0.0685  0.9037
  944MPD2    C413802   3.040   3.136  11.151 -0.2844 -0.1367 -0.1085
  944MPD2    C513803   3.045   3.018  11.070 -0.4268  0.0678  0.9886
  944MPD2     H13804   3.282   3.316  11.019 -0.4672  0.6455 -0.0623
  944MPD2    H113805   2.959   3.146  11.221 -0.7022 -2.2431 -0.3088
  944MPD2    H213806   3.124   2.932  10.899 -0.6253  0.3419 -0.2128
  944MPD2    H313807   2.972   2.938  11.077 -1.2747  0.6772 -0.9709
  944MPD2     N13808   3.134   3.353  11.214  0.1469  0.1604 -0.1739
  944MPD2    H513809   3.199   3.427  11.189 -0.9771  0.4379 -2.3147
  944MPD2    N113810   3.326   3.106  10.850 -0.1304  0.1157 -0.1681
  944MPD2    H713811   3.328   3.020  10.796 -0.5203  0.4204 -0.6705
    1TCq1    O113812   1.436   4.251  14.512  0.0644  0.0712  0.1545
    1TCq1    C113813   1.452   4.142  14.585  0.5488 -0.3040 -0.2726
    1TCq1    O213814   1.425   4.032  14.542 -0.4399 -0.6326  0.2803
    1TCq1    C213815   1.578   4.160  14.658 -0.4217  0.3360  0.0981
    1TCq1    C313816   1.691   4.099  14.617  0.3104 -0.2345  0.2565
    1TCq1    C413817   1.818   4.147  14.651  0.3777 -0.1654  0.2482
    1TCq1    C513818   1.832   4.266  14.722  0.0878  0.0893 -0.0553
    1TCq1    C613819   1.713   4.334  14.750  0.3606 -0.1466  0.7954
    1TCq1    C713820   1.590   4.283  14.715 -0.5681 -0.0114  0.3018
    1TCq1    C813821   1.723   4.451  14.834 -0.5228  0.3503  0.1783
    1TCq1    O413822   1.825   4.461  14.907  0.1625  0.6449 -0.6480
    1TCq1    C913823   1.936   4.068  14.615  0.2596  0.1294 -0.1167
    1TCq1    O513824   2.050   4.120  14.640 -0.1284  0.2754  0.2305
    1TCq1    O613825   1.926   3.969  14.540 -0.2804  0.1774 -0.8970
    1TCq1    H113826   1.487   4.327  14.548 -0.7304  1.4869 -1.6564
    1TCq1    H213827   1.680   4.004  14.567  0.4457 -0.4702  0.6772
    1TCq1    H313828   1.929   4.310  14.742 -0.0652  1.2566 -1.7915
    1TCq1    H413829   1.494   4.331  14.735 -0.7327 -0.0947 -0.3076
    2MPD2     C13830   1.572   0.195  15.027  0.0694 -0.0993  0.3632
    2MPD2    C113831   1.500   0.162  14.918  0.1609  0.3519  0.7338
    2MPD2    C213832   1.519   0.040  14.854  0.4392  0.5723 -0.2007
    2MPD2    C313833   1.616   4.672  14.889 -0.2288 -0.2659 -0.0408
    2MPD2    C413834   1.702   4.712  14.985  0.4764 -0.1189  0.9735
    2MPD2    C513835   1.678   0.109  15.054  1.1421  0.1106 -0.6389
    2MPD2     H13836   1.458   0.012  14.769 -1.4576 -0.9120  1.6593
    2MPD2    H113837   1.784   4.656  15.026  0.9587 -1.5260 -1.8942
    2MPD2    H213838   1.566   0.293  15.073 -0.2189 -0.8656  1.9706
    2MPD2    H313839   1.742   0.134  15.137  0.8658  1.1108 -0.7197
    2MPD2     N13840   1.625   4.546  14.821  0.2551 -0.1189 -0.4279
    2MPD2    H513841   1.545   4.527  14.762  0.2286 -3.0389  0.5554
    2MPD2    N113842   1.419   0.265  14.870 -0.5112 -0.2523  0.6579
    2MPD2    H713843   1.437   0.357  14.910 -0.7387  1.2264 -2.5667
    3TMC2    C113844   1.248   0.382  14.755  0.0650  0.2265 -0.1183
    3TMC2    C213845   1.115   0.376  14.739  0.1756  0.6872 -0.7691
    3TMC2    C313846   1.056   0.473  14.677  0.2706  0.2084  1.5921
    3TMC2    C413847   1.322   0.479  14.700  0.6518  0.3401  0.5515
    3TMC2    C513848   1.249   0.569  14.629 -0.0803  0.2729 -0.0467
    3TMC2    C613849   1.119   0.574  14.618  0.0305 -0.2227 -0.3452
    3TMC2     C13850   1.313   0.253  14.788 -0.0123 -0.0521 -1.4355
    3TMC2     O13851   1.269   0.148  14.755 -0.1243 -0.3336  0.3591
    3TMC2     H13852   1.054   0.297  14.782  1.7129 -0.8203 -1.3516
    3TMC2    H113853   1.431   0.477  14.706  0.8486  0.9849 -2.8334
    3TMC2    H213854   1.068   0.650  14.560 -2.9012 -3.6988 -2.3455
    3TMC2    C713855   1.337   0.658  14.545  0.2174 -0.0926 -0.0296
    3TMC2    C813856   0.944   0.426  14.595  0.1702  0.3421  0.5676
    3TMC2    O113857   1.458   0.654  14.568  0.0573  0.1921 -0.2921
    3TMC2    O213858   0.926   0.312  14.559  0.2718  0.2544  0.2259
    3TMC2    O513859   0.845   0.514  14.609 -0.5196  0.6279  0.5773
    3TMC2    H513860   0.864   0.596  14.660  1.5290  0.2884  0.3710
    4MPD2     C13861   0.172   0.948  13.752 -0.8761 -0.3671 -0.8684
    4MPD2    C113862   0.250   1.022  13.667 -0.1359 -0.0213 -0.0943
    4MPD2    C213863   0.383   1.049  13.701  0.1818 -0.4193  0.4320
    4MPD2    C313864   0.447   0.988  13.813  0.4197 -0.0147  0.0057
    4MPD2    C413865   0.365   0.915  13.900 -0.1956  0.4452  0.4336
    4MPD2    C513866   0.231   0.896  13.863  0.0735 -0.2754  0.6360
    4MPD2     H13867   0.444   1.116  13.641  0.7858  0.7174  2.2997
    4MPD2    H113868   0.410   0.865  13.986  0.2948  1.3670  0.7151
    4MPD2    H213869   0.070   0.920  13.728 -1.4973  1.8045 -0.7155
    4MPD2    H313870   0.172   0.824  13.919 -0.0481 -0.6440  0.0344
    4MPD2     N13871   0.582   1.006  13.844  0.1928  0.5491 -0.4554
    4MPD2    H513872   0.607   0.970  13.936 -1.7218 -0.0842 -0.1890
    4MPD2    N113873   0.189   1.064  13.544  0.2798 -0.1568  0.6289
    4MPD2    H713874   0.091   1.037  13.537  0.6155 -0.3527 -3.2520
    5TCq2    C113875   0.672   1.068  13.759 -0.0855  0.6988 -0.8342
    5TCq2    O213876   0.655   1.086  13.638  0.6884 -0.3404  0.7963
    5TCq2    C213877   0.800   1.107  13.814 -0.4760  0.4345  0.1215
    5TCq2    C313878   0.883   1.176  13.727  0.0735 -0.0514  1.0346
    5TCq2    C413879   1.007   1.208  13.766  0.3719 -0.3613  0.2280
    5TCq2    C513880   1.051   1.173  13.891  0.5900 -0.4955  0.1142
    5TCq2    C613881   0.965   1.106  13.974  0.2338 -0.6829 -0.7107
    5TCq2    C713882   0.838   1.072  13.942 -0.2540 -0.9401  1.3013
    5TCq2    C813883   1.026   1.043  14.096 -0.7682 -0.0343  0.2577
    5TCq2    O413884   0.957   0.973  14.173 -0.3455 -0.2378  0.5207
    5TCq2    C913885   1.094   1.273  13.671  0.3163 -0.4985  0.2399
    5TCq2    O513886   1.215   1.254  13.689  0.0947  0.3343  0.0539
    5TCq2    O613887   1.043   1.328  13.572 -0.4829  0.4674 -0.2224
    5TCq2    H213888   0.867   1.189  13.621  2.6808 -1.2676  0.5008
    5TCq2    H313889   1.144   1.223  13.916  0.3727 -0.1975  0.3315
    5TCq2    H413890   0.778   1.017  14.013  1.5876 -2.5141  1.6214
    6MPD1     C13891   4.083   1.674  11.886 -0.1636  0.4437 -0.3988
    6MPD1    C113892   4.212   1.729  11.865  0.1901  1.2621 -0.4129
    6MPD1    C213893   4.297   1.741  11.971 -0.2354  0.6361  0.3290
    6MPD1    C313894   4.254   1.719  12.105 -0.2406  0.8724 -0.1436
    6MPD1    C413895   4.120   1.682  12.127 -0.7412 -0.0184 -0.2872
    6MPD1    C513896   4.034   1.664  12.018  0.2766  1.0487 -0.3111
    6MPD1     H13897   4.395   1.785  11.956 -0.5377  1.8316  1.8375
    6MPD1    H113898   4.075   1.657  12.223  1.4393 -0.8618  0.5133
    6MPD1    H213899   4.012   1.653  11.807 -0.0670 -3.3557  0.4994
    6MPD1    H313900   3.932   1.627  12.025  0.9949 -0.8242  0.3583
    6MPD1     N13901   4.338   1.719  12.220  0.1492  0.5626  0.2797
    6MPD1    H513902   4.299   1.681  12.306  1.1664 -1.0184  0.0456
    6MPD1    N113903   4.263   1.737  11.736  0.1572 -0.8027  0.4704
    6MPD1    H613904   4.188   1.750  11.668 -0.2447 -2.1468  0.6424
    6MPD1    H713905   4.345   1.795  11.726 -0.3325 -0.3468 -0.8628
    7MPD2     C13906   4.279   1.455  12.901 -0.2045 -0.0480 -0.2559
    7MPD2    C113907   4.408   1.498  12.879  0.5739  0.3512 -0.5869
    7MPD2    C213908   4.503   1.443  12.958  0.5978 -0.4431 -0.0300
    7MPD2    C313909   4.472   1.346  13.055  0.0249  0.0844  0.0875
    7MPD2    C413910   4.345   1.303  13.064  0.4316 -0.2135  0.0321
    7MPD2    C513911   4.249   1.352  12.985 -0.9200  0.0838 -0.4645
    7MPD2     H13912   4.606   1.479  12.957  0.5292 -0.2086  2.1189
    7MPD2    H113913   4.310   1.221  13.127  0.9977 -0.3189  0.2082
    7MPD2    H213914   4.199   1.494  12.839  0.1357  0.2704 -0.4946
    7MPD2    H313915   4.146   1.321  12.996 -0.9547  0.0711 -0.8008
    7MPD2     N13916   4.581   1.274  13.121  0.5945 -0.0725 -0.5496
    7MPD2    H513917   4.677   1.295  13.096  1.2144 -1.0823  0.9421
    7MPD2    N113918   4.459   1.590  12.786 -0.2433 -0.2689  0.1239
    7MPD2    H713919   4.556   1.620  12.786 -0.6633  1.1397 -2.7742
    8TMC3    C113920   4.702   1.104  13.206 -0.4750  0.0775  0.6533
    8TMC3    C213921   0.037   1.105  13.329 -0.1877 -0.0177 -0.6838
    8TMC3    C313922   0.168   1.137  13.315 -1.1107 -0.3134  0.0498
    8TMC3    C413923   0.048   1.120  13.089  0.3723  0.3981  0.2807
    8TMC3    C513924   0.182   1.146  13.084 -0.3377 -0.7002  0.5697
    8TMC3    C613925   0.235   1.164  13.200 -0.3369  0.1334 -0.0165
    8TMC3     C13926   4.569   1.170  13.208  0.4659 -0.9052  0.2529
    8TMC3     O13927   4.482   1.128  13.283 -0.5052 -0.0206 -0.5441
    8TMC3     H13928   4.697   1.117  13.416  1.7500  3.0034  0.3119
    8TMC3    H113929   4.712   1.108  12.999 -1.9323  2.8872  1.4827
    8TMC3    H213930   0.333   1.209  13.205 -0.6461  0.6817  1.0100
    8TMC3    C713931   0.193   1.257  12.997 -0.7343  0.1857  0.1976
    8TMC3    C813932   0.259   1.107  13.429  0.5688  0.3286  0.2767
    8TMC3    O113933   0.106   1.347  13.005  0.4431  0.0189 -0.5503
    8TMC3    O213934   0.379   1.134  13.415 -0.3061 -0.2153 -0.0820
    9TMC3    C113935   4.517   1.777  12.363  0.3069 -0.3417 -0.1871
    9TMC3    C213936   4.652   1.750  12.371 -0.4147 -0.2715  0.1412
    9TMC3    C313937   4.688   1.679  12.481  0.2963  0.0501 -0.0173
    9TMC3    C413938   4.429   1.749  12.466 -0.6792 -0.5744  0.3899
    9TMC3    C513939   4.481   1.678  12.575  0.1284  0.0598 -0.1516
    9TMC3    C613940   4.604   1.629  12.574  0.6050  0.0054  0.9494
    9TMC3     C13941   4.465   1.765  12.226 -0.0694 -0.0939  0.0821
    9TMC3     O13942   4.546   1.780  12.137  0.4790 -0.3964 -0.2690
    9TMC3     H13943   4.723   1.780  12.295  1.9907 -3.0373  1.3106
    9TMC3    H113944   4.327   1.784  12.479 -0.0858  1.2122  0.2955
    9TMC3    H213945   4.626   1.561  12.655 -1.8502 -0.5990  1.1137
    9TMC3    C713946   4.384   1.635  12.674 -0.4422  0.1281 -0.2567
    9TMC3    C813947   0.101   1.629  12.483  0.1137  0.1182 -0.3918
    9TMC3    O113948   4.268   1.615  12.648 -0.2507  0.6072 -0.4249
    9TMC3    O213949   0.171   1.633  12.381 -0.8010  0.1954 -0.2190
   10MPD2     C13950   0.450   1.317  12.742  0.1113 -0.4082 -0.0373
   10MPD2    C113951   0.336   1.335  12.813 -0.4461 -0.2753  0.0924
   10MPD2    C213952   0.246   1.422  12.764 -0.5620  0.9016 -0.1502
   10MPD2    C313953   0.253   1.492  12.641 -0.6718  0.1236  0.3600
   10MPD2    C413954   0.366   1.468  12.569  0.3259  0.0469 -0.0446
   10MPD2    C513955   0.467   1.390  12.627  0.2813 -0.9124 -0.4054
   10MPD2     H13956   0.151   1.443  12.811 -0.8219 -2.3986  0.7711
   10MPD2    H113957   0.384   1.529  12.481 -2.2816  1.6064  0.5091
   10MPD2    H213958   0.530   1.248  12.768  0.5940 -0.4353 -1.5807
   10MPD2    H313959   0.565   1.379  12.583  0.7903 -1.3176  0.8483
   10MPD2     N13960   0.132   1.565  12.597  0.2899  0.3889 -0.1353
   10MPD2    H513961   0.063   1.578  12.670  0.1090 -1.7909  0.0704
   10MPD2    N113962   0.306   1.251  12.923 -0.0141 -0.7442 -0.0272
   10MPD2    H713963   0.378   1.181  12.936 -0.2434 -0.7379  1.3003
   11MPD2     C13964   1.454   0.839  14.323  0.5544  0.6488 -0.0026
   11MPD2    C113965   1.319   0.812  14.342  1.3187 -0.4792  0.9947
   11MPD2    C213966   1.225   0.882  14.261  0.2396  0.8429  0.0426
   11MPD2    C313967   1.264   0.976  14.165  0.7733 -0.3403  0.1619
   11MPD2    C413968   1.401   0.990  14.145  0.8295 -0.9736 -0.1780
   11MPD2    C513969   1.491   0.936  14.232  0.7071  0.6394 -0.1302
   11MPD2     H13970   1.123   0.865  14.292 -0.3684  1.4782 -1.6159
   11MPD2    H113971   1.438   1.057  14.068  0.4136  1.4192  1.6923
   11MPD2    H213972   1.537   0.795  14.378  0.4313  0.9300  0.4104
   11MPD2    H313973   1.595   0.963  14.218  0.6334  0.8674 -0.2426
   11MPD2     N13974   1.166   1.052  14.089  0.2632 -0.1241  0.0274
   11MPD2    H513975   1.205   1.125  14.030  0.0736 -0.6003 -0.6850
   11MPD2    N113976   1.268   0.720  14.439 -0.0918  0.3585 -0.5198
   11MPD2    H713977   1.175   0.682  14.422  0.9966 -2.2868 -0.5262
    1MPD1     C13978   3.471   1.654  16.758  0.4857 -0.3707 -0.1392
    1MPD1    C113979   3.351   1.708  16.710  0.1615  0.3733  0.3800
    1MPD1    C213980   3.339   1.761  16.590 -0.1378 -0.2225  0.0304
    1MPD1    C313981   3.449   1.756  16.504 -0.5538 -0.0514 -0.7995
    1MPD1    C413982   3.568   1.719  16.557 -0.5217 -0.3996  0.2129
    1MPD1    C513983   3.578   1.663  16.681 -0.1495  0.4674  0.1205
    1MPD1     H13984   3.242   1.796  16.555  0.1902  1.2042  0.5832
    1MPD1    H113985   3.659   1.723  16.499  0.4840  4.1754  2.0737
    1MPD1    H213986   3.475   1.603  16.853  0.8593  0.8515  0.5039
    1MPD1    H313987   3.672   1.617  16.711  0.5569  1.6800 -0.2308
    1MPD1     N13988   3.451   1.787  16.366 -0.4296  0.4275  0.3504
    1MPD1    H513989   3.539   1.768  16.318 -0.9515 -0.8942 -0.0985
    1MPD1    N113990   3.244   1.708  16.802 -0.2379 -0.9149  0.3245
    1MPD1    H613991   3.181   1.787  16.788  0.3379 -0.3734  0.8022
    1MPD1    H713992   3.283   1.716  16.896 -0.4925 -0.2496  0.3730
    2MPD1     C13993   4.122   2.161  15.763  0.5862 -0.7040  0.2145
    2MPD1    C113994   4.017   2.192  15.684  0.5493 -0.6940  0.0969
    2MPD1    C213995   3.894   2.147  15.730  0.1742  0.0635 -0.2148
    2MPD1    C313996   3.874   2.083  15.849  0.3741 -0.1487 -0.3403
    2MPD1    C413997   3.983   2.055  15.924  0.6114  0.9480 -0.1478
    2MPD1    C513998   4.106   2.086  15.879  0.0113  0.6117 -0.3366
    2MPD1     H13999   3.808   2.191  15.681 -0.4941  0.3703  1.2399
    2MPD1    H114000   3.981   1.990  16.011 -0.4014  0.7360 -0.3288
    2MPD1    H214001   4.224   2.189  15.736 -0.2510  0.0714 -2.0997
    2MPD1    H314002   4.189   2.060  15.945 -0.2504  1.4481  0.3291
    2MPD1     N14003   3.739   2.052  15.882 -0.1332 -0.1834  0.2088
    2MPD1    H514004   3.674   2.076  15.808 -0.9176 -2.0063  0.3229
    2MPD1    N114005   4.022   2.284  15.576 -0.1317 -0.0997 -0.9595
    2MPD1    H614006   3.955   2.270  15.501 -0.5708  0.9946 -0.7612
    2MPD1    H714007   4.113   2.292  15.530 -0.2764  2.5408 -0.7804
    3TMC3    C114008   3.561   1.961  16.018  0.6845  0.3733  0.0088
    3TMC3    C214009   3.475   1.986  15.919  0.8412 -0.8531 -0.1412
    3TMC3    C314010   3.340   1.971  15.953  0.0909  0.2315  0.6428
    3TMC3    C414011   3.523   1.916  16.142 -0.4303  0.0289  0.1109
    3TMC3    C514012   3.389   1.893  16.162 -0.1687  0.6946 -0.8658
    3TMC3    C614013   3.296   1.926  16.074  0.4997 -0.2226  0.1318
    3TMC3     C14014   3.696   2.012  16.008  0.5210 -0.0816  0.1261
    3TMC3     O14015   3.767   1.990  16.109  0.4219  0.1586  0.7067
    3TMC3     H14016   3.501   2.016  15.818 -1.7152  2.2428  0.1021
    3TMC3    H114017   3.595   1.897  16.221 -1.6150  0.3414  1.2846
    3TMC3    H214018   3.193   1.907  16.099  0.1000 -0.1333 -1.4146
    3TMC3    C714019   3.346   1.841  16.292  0.4606 -0.5406 -0.1513
    3TMC3    C814020   3.241   2.026  15.866  0.2832  0.4941  0.0435
    3TMC3    O114021   3.227   1.839  16.325  0.1070  0.1099 -0.4643
    3TMC3    O214022   3.127   2.050  15.915 -0.0613 -0.3156  0.3481
    4MPD1     C14023   3.069   2.229  15.431  0.0431 -1.3087  0.4332
    4MPD1    C114024   3.206   2.211  15.417  0.0313  0.3460 -0.2837
    4MPD1    C214025   3.270   2.157  15.528 -0.2043  0.0381  0.4255
    4MPD1    C314026   3.203   2.110  15.637 -0.1061 -0.2803 -0.2522
    4MPD1    C414027   3.068   2.120  15.646 -0.2138 -0.3363 -0.6157
    4MPD1    C514028   3.004   2.183  15.542 -0.0528 -0.1483 -0.2317
    4MPD1     H14029   3.378   2.155  15.531 -0.2501  1.1647  2.7372
    4MPD1    H114030   3.014   2.097  15.737  0.5848  1.1992  0.2493
    4MPD1    H214031   3.019   2.291  15.357  0.8598 -0.1183  0.8792
    4MPD1    H314032   2.896   2.189  15.553  0.0585 -0.4671  1.1440
    4MPD1     N14033   3.283   2.050  15.739 -0.0267  0.1257 -0.0248
    4MPD1    H514034   3.377   2.025  15.711 -0.3701  0.4463 -1.4698
    4MPD1    N114035   3.276   2.281  15.318 -0.0281 -0.2332 -0.3274
    4MPD1    H614036   3.231   2.275  15.227  0.7791  0.7226 -0.7907
    4MPD1    H714037   3.364   2.231  15.307  0.5845  1.0322 -1.1268
    1TCq1    O114038   0.866   2.081  10.904  0.3113  0.1933  0.3744
    1TCq1    C114039   0.808   1.997  10.822  0.0554 -0.1922 -0.4171
    1TCq1    O214040   0.810   1.988  10.701 -0.5212  0.1447  0.0702
    1TCq1    C214041   0.711   1.929  10.907 -1.1112 -0.3110  0.1736
    1TCq1    C314042   0.586   1.899  10.855 -0.4470  0.2563  0.2706
    1TCq1    C414043   0.477   1.881  10.931 -0.8582 -0.3376 -0.2562
    1TCq1    C514044   0.507   1.838  11.061  0.1208 -0.0119 -0.3560
    1TCq1    C614045   0.632   1.867  11.113 -0.3888 -0.3425  0.1577
    1TCq1    C714046   0.729   1.920  11.038  0.2915 -0.4888  0.0576
    1TCq1    C814047   0.673   1.804  11.239 -0.8130 -0.5604  0.4034
    1TCq1    O414048   0.786   1.796  11.276 -0.4313  0.3741 -0.1547
    1TCq1    C914049   0.348   1.831  10.873  0.2165 -0.3736  0.6878
    1TCq1    O514050   0.326   1.838  10.752 -0.2954 -0.3784 -0.2952
    1TCq1    O614051   0.252   1.824  10.951  0.1765 -0.2621  0.3475
    1TCq1    H114052   0.826   2.088  10.993 -0.7574  1.7734 -0.2346
    1TCq1    H214053   0.574   1.912  10.749 -2.0026 -1.9904  0.1747
    1TCq1    H314054   0.435   1.781  11.118  0.0559  0.9639  0.5355
    1TCq1    H414055   0.825   1.935  11.087 -0.6769  0.0142  1.8395
    2MPD1     C14056   0.495   1.540  11.638  0.1467  0.2031 -0.1568
    2MPD1    C114057   0.387   1.601  11.580  0.4074 -0.2379  0.0535
    2MPD1    C214058   0.413   1.693  11.473 -0.2088 -0.2010  1.0049
    2MPD1    C314059   0.542   1.701  11.426  0.2442 -0.2643 -0.2644
    2MPD1    C414060   0.648   1.627  11.475  0.0280  0.4503 -0.2846
    2MPD1    C514061   0.625   1.561  11.597  0.1478  1.3188 -0.1150
    2MPD1     H14062   0.335   1.757  11.433  1.2555  1.5849  1.0492
    2MPD1    H114063   0.752   1.641  11.448  0.0391  0.8036 -0.0585
    2MPD1    H214064   0.477   1.471  11.720  0.1605  0.3311 -0.0459
    2MPD1    H314065   0.707   1.503  11.636 -1.3413 -0.1737  0.7709
    2MPD1     N14066   0.558   1.777  11.306 -0.5013  0.3042 -0.0806
    2MPD1    H514067   0.472   1.810  11.265 -1.1247 -2.6884 -1.2238
    2MPD1    N114068   0.258   1.601  11.638  0.1271  0.2313 -0.2462
    2MPD1    H614069   0.180   1.626  11.578  1.1713  0.0846 -1.6724
    2MPD1    H714070   0.248   1.505  11.670 -1.4762  0.2836 -0.6273
    1TCq1    O114071   1.702   1.645  17.370  0.4385  0.0602  0.4524
    1TCq1    C114072   1.796   1.653  17.459 -0.6812  0.1568 -0.6365
    1TCq1    O214073   1.815   1.761  17.517 -0.0956  0.2209  0.0140
    1TCq1    C214074   1.845   1.528  17.502 -0.5102  0.0785  0.4294
    1TCq1    C314075   1.848   1.413  17.424 -0.2734  0.9478  0.4781
    1TCq1    C414076   1.910   1.302  17.470  0.2703 -0.2017 -0.2354
    1TCq1    C514077   1.952   1.294  17.599 -0.2122  0.1485 -0.0449
    1TCq1    C614078   1.946   1.404  17.674  0.2864 -0.1406  0.5339
    1TCq1    C714079   1.898   1.528  17.626 -0.2134  0.6379  0.3248
    1TCq1    C814080   2.030   1.398   0.099  0.8219 -0.9884  0.7272
    1TCq1    O414081   2.078   1.290   0.117  0.4711  0.0925 -0.1025
    1TCq1    C914082   1.896   1.175  17.405 -0.1895  0.1812 -0.0384
    1TCq1    O514083   1.779   1.154  17.361  0.1687  0.7426 -0.7792
    1TCq1    O614084   1.983   1.084  17.426 -0.1336 -0.4351 -0.2121
    1TCq1    H114085   1.672   1.553  17.362 -0.2276  0.3245 -0.0923
    1TCq1    H214086   1.794   1.398  17.332  0.7393  1.2237 -0.1568
    1TCq1    H314087   1.982   1.197  17.638  0.2719 -0.4166 -1.7954
    1TCq1    H414088   1.908   1.620  17.682  2.6698  0.1541  0.6105
    2MPD1     C14089   2.325   1.589   0.478  1.2237 -0.3789  0.3471
    2MPD1    C114090   2.221   1.672   0.461  0.2926  0.2832 -0.1575
    2MPD1    C214091   2.132   1.645   0.358  0.1018  0.6575 -1.4523
    2MPD1    C314092   2.133   1.526   0.287  0.5235 -0.0170  0.0803
    2MPD1    C414093   2.235   1.430   0.313  0.3412 -1.5018 -0.0266
    2MPD1    C514094   2.324   1.471   0.409 -0.5533 -0.2054 -0.0218
    2MPD1     H14095   2.052   1.716   0.343  0.8060  1.3856 -1.7627
    2MPD1    H114096   2.242   1.330   0.271 -0.3391 -1.6667  0.2666
    2MPD1    H214097   2.405   1.604   0.549  0.2903 -0.8807  1.5170
    2MPD1    H314098   2.409   1.407   0.430 -0.0146 -0.2255 -2.2500
    2MPD1     N14099   2.042   1.508   0.174 -0.2224 -0.4777 -0.6434
    2MPD1    H514100   1.982   1.589   0.160 -1.8227 -1.8897 -1.8627
    2MPD1    N114101   2.203   1.788   0.533  0.3608 -0.0202  0.6194
    2MPD1    H614102   2.223   1.767   0.631 -0.9845  0.3308  0.9624
    2MPD1    H714103   2.107   1.819   0.517  0.5241  1.0773  1.7858
    1MPD1     C14104   1.122   1.143  12.085 -0.1018 -0.3231  0.0426
    1MPD1    C114105   1.200   1.155  11.969 -0.7474 -0.0301  0.0998
    1MPD1    C214106   1.309   1.236  11.970 -0.1519  0.5231 -0.3692
    1MPD1    C314107   1.336   1.315  12.080 -0.5828  0.0578 -0.1914
    1MPD1    C414108   1.264   1.304  12.196  0.7279  0.6628 -0.5615
    1MPD1    C514109   1.152   1.216  12.191  0.0193 -0.3817  0.3754
    1MPD1     H14110   1.369   1.247  11.880 -0.4289  1.0058 -0.4935
    1MPD1    H114111   1.268   1.362  12.287 -1.6796  1.0227 -0.6906
    1MPD1    H214112   1.032   1.083  12.091 -0.7924  0.6933 -0.1740
    1MPD1    H314113   1.099   1.221  12.286  0.9395  0.0539  0.8727
    1MPD1     N14114   1.453   1.389  12.083  0.4400  0.2563  0.4342
    1MPD1    H514115   1.512   1.389  12.001  0.1502  4.3177  0.1970
    1MPD1    N114116   1.168   1.081  11.856  0.3189  0.4564 -0.0703
    1MPD1    H614117   1.186   1.131  11.769  1.8478  0.0984  0.0307
    1MPD1    H714118   1.067   1.069  11.851  0.3157  0.7752 -0.8063
    2MPD1     C14119   2.401   2.889  11.051  0.8632 -0.3309 -0.5326
    2MPD1    C114120   2.451   2.893  10.923 -0.3492 -0.0772  0.0825
    2MPD1    C214121   2.428   2.780  10.842  0.6012  0.3879 -0.2365
    2MPD1    C314122   2.358   2.666  10.882 -0.1938 -0.1445 -0.5242
    2MPD1    C414123   2.317   2.667  11.014  1.2100 -0.6426  0.1904
    2MPD1    C514124   2.335   2.779  11.093 -0.6135  0.3872 -0.2624
    2MPD1     H14125   2.469   2.773  10.742 -0.8660  2.3256 -0.9724
    2MPD1    H114126   2.255   2.589  11.054  1.2745 -1.0040 -0.4223
    2MPD1    H214127   2.415   2.978  11.111 -0.3859  0.0055 -0.7475
    2MPD1    H314128   2.296   2.774  11.194  0.4249 -0.4808  0.1035
    2MPD1     N14129   2.314   2.553  10.810 -0.2610 -0.3369  0.1108
    2MPD1    H514130   2.252   2.493  10.863  0.1703 -0.0308  0.9690
    2MPD1    N114131   2.503   3.008  10.868  0.2234  0.1961  0.4827
    2MPD1    H614132   2.555   3.065  10.934  1.4099  0.6603 -0.8696
    2MPD1    H714133   2.562   2.983  10.789 -0.3189 -1.1497  0.4980
    3MPD1     C14134   1.404   2.326  10.543 -0.5312  0.0979 -0.6292
    3MPD1    C114135   1.453   2.195  10.570  1.0839 -0.1833 -0.3268
    3MPD1    C214136   1.592   2.181  10.566  0.2233  0.1299  0.6352
    3MPD1    C314137   1.672   2.299  10.561 -0.1158  0.0842  0.0176
    3MPD1    C414138   1.614   2.429  10.540 -0.5315 -0.0984  0.2114
    3MPD1    C514139   1.483   2.438  10.541 -0.0322  0.3452 -0.5349
    3MPD1     H14140   1.636   2.084  10.586  2.1447  0.4657 -1.9336
    3MPD1    H114141   1.673   2.519  10.529  1.3345 -1.6719 -2.6273
    3MPD1    H214142   1.299   2.351  10.537 -0.8178 -1.3279 -1.5176
    3MPD1    H314143   1.447   2.536  10.511  2.3741  1.5143  0.3639
    3MPD1     N14144   1.805   2.277  10.580 -0.2430  0.7139  0.3641
    3MPD1    H514145   1.821   2.187  10.625 -1.9455  1.4462  2.4194
    3MPD1    N114146   1.376   2.080  10.582 -0.4095 -0.2160  0.5632
    3MPD1    H614147   1.436   2.006  10.619  0.7681  0.8305  0.7539
    3MPD1    H714148   1.298   2.088  10.647 -0.7973  1.6403 -0.1307
    4MPD2     C14149   1.913   2.085  12.015 -0.0389  0.4736 -0.2550
    4MPD2    C114150   1.947   1.955  12.015 -0.3029 -0.9367 -0.2197
    4MPD2    C214151   2.054   1.913  11.936  0.3351 -0.3898  0.7026
    4MPD2    C314152   2.122   2.005  11.851  0.4855  0.7754  0.2689
    4MPD2    C414153   2.075   2.136  11.846 -0.5308  0.6270 -0.0617
    4MPD2    C514154   1.973   2.181  11.932  0.1139  1.1781 -0.0747
    4MPD2     H14155   2.075   1.807  11.925 -0.5187 -0.3629 -1.1397
    4MPD2    H114156   2.117   2.204  11.773 -1.7279  0.0429 -1.2932
    4MPD2    H214157   1.836   2.118  12.084 -0.6629  1.1312 -1.2542
    4MPD2    H314158   1.930   2.281  11.934  0.3152  1.2837 -0.9315
    4MPD2     N14159   2.228   1.967  11.761  0.6141 -0.4616 -0.0530
    4MPD2    H514160   2.269   2.042  11.706  0.1643  1.0055  1.6021
    4MPD2    N114161   1.882   1.852  12.083 -0.0035  0.1269  0.4202
    4MPD2    H714162   1.914   1.757  12.066  1.8853  0.7886  0.3381
    5TMC3    C114163   1.764   1.709  12.211 -0.3770  0.3020  0.0361
    5TMC3    C214164   1.641   1.654  12.209  0.3851 -0.1618  0.1338
    5TMC3    C314165   1.628   1.530  12.159  0.3078 -0.3251  0.3908
    5TMC3    C414166   1.874   1.634  12.196 -0.3501  0.7776 -0.1323
    5TMC3    C514167   1.853   1.505  12.146  0.5614  0.1799  0.0278
    5TMC3    C614168   1.732   1.451  12.110 -0.6049  0.6579 -0.4390
    5TMC3     C14169   1.777   1.853  12.166 -0.0029  0.3061 -0.2445
    5TMC3     O14170   1.686   1.934  12.195 -0.2916 -0.1179  0.2892
    5TMC3     H14171   1.549   1.709  12.220  1.7699  1.8564  1.4769
    5TMC3    H114172   1.973   1.670  12.221 -0.0494 -1.1030  1.3711
    5TMC3    H214173   1.741   1.347  12.081 -0.1418  0.2342  1.2565
    5TMC3    C714174   1.964   1.491  12.049  0.0329 -0.5691  1.2660
    5TMC3    C814175   1.493   1.473  12.187  0.3009 -0.4989  0.1326
    5TMC3    O114176   2.035   1.589  12.026 -0.3633  0.4213 -0.1077
    5TMC3    O214177   1.443   1.504  12.295 -0.0588  0.0714  0.1330
    6TMC3    C114178   2.255   2.427  10.630 -0.4421  0.7410 -0.2169
    6TMC3    C214179   2.134   2.436  10.570  0.1500  0.2707 -0.2272
    6TMC3    C314180   2.043   2.338  10.582  0.7259  0.3184 -0.3154
    6TMC3    C414181   2.280   2.325  10.716  0.5500  0.5421  0.5741
    6TMC3    C514182   2.185   2.227  10.728 -0.4260  0.2422  0.0929
    6TMC3    C614183   2.070   2.227  10.653 -0.4173 -0.1208  1.3613
    6TMC3     C14184   2.315   2.548  10.676  0.1010  0.2195  0.4234
    6TMC3     O14185   2.351   2.632  10.595 -0.3783  0.0842  0.0064
    6TMC3     H14186   2.112   2.528  10.517 -2.6900 -0.4329 -0.2769
    6TMC3    H114187   2.370   2.316  10.775 -0.3302  1.5113  2.0794
    6TMC3    H214188   1.997   2.148  10.645  0.1808 -0.4155 -1.1382
    6TMC3    C714189   2.196   2.121  10.832  0.1646  0.5690 -0.0955
    6TMC3    C814190   1.906   2.366  10.544  0.2551 -0.2816 -0.0422
    6TMC3    O114191   2.266   2.136  10.936 -0.1351 -0.0057 -0.3305
    6TMC3    O214192   1.895   2.477  10.492 -1.2346 -0.0064 -0.1223
    7MPD2     C14193   2.247   1.258  11.687 -0.2128 -0.1181  0.4004
    7MPD2    C114194   2.240   1.389  11.724  0.3726 -0.6941  0.0125
    7MPD2    C214195   2.150   1.424  11.822 -0.1395 -0.3081  0.1331
    7MPD2    C314196   2.076   1.331  11.895  0.1107  0.0907  0.7629
    7MPD2    C414197   2.086   1.197  11.858  1.0190  0.0635 -0.3376
    7MPD2    C514198   2.169   1.165  11.755 -0.2437 -0.2035 -0.3777
    7MPD2     H14199   2.132   1.529  11.838  0.7273 -0.0079 -0.8278
    7MPD2    H114200   2.051   1.118  11.924 -0.9576  1.1387 -0.0919
    7MPD2    H214201   2.312   1.221  11.609 -2.6152 -0.6923 -1.3208
    7MPD2    H314202   2.191   1.060  11.736  1.5936  0.4610 -2.0574
    7MPD2     N14203   1.982   1.358  12.003 -0.7052  0.7831 -0.8854
    7MPD2    H514204   1.930   1.279  12.039 -0.9648  2.3858  2.2525
    7MPD2    N114205   2.304   1.491  11.663  0.0948 -0.1683 -0.0027
    7MPD2    H714206   2.288   1.580  11.708 -0.2046 -0.2089 -0.0310
    8TMC3    C114207   2.418   1.612  11.516  0.0873 -0.4250  0.2680
    8TMC3    C214208   2.375   1.660  11.398 -0.1844  0.1732  0.1289
    8TMC3    C314209   2.348   1.797  11.405 -0.5198  0.9637 -0.7507
    8TMC3    C414210   2.418   1.689  11.633 -0.1431  0.5206  0.8227
    8TMC3    C514211   2.373   1.820  11.630  1.0801  0.3845 -0.7151
    8TMC3    C614212   2.347   1.881  11.513 -0.1613 -0.0904 -0.3861
    8TMC3     C14213   2.367   1.481  11.542 -0.3844  0.4721  0.7376
    8TMC3     O14214   2.359   1.390  11.462  0.1273 -0.0234  0.6068
    8TMC3     H14215   2.373   1.598  11.309 -1.9995  3.1300 -1.8842
    8TMC3    H114216   2.471   1.644  11.716  1.1664  0.3000 -0.1278
    8TMC3    H214217   2.310   1.982  11.502 -1.5012 -0.7612 -2.0127
    8TMC3    C714218   2.280   1.841  11.742  0.1452 -0.4773 -0.2045
    8TMC3    C814219   2.272   1.849  11.290  0.0045 -0.6556  0.1300
    8TMC3    O114220   2.265   1.736  11.800 -0.0535 -0.4290 -0.4944
    8TMC3    O214221   2.274   1.971  11.279 -0.2278  0.2355  0.1131
    9MPD2     C14222   2.145   1.648  11.014  0.3047  0.0922  0.6891
    9MPD2    C114223   2.172   1.766  11.083 -0.5033 -0.1740 -0.3241
    9MPD2    C214224   2.157   1.885  11.019  0.1330  0.6107 -0.3686
    9MPD2    C314225   2.130   1.890  10.884  0.0724 -0.0957 -0.1271
    9MPD2    C414226   2.082   1.776  10.820  0.0767  0.0335 -0.6306
    9MPD2    C514227   2.094   1.658  10.889  0.5792  0.5412  0.2959
    9MPD2     H14228   2.169   1.978  11.072 -0.4657  0.5990 -0.2079
    9MPD2    H114229   2.065   1.779  10.713 -3.4064 -1.5121 -0.1301
    9MPD2    H214230   2.160   1.552  11.063  1.2531 -0.1581 -0.0653
    9MPD2    H314231   2.071   1.568  10.833 -4.5634  2.5830 -0.9054
    9MPD2     N14232   2.131   2.007  10.803  0.1423 -0.1025 -0.8514
    9MPD2    H514233   2.097   2.006  10.708  1.7103 -0.8062 -1.4111
    9MPD2    N114234   2.211   1.751  11.218  0.4778  0.1984  0.1936
    9MPD2    H714235   2.207   1.657  11.257  3.3668 -0.6546 -1.5937
    1MPD1     C14236   1.007   1.734  16.590 -0.0174  0.4063  0.4018
    1MPD1    C114237   1.098   1.630  16.592  0.0844 -0.3714  0.4157
    1MPD1    C214238   1.053   1.512  16.649  0.4459 -0.0887 -0.1378
    1MPD1    C314239   0.927   1.495  16.704  0.1441 -0.5169  0.0855
    1MPD1    C414240   0.843   1.600  16.704 -0.3497 -0.3221  0.4036
    1MPD1    C514241   0.881   1.720  16.643 -0.0562 -0.5555  0.2822
    1MPD1     H14242   1.126   1.432  16.650  0.2021 -0.3036  0.2734
    1MPD1    H114243   0.735   1.596  16.714 -0.5337 -0.3972 -1.6931
    1MPD1    H214244   1.026   1.827  16.538 -2.8667  0.4679 -0.5185
    1MPD1    H314245   0.798   1.787  16.625 -0.8749 -1.5597  0.2863
    1MPD1     N14246   0.879   1.370  16.756  0.3223  0.3713  0.4514
    1MPD1    H514247   0.785   1.373  16.793  0.0896  1.3317 -0.2049
    1MPD1    N114248   1.226   1.635  16.532 -0.1951  0.5668 -0.5912
    1MPD1    H614249   1.276   1.547  16.521  0.1290  0.6054  0.6313
    1MPD1    H714250   1.282   1.718  16.551 -0.1748  0.7325 -1.3663
    2MPD1     C14251   0.766   0.296  17.040  0.2421 -0.3748 -0.4352
    2MPD1    C114252   0.657   0.373  17.077  0.6365 -0.6430 -0.0320
    2MPD1    C214253   0.654   0.508  17.054  0.0937  0.4297 -0.3950
    2MPD1    C314254   0.757   0.576  16.992  0.5443 -0.4713 -0.1465
    2MPD1    C414255   0.871   0.505  16.955 -0.5399 -0.1071 -0.1559
    2MPD1    C514256   0.869   0.367  16.978 -0.6055  0.6189 -0.4619
    2MPD1     H14257   0.572   0.568  17.089 -2.4859 -2.5464 -1.3593
    2MPD1    H114258   0.964   0.549  16.919 -1.7656  1.0293 -1.9464
    2MPD1    H214259   0.786   0.193  17.065  0.9942 -0.1693 -0.1903
    2MPD1    H314260   0.954   0.304  16.956 -0.8890 -0.5307  1.7583
    2MPD1     N14261   0.748   0.719  16.978  0.3144 -0.3428 -0.0836
    2MPD1    H514262   0.657   0.761  16.994  0.4389  0.6474 -1.9503
    2MPD1    N114263   0.557   0.320  17.156 -0.2161 -0.4447  0.5816
    2MPD1    H614264   0.469   0.371  17.164  0.0639  0.1659 -0.2756
    2MPD1    H714265   0.560   0.219  17.170 -0.3249 -0.2523  2.0085
    3TCq2    C114266   0.851   0.801  16.944  0.3525 -0.7861  0.3589
    3TCq2    O214267   0.969   0.775  16.931  0.3340 -0.6840  0.8343
    3TCq2    C214268   0.803   0.933  16.904 -0.3025 -0.3972 -0.3126
    3TCq2    C314269   0.674   0.970  16.922 -0.1016  0.2221  1.0467
    3TCq2    C414270   0.631   1.097  16.901 -0.0032  0.2932  0.1544
    3TCq2    C514271   0.708   1.191  16.850  0.5323  0.2904  0.2971
    3TCq2    C614272   0.839   1.153  16.819 -0.5338 -0.1116 -0.1821
    3TCq2    C714273   0.887   1.030  16.856  0.3130  0.4586  0.2082
    3TCq2    C814274   0.944   1.251  16.772 -0.1334  0.4891 -0.0312
    3TCq2    O414275   1.061   1.218  16.746 -0.0212 -0.4883  0.0149
    3TCq2    C914276   0.491   1.125  16.920  0.0632  0.1269  0.7260
    3TCq2    O514277   0.432   1.062  17.012 -0.4959  0.3974 -0.0346
    3TCq2    O614278   0.446   1.228  16.873 -0.4004  0.3035  0.3852
    3TCq2    H214279   0.590   0.912  16.958  0.7702 -1.7931 -0.1710
    3TCq2    H314280   0.668   1.291  16.835  0.3411  0.0804 -0.5621
    3TCq2    H414281   0.988   1.012  16.821 -0.1615  0.1940 -1.0106
    1TCq1    O114282   4.303   0.494  12.916  0.3789 -0.1735  0.2382
    1TCq1    C114283   4.228   0.482  13.031  0.1501 -0.4646 -0.0185
    1TCq1    O214284   4.152   0.568  13.075 -0.5942 -0.3862 -0.2339
    1TCq1    C214285   4.215   0.344  13.058  0.5132  0.2049  0.3711
    1TCq1    C314286   4.083   0.299  13.060 -0.6162  0.0194  0.0082
    1TCq1    C414287   4.070   0.167  13.101 -0.2137  0.2230  0.1708
    1TCq1    C514288   4.178   0.082  13.108 -0.2134  0.5522 -0.2424
    1TCq1    C614289   4.305   0.139  13.094  0.2519 -0.1413  0.3181
    1TCq1    C714290   4.327   0.273  13.078  0.4718 -0.1865  0.4862
    1TCq1    C814291   4.414   0.062  13.146  0.5912 -0.8435  0.2059
    1TCq1    O414292   4.395   4.666  13.162  0.8403  0.1316  0.1610
    1TCq1    C914293   3.936   0.121  13.125  0.1864 -0.0072  0.1984
    1TCq1    O514294   3.912   0.008  13.166  0.1008  0.5676 -1.2405
    1TCq1    O614295   3.846   0.208  13.121  0.2160  0.1495  0.3127
    1TCq1    H114296   4.339   0.407  12.890 -0.9531 -0.3466 -1.0259
    1TCq1    H214297   4.000   0.368  13.070 -1.0353 -0.2273 -1.6967
    1TCq1    H314298   4.172   4.698  13.123  2.4154  0.3636 -0.3872
    1TCq1    H414299   4.422   0.324  13.062  1.1355 -1.3512  0.7080
    2MPD2     C14300   4.698   0.211  13.317 -0.0915 -0.1841 -0.1973
    2MPD2    C114301   4.627   0.110  13.259 -0.4789  0.2543  0.8069
    2MPD2    C214302   4.677   4.711  13.269 -0.8090 -0.2692  0.6300
    2MPD2    C314303   0.088   4.691  13.311 -0.1000  0.9994  0.2426
    2MPD2    C414304   0.163   0.077  13.353 -0.5185 -0.0792  0.1396
    2MPD2    C514305   0.099   0.196  13.362 -0.2936 -0.2147  0.1213
    2MPD2     H14306   4.619   4.621  13.253  0.6341 -1.0942  0.0624
    2MPD2    H114307   0.262   0.063  13.395 -1.0977 -0.3462  1.4096
    2MPD2    H214308   4.662   0.313  13.329 -1.2367 -0.4381 -1.4082
    2MPD2    H314309   0.150   0.281  13.406  0.2978 -0.0522 -0.8778
    2MPD2     N14310   0.134   4.557  13.318  0.1825 -0.5119  0.1958
    2MPD2    H514311   0.077   4.495  13.262 -0.9189 -0.1507  0.9117
    2MPD2    N114312   4.505   0.145  13.207 -1.0079  0.5381 -0.1180
    2MPD2    H714313   4.471   0.238  13.229  0.0159  0.3795  2.1356
    3TCq1    O114314   0.600   4.050  13.304 -0.1230 -0.2720 -0.2206
    3TCq1    C114315   0.546   4.126  13.397  0.4877 -0.1326 -0.4332
    3TCq1    O214316   0.602   4.176  13.493  0.4908 -0.3052  0.0524
    3TCq1    C214317   0.437   4.196  13.320 -0.4067 -0.0996 -0.5842
    3TCq1    C314318   0.360   4.119  13.245  0.2246  0.1394  0.0682
    3TCq1    C414319   0.245   4.175  13.197  0.2701 -0.0272  0.0153
    3TCq1    C514320   0.201   4.304  13.228 -0.1540 -0.0514 -0.2132
    3TCq1    C614321   0.281   4.373  13.314  0.4073 -0.5813 -0.0362
    3TCq1    C714322   0.397   4.320  13.366 -0.7848 -0.5265 -0.4765
    3TCq1    C814323   0.260   4.511  13.353  0.0455 -0.6637 -0.2029
    3TCq1    O414324   0.341   4.568  13.424  0.3070  0.0346 -0.2718
    3TCq1    C914325   0.172   4.112  13.088 -0.2813  0.4003 -0.0284
    3TCq1    O514326   0.063   4.159  13.054  0.6005  0.5336  0.1046
    3TCq1    O614327   0.207   3.992  13.061 -0.0351 -0.1696 -0.1175
    3TCq1    H114328   0.563   4.058  13.213 -4.1125 -1.8065  1.2649
    3TCq1    H214329   0.391   4.019  13.216  0.3573  0.6538 -1.5874
    3TCq1    H314330   0.115   4.343  13.174 -0.6895  1.3317  1.6396
    3TCq1    H414331   0.463   4.381  13.427 -2.7226  1.9606 -0.8707
    1MPD2     C14332   4.255   0.416  14.429  0.1810 -0.2432  0.1228
    1MPD2    C114333   4.179   0.330  14.496 -0.5757  0.1164 -1.0998
    1MPD2    C214334   4.221   0.294  14.621 -0.4744  0.7107 -0.4225
    1MPD2    C314335   4.337   0.338  14.683  0.0393  0.5205 -0.0345
    1MPD2    C414336   4.415   0.418  14.610 -0.7283  0.8512  0.8898
    1MPD2    C514337   4.376   0.461  14.485  0.2147 -0.4164  0.5177
    1MPD2     H14338   4.159   0.229  14.681 -1.8267  1.9073 -0.5166
    1MPD2    H114339   4.504   0.463  14.652  0.4924 -1.0639  0.3609
    1MPD2    H214340   4.226   0.448  14.330  0.9323  1.2970  0.3924
    1MPD2    H314341   4.428   0.534  14.424 -1.0717  0.1405  0.0859
    1MPD2     N14342   4.377   0.284  14.806 -0.0344  0.3797  0.3130
    1MPD2    H514343   4.311   0.215  14.842 -0.9680  1.6787  1.0983
    1MPD2    N114344   4.060   0.292  14.434 -0.1787 -0.1098  0.6750
    1MPD2    H714345   4.035   0.327  14.342  0.8223  1.1369  0.8810
    2TMC3    C114346   3.831   0.260  14.436 -0.0497  0.1436  0.1642
    2TMC3    C214347   3.727   0.206  14.511  0.7328  0.5088 -0.5460
    2TMC3    C314348   3.624   0.285  14.543  0.2654 -0.2260 -0.7006
    2TMC3    C414349   3.828   0.394  14.399  0.2623 -0.2008 -0.2192
    2TMC3    C514350   3.724   0.468  14.428 -0.2360  0.1905  0.2600
    2TMC3    C614351   3.615   0.415  14.496  0.1059  0.0774 -0.1248
    2TMC3     C14352   3.957   0.220  14.492 -0.2433 -0.6479  0.0736
    2TMC3     O14353   3.964   0.154  14.595 -0.2593  0.2164 -0.1175
    2TMC3     H14354   3.739   0.103  14.542 -0.8331  0.7060  0.6919
    2TMC3    H114355   3.913   0.427  14.340  1.2526  1.5320  2.1394
    2TMC3    H214356   3.537   0.475  14.542  1.6991  1.1916  1.1341
    2TMC3    C714357   3.733   0.607  14.400 -0.8152  0.0324 -0.3666
    2TMC3    C814358   3.609   0.277  14.680  0.0508  0.1262  0.9396
    2TMC3    O114359   3.840   0.661  14.371  0.2435  0.1530  0.1094
    2TMC3    O214360   3.500   0.286  14.728  0.3884 -0.0072 -0.3183
    3TCq1    O114361   3.956   1.725  14.435 -0.1019  0.5763  0.1389
    3TCq1    C114362   3.835   1.667  14.419  0.2497 -0.1099  0.3265
    3TCq1    O214363   3.731   1.715  14.461  0.2811  0.4729  0.6839
    3TCq1    C214364   3.867   1.531  14.437  0.6947  0.1284 -0.2359
    3TCq1    C314365   3.962   1.484  14.527 -0.0108 -0.5105  0.1546
    3TCq1    C414366   3.966   1.351  14.558  0.3474 -0.0064 -0.8426
    3TCq1    C514367   3.876   1.263  14.503  0.2015  0.6320  0.1281
    3TCq1    C614368   3.778   1.318  14.423  0.2293 -0.5452  0.5798
    3TCq1    C714369   3.763   1.447  14.396 -0.3496  0.0466  0.5934
    3TCq1    C814370   3.654   1.246  14.402  0.0921 -0.7336 -0.5232
    3TCq1    O414371   3.552   1.310  14.382  0.1394 -0.1478 -0.7945
    3TCq1    C914372   4.047   1.292  14.662 -0.3326  0.1667  0.1741
    3TCq1    O514373   4.114   1.369  14.728 -1.0363 -0.4912 -0.5751
    3TCq1    O614374   4.020   1.177  14.691  0.3740 -0.6514  0.1271
    3TCq1    H114375   4.034   1.669  14.414  0.1140  0.4283  1.3662
    3TCq1    H214376   4.034   1.547  14.578 -0.0863  0.7286 -1.2497
    3TCq1    H314377   3.863   1.158  14.525 -3.7873  1.0442 -0.1148
    3TCq1    H414378   3.693   1.482  14.321  0.7147  2.8358  0.8827
    4MPD2     C14379   3.454   1.040  14.327  0.1054  0.1858 -0.3494
    4MPD2    C114380   3.588   1.011  14.357  0.1213 -0.8135  0.0165
    4MPD2    C214381   3.642   0.884  14.364  0.1270 -0.5626  0.2139
    4MPD2    C314382   3.561   0.777  14.342 -0.2249  0.3658  0.2145
    4MPD2    C414383   3.427   0.799  14.317  0.5883 -0.4248  0.1658
    4MPD2    C514384   3.376   0.925  14.314 -0.5575 -0.0849 -0.0162
    4MPD2     H14385   3.750   0.879  14.371  0.1833 -1.2623 -1.1837
    4MPD2    H114386   3.363   0.713  14.307 -0.1298 -0.4158  4.4145
    4MPD2    H214387   3.415   1.141  14.317 -1.7081 -0.3902  0.9441
    4MPD2    H314388   3.269   0.940  14.305 -0.6530  0.0264  1.3460
    4MPD2     N14389   3.605   0.643  14.360 -0.1696  0.3796  0.0847
    4MPD2    H514390   3.526   0.582  14.340  1.1245 -1.5825  0.9458
    4MPD2    N114391   3.677   1.112  14.397 -0.1310  0.1671  0.3902
    4MPD2    H714392   3.770   1.075  14.415 -0.3697  0.0604  1.4386
    5TMC2    C114393   4.274   0.177  15.088 -0.6321  0.2994 -1.1340
    5TMC2    C214394   4.273   0.270  15.193 -0.1120  0.4727  0.7637
    5TMC2    C314395   4.393   0.340  15.209 -0.0662  0.8022 -0.5241
    5TMC2    C414396   4.388   0.145  15.016  0.4042  0.3759 -0.1185
    5TMC2    C514397   4.484   0.243  15.015  0.1729 -0.3843  0.3867
    5TMC2    C614398   4.495   0.331  15.122  0.4198  0.1112  0.2890
    5TMC2     C14399   4.149   0.137  15.032  0.1757 -0.4356 -1.0940
    5TMC2     O14400   4.165   0.114  14.914  0.0088  0.1824 -0.1976
    5TMC2     H14401   4.193   0.286  15.264 -0.2747 -0.6507  0.8262
    5TMC2    H114402   4.380   0.072  14.936 -0.1012  0.8364 -0.4898
    5TMC2    H214403   4.585   0.387  15.144  0.1178  0.1595  1.3634
    5TMC2    C714404   4.484   0.313  14.889  0.5106  0.2557 -0.3660
    5TMC2    C814405   4.413   0.421  15.323  0.4499 -0.6673  0.0222
    5TMC2    O114406   4.580   0.387  14.872  0.0761 -0.5522  0.5876
    5TMC2    O214407   4.442   0.541  15.311 -0.2296 -0.0882  0.0457
    5TMC2    O514408   4.333   0.369  15.418  0.1144 -0.1273  0.2983
    5TMC2    H514409   4.318   0.275  15.391  1.8642 -0.3514  0.1146
    6MPD2     C14410   3.654   0.268  14.982 -0.5663  0.5185  0.8907
    6MPD2    C114411   3.743   0.242  14.889  0.1823 -0.1797  0.3675
    6MPD2    C214412   3.875   0.196  14.932 -1.0249  0.4227 -0.0931
    6MPD2    C314413   3.907   0.203  15.068 -1.0265 -1.0363  0.7647
    6MPD2    C414414   3.814   0.249  15.159 -0.4972  0.5289  0.7292
    6MPD2    C514415   3.685   0.270  15.110  0.2940  0.3327  1.2755
    6MPD2     H14416   3.950   0.155  14.865 -2.4005  0.2830 -1.5290
    6MPD2    H114417   3.841   0.267  15.263 -1.0935  2.0268  0.6311
    6MPD2    H214418   3.552   0.299  14.962  0.1637  0.8082 -2.4471
    6MPD2    H314419   3.606   0.311  15.171 -0.1601  2.6265 -0.8357
    6MPD2     N14420   4.041   0.180  15.110  0.1654 -0.1688  0.0063
    6MPD2    H514421   4.062   0.186  15.209  1.9658 -2.2346 -0.2296
    6MPD2    N114422   3.728   0.259  14.746 -0.4648  0.2518 -0.0800
    6MPD2    H714423   3.811   0.254  14.688  0.6954 -0.9081  1.6637
  945NH3     N114424   1.624   3.545  15.796 -0.2839 -0.7769 -0.0428
  945NH3     H214425   1.607   3.551  15.896 -3.1407  0.5827 -0.6171
  945NH3     H314426   1.692   3.470  15.791 -0.1298 -0.7783  2.0100
  945NH3     H414427   1.669   3.636  15.786  1.3075 -1.2999  2.4541
  946SOD     NA14428   4.708   2.189  10.737 -0.0771  0.1894 -0.4609
  947SOD     NA14429   1.954   3.954  12.340 -0.5092 -0.0395 -0.6676
  948SOD     NA14430   3.948   0.074   9.779 -0.2477 -1.1006 -0.1055
  949SOD     NA14431   1.595   3.088   2.897  0.3184  0.1593 -0.8831
  950SOD     NA14432   2.268   2.399   2.299 -0.5311 -0.2501  0.0164
  951SOD     NA14433   0.830   1.550   9.067  0.4939 -0.1711 -0.0915
  952SOD     NA14434   4.049   2.990   6.593 -0.4960  0.0243 -0.1134
  953SOD     NA14435   1.570   1.194  17.344  0.3315  0.0423 -0.0846
  954SOD     NA14436   3.956   4.223  10.269 -0.3397 -0.0678  0.3782
  955SOD     NA14437   0.995   4.171  14.224  0.1368  0.3001 -0.2812
  956SOD     NA14438   1.006   1.174   0.945  0.4677  0.2823  0.3714
  957SOD     NA14439   0.106   1.878  10.771  0.3680 -0.4347  0.0036
  958SOD     NA14440   3.465   1.046  15.121 -0.5194  0.6362 -0.1775
  959SOD     NA14441   1.658   0.533  14.178  0.0654  0.0157  0.1965
  960SOD     NA14442   0.573   1.635  12.206 -0.3650 -0.2087  0.0428
  961SOD     NA14443   3.870   3.602  10.723 -0.0805  0.1982 -0.0544
  962SOD     NA14444   0.256   4.477  11.979  0.2251  0.1923 -0.3297
  963SOD     NA14445   0.001   1.809   2.300  0.2479  0.0197 -0.1569
  964SOD     NA14446   3.043   1.878   0.731  0.0174  0.3392  0.2754
  965SOD     NA14447   0.365   4.314   0.208  0.3242 -0.0189 -0.0364
  966SOD     NA14448   1.975   1.307  15.674  0.4576 -0.0504  0.2710
  967SOD     NA14449   1.406   0.677  17.693 -0.2321  0.0050 -0.2476
  968SOD     NA14450   4.039   0.341   9.950  0.5365 -0.2437 -0.3817
  969SOD     NA14451   4.243   3.727  10.335  0.3734  0.1016 -0.0297
  970SOD     NA14452   0.101   0.102  12.021 -0.0897 -0.1869  0.1461
  971SOD     NA14453   2.134   3.952  14.500  0.1120 -0.1365 -0.1033
  972SOD     NA14454   0.592   1.083  13.425 -0.2026 -0.3978 -0.0359
  973SOD     NA14455   3.094   4.252  13.889  0.1872  0.2226 -0.1329
  974SOD     NA14456   0.619   3.878  15.036 -0.2097 -0.0340 -0.0293
  975SOD     NA14457   2.360   2.233   0.609 -0.1296 -0.1403  0.0983
  976SOD     NA14458   0.110   0.453  12.134  0.8625 -0.0080  0.3773
  977SOD     NA14459   2.513   2.253  13.744 -0.1060  0.3007  0.0173
  978SOD     NA14460   4.428   4.707  10.257  0.2243 -0.2747  0.1037
  979SOD     NA14461   4.002   3.484  10.468  0.0612 -0.3725  0.1201
  980SOD     NA14462   4.402   0.588  14.002  0.2125 -0.0621 -0.2000
  981SOD     NA14463   0.601   4.467  12.056 -0.2154  0.0712 -0.3898
  982SOD     NA14464   2.500   0.192   0.992 -0.4657 -0.4062 -0.1275
  983SOD     NA14465   2.049   4.170   0.486 -0.2356  0.1828 -0.7484
  984SOD     NA14466   4.148   3.959  10.160 -0.2242  0.2125  0.7045
  985SOD     NA14467   0.340   3.920  12.919  0.4632 -0.4259  0.4002
  986SOD     NA14468   1.719   0.509  14.911  0.2259  0.2333  0.1666
  987SOD     NA14469   2.325   1.549   5.881 -0.1590  0.0397  0.3651
  988SOD     NA14470   0.473   4.569   9.969 -0.1360 -0.0331 -0.3939
  989SOD     NA14471   2.095   1.996   2.660  0.1077  0.4226  0.6320
  990SOD     NA14472   3.383   1.758   9.692  0.0057  0.2556  0.0835
  991SOD     NA14473   1.799   0.484  15.265  0.8196  0.3299 -0.3533
  992SOD     NA14474   4.014   0.969  14.629  0.2314  0.4833  0.4492
  993SOD     NA14475   0.439   4.126  10.913  0.1438 -0.3831  0.1900
  994SOD     NA14476   2.078   4.086  10.183  0.1771  0.1807  0.1890
  995SOD     NA14477   0.523   0.761  15.784  0.6234  0.0931 -0.1376
  996SOD     NA14478   3.936   4.452   4.102 -0.1289 -0.1335 -0.5444
  997SOD     NA14479   2.793   0.658   3.100 -0.0547 -0.2203 -0.5025
  998SOD     NA14480   1.409   3.660   3.548 -0.1349 -0.0468 -0.3590
  999SOD     NA14481   3.884   0.151  16.522  0.0493  0.4176 -0.5081
 1000SOD     NA14482   0.312   3.009  17.184 -0.0928  0.7168  0.0462
 1001SOD     NA14483   1.996   3.112   8.764 -0.0997 -0.3972 -0.1511
 1002SOD     NA14484   1.595   0.564  13.111 -0.1392 -0.8574  0.9749
 1003SOD     NA14485   2.075   3.471  13.407 -0.2674  0.4096  0.2732
 1004SOD     NA14486   0.295   4.257  12.447  0.0627 -0.1430 -0.0355
 1005SOD     NA14487   3.622   3.663  15.181  0.2338  0.1259  0.1076
 1006SOD     NA14488   4.316   4.019   9.604 -0.1037 -0.2207  0.4070
 1007SOD     NA14489   4.335   3.164   9.145 -0.1268  0.2122  0.0968
 1008SOD     NA14490   2.149   2.657  16.418 -0.4262 -0.4454 -0.0376
 1009SOD     NA14491   1.664   4.198   0.491 -1.0558 -0.6109 -0.1562
 1010SOD     NA14492   2.234   3.228   0.877 -0.0328 -0.1362  0.0536
 1011SOD     NA14493   4.048   2.901  12.721 -0.0717  0.4880  0.0812
 1012SOL     OW14494   1.804   1.347   4.790  0.3457  0.2520  0.3437
 1012SOL    HW114495   1.805   1.253   4.770  1.2728  0.2089  0.5708
 1012SOL    HW214496   1.809   1.355   4.885 -2.7465 -1.6557  0.6266
 1013SOL     OW14497   1.186   1.159   4.684 -0.1967 -0.0399  0.1341
 1013SOL    HW114498   1.243   1.106   4.739 -2.6375 -1.8495  0.9244
 1013SOL    HW214499   1.172   1.227   4.750 -2.9320 -0.3534 -0.1054
 1014SOL     OW14500   0.086   0.511   0.512  0.4100 -0.0152 -0.0555
 1014SOL    HW114501   0.004   0.557   0.495 -0.1879 -0.3246  1.9925
 1014SOL    HW214502   0.081   0.482   0.603 -0.0426  0.9463  0.2296
 1015SOL     OW14503   0.229   0.046  10.933 -0.5491  0.2856  0.1867
 1015SOL    HW114504   0.136   0.024  10.935 -1.0416  2.3777 -0.9406
 1015SOL    HW214505   0.242   0.082  11.021 -1.2976 -0.0587  0.4411
 1016SOL     OW14506   0.061   1.361  11.388  0.2456  0.8315 -0.1611
 1016SOL    HW114507   0.064   1.451  11.357 -0.8390  0.7843 -0.3955
 1016SOL    HW214508   0.079   1.306  11.311  0.8137  1.0680 -0.1943
 1017SOL     OW14509   4.188   3.104   4.668 -0.1580 -0.1041  0.8534
 1017SOL    HW114510   4.103   3.111   4.712 -0.6022  0.7916 -0.1416
 1017SOL    HW214511   4.190   3.185   4.616  2.0935 -1.4776 -1.2011
 1018SOL     OW14512   1.304   3.710   5.924  0.1652 -0.0534  0.0975
 1018SOL    HW114513   1.267   3.746   5.844  1.4350 -1.0615 -0.9355
 1018SOL    HW214514   1.252   3.764   5.984 -0.8555 -0.5901 -0.3064
 1019SOL     OW14515   4.055   0.072   2.464  1.0010 -0.0249 -0.5346
 1019SOL    HW114516   4.040   4.717   2.411 -0.5331  1.9106 -2.9351
 1019SOL    HW214517   3.984   0.135   2.452  2.6575  2.0605  0.6088
 1020SOL     OW14518   2.290   0.113   1.057 -0.3801  0.6048 -0.4856
 1020SOL    HW114519   2.254   0.071   0.979 -0.6211  0.7373 -0.4456
 1020SOL    HW214520   2.226   0.183   1.067 -2.6111 -1.4372 -0.6427
 1021SOL     OW14521   4.493   3.931   0.277 -0.3143  0.1149 -0.1890
 1021SOL    HW114522   4.438   4.001   0.242  0.4826  2.0587  2.4705
 1021SOL    HW214523   4.578   3.944   0.236 -0.7408 -2.0335 -1.7715
 1022SOL     OW14524   2.891   3.898   8.350  0.0955 -0.1104  0.3762
 1022SOL    HW114525   2.871   3.954   8.425  0.6067  2.1030 -1.1648
 1022SOL    HW214526   2.945   3.954   8.294  0.4978  0.3583  1.2220
 1023SOL     OW14527   0.326   4.087  17.361  0.0452 -0.2005 -0.5088
 1023SOL    HW114528   0.281   4.108  17.443 -1.8719  0.0811 -1.6334
 1023SOL    HW214529   0.278   4.129  17.291 -0.5789 -0.6278 -0.3350
 1024SOL     OW14530   0.376   4.095   2.002 -0.4371  0.8205 -0.2316
 1024SOL    HW114531   0.346   4.087   1.912 -1.0117  0.3355  0.0033
 1024SOL    HW214532   0.363   4.004   2.029  0.0164  1.0942  0.9535
 1025SOL     OW14533   3.286   2.894  17.688 -0.9764  0.4927 -0.5510
 1025SOL    HW114534   3.210   2.939   0.030 -1.6196 -0.4575 -0.6989
 1025SOL    HW214535   3.336   2.870   0.072  0.5446  0.2827 -1.5737
 1026SOL     OW14536   4.196   0.568   6.640 -0.1052 -0.2363 -0.1151
 1026SOL    HW114537   4.168   0.532   6.724 -0.0235 -1.2621 -0.5205
 1026SOL    HW214538   4.234   0.648   6.675 -0.0651  1.1258 -3.2413
 1027SOL     OW14539   0.298   4.349   2.786  0.3630  0.0304  0.3170
 1027SOL    HW114540   0.333   4.334   2.874 -1.0373 -0.4499  0.7823
 1027SOL    HW214541   0.375   4.376   2.735  1.5727  0.8427  2.5638
 1028SOL     OW14542   1.428   3.132  10.828 -0.5844  0.2899  0.0765
 1028SOL    HW114543   1.425   3.043  10.793 -1.7310 -0.6238  2.4618
 1028SOL    HW214544   1.354   3.125  10.889 -2.4217 -2.8421 -2.4352
 1029SOL     OW14545   0.175   4.348   4.298 -0.1624  0.7807 -0.1586
 1029SOL    HW114546   0.257   4.313   4.261 -0.5292  0.4870 -0.6865
 1029SOL    HW214547   0.125   4.361   4.218  1.9479  1.7088 -1.3141
 1030SOL     OW14548   2.816   4.704  11.474 -0.0591 -0.1436 -0.1920
 1030SOL    HW114549   2.795   4.721  11.566  3.0713 -1.8324  0.8214
 1030SOL    HW214550   2.755   4.632  11.455  0.9551 -0.8762 -0.6313
 1031SOL     OW14551   0.074   4.619   0.029 -0.2792 -0.1801 -0.2633
 1031SOL    HW114552   0.011   4.682   0.064 -1.0335 -1.3009  0.4138
 1031SOL    HW214553   0.152   4.650   0.074 -0.2943  0.0668 -0.4084
 1032SOL     OW14554   2.435   2.857   6.528  0.4864 -0.8098 -0.2722
 1032SOL    HW114555   2.485   2.935   6.549 -2.3324  1.7431 -3.0597
 1032SOL    HW214556   2.349   2.881   6.563  0.9254  1.0427 -0.4749
 1033SOL     OW14557   1.944   4.561   2.729 -0.1094 -0.4199  0.2400
 1033SOL    HW114558   1.857   4.550   2.768  0.3425  2.5892  2.0630
 1033SOL    HW214559   1.991   4.487   2.767  0.5013 -0.6447 -0.9375
 1034SOL     OW14560   2.312   4.619   3.659 -0.1777 -1.3211  0.2270
 1034SOL    HW114561   2.382   4.661   3.709 -0.6153 -1.2244  0.7547
 1034SOL    HW214562   2.279   4.693   3.608 -0.8423 -1.6977  0.0968
 1035SOL     OW14563   1.381   3.499   4.209  0.0510 -0.1039  0.5759
 1035SOL    HW114564   1.452   3.457   4.257 -1.5300 -0.8567  2.2289
 1035SOL    HW214565   1.396   3.593   4.221 -1.6944  0.0486  1.5425
 1036SOL     OW14566   4.713   1.237   1.165 -0.3686  0.2911  0.0524
 1036SOL    HW114567   4.648   1.234   1.095  0.3287 -1.1966 -0.5216
 1036SOL    HW214568   4.653   1.218   1.238 -2.1104  0.4764 -1.3391
 1037SOL     OW14569   2.126   1.512  11.312 -0.0422 -0.1794 -0.5261
 1037SOL    HW114570   2.155   1.422  11.325 -2.0557 -0.7579 -0.1178
 1037SOL    HW214571   2.035   1.494  11.291 -0.3960  1.8138 -0.6777
 1038SOL     OW14572   1.644   0.346  10.993  0.3878 -0.2206 -0.4318
 1038SOL    HW114573   1.709   0.290  10.953  0.7599  0.7174 -1.1341
 1038SOL    HW214574   1.602   0.391  10.920  0.3208  0.0319 -0.2384
 1039SOL     OW14575   3.937   0.854   2.735 -0.3802 -0.3268  0.5839
 1039SOL    HW114576   3.910   0.859   2.643  0.4440 -0.5169  0.3332
 1039SOL    HW214577   4.021   0.898   2.721  0.1091 -0.0538  4.2111
 1040SOL     OW14578   2.841   4.300   2.850 -0.0802 -0.1523 -0.0312
 1040SOL    HW114579   2.778   4.231   2.831 -2.5179  1.9311  0.3718
 1040SOL    HW214580   2.787   4.378   2.867  0.1471  0.0074 -0.0365
 1041SOL     OW14581   4.710   0.198   8.504 -0.1977 -0.3063 -0.3442
 1041SOL    HW114582   0.073   0.158   8.512 -0.9029 -1.9301 -0.7664
 1041SOL    HW214583   4.718   0.242   8.420 -1.1210  0.8933  0.1959
 1042SOL     OW14584   0.564   4.139  11.147  0.8373 -0.5453 -0.0210
 1042SOL    HW114585   0.569   4.234  11.152  0.0571 -0.5936  2.0104
 1042SOL    HW214586   0.610   4.112  11.226 -2.6049  0.2721  2.2835
 1043SOL     OW14587   1.558   1.310  17.141  0.0309  0.4245  0.1423
 1043SOL    HW114588   1.596   1.267  17.065  0.6769  1.2843 -0.0235
 1043SOL    HW214589   1.487   1.363  17.104 -2.0272 -0.8964  2.2073
 1044SOL     OW14590   2.192   0.348   5.831 -0.3950  0.2338  0.1664
 1044SOL    HW114591   2.139   0.273   5.803 -0.0269  0.5379 -1.3634
 1044SOL    HW214592   2.243   0.301   5.897 -1.8995 -0.0861  1.1062
 1045SOL     OW14593   2.970   3.316  17.037 -0.2000  0.4804  0.1106
 1045SOL    HW114594   2.940   3.270  16.959 -0.2389 -0.4207  0.6470
 1045SOL    HW214595   2.913   3.392  17.038  0.6345  1.0989  1.4418
 1046SOL     OW14596   1.595   3.220   7.336 -0.1923 -0.5469  0.2091
 1046SOL    HW114597   1.515   3.273   7.325 -0.6496 -1.2292  0.2517
 1046SOL    HW214598   1.669   3.280   7.343  0.6775 -1.5129 -0.6486
 1047SOL     OW14599   1.250   3.875   2.305  0.1890 -0.2840  0.6027
 1047SOL    HW114600   1.266   3.884   2.211 -0.3881  0.9975  0.6393
 1047SOL    HW214601   1.301   3.794   2.318  1.6726  0.0760 -2.9235
 1048SOL     OW14602   4.324   2.772   4.730 -0.2235 -0.4186 -0.2560
 1048SOL    HW114603   4.288   2.693   4.770 -0.2996 -0.1116  0.2861
 1048SOL    HW214604   4.262   2.796   4.662  0.8488 -0.3468 -1.1948
 1049SOL     OW14605   0.064   1.569   0.333 -0.0059  0.8950  1.0893
 1049SOL    HW114606   0.017   1.646   0.365 -0.4437  0.5498  1.2686
 1049SOL    HW214607   0.004   1.523   0.275  0.0714  0.5809  1.2611
 1050SOL     OW14608   1.930   1.996   6.361  0.0726  0.0091  0.3846
 1050SOL    HW114609   1.870   2.067   6.386  0.6497 -0.0013  1.7932
 1050SOL    HW214610   1.866   1.925   6.368  1.1453 -1.0318 -0.3762
 1051SOL     OW14611   1.054   3.092   0.047 -0.7968 -0.4066  0.0408
 1051SOL    HW114612   1.064   3.030  17.669 -0.2237 -0.4805  0.1814
 1051SOL    HW214613   1.086   3.039   0.120  0.0213  2.4489  1.7361
 1052SOL     OW14614   3.133   4.460   6.783 -0.1857  0.5373  0.3588
 1052SOL    HW114615   3.100   4.390   6.727  2.3771 -0.6385  0.3281
 1052SOL    HW214616   3.057   4.517   6.794 -0.5628  0.0143  0.4292
 1053SOL     OW14617   1.571   2.782  10.613  0.1495  0.2957 -0.2934
 1053SOL    HW114618   1.569   2.751  10.523  0.1404  2.4728 -1.0607
 1053SOL    HW214619   1.494   2.838  10.621  1.1732  1.7309 -0.4377
 1054SOL     OW14620   1.406   4.138   8.963  0.1996 -0.2324 -0.3098
 1054SOL    HW114621   1.353   4.208   9.002  0.4744  0.3345 -0.9533
 1054SOL    HW214622   1.376   4.059   9.008  1.3246 -0.5884 -0.1800
 1055SOL     OW14623   0.861   3.617   4.838 -0.8662  0.0878 -0.0359
 1055SOL    HW114624   0.829   3.664   4.915  0.0808 -0.9905  1.0053
 1055SOL    HW214625   0.843   3.531   4.876 -0.1611 -0.9171 -1.9942
 1056SOL     OW14626   3.661   0.775   0.304 -0.5980  0.5521 -0.4427
 1056SOL    HW114627   3.704   0.764   0.388  0.9181  1.8539 -1.0394
 1056SOL    HW214628   3.721   0.842   0.271 -0.3950  0.3708 -0.4418
 1057SOL     OW14629   1.243   3.075   8.120 -0.1806  0.0713 -0.3352
 1057SOL    HW114630   1.243   3.141   8.190 -0.0396 -0.0082 -0.2617
 1057SOL    HW214631   1.149   3.070   8.103  0.2850  0.7611 -3.0632
 1058SOL     OW14632   0.212   4.370   1.055 -0.4468  0.0211  0.1520
 1058SOL    HW114633   0.198   4.312   1.130 -0.1950  2.4936  2.1223
 1058SOL    HW214634   0.185   4.312   0.984  2.1269 -2.1995  0.9772
 1059SOL     OW14635   3.192   3.817   4.420 -0.4983  0.4298 -0.3752
 1059SOL    HW114636   3.262   3.751   4.414  0.7048  1.6461  0.5028
 1059SOL    HW214637   3.178   3.837   4.327 -2.0505  1.3753  0.0617
 1060SOL     OW14638   0.573   4.501  10.801  0.5528  0.5515  0.1371
 1060SOL    HW114639   0.482   4.486  10.777 -0.4378 -0.3902  4.5187
 1060SOL    HW214640   0.574   4.436  10.870  2.0456 -0.4534 -0.8241
 1061SOL     OW14641   4.376   4.171   0.217 -0.1588  0.1390 -0.1282
 1061SOL    HW114642   4.312   4.170   0.147  0.9806 -1.4600 -1.1535
 1061SOL    HW214643   4.330   4.222   0.284  0.6027  3.0956 -1.8268
 1062SOL     OW14644   0.721   2.382   1.892 -0.3317 -0.1968  0.5005
 1062SOL    HW114645   0.650   2.323   1.917 -0.9884 -0.5052 -2.1004
 1062SOL    HW214646   0.668   2.456   1.861  0.7548  0.3485 -0.0604
 1063SOL     OW14647   1.369   3.034  15.277  0.6020  0.6054 -0.5022
 1063SOL    HW114648   1.339   3.094  15.209 -0.2169  1.3432  0.5030
 1063SOL    HW214649   1.289   3.008  15.322 -0.3353 -1.0478 -3.1226
 1064SOL     OW14650   1.308   1.663  16.244  0.7211  0.0398  0.2055
 1064SOL    HW114651   1.279   1.687  16.333  1.4910 -0.1582  0.5082
 1064SOL    HW214652   1.399   1.694  16.243  1.0074 -0.8974 -2.6095
 1065SOL     OW14653   2.868   2.594   3.245  0.1182  0.3214 -0.3242
 1065SOL    HW114654   2.932   2.555   3.304 -0.8375 -0.1874  0.3830
 1065SOL    HW214655   2.880   2.528   3.176  0.9686 -1.7686  1.8446
 1066SOL     OW14656   2.375   2.583   0.679 -0.1464  0.3056 -0.0184
 1066SOL    HW114657   2.400   2.541   0.762 -1.2424 -3.1763 -1.4486
 1066SOL    HW214658   2.407   2.673   0.679  0.1712  0.2011 -2.5705
 1067SOL     OW14659   1.750   1.970  14.458  0.5396 -0.4844 -0.0849
 1067SOL    HW114660   1.823   2.022  14.488 -0.5066  0.2834  1.1206
 1067SOL    HW214661   1.727   1.923  14.538  0.9145 -0.7839 -0.1575
 1068SOL     OW14662   1.849   2.952   0.799 -0.3990  0.7291 -0.2140
 1068SOL    HW114663   1.837   3.044   0.773  1.1607  0.8640 -0.4279
 1068SOL    HW214664   1.777   2.957   0.862 -2.2790 -0.7636 -2.2479
 1069SOL     OW14665   1.376   0.247  14.428 -0.0409  0.6300 -0.1443
 1069SOL    HW114666   1.434   0.220  14.357 -1.2660 -1.7836 -0.2284
 1069SOL    HW214667   1.320   0.304  14.376  1.9485  0.0517 -2.8950
 1070SOL     OW14668   4.614   3.170  11.134 -0.1303 -0.2704  0.2976
 1070SOL    HW114669   4.556   3.104  11.096  0.5906 -1.1541  0.7289
 1070SOL    HW214670   4.630   3.137  11.223 -1.3869 -3.2346 -0.5774
 1071SOL     OW14671   3.499   1.740   2.794  0.0332  0.1892  0.2881
 1071SOL    HW114672   3.506   1.765   2.702 -0.6395  1.5920  0.6181
 1071SOL    HW214673   3.555   1.663   2.790  1.4055  1.1881  0.5231
 1072SOL     OW14674   1.527   2.185   9.378  0.6724  0.6570 -0.0516
 1072SOL    HW114675   1.567   2.206   9.462 -0.0564  2.3162 -0.1213
 1072SOL    HW214676   1.609   2.189   9.330  0.0673 -0.4994 -1.2066
 1073SOL     OW14677   2.665   1.046  12.111  0.0237  0.3324 -0.2319
 1073SOL    HW114678   2.573   1.064  12.089  0.4085  3.7101  0.9258
 1073SOL    HW214679   2.687   0.969  12.059  2.9274  1.2679 -0.3989
 1074SOL     OW14680   1.794   0.668   3.886 -0.1001  0.3952 -0.2963
 1074SOL    HW114681   1.793   0.614   3.807 -1.1829 -0.1330  0.0645
 1074SOL    HW214682   1.885   0.658   3.913  0.1014 -1.9807 -1.8825
 1075SOL     OW14683   4.479   3.768   8.588  0.1069  0.3127  0.0285
 1075SOL    HW114684   4.540   3.751   8.659  3.0857 -2.9074 -3.3524
 1075SOL    HW214685   4.422   3.841   8.616 -0.3650  0.3496 -1.0295
 1076SOL     OW14686   1.878   2.566  13.722 -0.4245 -0.4908  0.6977
 1076SOL    HW114687   1.878   2.606  13.809  0.0623 -2.0843  1.4433
 1076SOL    HW214688   1.953   2.507  13.717 -0.5802 -0.6568  0.3166
 1077SOL     OW14689   2.055   3.640   7.725 -0.7001 -0.1788 -0.4365
 1077SOL    HW114690   2.068   3.674   7.637  0.6312 -2.7515 -1.2071
 1077SOL    HW214691   2.139   3.625   7.769  0.9253  2.4135 -2.5886
 1078SOL     OW14692   1.016   2.446   5.855  0.3806  0.7620  0.3083
 1078SOL    HW114693   0.926   2.472   5.836 -0.1408  0.0445  1.7975
 1078SOL    HW214694   1.060   2.477   5.776  0.2942 -0.1060 -0.0736
 1079SOL     OW14695   2.080   1.215   7.293  0.0277 -0.0233  0.5901
 1079SOL    HW114696   2.058   1.123   7.309 -0.7851 -0.0297 -0.5369
 1079SOL    HW214697   2.142   1.191   7.225 -0.8024 -2.9757  0.8976
 1080SOL     OW14698   0.742   3.691  16.205 -0.4994  0.5629  0.7737
 1080SOL    HW114699   0.773   3.677  16.294  0.5972  0.9110  0.4507
 1080SOL    HW214700   0.819   3.732  16.166 -0.9257  1.3276  0.7342
 1081SOL     OW14701   4.600   3.936   1.320  0.4854 -0.5861 -0.1793
 1081SOL    HW114702   4.659   3.868   1.353 -0.1115 -1.3173 -0.6216
 1081SOL    HW214703   4.556   3.966   1.401  0.0769  0.8363 -0.9251
 1082SOL     OW14704   4.479   0.009   9.400  0.5257 -0.3047 -0.0104
 1082SOL    HW114705   4.459   0.103   9.401  0.0055 -0.4296  2.9040
 1082SOL    HW214706   4.400   4.705   9.353  1.2031 -1.8804 -0.2315
 1083SOL     OW14707   2.005   2.052  17.117  0.1047  0.2949  0.8092
 1083SOL    HW114708   1.985   1.962  17.092  3.2708  0.0530 -0.9108
 1083SOL    HW214709   1.970   2.100  17.042 -0.6248 -3.1031 -1.0235
 1084SOL     OW14710   0.769   1.713   5.809  0.7725  0.1068 -0.1401
 1084SOL    HW114711   0.843   1.680   5.861  0.2116 -0.6639  0.1693
 1084SOL    HW214712   0.792   1.683   5.722 -0.1806 -1.8645  0.2895
 1085SOL     OW14713   3.704   3.512   7.330 -0.0523  0.2861 -0.3046
 1085SOL    HW114714   3.756   3.477   7.402  2.7076  2.5166 -1.2205
 1085SOL    HW214715   3.750   3.593   7.308 -1.4207  0.9508 -0.7702
 1086SOL     OW14716   3.751   3.439   6.255  0.1241 -0.0190  0.1832
 1086SOL    HW114717   3.682   3.393   6.207  0.6722 -0.1775 -0.4495
 1086SOL    HW214718   3.723   3.528   6.233 -1.3291 -0.9001 -1.6171
 1087SOL     OW14719   4.119   3.420   5.604  0.3464  0.6598 -0.1209
 1087SOL    HW114720   4.040   3.367   5.596  0.4358  0.6949 -1.3252
 1087SOL    HW214721   4.134   3.460   5.518  2.0326  0.1669 -0.0658
 1088SOL     OW14722   3.919   4.637   6.844 -0.0637 -0.0838  0.0533
 1088SOL    HW114723   3.895   4.548   6.816  0.0052 -0.0363 -0.1485
 1088SOL    HW214724   3.884   4.682   6.768  1.0132 -0.5168 -0.7062
 1089SOL     OW14725   2.052   0.874   8.959 -0.7247 -0.4242 -0.1257
 1089SOL    HW114726   2.085   0.964   8.947 -2.9178  0.1105 -2.1639
 1089SOL    HW214727   2.025   0.873   9.051  0.2136 -0.4995  0.1497
 1090SOL     OW14728   2.069   1.146   2.251  0.2366 -0.4831  0.1095
 1090SOL    HW114729   2.143   1.207   2.258  0.0023 -0.4496  2.5048
 1090SOL    HW214730   2.066   1.114   2.341  0.6738 -0.6258  0.0764
 1091SOL     OW14731   3.952   2.738  15.902  0.1785  0.5312  0.1144
 1091SOL    HW114732   3.925   2.652  15.870 -2.1480  1.2415  0.1440
 1091SOL    HW214733   3.928   2.721  15.993  0.6864 -2.0648 -0.2233
 1092SOL     OW14734   0.960   2.051   4.489 -0.0451  0.3430 -0.2944
 1092SOL    HW114735   1.011   1.979   4.525 -0.0642  0.5733  0.1929
 1092SOL    HW214736   0.933   2.011   4.407 -2.3692  1.2758 -0.0007
 1093SOL     OW14737   0.133   1.231   4.638  0.7759  0.4338 -0.2066
 1093SOL    HW114738   0.130   1.193   4.726  2.2628 -2.9694 -1.6185
 1093SOL    HW214739   0.139   1.152   4.584  0.3435 -1.4097  2.3944
 1094SOL     OW14740   2.735   1.137  15.163 -0.4872  0.1632  0.1617
 1094SOL    HW114741   2.783   1.202  15.112 -0.1092  0.0895  0.4293
 1094SOL    HW214742   2.808   1.076  15.166 -0.8421 -0.3077 -0.8709
 1095SOL     OW14743   2.233   2.758   8.273 -0.1314  0.6579 -0.6022
 1095SOL    HW114744   2.305   2.783   8.330  0.0561 -1.0910 -0.0792
 1095SOL    HW214745   2.199   2.682   8.320 -0.3378  1.5867  0.7320
 1096SOL     OW14746   1.188   3.559   4.014 -0.0008 -0.5880  0.0554
 1096SOL    HW114747   1.259   3.540   4.075  1.6697 -1.2481 -2.1412
 1096SOL    HW214748   1.123   3.501   4.054 -0.9657  0.5260  0.1215
 1097SOL     OW14749   1.487   3.046   3.379  0.1000  0.2578  0.0021
 1097SOL    HW114750   1.500   3.049   3.474  0.4178  1.8022 -0.0998
 1097SOL    HW214751   1.497   3.135   3.347 -1.2229  0.3282 -0.2123
 1098SOL     OW14752   2.245   3.941  10.100  0.0771 -0.3462  0.0457
 1098SOL    HW114753   2.219   3.849  10.094 -0.6057  0.0455 -3.0850
 1098SOL    HW214754   2.337   3.933  10.123  1.1885  0.2814 -4.2224
 1099SOL     OW14755   3.805   2.531   3.878  0.0390 -0.1969  0.3898
 1099SOL    HW114756   3.774   2.476   3.807 -1.1861  2.0301 -0.7987
 1099SOL    HW214757   3.796   2.472   3.953 -0.7006 -1.3362 -0.6121
 1100SOL     OW14758   1.733   1.873   7.462  0.8856  0.1892 -0.2756
 1100SOL    HW114759   1.719   1.780   7.475  0.7256  0.4726  1.5648
 1100SOL    HW214760   1.701   1.922   7.539  0.8888 -0.0658 -0.1126
 1101SOL     OW14761   2.321   1.867  13.870 -0.1030 -0.0713  0.1912
 1101SOL    HW114762   2.400   1.840  13.917  0.8085 -0.6152 -1.6415
 1101SOL    HW214763   2.252   1.839  13.929 -1.2316  2.1860 -0.0501
 1102SOL     OW14764   3.145   1.455   5.564  0.2399 -0.2080  0.2293
 1102SOL    HW114765   3.191   1.374   5.543  0.2983 -0.1174  0.0114
 1102SOL    HW214766   3.201   1.481   5.638  0.8583  0.4426 -0.4684
 1103SOL     OW14767   0.982   3.383  12.962  0.0604  0.6304  0.3190
 1103SOL    HW114768   1.010   3.344  12.879  1.0800  1.1577  0.4200
 1103SOL    HW214769   0.889   3.360  12.963  0.2023  0.0183 -0.5801
 1104SOL     OW14770   4.666   2.494  16.336  0.0980 -0.0125  0.2060
 1104SOL    HW114771   0.013   2.490  16.271  0.3236 -0.7182  0.4954
 1104SOL    HW214772   4.707   2.547  16.404  0.7296 -1.0979  0.6750
 1105SOL     OW14773   4.290   3.612   3.405  0.1628 -0.2843 -0.0116
 1105SOL    HW114774   4.226   3.606   3.476  1.0068 -4.2342  0.4250
 1105SOL    HW214775   4.302   3.706   3.393 -1.3979  0.2699  2.8280
 1106SOL     OW14776   2.216   4.311   0.426 -0.1928  0.1392 -0.2638
 1106SOL    HW114777   2.305   4.338   0.451  0.0954  1.5942 -2.8261
 1106SOL    HW214778   2.231   4.306   0.332 -0.8091  0.1700 -0.3637
 1107SOL     OW14779   1.954   3.505  15.306  0.3496  0.8020 -0.5574
 1107SOL    HW114780   1.942   3.537  15.217 -0.9197 -0.5888 -0.8987
 1107SOL    HW214781   1.951   3.411  15.286 -0.5826  0.8537 -0.6654
 1108SOL     OW14782   3.958   2.998   2.988 -0.6925  0.2081 -0.0606
 1108SOL    HW114783   3.949   3.064   3.057 -0.1510 -0.9945  1.1690
 1108SOL    HW214784   4.041   3.021   2.946 -1.0235  0.3902 -0.6124
 1109SOL     OW14785   1.363   2.961  17.236 -0.3937  0.0133  0.0200
 1109SOL    HW114786   1.312   2.978  17.157 -1.8374 -1.9349  0.5264
 1109SOL    HW214787   1.447   3.003  17.216 -0.9699 -0.1338 -2.7510
 1110SOL     OW14788   1.720   0.257   0.824 -1.0958 -0.1084  0.0681
 1110SOL    HW114789   1.674   0.336   0.855 -2.6572 -0.6399 -0.8985
 1110SOL    HW214790   1.756   0.273   0.737 -0.8450 -0.1761  0.1599
 1111SOL     OW14791   4.391   3.441   8.190 -0.2406  0.0059  0.5009
 1111SOL    HW114792   4.452   3.413   8.122 -1.4159 -0.2541 -0.4462
 1111SOL    HW214793   4.446   3.458   8.267  1.2563  1.0672 -0.8026
 1112SOL     OW14794   0.423   2.002   5.768  0.2561 -0.1801 -0.4484
 1112SOL    HW114795   0.472   1.979   5.847  1.5586 -1.7779 -1.7208
 1112SOL    HW214796   0.360   1.935   5.743 -0.2424 -0.2574  1.0243
 1113SOL     OW14797   1.379   0.355   3.291 -0.0199  0.5150  1.0499
 1113SOL    HW114798   1.425   0.402   3.360 -0.2395  2.8421 -0.3813
 1113SOL    HW214799   1.447   0.302   3.249  0.1657 -0.4212  2.5392
 1114SOL     OW14800   0.274   0.212   0.486  0.3153 -0.1288  0.2957
 1114SOL    HW114801   0.240   0.288   0.531 -1.2386  0.6953 -2.2479
 1114SOL    HW214802   0.189   0.175   0.461  1.4653 -1.8948 -1.0893
 1115SOL     OW14803   2.817   1.386  16.496 -0.0700 -0.2200 -0.5478
 1115SOL    HW114804   2.784   1.474  16.478  0.8127  0.2925  0.3632
 1115SOL    HW214805   2.905   1.389  16.533  0.4062  1.2284 -1.8144
 1116SOL     OW14806   3.720   0.652   9.925 -0.0504  0.1283 -0.2183
 1116SOL    HW114807   3.639   0.602   9.911 -0.2585  0.4377 -0.1437
 1116SOL    HW214808   3.777   0.579   9.947 -1.2337  0.6855  4.5611
 1117SOL     OW14809   2.274   1.935   5.047  0.0197  0.4163  0.0757
 1117SOL    HW114810   2.306   2.025   5.050  0.8822  0.2331 -3.5076
 1117SOL    HW214811   2.184   1.951   5.074  0.1634  0.2068  0.6683
 1118SOL     OW14812   4.098   3.099  13.724 -0.2890 -0.3020 -0.1254
 1118SOL    HW114813   4.126   3.016  13.764 -0.6288 -1.1720 -1.7058
 1118SOL    HW214814   4.002   3.097  13.722 -0.2885 -1.6867  0.8426
 1119SOL     OW14815   4.281   3.073   9.355  0.3597  0.6707  1.0567
 1119SOL    HW114816   4.212   3.100   9.416 -0.8971  0.1907 -0.1438
 1119SOL    HW214817   4.319   3.000   9.403 -0.8722  0.2629  1.4096
 1120SOL     OW14818   1.331   2.144   1.862 -0.4718  0.1673  0.0907
 1120SOL    HW114819   1.281   2.103   1.793  1.4786 -1.8448 -0.1444
 1120SOL    HW214820   1.382   2.210   1.815 -2.8989  1.6892 -0.3836
 1121SOL     OW14821   1.184   3.274   3.052 -0.3393  0.1820  0.3577
 1121SOL    HW114822   1.186   3.313   2.965 -0.6665  0.2408  0.3764
 1121SOL    HW214823   1.110   3.215   3.039  0.9743 -0.9321 -2.1398
 1122SOL     OW14824   2.502   2.651   3.904  0.1546  0.5889 -0.1738
 1122SOL    HW114825   2.588   2.610   3.895  0.1966  0.9226 -1.2930
 1122SOL    HW214826   2.445   2.600   3.846  0.1635 -1.7785  1.8736
 1123SOL     OW14827   2.833   4.411   7.563  0.1370  0.4790  0.4219
 1123SOL    HW114828   2.846   4.362   7.645 -2.5716  1.1160  1.2286
 1123SOL    HW214829   2.880   4.494   7.571  0.7542  0.1101  0.5747
 1124SOL     OW14830   3.695   2.560   3.462  0.2666 -0.4194 -0.2335
 1124SOL    HW114831   3.621   2.603   3.506  1.5521  0.8647  0.6702
 1124SOL    HW214832   3.744   2.512   3.529  1.0017  1.8406  0.8529
 1125SOL     OW14833   3.494   1.645   8.132 -0.1977 -0.5029  0.0166
 1125SOL    HW114834   3.499   1.639   8.037  0.1497 -0.7985  0.0509
 1125SOL    HW214835   3.589   1.649   8.148 -0.3634  2.1629  0.2929
 1126SOL     OW14836   4.233   0.972  13.273  0.1497  0.0839 -0.2332
 1126SOL    HW114837   4.216   0.917  13.349 -0.0307 -1.7071 -1.5735
 1126SOL    HW214838   4.329   0.981  13.276 -0.1316  3.0291 -0.3503
 1127SOL     OW14839   4.272   3.783   5.649  0.4213  0.5330 -0.1806
 1127SOL    HW114840   4.304   3.833   5.724 -1.2456 -0.0916  0.9456
 1127SOL    HW214841   4.216   3.715   5.684 -0.9619  2.1148  0.6950
 1128SOL     OW14842   3.013   3.504   5.792  0.4315 -0.1911 -0.3856
 1128SOL    HW114843   3.072   3.470   5.724 -1.6055  0.5647 -2.5183
 1128SOL    HW214844   2.973   3.422   5.819  0.5204  0.2187  0.9626
 1129SOL     OW14845   2.925   0.224  10.579  0.2603  0.0408 -0.1861
 1129SOL    HW114846   2.997   0.170  10.544 -0.4599 -1.3593  0.4744
 1129SOL    HW214847   2.919   0.198  10.671 -1.3707 -0.0795 -0.3280
 1130SOL     OW14848   1.448   0.500  13.759  0.1612  0.1776  0.3122
 1130SOL    HW114849   1.392   0.519  13.685  2.2337 -0.2612 -1.3880
 1130SOL    HW214850   1.435   0.578  13.812  0.4512  0.2348  0.2994
 1131SOL     OW14851   2.515   1.363   5.270  0.0272  0.3232 -0.9768
 1131SOL    HW114852   2.439   1.310   5.245  0.0238  0.5321 -1.4218
 1131SOL    HW214853   2.531   1.403   5.184  3.0786  1.6978  0.2377
 1132SOL     OW14854   3.711   4.721   6.305  0.2219 -0.3445  0.5867
 1132SOL    HW114855   3.652   0.069   6.330  0.0833 -0.5469  0.8310
 1132SOL    HW214856   3.797   0.040   6.314 -0.1832  0.5236  0.4352
 1133SOL     OW14857   3.410   2.783   7.586 -0.6141 -0.4074  0.5117
 1133SOL    HW114858   3.496   2.751   7.558  0.2889  1.5080  1.0649
 1133SOL    HW214859   3.447   2.843   7.652  2.1162  0.9943 -2.2681
 1134SOL     OW14860   2.750   3.807   3.579 -0.2757  0.1191 -0.0778
 1134SOL    HW114861   2.747   3.717   3.546 -1.9631  0.3462 -0.5554
 1134SOL    HW214862   2.656   3.824   3.592 -0.1604  0.4278  0.3689
 1135SOL     OW14863   3.740   1.222   0.859  0.2207 -0.4326  0.4758
 1135SOL    HW114864   3.786   1.288   0.910  0.4702 -1.7746  1.9756
 1135SOL    HW214865   3.688   1.170   0.920  1.8203 -0.1103  2.0903
 1136SOL     OW14866   1.122   2.725   4.227 -0.5173  0.6484 -0.1733
 1136SOL    HW114867   1.065   2.767   4.291 -2.2052  0.1359 -1.3400
 1136SOL    HW214868   1.059   2.664   4.189 -0.1764  1.2901 -1.7701
 1137SOL     OW14869   0.326   3.149   6.602 -0.1029 -0.1150  0.3838
 1137SOL    HW114870   0.320   3.175   6.694  1.1293 -2.5102  1.1550
 1137SOL    HW214871   0.319   3.235   6.560 -2.3833 -0.7726 -0.5607
 1138SOL     OW14872   0.615   3.321   6.528 -0.1059 -0.5091 -0.1272
 1138SOL    HW114873   0.677   3.382   6.568 -1.6280  1.1118 -0.2407
 1138SOL    HW214874   0.532   3.368   6.522  0.1530 -0.1895 -1.2036
 1139SOL     OW14875   3.609   1.078   1.824 -0.1024  0.1588 -0.0262
 1139SOL    HW114876   3.658   1.160   1.813 -0.2519  0.3101  0.4219
 1139SOL    HW214877   3.519   1.111   1.819  0.3398  1.3494 -0.0960
 1140SOL     OW14878   2.894   4.260   8.433 -0.0428  0.6984 -0.3940
 1140SOL    HW114879   2.896   4.264   8.528  1.4357 -0.6327 -0.3702
 1140SOL    HW214880   2.958   4.327   8.409 -2.3788  2.6823 -1.0761
 1141SOL     OW14881   2.028   1.898   2.869 -0.1051 -0.4181  0.1095
 1141SOL    HW114882   2.022   1.967   2.935  2.0390  0.2801 -0.4469
 1141SOL    HW214883   1.945   1.854   2.889 -0.7502  0.2579 -1.1168
 1142SOL     OW14884   4.379   0.450   4.188 -0.1722 -0.1673  0.6112
 1142SOL    HW114885   4.286   0.432   4.174  0.0615 -1.0870  0.2325
 1142SOL    HW214886   4.416   0.456   4.100  0.0194 -3.5760  0.4692
 1143SOL     OW14887   0.314   4.231  11.431 -0.0621  0.0356 -0.0962
 1143SOL    HW114888   0.292   4.247  11.523  2.2186 -0.6929  0.5680
 1143SOL    HW214889   0.340   4.139  11.433  0.3331  0.2107  2.2471
 1144SOL     OW14890   3.749   2.966   5.610  0.3671  0.0874 -0.8691
 1144SOL    HW114891   3.658   2.938   5.611  0.0185  1.2173 -1.1926
 1144SOL    HW214892   3.786   2.927   5.531  1.8988  1.9316 -1.0637
 1145SOL     OW14893   1.954   0.504   7.835  0.1754  0.0590  0.6301
 1145SOL    HW114894   1.994   0.535   7.754 -3.1095  0.0471 -1.0199
 1145SOL    HW214895   2.015   0.518   7.907 -1.5513  1.4923  1.7995
 1146SOL     OW14896   2.620   2.178  11.510  0.1651  0.0695  0.1628
 1146SOL    HW114897   2.552   2.236  11.477  1.6323  2.1167  0.7468
 1146SOL    HW214898   2.660   2.135  11.434  0.5554 -1.6186  1.3123
 1147SOL     OW14899   2.103   1.845   5.643 -0.1174 -0.0504  0.1132
 1147SOL    HW114900   2.185   1.886   5.613 -0.4694  0.4466 -0.1668
 1147SOL    HW214901   2.092   1.893   5.725 -0.9082  0.0740 -0.0726
 1148SOL     OW14902   0.535   1.605   6.802  0.7967  0.4297 -0.6553
 1148SOL    HW114903   0.542   1.525   6.854 -1.3325  1.2394  0.8832
 1148SOL    HW214904   0.456   1.647   6.838  1.7915  0.4936  1.4645
 1149SOL     OW14905   0.101   3.630   0.228 -0.2873 -0.3686  0.0275
 1149SOL    HW114906   0.148   3.566   0.282 -1.1632 -1.3922 -0.4261
 1149SOL    HW214907   0.163   3.620   0.156 -0.3894 -1.2890  0.0655
 1150SOL     OW14908   2.402   2.261   8.099 -0.3042  0.9033  0.3340
 1150SOL    HW114909   2.308   2.278   8.092 -0.2329  0.7194 -0.9998
 1150SOL    HW214910   2.423   2.316   8.175 -4.3523 -0.9709  2.8222
 1151SOL     OW14911   4.427   4.700   1.876 -0.4592 -0.6952  0.5350
 1151SOL    HW114912   4.392   4.652   1.801 -0.5524 -1.3080  0.9794
 1151SOL    HW214913   4.362   0.047   1.891 -1.6191 -2.1232  2.1211
 1152SOL     OW14914   0.050   0.271   2.442  0.3932  0.2415  0.1044
 1152SOL    HW114915   0.044   0.366   2.430  0.4729  0.6735  3.5003
 1152SOL    HW214916   0.044   0.244   2.350  0.6274  0.4788  0.0189
 1153SOL     OW14917   0.112   2.459   1.177 -0.3500 -0.3879 -0.1935
 1153SOL    HW114918   0.034   2.475   1.123  1.6386  1.4819 -2.5034
 1153SOL    HW214919   0.089   2.526   1.241  0.1547 -1.2849  0.9139
 1154SOL     OW14920   4.534   1.985   6.079 -0.5168  0.2761 -0.1152
 1154SOL    HW114921   4.544   1.914   6.141  1.4683  0.2418 -0.4759
 1154SOL    HW214922   4.527   1.942   5.994  2.8262  0.9548 -0.7233
 1155SOL     OW14923   1.943   4.333   7.726  0.5162  0.5446  0.1321
 1155SOL    HW114924   2.002   4.401   7.693  1.6298  1.0140  3.1350
 1155SOL    HW214925   1.887   4.390   7.779 -3.5746 -0.3714 -3.2173
 1156SOL     OW14926   3.940   1.705   4.636  0.2243 -0.2664  0.3382
 1156SOL    HW114927   3.865   1.752   4.600  1.2713  1.1564  0.0150
 1156SOL    HW214928   3.973   1.786   4.676 -0.7960 -0.0069  0.6572
 1157SOL     OW14929   2.766   3.377   4.322 -0.2588  0.2745  0.1201
 1157SOL    HW114930   2.858   3.381   4.347 -0.6900 -1.9498  2.1122
 1157SOL    HW214931   2.752   3.284   4.303  1.5925  0.4369 -2.0506
 1158SOL     OW14932   4.047   1.087  10.433  0.4429 -0.1490 -0.1578
 1158SOL    HW114933   4.044   1.128  10.519  0.2034  0.4729 -0.4652
 1158SOL    HW214934   4.071   1.165  10.383 -0.9525 -1.2877 -2.6108
 1159SOL     OW14935   4.646   1.958   2.743  0.2492 -0.2961  0.3024
 1159SOL    HW114936   4.572   1.906   2.775  0.3913  0.6914  2.2373
 1159SOL    HW214937   4.713   1.907   2.788 -1.7876 -2.0876  1.3114
 1160SOL     OW14938   2.482   3.144  12.067  0.3358  0.0478  0.0635
 1160SOL    HW114939   2.429   3.213  12.106 -0.6260 -1.5026  1.5035
 1160SOL    HW214940   2.426   3.066  12.072  0.2071  0.0185 -1.6784
 1161SOL     OW14941   1.534   2.432   4.052 -0.0677 -0.2885  0.5232
 1161SOL    HW114942   1.616   2.388   4.032  0.5472  1.0716  0.0356
 1161SOL    HW214943   1.474   2.390   3.991  1.0524 -0.2643 -0.5943
 1162SOL     OW14944   3.522   4.429   6.827  0.1293 -0.3039 -0.5162
 1162SOL    HW114945   3.543   4.490   6.898 -0.8164  0.5289 -0.9681
 1162SOL    HW214946   3.597   4.450   6.771  0.4866 -2.5081 -0.8763
 1163SOL     OW14947   0.984   4.135   0.140  0.4742  0.2194 -0.4445
 1163SOL    HW114948   0.978   4.069   0.071  0.9371 -0.0501 -0.2261
 1163SOL    HW214949   1.074   4.117   0.166  0.1602 -0.8613 -0.1125
 1164SOL     OW14950   0.748   3.016   3.483 -0.0972 -0.0851 -0.5082
 1164SOL    HW114951   0.842   3.007   3.464  0.3308 -0.0458  1.5524
 1164SOL    HW214952   0.749   3.095   3.537  0.0311 -0.0331 -0.5878
 1165SOL     OW14953   0.544   2.765   6.255  0.1080  0.0370 -0.8052
 1165SOL    HW114954   0.538   2.797   6.345 -0.1881  0.1113 -0.8530
 1165SOL    HW214955   0.626   2.715   6.263  0.9082  1.4559 -0.1135
 1166SOL     OW14956   0.642   3.780   6.927  0.2694 -0.0897 -0.5422
 1166SOL    HW114957   0.683   3.694   6.937  0.6932  0.1523 -0.2079
 1166SOL    HW214958   0.693   3.829   6.992 -0.7069  3.7300 -2.6404
 1167SOL     OW14959   3.724   2.100   0.507  0.6297  0.6431 -0.0503
 1167SOL    HW114960   3.694   2.052   0.429  0.9947 -0.4265  0.4603
 1167SOL    HW214961   3.696   2.040   0.576 -0.7832  0.2813 -0.9259
 1168SOL     OW14962   1.569   1.043   5.005 -0.3631 -0.3632  0.7570
 1168SOL    HW114963   1.647   1.012   5.052 -1.1292 -1.6074  1.2151
 1168SOL    HW214964   1.567   1.137   5.023  0.0796 -0.6215  2.1428
 1169SOL     OW14965   4.578   3.107  17.054  0.3085 -0.1663 -0.3601
 1169SOL    HW114966   4.538   3.191  17.075 -1.0088 -0.7037 -0.7128
 1169SOL    HW214967   4.511   3.054  17.098  0.3811 -0.6779 -0.8682
 1170SOL     OW14968   2.240   2.854  13.127 -0.3291 -0.1252  0.3530
 1170SOL    HW114969   2.311   2.790  13.134 -0.5230 -0.6139 -1.9870
 1170SOL    HW214970   2.263   2.888  13.041  0.2221  0.6021  0.7900
 1171SOL     OW14971   2.514   4.491   4.208  0.3343 -0.7826  0.6625
 1171SOL    HW114972   2.485   4.458   4.123  1.7689  0.2164 -0.2123
 1171SOL    HW214973   2.585   4.550   4.180 -0.0518  0.3673  2.0736
 1172SOL     OW14974   0.385   0.136   2.247 -0.4716 -0.3893  0.6725
 1172SOL    HW114975   0.367   0.059   2.193 -2.5032  1.4344 -1.2235
 1172SOL    HW214976   0.302   0.143   2.295 -0.8300  1.2344 -0.1962
 1173SOL     OW14977   0.349   3.036   4.812  0.1549 -0.4265  0.7238
 1173SOL    HW114978   0.360   3.118   4.860  0.9783 -0.0648 -0.0681
 1173SOL    HW214979   0.259   3.049   4.782  0.8157  0.3766 -0.9054
 1174SOL     OW14980   2.598   3.437   5.525  0.1865  0.6367 -0.9767
 1174SOL    HW114981   2.636   3.521   5.550 -0.7229  0.7374  0.0686
 1174SOL    HW214982   2.589   3.451   5.431  1.3543 -2.0640 -1.4984
 1175SOL     OW14983   0.574   3.068   6.658 -0.4927 -0.7930  0.7040
 1175SOL    HW114984   0.482   3.092   6.647  1.1449  4.4737 -1.3135
 1175SOL    HW214985   0.616   3.139   6.610 -0.2119 -3.2160 -2.6470
 1176SOL     OW14986   2.955   1.308   7.374  0.4969  0.2982 -0.1834
 1176SOL    HW114987   2.956   1.351   7.460  0.6241 -1.0158  0.4737
 1176SOL    HW214988   2.957   1.387   7.321  1.2005  0.0838 -0.4753
 1177SOL     OW14989   2.493   1.958   3.904 -0.4951 -0.1790  0.5651
 1177SOL    HW114990   2.543   1.919   3.975 -1.7920  0.0448  1.5912
 1177SOL    HW214991   2.410   1.976   3.948 -1.1691  1.9743 -1.5315
 1178SOL     OW14992   0.607   1.362  14.604  0.9653 -0.0784  0.1013
 1178SOL    HW114993   0.702   1.364  14.597  0.8913 -2.0056 -1.3045
 1178SOL    HW214994   0.597   1.456  14.621 -0.5088 -0.0610 -0.8435
 1179SOL     OW14995   3.238   2.261  12.143  0.1631 -0.2944  0.1703
 1179SOL    HW114996   3.161   2.276  12.089 -0.8469 -0.7068  1.4838
 1179SOL    HW214997   3.315   2.254  12.086 -0.5270 -1.2499 -0.6383
 1180SOL     OW14998   4.687   0.309   3.719 -0.2267 -0.0728 -0.2122
 1180SOL    HW114999   4.675   0.266   3.634 -0.8950 -2.6569  1.1885
 1180SOL    HW215000   4.717   0.397   3.696 -1.4304  0.4547  0.2247
 1181SOL     OW15001   3.645   2.416  16.036  0.0493 -0.6292 -0.6127
 1181SOL    HW115002   3.727   2.415  16.085 -0.1220 -1.4981 -0.3355
 1181SOL    HW215003   3.648   2.482  15.967 -1.9753 -0.3066 -0.4033
 1182SOL     OW15004   0.762   3.892   9.850 -0.0522  0.4274 -0.0803
 1182SOL    HW115005   0.810   3.809   9.850 -1.8091 -0.6115  2.2237
 1182SOL    HW215006   0.799   3.944   9.921  0.2646 -1.5434  1.1914
 1183SOL     OW15007   1.748   1.414  13.454 -0.3001  0.1104  0.1872
 1183SOL    HW115008   1.791   1.492  13.419  0.5184 -0.9331 -1.1394
 1183SOL    HW215009   1.687   1.440  13.523  0.5039 -0.0611  0.9613
 1184SOL     OW15010   4.284   2.710   6.413 -0.3213  0.0315 -0.3895
 1184SOL    HW115011   4.261   2.748   6.498 -1.2661  1.3155 -1.2134
 1184SOL    HW215012   4.346   2.772   6.375 -0.1069  0.4151  0.5997
 1185SOL     OW15013   1.031   1.256  10.764  0.0112  0.2465 -0.0289
 1185SOL    HW115014   1.100   1.300  10.715  0.4805 -0.6836 -0.1962
 1185SOL    HW215015   1.059   1.168  10.737  1.6421  0.3521  1.3442
 1186SOL     OW15016   3.151   2.642   8.079 -0.1986 -0.3284  0.8493
 1186SOL    HW115017   3.170   2.630   8.172  2.4337  0.6798  0.4364
 1186SOL    HW215018   3.064   2.680   8.090 -1.5777 -3.1938  0.0088
 1187SOL     OW15019   1.823   4.515   5.158  0.2981 -0.2685  0.4752
 1187SOL    HW115020   1.786   4.569   5.227 -0.7666  0.3696 -0.5910
 1187SOL    HW215021   1.810   4.425   5.188  1.2246 -0.9373 -1.1299
 1188SOL     OW15022   2.626   3.980   2.286  0.4288 -0.7542  0.1933
 1188SOL    HW115023   2.626   3.959   2.379  2.3166 -0.3893  0.2802
 1188SOL    HW215024   2.648   3.895   2.246  2.8200 -0.5319  0.9828
 1189SOL     OW15025   0.688   4.696   1.010 -0.0843 -0.4456  0.5562
 1189SOL    HW115026   0.760   4.692   1.071 -0.0196  0.0681  0.5125
 1189SOL    HW215027   0.670   0.066   1.019  2.7249 -0.1147  2.4856
 1190SOL     OW15028   0.953   0.893   0.997 -0.2813 -0.4382 -0.6504
 1190SOL    HW115029   1.047   0.875   0.993 -0.1179  0.0183  1.1253
 1190SOL    HW215030   0.910   0.811   0.974 -3.1374  1.0943 -0.8726
 1191SOL     OW15031   2.905   3.661   1.699 -0.0203 -0.3118 -0.1895
 1191SOL    HW115032   2.886   3.573   1.730  1.5842 -0.1735  1.1250
 1191SOL    HW215033   2.878   3.708   1.778  0.0853 -0.3631 -0.1237
 1192SOL     OW15034   4.718   0.502   6.688  0.0493 -0.3623  0.0937
 1192SOL    HW115035   0.064   0.566   6.706  1.2284 -1.2172 -1.3728
 1192SOL    HW215036   4.720   0.450   6.768  0.4082 -1.6486 -0.7459
 1193SOL     OW15037   1.423   3.697  17.587 -0.2084  0.3382 -0.0759
 1193SOL    HW115038   1.396   3.617  17.633  2.0263  0.1582  0.9303
 1193SOL    HW215039   1.487   3.661  17.526 -1.0364  0.7861 -1.1988
 1194SOL     OW15040   1.530   1.747   8.772 -0.1153 -0.3705 -0.3152
 1194SOL    HW115041   1.488   1.661   8.777 -2.3034  0.7570  0.4711
 1194SOL    HW215042   1.539   1.760   8.678  0.7311 -1.6676 -0.4093
 1195SOL     OW15043   2.001   3.516   2.709  0.4784  0.5089  0.4773
 1195SOL    HW115044   1.937   3.563   2.761 -2.5939 -2.4221 -0.6270
 1195SOL    HW215045   2.075   3.574   2.692  0.2287  1.2487  1.9435
 1196SOL     OW15046   2.343   0.165   5.565  0.4656 -0.0786 -0.4959
 1196SOL    HW115047   2.315   0.225   5.634  2.6219  1.5127 -1.0002
 1196SOL    HW215048   2.333   0.083   5.615 -3.0372 -0.4000 -1.7751
 1197SOL     OW15049   0.689   2.901   5.027  0.2091 -0.0815 -0.0168
 1197SOL    HW115050   0.699   2.819   4.979  0.4511 -0.8201  1.3062
 1197SOL    HW215051   0.602   2.874   5.057  0.1772 -0.6117 -0.5778
 1198SOL     OW15052   2.496   4.298   2.993 -0.1925  0.0286 -0.5733
 1198SOL    HW115053   2.549   4.224   2.964 -1.1667 -0.2244 -1.6824
 1198SOL    HW215054   2.509   4.304   3.088  0.8809 -0.8611 -0.6578
 1199SOL     OW15055   3.415   4.048   8.665  0.4173 -0.3726  0.0209
 1199SOL    HW115056   3.331   4.093   8.665  1.6709  1.9592 -0.5195
 1199SOL    HW215057   3.445   4.061   8.755 -1.9502 -1.2382  0.9187
 1200SOL     OW15058   1.597   0.692   4.529 -0.1773  0.0209 -0.3597
 1200SOL    HW115059   1.680   0.673   4.573 -0.6217  2.4677  1.5636
 1200SOL    HW215060   1.630   0.744   4.456  0.3770  1.1198  0.6668
 1201SOL     OW15061   2.359   0.118   4.972  0.1392 -0.1682 -0.0936
 1201SOL    HW115062   2.341   0.113   5.066  2.4128 -1.8880  0.2484
 1201SOL    HW215063   2.444   0.075   4.958  0.4092 -0.0494  1.2149
 1202SOL     OW15064   4.106   1.431   1.991 -0.1434 -0.0689  0.2551
 1202SOL    HW115065   4.071   1.518   1.968 -3.4602 -1.6251 -0.5822
 1202SOL    HW215066   4.041   1.414   2.059  0.8004 -2.3540  0.5764
 1203SOL     OW15067   0.727   1.622   8.052  0.1724 -0.5692  0.3084
 1203SOL    HW115068   0.640   1.597   8.023  0.1395  0.4268 -0.4412
 1203SOL    HW215069   0.729   1.595   8.144 -1.9843 -0.5379  0.3512
 1204SOL     OW15070   0.470   4.203   0.861  0.0517 -0.0090 -0.2426
 1204SOL    HW115071   0.428   4.262   0.924 -2.7665 -0.1529 -1.9840
 1204SOL    HW215072   0.468   4.117   0.903 -1.8013  0.4613  0.6532
 1205SOL     OW15073   1.176   4.302   7.348 -0.0451  0.0031 -0.2131
 1205SOL    HW115074   1.097   4.267   7.308  0.6501 -1.0946 -0.6410
 1205SOL    HW215075   1.142   4.363   7.414  1.0353  0.9738 -0.5616
 1206SOL     OW15076   3.000   2.870   6.788  0.3527  0.1344 -0.4009
 1206SOL    HW115077   2.973   2.792   6.738  0.2039  0.1503 -0.3455
 1206SOL    HW215078   2.923   2.927   6.783  0.5607  0.4703  0.3010
 1207SOL     OW15079   0.023   2.351  12.288  0.0652  0.6048 -0.0741
 1207SOL    HW115080   0.084   2.398  12.344 -0.1343  0.7637  0.0097
 1207SOL    HW215081   0.051   2.261  12.305 -1.0351  0.2177 -0.3040
 1208SOL     OW15082   2.531   2.578   3.387 -0.2907  0.7565  0.3942
 1208SOL    HW115083   2.603   2.629   3.349  0.8987 -1.1596  0.1014
 1208SOL    HW215084   2.464   2.647   3.391 -1.8365 -0.6015 -2.3999
 1209SOL     OW15085   2.902   2.993   1.803  0.3565  0.6084 -0.0912
 1209SOL    HW115086   2.813   2.974   1.832  1.2488  1.7680  3.3815
 1209SOL    HW215087   2.866   3.047   1.733  2.1455  2.1341  0.1703
 1210SOL     OW15088   3.088   4.490   0.799  0.1738  0.2400  0.3750
 1210SOL    HW115089   3.165   4.540   0.825  1.0936 -1.2711  0.5608
 1210SOL    HW215090   3.044   4.499   0.883  1.7451  0.5910  1.1592
 1211SOL     OW15091   3.788   2.473   9.037  0.0473 -0.3122  0.1065
 1211SOL    HW115092   3.820   2.460   9.126  1.5005 -1.4442 -0.5900
 1211SOL    HW215093   3.838   2.552   9.019  1.6955 -1.4257 -0.1591
 1212SOL     OW15094   1.592   1.151   2.438 -0.2408  0.0363  0.2816
 1212SOL    HW115095   1.664   1.212   2.418 -2.1098  2.0854 -0.2534
 1212SOL    HW215096   1.621   1.095   2.511 -0.6565 -1.8124 -0.9882
 1213SOL     OW15097   3.479   3.498  14.786  0.1959 -0.0464  0.0491
 1213SOL    HW115098   3.403   3.546  14.821 -0.1528 -0.0134 -0.7646
 1213SOL    HW215099   3.445   3.409  14.784  1.4285 -0.4687 -1.4684
 1214SOL     OW15100   0.346   1.887  11.730  0.5546  0.2935 -0.7363
 1214SOL    HW115101   0.255   1.875  11.755  0.1103  0.4988 -2.2872
 1214SOL    HW215102   0.369   1.794  11.717 -1.5171 -0.5248  1.4229
 1215SOL     OW15103   2.644   0.901   7.226  0.3525 -0.2238 -0.2595
 1215SOL    HW115104   2.639   0.992   7.255  1.6026 -0.5152  0.8679
 1215SOL    HW215105   2.557   0.865   7.243  0.6237 -0.2863  0.9951
 1216SOL     OW15106   4.292   2.808   9.408 -0.2526  0.0766  0.0662
 1216SOL    HW115107   4.232   2.859   9.461 -1.0692  0.8629 -1.6241
 1216SOL    HW215108   4.284   2.724   9.453  2.0540 -0.3636 -0.3155
 1217SOL     OW15109   4.632   4.377  13.287 -0.0553  0.3317  0.6680
 1217SOL    HW115110   4.564   4.421  13.337  0.2021  3.4904 -1.7718
 1217SOL    HW215111   4.625   4.292  13.331  4.1590 -0.9453 -1.0713
 1218SOL     OW15112   1.380   0.660   7.836 -0.1739  0.5440 -0.2664
 1218SOL    HW115113   1.314   0.664   7.905 -0.4158 -1.0220 -0.4167
 1218SOL    HW215114   1.352   0.730   7.777 -0.5240  0.5947 -0.0425
 1219SOL     OW15115   1.602   3.332   4.616 -0.8592 -0.2599  0.3232
 1219SOL    HW115116   1.588   3.407   4.559  0.8927 -1.0855 -1.2050
 1219SOL    HW215117   1.604   3.261   4.552 -0.5532 -1.7891  2.0081
 1220SOL     OW15118   2.169   3.559  16.229 -0.0408  0.2308  0.2955
 1220SOL    HW115119   2.171   3.654  16.218 -1.2889  0.1156 -0.8692
 1220SOL    HW215120   2.251   3.552  16.278  1.0601  0.7940 -1.4623
 1221SOL     OW15121   1.850   2.667  11.108  0.0203  0.0305  0.0689
 1221SOL    HW115122   1.783   2.679  11.040 -0.8809 -1.2927  0.7329
 1221SOL    HW215123   1.837   2.742  11.166  0.1457  0.4437 -0.4375
 1222SOL     OW15124   3.572   4.308   2.246 -0.4704  0.3534 -0.5064
 1222SOL    HW115125   3.544   4.399   2.255  2.5350  1.0546  1.5860
 1222SOL    HW215126   3.503   4.276   2.187 -1.0169  1.1405 -0.2927
 1223SOL     OW15127   3.996   2.232  14.598  0.2048 -0.4063 -0.2956
 1223SOL    HW115128   3.945   2.163  14.641 -1.7102  0.4166 -1.2557
 1223SOL    HW215129   3.924   2.294  14.588  1.2648  0.6146 -1.4074
 1224SOL     OW15130   3.376   4.443   1.979  0.2680 -0.2052 -0.4036
 1224SOL    HW115131   3.358   4.356   2.015  1.7214  0.1858  1.3259
 1224SOL    HW215132   3.389   4.494   2.059  1.0178 -0.3260 -0.4421
 1225SOL     OW15133   1.313   3.301   3.751 -0.1854  0.5451  0.1018
 1225SOL    HW115134   1.358   3.376   3.789 -1.0653 -0.2281  2.6961
 1225SOL    HW215135   1.367   3.234   3.793  0.5175  0.4708 -0.9520
 1226SOL     OW15136   0.894   2.173   2.620  0.6000  0.0778  0.0749
 1226SOL    HW115137   0.810   2.128   2.609  0.3613  0.0206  1.9667
 1226SOL    HW215138   0.875   2.247   2.678  1.4933 -1.2558  2.0841
 1227SOL     OW15139   2.051   4.194  12.954 -0.2160  0.1139 -0.0244
 1227SOL    HW115140   2.146   4.196  12.939 -0.7548 -1.0177 -3.6012
 1227SOL    HW215141   2.049   4.224  13.045  0.6399 -0.1368  0.0849
 1228SOL     OW15142   3.569   1.878  10.734 -0.4896 -0.7072  0.2292
 1228SOL    HW115143   3.541   1.823  10.661 -1.6751  0.0009  0.1515
 1228SOL    HW215144   3.572   1.966  10.695  0.9340 -0.8905 -0.0804
 1229SOL     OW15145   4.561   0.128   2.703 -0.4021  0.2714  0.3231
 1229SOL    HW115146   4.591   0.205   2.752 -1.2628 -0.3144  1.7894
 1229SOL    HW215147   4.513   0.087   2.775 -0.0722 -2.5809 -1.1056
 1230SOL     OW15148   3.162   1.438  15.312 -0.4131 -0.1006 -0.0585
 1230SOL    HW115149   3.136   1.358  15.358 -2.8463  1.8091  1.8250
 1230SOL    HW215150   3.253   1.455  15.336 -0.6895  0.2176  0.7499
 1231SOL     OW15151   2.199   0.316   6.400  0.2273 -0.6178  0.3109
 1231SOL    HW115152   2.246   0.317   6.483 -0.7751  0.0979  0.8650
 1231SOL    HW215153   2.118   0.365   6.412  0.9556  0.6923 -0.0921
 1232SOL     OW15154   1.942   4.522  17.483 -0.4238 -0.1948 -0.0820
 1232SOL    HW115155   1.864   4.522  17.428 -0.1965 -1.4179 -0.4029
 1232SOL    HW215156   1.894   4.526  17.566  2.3008 -0.7188  1.5203
 1233SOL     OW15157   0.656   4.451  13.555  0.3891  0.0288 -0.2375
 1233SOL    HW115158   0.621   4.365  13.578 -0.4522  0.0650 -1.3513
 1233SOL    HW215159   0.609   4.497  13.625 -2.4911 -1.3813 -1.2245
 1234SOL     OW15160   0.579   4.267  16.657 -0.6467 -0.9930 -0.3356
 1234SOL    HW115161   0.652   4.293  16.602 -0.5002  0.1413  0.4032
 1234SOL    HW215162   0.514   4.255  16.587  0.3506  1.4557 -1.6787
 1235SOL     OW15163   1.175   2.445   7.256 -0.2062 -0.2018 -0.2113
 1235SOL    HW115164   1.205   2.533   7.278 -1.3095 -1.4583  6.3269
 1235SOL    HW215165   1.262   2.405   7.257  0.5288  1.3192 -2.3009
 1236SOL     OW15166   2.452   2.387   8.654 -0.0590  0.0633  0.4250
 1236SOL    HW115167   2.403   2.435   8.721  1.2017  0.2580  1.2132
 1236SOL    HW215168   2.429   2.299   8.684 -2.5414 -0.0745 -1.8781
 1237SOL     OW15169   0.778   1.643   7.207  0.4248  0.3656  0.3533
 1237SOL    HW115170   0.690   1.674   7.186 -0.1346 -0.2583  1.7556
 1237SOL    HW215171   0.795   1.685   7.292 -1.7515 -0.6377  1.2807
 1238SOL     OW15172   2.595   3.085   4.281 -0.0600  0.0834  0.0297
 1238SOL    HW115173   2.548   3.004   4.298  2.1201 -1.2617 -0.2612
 1238SOL    HW215174   2.541   3.135   4.221 -1.8802 -1.8870  0.0347
 1239SOL     OW15175   2.740   4.264   4.144 -0.4103  0.2548 -0.0636
 1239SOL    HW115176   2.701   4.293   4.226 -0.9226 -0.5325 -0.0296
 1239SOL    HW215177   2.820   4.317   4.147 -1.0831  1.2616 -0.0248
 1240SOL     OW15178   0.410   2.902  11.632  0.1998  0.6632  0.2015
 1240SOL    HW115179   0.379   2.854  11.556  0.1560  0.6871  0.2046
 1240SOL    HW215180   0.500   2.868  11.636 -0.2159 -0.2500  1.8710
 1241SOL     OW15181   4.183   2.118  12.590  0.3425  0.1463  0.2391
 1241SOL    HW115182   4.203   2.143  12.681  1.2999 -3.5047  1.0572
 1241SOL    HW215183   4.254   2.157  12.540 -0.5790  0.9171 -0.4593
 1242SOL     OW15184   1.459   1.635   2.652 -0.2538 -0.1525  0.1801
 1242SOL    HW115185   1.543   1.630   2.697 -0.9758 -0.3441  1.5021
 1242SOL    HW215186   1.395   1.589   2.705  0.5963  0.9504  2.1543
 1243SOL     OW15187   3.108   2.225   3.713  0.1289  0.7356  0.7281
 1243SOL    HW115188   3.195   2.187   3.727 -1.0370 -2.0031  0.6020
 1243SOL    HW215189   3.058   2.143   3.719 -0.4603  1.0585  0.1474
 1244SOL     OW15190   4.512   2.411   5.169 -0.0309  0.5915  0.5795
 1244SOL    HW115191   4.594   2.364   5.157  0.8014  2.3682 -0.7072
 1244SOL    HW215192   4.506   2.416   5.264  0.1521  1.1678  0.5609
 1245SOL     OW15193   4.352   2.059   3.936  0.2797 -0.1607  0.0457
 1245SOL    HW115194   4.354   2.076   4.031  0.0384  0.9313 -0.1458
 1245SOL    HW215195   4.427   2.002   3.918  0.6002  0.6378 -1.1406
 1246SOL     OW15196   2.507   0.863   6.098 -0.0802 -0.8664 -0.2008
 1246SOL    HW115197   2.485   0.800   6.166 -0.8869 -1.1741 -0.7482
 1246SOL    HW215198   2.459   0.819   6.029 -2.5091  0.5204  0.6046
 1247SOL     OW15199   3.920   2.078   8.421 -0.1406 -0.0054 -0.0679
 1247SOL    HW115200   3.862   2.063   8.494  0.0914 -0.6720 -0.0264
 1247SOL    HW215201   3.866   2.112   8.350 -0.9433  1.0193  1.0415
 1248SOL     OW15202   4.700   1.873   7.112 -0.2044  0.0262  0.1843
 1248SOL    HW115203   0.064   1.857   7.148 -0.7483  0.6714  1.7912
 1248SOL    HW215204   4.642   1.798   7.126 -0.3314  0.0347 -0.2860
 1249SOL     OW15205   4.136   1.364   4.310 -0.7266 -0.1417 -0.2648
 1249SOL    HW115206   4.151   1.283   4.359 -0.5095  1.2239  1.9371
 1249SOL    HW215207   4.162   1.333   4.223  0.3992 -1.0221  0.3839
 1250SOL     OW15208   0.630   4.122   5.592 -0.4795 -0.0296 -0.5458
 1250SOL    HW115209   0.615   4.045   5.538 -1.4117 -0.7350  0.7114
 1250SOL    HW215210   0.561   4.184   5.568  0.6778  0.4547 -2.5547
 1251SOL     OW15211   3.414   1.851   7.139  0.1359 -0.6453  0.3371
 1251SOL    HW115212   3.493   1.895   7.170 -0.9399 -0.0922  2.2728
 1251SOL    HW215213   3.351   1.904   7.187  1.2161  2.0662 -1.2245
 1252SOL     OW15214   0.722   3.991  16.309  0.0353 -0.3909  0.1199
 1252SOL    HW115215   0.709   4.082  16.337  1.5120  0.3494 -1.6247
 1252SOL    HW215216   0.808   3.980  16.351  0.7594  1.7423 -0.8324
 1253SOL     OW15217   0.072   3.960   6.284 -0.2596  0.3274  0.0255
 1253SOL    HW115218   0.072   3.866   6.263 -0.3440 -0.0594  1.8035
 1253SOL    HW215219   0.143   3.986   6.224  0.9148 -2.2420  0.2632
 1254SOL     OW15220   1.427   1.415   4.130 -0.0412  0.1096 -0.3913
 1254SOL    HW115221   1.389   1.493   4.089 -1.2570 -1.1487 -1.6699
 1254SOL    HW215222   1.487   1.448   4.197 -1.2155 -0.0160  0.7368
 1255SOL     OW15223   0.091   0.389   1.806 -0.4429  0.5997 -0.4988
 1255SOL    HW115224   0.049   0.384   1.720 -1.2998 -2.1144  0.0736
 1255SOL    HW215225   0.136   0.306   1.823 -1.1502  0.3878  0.3614
 1256SOL     OW15226   3.615   0.488   9.288 -0.4924 -0.1961 -0.3692
 1256SOL    HW115227   3.704   0.505   9.257  0.6101 -2.1784  1.7166
 1256SOL    HW215228   3.638   0.396   9.297 -2.2381 -0.3130  3.0349
 1257SOL     OW15229   2.603   3.164   7.900 -0.6369 -0.4123 -0.0842
 1257SOL    HW115230   2.684   3.114   7.896 -2.0290 -2.7468  1.2076
 1257SOL    HW215231   2.535   3.104   7.869  0.6249 -1.1417 -1.4294
 1258SOL     OW15232   4.388   3.208   6.683  0.2094  0.3365 -0.4818
 1258SOL    HW115233   4.401   3.127   6.732  1.2096  2.2134  2.3235
 1258SOL    HW215234   4.434   3.268   6.742  2.7379 -1.5045 -0.5742
 1259SOL     OW15235   2.026   4.102  15.540 -0.6980  0.4833 -0.0336
 1259SOL    HW115236   2.096   4.110  15.475 -0.4167  0.6683  0.2930
 1259SOL    HW215237   1.954   4.065  15.488 -0.4962 -0.6243  0.4693
 1260SOL     OW15238   3.463   4.044  13.903 -0.4250  0.3044 -0.2532
 1260SOL    HW115239   3.463   3.991  13.824 -1.5308 -2.2028  1.4347
 1260SOL    HW215240   3.557   4.048  13.917 -0.6663  0.3391  1.4167
 1261SOL     OW15241   0.898   0.455   6.951 -0.0497  0.4765  0.0554
 1261SOL    HW115242   0.865   0.394   7.017 -3.1324  2.6485  0.5699
 1261SOL    HW215243   0.847   0.534   6.971  0.8682  0.1055  3.9249
 1262SOL     OW15244   4.597   3.671   7.496  0.3297 -0.0029  0.8628
 1262SOL    HW115245   4.600   3.737   7.427 -0.7962  0.0692  0.8878
 1262SOL    HW215246   4.609   3.727   7.573  1.9953 -0.6567  1.0744
 1263SOL     OW15247   4.161   4.678  16.326  0.0806  0.0526  0.5724
 1263SOL    HW115248   4.117   0.027  16.370 -0.1893 -0.2880  0.8629
 1263SOL    HW215249   4.113   4.677  16.244  0.8123 -2.0386  0.1582
 1264SOL     OW15250   1.127   0.095   3.376  0.0569 -0.2264 -0.6782
 1264SOL    HW115251   1.134   0.085   3.281 -1.9177 -0.6821 -0.7672
 1264SOL    HW215252   1.207   0.051   3.404  0.4436  0.8818 -0.0046
 1265SOL     OW15253   1.136   1.954   7.934  0.5887 -0.1169 -0.4143
 1265SOL    HW115254   1.175   1.897   8.000 -0.6795 -2.3940 -1.6049
 1265SOL    HW215255   1.076   2.016   7.976  1.2021 -0.4790  1.0206
 1266SOL     OW15256   3.208   2.946   3.252 -0.0608  0.8937  0.1138
 1266SOL    HW115257   3.182   2.854   3.255  1.7240  0.4206  1.4290
 1266SOL    HW215258   3.234   2.955   3.161 -0.0953  1.3876  0.1531
 1267SOL     OW15259   0.636   0.719   5.277  0.3877 -0.3241 -0.6351
 1267SOL    HW115260   0.653   0.626   5.263 -0.5663 -0.9998  2.6397
 1267SOL    HW215261   0.677   0.751   5.197  1.8811 -0.1459  0.1842
 1268SOL     OW15262   4.015   2.272   4.173  0.1568 -0.1099  0.5824
 1268SOL    HW115263   4.033   2.228   4.090  1.8009 -0.6946  1.2524
 1268SOL    HW215264   4.031   2.361   4.140  1.0760 -0.9042 -1.1446
 1269SOL     OW15265   4.116   4.547  12.182 -0.6921  0.8268  0.2038
 1269SOL    HW115266   4.136   4.460  12.216  2.9175  0.9807 -1.4478
 1269SOL    HW215267   4.153   4.594  12.257  0.6940  1.1423 -0.6762
 1270SOL     OW15268   3.554   4.584   5.270 -0.2258  0.2428 -0.7851
 1270SOL    HW115269   3.573   4.668   5.310  0.0050  0.7543 -1.9511
 1270SOL    HW215270   3.604   4.522   5.322  0.4006  1.4490  0.0430
 1271SOL     OW15271   2.704   2.350  13.599 -0.3757 -0.1242 -0.5647
 1271SOL    HW115272   2.711   2.415  13.530 -1.1021  1.1948  0.6236
 1271SOL    HW215273   2.795   2.320  13.600 -1.0545 -2.1899  0.7053
 1272SOL     OW15274   0.579   4.017  14.859 -0.6820  0.4370  0.2825
 1272SOL    HW115275   0.557   3.948  14.797 -0.1892  0.1567  0.4238
 1272SOL    HW215276   0.664   4.050  14.830 -0.6213  0.8865  0.9838
 1273SOL     OW15277   2.574   1.734   7.711  0.8923 -0.5648  0.1611
 1273SOL    HW115278   2.541   1.822   7.693  0.9261 -0.5161  0.3373
 1273SOL    HW215279   2.491   1.687   7.709  0.6746 -0.2225  1.0849
 1274SOL     OW15280   2.849   0.899   4.401  0.1763 -0.0197 -0.0047
 1274SOL    HW115281   2.920   0.956   4.429 -0.2281 -0.2739  1.5364
 1274SOL    HW215282   2.851   0.911   4.306 -0.4159 -1.4585 -0.2088
 1275SOL     OW15283   1.661   3.974   3.412 -0.3153  0.1596  1.0128
 1275SOL    HW115284   1.585   3.967   3.355  1.8613  0.2784 -1.9409
 1275SOL    HW215285   1.712   4.050   3.382  0.8419 -1.6170 -1.5055
 1276SOL     OW15286   3.489   0.199   0.140 -0.4346  0.2885  0.2763
 1276SOL    HW115287   3.411   0.157   0.178  1.5653 -2.1293  1.7422
 1276SOL    HW215288   3.453   0.283   0.114 -1.0374  0.3360  1.2709
 1277SOL     OW15289   2.895   2.224   5.596 -0.1992  0.0482 -0.2893
 1277SOL    HW115290   2.830   2.286   5.562 -1.3410 -0.0029  1.8068
 1277SOL    HW215291   2.947   2.208   5.518  0.1679  0.2860 -0.0945
 1278SOL     OW15292   2.333   4.069   4.374 -0.2275  0.2262 -0.0293
 1278SOL    HW115293   2.422   4.060   4.408  0.3219 -0.1088 -1.5638
 1278SOL    HW215294   2.299   4.085   4.463 -0.6432 -0.1883 -0.1103
 1279SOL     OW15295   2.370   1.963   5.669 -0.5246  0.1869 -0.0814
 1279SOL    HW115296   2.404   1.888   5.720  2.1552  0.1546 -1.9203
 1279SOL    HW215297   2.455   2.004   5.653 -2.3121  3.3447 -1.2754
 1280SOL     OW15298   4.442   0.331   1.620  0.5538  0.1992 -0.1988
 1280SOL    HW115299   4.382   0.343   1.694 -1.4046  1.9961 -2.0674
 1280SOL    HW215300   4.385   0.268   1.576  0.6592 -0.1153  0.1186
 1281SOL     OW15301   0.552   4.256   8.298 -0.1500  0.4910  0.3386
 1281SOL    HW115302   0.462   4.281   8.279  0.5141  0.3501 -3.0090
 1281SOL    HW215303   0.595   4.338   8.273 -1.6576  1.2782  0.3583
 1282SOL     OW15304   3.858   2.367   4.989 -0.5490  0.3109 -0.1826
 1282SOL    HW115305   3.834   2.292   5.043 -0.9339  1.9843  1.9816
 1282SOL    HW215306   3.953   2.354   4.984 -0.2904  1.2639  1.9027
 1283SOL     OW15307   3.892   1.287   9.064  0.6709 -0.6596  0.0681
 1283SOL    HW115308   3.913   1.246   8.980  0.0362  0.6912 -0.7491
 1283SOL    HW215309   3.968   1.344   9.077  2.6451 -2.7161 -2.6865
 1284SOL     OW15310   4.311   3.472  11.623 -0.0849 -0.1992  0.0807
 1284SOL    HW115311   4.235   3.484  11.681  0.4639 -1.7291  1.1272
 1284SOL    HW215312   4.353   3.557  11.636 -0.4128 -0.2419  1.5307
 1285SOL     OW15313   0.410   4.545   7.794  1.0530 -0.5328 -0.0076
 1285SOL    HW115314   0.466   4.496   7.855 -0.6055 -2.9930 -0.4374
 1285SOL    HW215315   0.415   4.491   7.715 -0.3928  0.5901 -0.8621
 1286SOL     OW15316   1.691   0.101   6.230  0.4531 -0.3082  0.0485
 1286SOL    HW115317   1.765   0.075   6.284 -1.0026 -0.7118  1.8768
 1286SOL    HW215318   1.674   0.022   6.179 -0.6349  1.5973 -2.4935
 1287SOL     OW15319   2.002   4.300   4.665  0.5625  0.1411 -0.1283
 1287SOL    HW115320   1.910   4.327   4.655  0.2610 -0.3714  1.2507
 1287SOL    HW215321   2.051   4.382   4.665  1.4801 -0.3972  2.5267
 1288SOL     OW15322   3.153   2.102   4.978  0.5376 -0.2012  0.8848
 1288SOL    HW115323   3.058   2.091   4.976  0.4910  0.2074  0.8064
 1288SOL    HW215324   3.165   2.172   4.914  0.0200 -1.0752 -0.1673
 1289SOL     OW15325   2.892   1.222   4.972 -0.5158 -0.0349  0.3018
 1289SOL    HW115326   2.910   1.284   5.042  3.1580  0.0984 -0.7472
 1289SOL    HW215327   2.910   1.139   5.016  1.0288  0.8173  1.2495
 1290SOL     OW15328   1.428   1.430  16.491  0.0072 -0.0930  0.1805
 1290SOL    HW115329   1.450   1.391  16.576 -0.1956 -2.2726 -0.7963
 1290SOL    HW215330   1.495   1.393  16.435  1.5883  0.4788  1.7072
 1291SOL     OW15331   4.536   1.157   2.626  0.0553  0.3121 -0.2294
 1291SOL    HW115332   4.621   1.132   2.662  0.1731 -0.0489 -0.7582
 1291SOL    HW215333   4.534   1.249   2.652  1.1155 -0.0900  1.3180
 1292SOL     OW15334   4.337   1.348  15.317 -0.0311 -0.2615  0.0266
 1292SOL    HW115335   4.411   1.336  15.258 -0.4421  2.2360 -0.9972
 1292SOL    HW215336   4.321   1.442  15.326 -0.5014 -0.2174 -1.3182
 1293SOL     OW15337   1.648   3.090   8.765  0.0833 -0.0791  0.2274
 1293SOL    HW115338   1.565   3.103   8.812  0.0781 -0.0130  0.1998
 1293SOL    HW215339   1.662   3.177   8.729  1.5985 -1.1453 -1.7419
 1294SOL     OW15340   3.699   4.112   6.694 -0.4264 -0.5843  0.8867
 1294SOL    HW115341   3.718   4.164   6.772  1.2620  1.3146 -0.7779
 1294SOL    HW215342   3.614   4.152   6.674  0.5838  1.5359  0.8843
 1295SOL     OW15343   1.424   4.016  15.367  0.0889  0.1079 -0.1408
 1295SOL    HW115344   1.508   4.059  15.384 -0.5591  0.7046  1.5202
 1295SOL    HW215345   1.455   3.927  15.383 -1.0666 -0.5907 -1.8029
 1296SOL     OW15346   1.932   1.192   4.365 -0.6043  0.2342 -0.3024
 1296SOL    HW115347   1.843   1.199   4.400 -0.3943 -1.9259  0.6713
 1296SOL    HW215348   1.905   1.181   4.274  0.1796 -0.0438 -0.5047
 1297SOL     OW15349   2.418   1.550   6.309 -0.1375 -0.4595  0.8860
 1297SOL    HW115350   2.328   1.544   6.341 -0.9237 -0.3817 -1.3188
 1297SOL    HW215351   2.469   1.523   6.385 -1.4603 -0.1452  1.8838
 1298SOL     OW15352   2.848   3.737  12.367  0.7293 -0.0724 -0.4003
 1298SOL    HW115353   2.911   3.691  12.312  0.1162 -0.3993 -0.8233
 1298SOL    HW215354   2.901   3.789  12.428  1.6731 -2.3994  0.7695
 1299SOL     OW15355   3.238   2.450   4.682 -0.0746  0.0822  0.2274
 1299SOL    HW115356   3.179   2.524   4.673  0.8534  1.0667  2.3166
 1299SOL    HW215357   3.313   2.501   4.711  0.3658  0.2811 -1.2429
 1300SOL     OW15358   1.115   2.527   7.612  0.4070  0.2984 -0.1631
 1300SOL    HW115359   1.155   2.613   7.620  0.4112 -0.2292  5.3859
 1300SOL    HW215360   1.051   2.546   7.543  3.3099  2.9935 -2.0571
 1301SOL     OW15361   2.589   3.894   9.908  0.0974 -0.2021 -0.0345
 1301SOL    HW115362   2.605   3.800   9.900  2.1911  0.0688  0.9412
 1301SOL    HW215363   2.523   3.892   9.977 -0.3513 -0.4268 -0.4640
 1302SOL     OW15364   3.661   2.834   0.913 -0.1017 -0.5472 -0.5204
 1302SOL    HW115365   3.738   2.780   0.893 -0.3049 -0.4664 -1.5117
 1302SOL    HW215366   3.701   2.892   0.978  0.5026 -2.1002  0.5160
 1303SOL     OW15367   1.400   0.232  10.720  0.1498  0.3706 -0.6378
 1303SOL    HW115368   1.405   0.160  10.782 -0.7702  1.3081  0.5193
 1303SOL    HW215369   1.309   0.232  10.691  0.1516 -0.9676 -0.6538
 1304SOL     OW15370   3.259   3.392   6.348  0.1331  0.4540  0.4487
 1304SOL    HW115371   3.218   3.479   6.346  0.7014  0.7253  0.7802
 1304SOL    HW215372   3.176   3.354   6.379  0.0120  1.2436  1.0817
 1305SOL     OW15373   4.306   2.874   4.995 -0.5017  0.1549 -0.2405
 1305SOL    HW115374   4.352   2.804   5.042  1.0930  1.6385  0.3904
 1305SOL    HW215375   4.305   2.835   4.908  0.0246 -0.9638  0.2420
 1306SOL     OW15376   3.514   0.885  14.965 -0.9507 -0.4985 -0.0380
 1306SOL    HW115377   3.547   0.799  14.940 -0.6433 -1.0328  2.1732
 1306SOL    HW215378   3.514   0.928  14.880 -2.3184 -4.7956 -2.2030
 1307SOL     OW15379   1.639   1.887   6.327 -0.4392 -0.1267  0.5666
 1307SOL    HW115380   1.617   1.968   6.373 -3.8185 -1.4749  1.3262
 1307SOL    HW215381   1.593   1.896   6.244 -2.3459  1.0845  1.7503
 1308SOL     OW15382   3.465   3.725  12.371 -0.1481 -0.1556 -0.5915
 1308SOL    HW115383   3.375   3.735  12.341 -0.6231  0.8366  1.1860
 1308SOL    HW215384   3.482   3.808  12.415 -1.7969  0.2192 -0.6655
 1309SOL     OW15385   0.246   2.727  17.465 -0.2253  0.2095  0.1580
 1309SOL    HW115386   0.281   2.753  17.550 -0.9657 -1.4165  0.9405
 1309SOL    HW215387   0.154   2.706  17.481  0.2015 -2.3605 -0.8681
 1310SOL     OW15388   0.937   2.951   5.467  0.0272 -0.5563 -0.0354
 1310SOL    HW115389   0.891   3.035   5.474 -0.5409 -0.8784  0.0190
 1310SOL    HW215390   0.866   2.893   5.490 -0.6319  1.3076  2.6021
 1311SOL     OW15391   2.632   2.425   4.514 -0.5488 -0.1656 -0.2554
 1311SOL    HW115392   2.669   2.344   4.547 -0.7925 -0.0443  0.3107
 1311SOL    HW215393   2.546   2.387   4.499 -1.3232  0.8923  1.5506
 1312SOL     OW15394   1.269   2.529  12.231  0.3979  0.3074 -0.0785
 1312SOL    HW115395   1.186   2.488  12.207  1.2306 -1.5843  0.2787
 1312SOL    HW215396   1.296   2.571  12.150  1.4412 -0.4080 -0.0974
 1313SOL     OW15397   3.736   3.535   8.452  0.1293 -0.0275 -0.0447
 1313SOL    HW115398   3.795   3.461   8.440  0.3304  0.0736  0.3016
 1313SOL    HW215399   3.757   3.586   8.374 -0.5171 -0.0573 -0.2364
 1314SOL     OW15400   1.216   0.266   6.481 -0.1468 -0.3697  0.0422
 1314SOL    HW115401   1.142   0.317   6.449  1.7056  2.3692  0.1774
 1314SOL    HW215402   1.179   0.185   6.517 -0.4194  1.0588  2.9448
 1315SOL     OW15403   4.094   2.801  13.690 -0.4635 -0.3033  0.3650
 1315SOL    HW115404   4.096   2.766  13.780  1.1072 -1.0316  0.0366
 1315SOL    HW215405   4.093   2.720  13.638  1.3639 -0.2941  0.3341
 1316SOL     OW15406   0.179   4.081   2.730  0.8948  0.1986  0.2215
 1316SOL    HW115407   0.236   4.028   2.786 -0.4415 -0.7838  0.6607
 1316SOL    HW215408   0.229   4.163   2.735 -1.7096  1.8821 -1.2238
 1317SOL     OW15409   4.117   3.457   8.129  0.1443  0.3242  0.2182
 1317SOL    HW115410   4.098   3.367   8.104 -0.3437  0.5996 -0.4013
 1317SOL    HW215411   4.206   3.447   8.164 -1.2430 -3.2763  2.6057
 1318SOL     OW15412   4.187   3.396   5.095  0.3088  0.2818 -0.6723
 1318SOL    HW115413   4.266   3.400   5.040 -0.2115  1.8198 -1.3055
 1318SOL    HW215414   4.121   3.404   5.026  0.2425  0.2059 -0.6172
 1319SOL     OW15415   0.881   0.222   1.792 -0.3222 -0.2077 -0.0844
 1319SOL    HW115416   0.895   0.288   1.723  1.2506  0.5679  0.9829
 1319SOL    HW215417   0.875   0.143   1.738  4.5662 -1.3613  1.0548
 1320SOL     OW15418   0.102   1.098   8.542  0.0706 -0.4118  0.8679
 1320SOL    HW115419   0.180   1.072   8.494  0.7907 -0.4024  2.0210
 1320SOL    HW215420   0.078   1.014   8.581  0.2499 -1.4513 -1.3034
 1321SOL     OW15421   1.054   0.511   4.288 -0.5519  0.4644 -0.3876
 1321SOL    HW115422   1.113   0.488   4.217  2.5950 -1.0536  2.7155
 1321SOL    HW215423   1.099   0.470   4.362 -0.5123  0.8324 -0.2070
 1322SOL     OW15424   0.800   4.544  10.608  0.2081  0.1762  0.2537
 1322SOL    HW115425   0.742   4.616  10.584  2.6018  1.5149 -1.4834
 1322SOL    HW215426   0.740   4.482  10.650  1.4229 -0.7422  0.6288
 1323SOL     OW15427   4.288   2.487  11.691 -0.2191 -0.2136 -0.1627
 1323SOL    HW115428   4.221   2.546  11.655 -0.8602 -0.6407  0.3277
 1323SOL    HW215429   4.233   2.410  11.704 -0.6715  0.0764 -0.3695
 1324SOL     OW15430   3.176   2.844   4.379 -0.0826  0.0744  0.2913
 1324SOL    HW115431   3.116   2.770   4.388 -0.7282  0.6070  0.4009
 1324SOL    HW215432   3.188   2.890   4.463 -0.4841  1.1486 -0.2326
 1325SOL     OW15433   4.375   4.062  13.629 -0.3208  0.3254 -0.5704
 1325SOL    HW115434   4.415   4.058  13.542  0.9064 -0.9180  0.0490
 1325SOL    HW215435   4.350   4.154  13.628  0.4505  0.5414 -0.2770
 1326SOL     OW15436   1.923   3.493   5.775  0.5568 -0.1222  0.3220
 1326SOL    HW115437   1.872   3.566   5.809 -0.0774 -0.5228  0.2452
 1326SOL    HW215438   1.870   3.413   5.779 -1.1036  0.8828 -1.4921
 1327SOL     OW15439   4.282   1.162   7.819  0.1600  0.3200 -0.0188
 1327SOL    HW115440   4.314   1.249   7.795  1.0047 -0.1607 -0.6413
 1327SOL    HW215441   4.270   1.163   7.914 -1.5436 -1.5036 -0.2019
 1328SOL     OW15442   2.903   2.238  11.017  0.0585 -0.2519 -0.1362
 1328SOL    HW115443   2.871   2.215  11.104  1.1870  1.3842  0.7037
 1328SOL    HW215444   2.893   2.154  10.972  0.9325 -1.5062  2.0376
 1329SOL     OW15445   0.749   2.790  13.899  0.1470  0.3367 -0.2892
 1329SOL    HW115446   0.765   2.793  13.805 -0.1653  1.1306 -0.3258
 1329SOL    HW215447   0.693   2.868  13.908  1.3093  0.9765  1.4346
 1330SOL     OW15448   0.449   3.260   4.076 -0.5910 -0.3373  0.6739
 1330SOL    HW115449   0.450   3.181   4.129 -1.0383 -0.2026  0.8748
 1330SOL    HW215450   0.449   3.332   4.139  0.7003 -0.5922  0.9726
 1331SOL     OW15451   1.837   2.414   3.736  0.0052  0.2960 -0.2825
 1331SOL    HW115452   1.747   2.401   3.705 -0.6821 -0.0247  1.8369
 1331SOL    HW215453   1.848   2.509   3.739  0.2339  0.2178  1.3573
 1332SOL     OW15454   3.743   2.334   4.037  0.2816 -0.3801  0.3326
 1332SOL    HW115455   3.657   2.294   4.033  0.7943 -1.6035  1.6680
 1332SOL    HW215456   3.808   2.277   3.996  1.3775 -0.1990  1.8026
 1333SOL     OW15457   3.284   2.975   9.538 -0.1814  0.4435  0.0784
 1333SOL    HW115458   3.326   2.897   9.574 -0.2620  0.0304 -0.7139
 1333SOL    HW215459   3.202   2.982   9.587  0.3916  0.4630  1.0241
 1334SOL     OW15460   0.017   4.061   4.428 -0.4228 -0.2483  0.0044
 1334SOL    HW115461   4.663   4.067   4.485 -1.3944  1.8114 -1.5153
 1334SOL    HW215462   0.067   4.134   4.462  0.0168 -0.3958 -0.3246
 1335SOL     OW15463   3.130   0.193   4.109 -0.0342  0.0087  0.0244
 1335SOL    HW115464   3.201   0.234   4.060 -1.6075  3.1083  0.3636
 1335SOL    HW215465   3.106   0.265   4.167 -2.6229 -0.6883 -0.2020
 1336SOL     OW15466   4.702   3.561  11.751  0.2965  0.3794  0.5160
 1336SOL    HW115467   0.020   3.481  11.785  1.0418  1.3561  1.8842
 1336SOL    HW215468   4.627   3.571  11.809 -0.3706  0.1938 -0.3064
 1337SOL     OW15469   1.016   3.814   2.206 -0.0776 -0.0319 -0.2993
 1337SOL    HW115470   1.013   3.727   2.245 -0.0704  0.2827  0.4005
 1337SOL    HW215471   1.095   3.851   2.247 -0.4808  1.1275 -0.5664
 1338SOL     OW15472   1.963   1.164   2.511 -0.5607 -0.1816 -0.2667
 1338SOL    HW115473   1.941   1.071   2.509 -1.4112  0.0149  0.0830
 1338SOL    HW215474   1.919   1.196   2.432  2.8901 -0.2654 -2.2333
 1339SOL     OW15475   0.021   3.922  16.369  0.7387  0.1290 -0.5560
 1339SOL    HW115476   0.047   3.833  16.394  0.7019  0.3105  0.1183
 1339SOL    HW215477   0.067   3.924  16.285  0.9218  1.6642 -0.4186
 1340SOL     OW15478   4.695   2.449   6.296  0.1491 -0.2012  0.1888
 1340SOL    HW115479   4.692   2.457   6.201  0.2078 -2.5424 -0.0218
 1340SOL    HW215480   4.677   2.355   6.307 -1.4952 -0.0909 -1.5563
 1341SOL     OW15481   4.671   3.606  14.773 -0.2583 -0.4207 -0.2858
 1341SOL    HW115482   0.020   3.660  14.807  0.4213 -1.3380 -0.2854
 1341SOL    HW215483   4.614   3.672  14.732  1.2383 -0.1501 -1.9404
 1342SOL     OW15484   3.465   3.289   7.163 -0.2906  0.8842  0.0847
 1342SOL    HW115485   3.433   3.202   7.139 -1.0450  1.2859 -0.3312
 1342SOL    HW215486   3.523   3.274   7.238 -1.8631 -0.9888  0.9048
 1343SOL     OW15487   2.945   1.768   5.541  0.5408 -0.2332  0.5156
 1343SOL    HW115488   2.864   1.812   5.568  0.5074 -1.3615  2.2271
 1343SOL    HW215489   3.017   1.829   5.555 -0.1936  0.3173  1.9452
 1344SOL     OW15490   2.903   2.081   3.098  0.6407 -0.1012 -0.8208
 1344SOL    HW115491   2.824   2.051   3.144  2.6304 -0.4671  2.2998
 1344SOL    HW215492   2.921   1.999   3.052 -1.4976 -2.4526  2.5655
 1345SOL     OW15493   4.378   4.378   4.971  0.7572  0.3667 -0.8209
 1345SOL    HW115494   4.370   4.390   5.066  0.6463  1.6183 -0.9920
 1345SOL    HW215495   4.430   4.298   4.966 -1.4995 -1.1497 -0.0293
 1346SOL     OW15496   2.000   0.420  13.246  0.0785  0.0407  0.0102
 1346SOL    HW115497   2.005   0.475  13.167 -0.0522 -1.0370 -0.7429
 1346SOL    HW215498   2.058   0.460  13.311 -0.6046  0.1992  0.5199
 1347SOL     OW15499   0.444   2.497   9.727  0.0505 -0.1112 -0.5724
 1347SOL    HW115500   0.415   2.431   9.790 -0.4964 -1.1074 -1.8625
 1347SOL    HW215501   0.526   2.458   9.695  0.3577 -0.9962  1.3287
 1348SOL     OW15502   4.256   3.894   2.514  0.5951  0.9436  0.2985
 1348SOL    HW115503   4.172   3.855   2.492 -0.0519  0.9081  2.8386
 1348SOL    HW215504   4.242   3.982   2.479 -1.1991  0.9514  1.0416
 1349SOL     OW15505   4.089   0.765   2.032 -0.1871 -0.3522 -0.4679
 1349SOL    HW115506   4.108   0.803   1.946  0.2904 -0.3767 -0.3737
 1349SOL    HW215507   4.004   0.728   2.008 -0.3739 -0.5856  0.5501
 1350SOL     OW15508   1.708   0.139   8.023  0.7627  0.1838  0.5702
 1350SOL    HW115509   1.637   0.094   7.977  1.0667 -0.6257  0.8934
 1350SOL    HW215510   1.728   0.203   7.955 -0.0158 -0.6749 -0.4684
 1351SOL     OW15511   1.439   0.003  11.012 -0.0217  0.0023 -0.4625
 1351SOL    HW115512   1.487   4.648  11.039 -2.0796 -0.1714  2.6784
 1351SOL    HW215513   1.444   0.045  11.098  0.6835  0.8384 -0.9157
 1352SOL     OW15514   1.248   1.210   6.573 -0.7340 -0.6842 -0.1361
 1352SOL    HW115515   1.249   1.242   6.483  0.3653  1.0769  0.5183
 1352SOL    HW215516   1.155   1.192   6.587 -1.0173 -0.0199 -1.1787
 1353SOL     OW15517   2.534   2.388   1.945  0.1006 -0.0285  0.2582
 1353SOL    HW115518   2.522   2.294   1.955 -1.2163  0.1060 -0.1169
 1353SOL    HW215519   2.549   2.432   2.029 -0.0944  1.2020 -0.3576
 1354SOL     OW15520   1.181   1.529  16.060  0.2132 -0.0991  0.2235
 1354SOL    HW115521   1.250   1.568  16.113 -0.4297  1.5107 -0.1236
 1354SOL    HW215522   1.232   1.538  15.979  1.7398  2.5007  1.4611
 1355SOL     OW15523   4.403   1.985   1.301 -0.2730 -0.1154  0.6097
 1355SOL    HW115524   4.407   2.020   1.390  3.4839  0.6461  0.0988
 1355SOL    HW215525   4.491   1.953   1.283 -0.6123 -1.5527  1.4843
 1356SOL     OW15526   4.083   1.513   1.301  0.1346  0.3072 -0.0867
 1356SOL    HW115527   4.141   1.586   1.279  1.1320 -0.4962 -0.0577
 1356SOL    HW215528   4.022   1.552   1.364  1.0384 -0.6552  1.3827
 1357SOL     OW15529   0.026   4.560   6.111  0.7945 -0.1150  0.3944
 1357SOL    HW115530   0.082   4.598   6.044 -1.0938 -0.7643 -1.5674
 1357SOL    HW215531   0.059   4.471   6.120 -0.6750 -0.3359  3.7790
 1358SOL     OW15532   3.045   4.496   5.792 -0.1565  0.1136  0.2104
 1358SOL    HW115533   3.076   4.571   5.842 -0.5386  0.4289 -0.0214
 1358SOL    HW215534   3.009   4.449   5.867  1.0890 -0.1886  0.6136
 1359SOL     OW15535   3.842   0.524   2.931 -0.2267  0.3040  0.2127
 1359SOL    HW115536   3.803   0.561   2.852  2.2277  0.1375 -1.0588
 1359SOL    HW215537   3.858   0.607   2.977 -0.1025  0.1062  0.5292
 1360SOL     OW15538   2.675   0.223   6.783  0.1028 -0.2169 -0.2515
 1360SOL    HW115539   2.720   0.172   6.716  0.1717  1.4228 -1.4484
 1360SOL    HW215540   2.595   0.172   6.793 -0.8438  1.6710  1.8227
 1361SOL     OW15541   1.647   0.503   5.083  0.1331  0.3170 -0.4817
 1361SOL    HW115542   1.568   0.532   5.038 -1.8446 -2.3950  1.2843
 1361SOL    HW215543   1.663   0.427   5.027  1.4731 -0.6385  1.2259
 1362SOL     OW15544   3.520   3.199   1.070 -0.1526  0.0386 -0.0787
 1362SOL    HW115545   3.468   3.259   1.016  0.4342 -0.4977 -1.2532
 1362SOL    HW215546   3.610   3.226   1.052 -0.1883 -0.9963 -1.8221
 1363SOL     OW15547   0.612   1.669  10.565  0.0887  0.5953  0.5898
 1363SOL    HW115548   0.653   1.639  10.484  0.8285 -0.5794  1.3938
 1363SOL    HW215549   0.655   1.619  10.635 -1.1348  0.0622  0.9499
 1364SOL     OW15550   0.205   2.929  13.212  0.3449 -0.3692 -0.3545
 1364SOL    HW115551   0.202   2.841  13.250 -1.0319  0.4069  1.3318
 1364SOL    HW215552   0.236   2.913  13.123 -0.9692  1.6440 -1.1851
 1365SOL     OW15553   1.465   4.518   5.042  0.0600 -0.5364  0.3087
 1365SOL    HW115554   1.483   4.477   5.127 -3.5049 -1.0617  0.7749
 1365SOL    HW215555   1.485   4.610   5.059 -1.8313 -0.0739 -0.0702
 1366SOL     OW15556   4.245   1.255   6.336  0.1084  0.1839  0.1236
 1366SOL    HW115557   4.312   1.261   6.267  1.0041 -1.2398  0.8813
 1366SOL    HW215558   4.279   1.329   6.386 -1.7094  1.5707 -0.6668
 1367SOL     OW15559   3.959   4.084   5.604  0.0220 -0.3261 -0.3822
 1367SOL    HW115560   3.935   3.993   5.617 -2.5866  0.3121 -0.7815
 1367SOL    HW215561   4.049   4.085   5.635 -0.2140 -1.1408  0.2960
 1368SOL     OW15562   2.915   0.947  15.147 -0.3794  0.1149 -0.4518
 1368SOL    HW115563   2.974   0.889  15.099 -1.1688 -0.7334 -0.3846
 1368SOL    HW215564   2.880   0.885  15.211  1.8187 -1.4775 -0.7857
 1369SOL     OW15565   0.604   0.924   4.174 -0.0815 -0.1417  0.2674
 1369SOL    HW115566   0.646   0.967   4.100  0.3897  0.2445  0.7628
 1369SOL    HW215567   0.648   0.839   4.171  2.1294  0.9754  0.8700
 1370SOL     OW15568   3.560   1.030   6.803  0.2351  0.6454 -0.0794
 1370SOL    HW115569   3.625   0.966   6.773 -1.3121 -0.2895 -1.4355
 1370SOL    HW215570   3.554   1.088   6.727 -2.2531  0.2273 -0.1905
 1371SOL     OW15571   0.752   2.426   8.279 -0.2870  0.5651  0.6493
 1371SOL    HW115572   0.752   2.346   8.332  3.3557 -0.1834 -0.5389
 1371SOL    HW215573   0.666   2.426   8.237  0.1951 -1.3645 -0.3661
 1372SOL     OW15574   0.862   1.688   5.546  0.6026 -0.2909  0.1389
 1372SOL    HW115575   0.842   1.602   5.508 -1.3292 -0.1949  0.9183
 1372SOL    HW215576   0.956   1.678   5.560  1.0533 -2.1483 -4.0402
 1373SOL     OW15577   4.557   2.011   4.486 -0.6445  0.0535  0.7439
 1373SOL    HW115578   4.552   2.105   4.506  0.1839  0.3276 -0.3359
 1373SOL    HW215579   4.647   2.003   4.454 -1.1728  0.7766 -0.9606
 1374SOL     OW15580   1.686   2.537  13.126 -0.2420 -0.0641 -0.7060
 1374SOL    HW115581   1.690   2.611  13.066 -1.0589  0.6134  0.0859
 1374SOL    HW215582   1.750   2.478  13.087 -2.1240 -0.8006 -2.7163
 1375SOL     OW15583   2.629   0.266   3.032 -0.3562 -0.5132 -0.0771
 1375SOL    HW115584   2.712   0.233   3.065 -0.6676 -0.9416  0.2843
 1375SOL    HW215585   2.623   0.222   2.947 -0.6952 -0.7842  0.0863
 1376SOL     OW15586   1.078   4.164   6.406 -0.2780  0.5999  0.2738
 1376SOL    HW115587   1.135   4.110   6.350 -3.0016 -1.3122 -0.6531
 1376SOL    HW215588   1.128   4.174   6.487  0.5169  1.3885 -0.3185
 1377SOL     OW15589   2.601   3.098   8.929 -0.7682  0.6659 -0.3539
 1377SOL    HW115590   2.511   3.117   8.955 -0.2254  1.4829  0.9549
 1377SOL    HW215591   2.596   3.004   8.912 -0.4319  0.4442  0.7967
 1378SOL     OW15592   3.180   1.231   8.779 -0.7697  0.3293 -0.6100
 1378SOL    HW115593   3.183   1.301   8.845  2.7239  0.9618 -1.4288
 1378SOL    HW215594   3.228   1.265   8.704 -1.0977  1.5288 -0.2775
 1379SOL     OW15595   4.057   1.159   1.722  0.6397  0.0237  0.0853
 1379SOL    HW115596   4.144   1.183   1.753  0.7539 -0.6127  0.2381
 1379SOL    HW215597   3.998   1.231   1.746  0.5350 -0.6029  1.7152
 1380SOL     OW15598   1.887   1.572   2.391 -0.1153 -0.1932 -0.1012
 1380SOL    HW115599   1.881   1.581   2.296  0.3304  2.2775  0.0980
 1380SOL    HW215600   1.795   1.593   2.406 -0.2453  0.8770 -2.4296
 1381SOL     OW15601   4.493   4.111  15.095  0.1959 -0.3843  0.4224
 1381SOL    HW115602   4.467   4.047  15.028 -0.1497  2.0455 -1.7452
 1381SOL    HW215603   4.504   4.053  15.170 -3.0525  2.1407  2.8025
 1382SOL     OW15604   2.486   2.690  13.066 -0.0552  0.2565 -0.1208
 1382SOL    HW115605   2.571   2.650  13.048  0.1467  0.6201  0.0349
 1382SOL    HW215606   2.509   2.779  13.041  2.7605 -0.2773  0.6122
 1383SOL     OW15607   1.609   1.971   8.199 -0.0936 -0.0420  0.4573
 1383SOL    HW115608   1.532   1.935   8.243 -1.6291  1.7324 -0.7404
 1383SOL    HW215609   1.641   2.033   8.264 -0.9366  0.9265 -0.0383
 1384SOL     OW15610   3.162   1.977   7.930  0.1843  0.2322  0.2747
 1384SOL    HW115611   3.090   1.979   7.867 -0.3326 -0.1939  0.8624
 1384SOL    HW215612   3.237   1.959   7.873  0.3828 -3.1538  1.5846
 1385SOL     OW15613   4.352   4.721  12.789 -0.2547  0.1301  0.2694
 1385SOL    HW115614   4.374   4.638  12.832 -0.4992  0.3893  0.8872
 1385SOL    HW215615   4.404   4.698  12.712  0.0930 -1.6953  1.0579
 1386SOL     OW15616   4.706   3.702   6.236 -0.2819 -0.0676  0.2405
 1386SOL    HW115617   4.720   3.633   6.301  0.8945  1.3860  1.5397
 1386SOL    HW215618   4.721   3.643   6.163  0.2305 -0.6137  0.7944
 1387SOL     OW15619   2.407   3.645   2.114 -0.1546  0.2962 -0.0240
 1387SOL    HW115620   2.436   3.629   2.024 -1.1899 -0.4098 -0.2312
 1387SOL    HW215621   2.404   3.740   2.105 -0.8999  0.2935  0.2098
 1388SOL     OW15622   2.726   1.064   6.954  0.2545 -0.4292 -0.0055
 1388SOL    HW115623   2.716   1.034   7.044 -1.1293 -0.9161 -0.3207
 1388SOL    HW215624   2.802   1.123   6.955  0.0178 -0.0770 -1.7074
 1389SOL     OW15625   1.576   4.569   9.410  0.0957 -0.1806  0.1026
 1389SOL    HW115626   1.662   4.596   9.443 -0.1199  1.1301 -0.4101
 1389SOL    HW215627   1.522   4.576   9.489 -1.6402  0.6636 -1.1747
 1390SOL     OW15628   3.298   4.717   6.786 -0.6114 -0.7916  0.3396
 1390SOL    HW115629   3.316   4.704   6.693 -0.7688  1.4227 -0.0006
 1390SOL    HW215630   3.287   4.626   6.814 -0.9855 -0.1179  2.3856
 1391SOL     OW15631   1.323   3.223   6.249  0.0020 -0.3920  0.2656
 1391SOL    HW115632   1.370   3.177   6.179 -1.4153  0.6689 -1.3926
 1391SOL    HW215633   1.247   3.250   6.198  0.9866  1.1337 -0.3969
 1392SOL     OW15634   2.652   2.772   3.253  0.2912  0.0348 -0.0595
 1392SOL    HW115635   2.729   2.721   3.228 -0.2396 -1.5764  1.6135
 1392SOL    HW215636   2.688   2.847   3.299  3.3523 -1.4635 -0.0603
 1393SOL     OW15637   3.680   1.810  10.143 -0.2338 -0.4983  0.0211
 1393SOL    HW115638   3.697   1.896  10.105 -1.1720  0.7520  2.4810
 1393SOL    HW215639   3.593   1.832  10.177  0.6129  0.6480  1.4617
 1394SOL     OW15640   1.531   0.796   6.798  0.3831  0.0294  0.3455
 1394SOL    HW115641   1.487   0.879   6.777 -1.1784 -1.5266 -2.5415
 1394SOL    HW215642   1.585   0.815   6.874 -0.3369 -1.3062  1.1732
 1395SOL     OW15643   0.831   1.012   5.133 -0.0424  0.0512 -0.4209
 1395SOL    HW115644   0.824   1.056   5.218 -0.6968 -0.1741 -0.3575
 1395SOL    HW215645   0.768   1.068   5.087  0.9317  2.0463  0.6940
 1396SOL     OW15646   4.348   1.373   2.072 -0.2685 -0.6904  0.2435
 1396SOL    HW115647   4.336   1.286   2.110 -2.4095  0.2849  1.8657
 1396SOL    HW215648   4.262   1.417   2.068  0.2470  0.0963 -2.1316
 1397SOL     OW15649   1.403   0.007   0.284  0.0558 -0.1945  0.1900
 1397SOL    HW115650   1.355   0.012   0.366 -0.4712 -0.7505 -0.0847
 1397SOL    HW215651   1.364   4.649   0.249 -0.1944  0.6442 -1.4858
 1398SOL     OW15652   1.782   4.147   5.925  0.3173 -0.1463 -0.3947
 1398SOL    HW115653   1.697   4.176   5.958  1.1060  1.9139 -0.1673
 1398SOL    HW215654   1.743   4.099   5.852 -1.5771 -0.7930  1.0435
 1399SOL     OW15655   0.595   2.751   3.786  0.1124  0.2911 -0.5795
 1399SOL    HW115656   0.609   2.744   3.692 -1.2056  0.1661 -0.7523
 1399SOL    HW215657   0.615   2.840   3.815 -0.7333 -0.4316  2.2156
 1400SOL     OW15658   0.825   1.819  14.711  0.1976 -0.2730  0.0030
 1400SOL    HW115659   0.751   1.822  14.649  0.3222  0.1803 -0.1232
 1400SOL    HW215660   0.837   1.724  14.715  1.5216 -0.1468 -1.1318
 1401SOL     OW15661   0.191   3.309   2.625 -0.2118  0.1847  0.2868
 1401SOL    HW115662   0.123   3.326   2.690  0.1820  2.9124 -0.0104
 1401SOL    HW215663   0.160   3.225   2.593  1.5330 -0.7373  1.0129
 1402SOL     OW15664   0.756   0.103   4.474 -0.0086 -0.6376  0.0910
 1402SOL    HW115665   0.816   0.156   4.527 -2.4257 -1.0893  3.3583
 1402SOL    HW215666   0.819   0.086   4.405  0.5659 -2.9966  1.2076
 1403SOL     OW15667   4.406   4.433   2.588  0.0864  0.2208  0.0933
 1403SOL    HW115668   4.443   4.511   2.548  1.7129 -0.4302  0.2860
 1403SOL    HW215669   4.313   4.437   2.568  0.2545 -1.1400 -0.9836
 1404SOL     OW15670   1.649   0.760  13.782  0.0603  0.5067  0.0026
 1404SOL    HW115671   1.595   0.837  13.766 -0.0200  0.6126  0.7856
 1404SOL    HW215672   1.719   0.772  13.718 -0.9448  0.7826 -1.0505
 1405SOL     OW15673   0.783   3.618   2.947  0.2806 -0.1181  0.1929
 1405SOL    HW115674   0.722   3.665   3.005  3.2513  4.5396 -0.4086
 1405SOL    HW215675   0.723   3.564   2.895  1.2576 -0.2420 -0.8081
 1406SOL     OW15676   3.672   0.488   3.384 -0.2301  0.0740 -0.0709
 1406SOL    HW115677   3.696   0.397   3.365  1.7359  0.5403  0.2604
 1406SOL    HW215678   3.761   0.521   3.388  0.0637 -0.9301  1.3465
 1407SOL     OW15679   0.490   3.469  14.525  0.4707 -0.2439 -0.1952
 1407SOL    HW115680   0.466   3.445  14.435  0.5035  0.4701 -0.3996
 1407SOL    HW215681   0.517   3.386  14.563 -1.6671 -0.6174  0.5071
 1408SOL     OW15682   1.494   0.994   0.925 -0.3186  0.2417 -0.6399
 1408SOL    HW115683   1.539   1.042   0.855  0.5998 -1.2530 -1.0628
 1408SOL    HW215684   1.476   1.064   0.988  2.2845 -0.0782  0.4622
 1409SOL     OW15685   3.468   0.795   7.915  0.0301 -0.0530 -0.4336
 1409SOL    HW115686   3.551   0.785   7.868  1.4251 -0.0150  2.0626
 1409SOL    HW215687   3.470   0.735   7.990 -0.6229  0.2012 -0.2211
 1410SOL     OW15688   2.712   4.398   6.537 -0.4108  0.5341  0.0474
 1410SOL    HW115689   2.700   4.395   6.632  0.7393  2.8045  0.2529
 1410SOL    HW215690   2.799   4.436   6.534  1.1483 -2.9838  0.1559
 1411SOL     OW15691   0.804   1.152   5.350  0.7123  0.3992  0.0613
 1411SOL    HW115692   0.731   1.212   5.339  0.6109 -0.4515 -3.9201
 1411SOL    HW215693   0.851   1.198   5.420  0.8264  0.2773  0.0661
 1412SOL     OW15694   1.834   1.354   9.201 -0.1445 -0.0265 -0.4914
 1412SOL    HW115695   1.831   1.295   9.277  0.2337 -2.6725 -2.5558
 1412SOL    HW215696   1.927   1.340   9.187 -0.1861 -1.6922  0.8294
 1413SOL     OW15697   1.404   3.767   4.632 -0.6222 -0.6587  0.2126
 1413SOL    HW115698   1.352   3.725   4.564  0.8086 -0.1020 -1.2384
 1413SOL    HW215699   1.494   3.770   4.597 -1.0916  0.1334 -0.9349
 1414SOL     OW15700   3.341   1.162   8.383 -0.2673  0.8423 -0.2716
 1414SOL    HW115701   3.330   1.153   8.288  1.9158 -2.2331 -0.2329
 1414SOL    HW215702   3.313   1.077   8.416 -0.8339  1.0424 -0.2391
 1415SOL     OW15703   4.392   1.182  14.982 -0.3721  0.0897  0.3211
 1415SOL    HW115704   4.464   1.193  14.921 -0.4564 -0.4353  0.1266
 1415SOL    HW215705   4.443   1.206  15.060  0.7031 -0.2325 -0.2861
 1416SOL     OW15706   0.698   1.368  17.569 -0.2282 -0.1172  0.6308
 1416SOL    HW115707   0.775   1.421  17.548 -0.4032 -0.5148 -0.9808
 1416SOL    HW215708   0.693   1.317  17.489  2.0916  1.6873 -0.6562
 1417SOL     OW15709   4.334   2.569  14.120  0.4667 -0.2281  0.5014
 1417SOL    HW115710   4.423   2.604  14.110  0.1189  0.1790 -1.1243
 1417SOL    HW215711   4.328   2.553  14.215  0.5546 -1.2214  0.3435
 1418SOL     OW15712   4.577   2.398   7.223 -0.0815 -0.1459 -0.0367
 1418SOL    HW115713   4.623   2.423   7.143 -0.8572 -3.2705 -1.4552
 1418SOL    HW215714   4.576   2.304   7.206 -1.0252  0.1387 -1.5010
 1419SOL     OW15715   2.250   4.239  10.129 -0.4551 -0.0913  0.3570
 1419SOL    HW115716   2.243   4.334  10.131  1.8436  0.0573  0.6429
 1419SOL    HW215717   2.263   4.217  10.037  0.4185  0.9740  0.2347
 1420SOL     OW15718   0.009   2.696   8.616 -0.1905  0.2313  0.0421
 1420SOL    HW115719   0.088   2.713   8.564  0.9392 -1.3767  1.2259
 1420SOL    HW215720   0.033   2.733   8.701 -0.8164 -2.4972  1.3824
 1421SOL     OW15721   0.727   2.665   5.396 -0.3011  0.0374 -0.2959
 1421SOL    HW115722   0.724   2.573   5.421  0.7007  0.0745 -0.0706
 1421SOL    HW215723   0.813   2.675   5.355  0.8395  1.4731  2.4263
 1422SOL     OW15724   1.011   0.708   7.752  0.4822 -0.0254  0.2061
 1422SOL    HW115725   0.989   0.621   7.787 -3.0263 -0.4502 -3.0976
 1422SOL    HW215726   1.013   0.760   7.832  0.7757  0.7010 -0.2743
 1423SOL     OW15727   1.742   3.714  16.785 -0.4462 -0.2962  0.2379
 1423SOL    HW115728   1.667   3.747  16.735  0.9139 -1.2203 -2.3746
 1423SOL    HW215729   1.797   3.693  16.711  1.5731  2.1226  1.0541
 1424SOL     OW15730   0.297   1.137   5.138  0.1075  0.2463 -0.1719
 1424SOL    HW115731   0.285   1.224   5.176  1.6125  0.3334  0.1354
 1424SOL    HW215732   0.263   1.090   5.213 -0.2851  1.8746  0.6704
 1425SOL     OW15733   2.499   4.501  11.119 -0.2758 -0.2808  0.3987
 1425SOL    HW115734   2.405   4.517  11.109 -0.3537 -0.4815  0.8374
 1425SOL    HW215735   2.534   4.555  11.048 -0.4783 -0.9982 -0.2537
 1426SOL     OW15736   1.174   0.564   4.023 -0.6500 -0.2616  0.0132
 1426SOL    HW115737   1.235   0.637   4.032  1.3408 -1.9732  0.4264
 1426SOL    HW215738   1.201   0.509   3.949  1.2164  0.6507  0.0218
 1427SOL     OW15739   4.713   4.548   5.054 -0.1262 -0.2119 -0.2831
 1427SOL    HW115740   4.691   4.473   5.110  0.6533  0.2211  0.5953
 1427SOL    HW215741   4.627   4.577   5.023  0.1562  0.3540 -0.5392
 1428SOL     OW15742   1.037   2.922   0.263 -0.1174 -0.6765  0.9029
 1428SOL    HW115743   1.073   2.833   0.257 -0.6535 -0.8679  0.4567
 1428SOL    HW215744   1.041   2.936   0.357  0.9574  1.5120  0.5334
 1429SOL     OW15745   2.896   0.557   6.107  0.0995  0.1254 -0.0406
 1429SOL    HW115746   2.880   0.651   6.108 -2.8604 -0.4286  1.7936
 1429SOL    HW215747   2.990   0.567   6.090 -0.2717 -0.0835 -2.2457
 1430SOL     OW15748   0.137   1.241   7.072  0.0533 -0.1457  0.1240
 1430SOL    HW115749   0.138   1.298   7.148  1.6879 -0.4764  0.3429
 1430SOL    HW215750   0.150   1.154   7.110  0.4617 -0.1334  0.0144
 1431SOL     OW15751   2.563   3.286  11.834 -0.0914 -0.6396  0.0393
 1431SOL    HW115752   2.542   3.249  11.920 -0.3294  0.2760  0.3667
 1431SOL    HW215753   2.479   3.290  11.788 -0.2192  1.0439  0.4241
 1432SOL     OW15754   0.505   1.047  12.988  0.0264 -0.1606  0.6606
 1432SOL    HW115755   0.492   0.955  12.965  1.0921 -0.1546  0.0471
 1432SOL    HW215756   0.592   1.035  13.026  0.1450  1.2487  0.8383
 1433SOL     OW15757   2.784   4.184   6.384  0.2679 -0.4058 -0.0113
 1433SOL    HW115758   2.725   4.171   6.309  1.1401 -0.7805 -0.6242
 1433SOL    HW215759   2.742   4.265   6.411  1.9561  1.3160 -2.5613
 1434SOL     OW15760   1.824   3.348   7.415  0.2632  0.0857  0.2475
 1434SOL    HW115761   1.879   3.302   7.478  0.4074  0.7331  0.5907
 1434SOL    HW215762   1.882   3.413   7.376  1.4733 -0.6464  0.8335
 1435SOL     OW15763   0.455   3.292   1.739 -0.0671  0.9529  0.0853
 1435SOL    HW115764   0.541   3.334   1.736 -0.5085  1.8369 -0.1222
 1435SOL    HW215765   0.481   3.200   1.749  0.5004  0.9532 -1.3963
 1436SOL     OW15766   3.779   0.632   4.425 -0.1626  0.2240 -0.4060
 1436SOL    HW115767   3.844   0.697   4.454  1.5838 -1.2685 -0.9480
 1436SOL    HW215768   3.812   0.599   4.341 -0.8305  0.9620 -0.9545
 1437SOL     OW15769   2.832   2.547   9.097 -0.2861 -0.0360  0.0746
 1437SOL    HW115770   2.892   2.611   9.135 -0.3052 -0.3635  0.6533
 1437SOL    HW215771   2.774   2.529   9.170 -1.3929 -0.7711 -0.9901
 1438SOL     OW15772   0.334   2.657   6.077  0.1923  0.0157  0.4458
 1438SOL    HW115773   0.381   2.696   6.151 -0.8752  0.4084  0.9193
 1438SOL    HW215774   0.351   2.566   6.100 -1.8509 -0.4136  0.2523
 1439SOL     OW15775   3.922   3.254   3.254 -0.1622 -0.7823  0.6054
 1439SOL    HW115776   3.847   3.304   3.222  1.2596 -0.0670 -1.5512
 1439SOL    HW215777   3.979   3.321   3.290 -2.7455  1.5539  0.3049
 1440SOL     OW15778   2.906   1.867  15.034 -0.6296  0.0757 -0.1262
 1440SOL    HW115779   2.923   1.894  15.124 -0.5395  3.6111 -1.2078
 1440SOL    HW215780   2.851   1.942  15.010  2.2978  1.6958 -1.8112
 1441SOL     OW15781   4.087   0.477   5.141 -0.3581  0.4832 -0.6214
 1441SOL    HW115782   4.131   0.413   5.085  0.7167 -1.5683  2.5715
 1441SOL    HW215783   4.031   0.535   5.089 -2.2553 -1.0544 -0.2785
 1442SOL     OW15784   2.902   3.394   6.156 -0.1952  0.4183 -0.2283
 1442SOL    HW115785   2.924   3.366   6.244  0.1920  3.7094  0.7127
 1442SOL    HW215786   2.837   3.463   6.166  0.5574  0.9695  0.8903
 1443SOL     OW15787   0.327   1.858   8.194  0.2998  0.3868  0.1132
 1443SOL    HW115788   0.395   1.832   8.257 -1.7375  0.0970  2.2143
 1443SOL    HW215789   0.262   1.900   8.251 -1.5251 -2.3487  0.0614
 1444SOL     OW15790   3.878   0.360   6.252 -0.0582 -0.1452  0.2556
 1444SOL    HW115791   3.816   0.418   6.297  0.0359 -0.8985  1.3539
 1444SOL    HW215792   3.962   0.389   6.287 -0.3005  2.2045 -1.0471
 1445SOL     OW15793   4.162   0.505   6.892 -0.0390  0.0525 -0.0006
 1445SOL    HW115794   4.249   0.487   6.927  0.0965  1.1462  0.2290
 1445SOL    HW215795   4.102   0.513   6.967  0.0441 -2.2643  0.3275
 1446SOL     OW15796   0.435   1.341   1.809  0.0574  0.5421 -0.1184
 1446SOL    HW115797   0.507   1.364   1.750 -0.2236  1.3917 -0.1303
 1446SOL    HW215798   0.375   1.300   1.747 -0.0619 -0.5367  0.7017
 1447SOL     OW15799   1.581   0.903   8.625  0.2723  0.1059  0.3758
 1447SOL    HW115800   1.566   0.854   8.705  0.0568  0.2767  0.4395
 1447SOL    HW215801   1.520   0.859   8.566 -0.2124  1.1461  0.0851
 1448SOL     OW15802   2.667   1.504   3.507  0.0792  0.0913 -0.0974
 1448SOL    HW115803   2.637   1.579   3.456 -0.6899  1.4567  2.3326
 1448SOL    HW215804   2.643   1.441   3.439 -1.9120 -0.2436  0.9330
 1449SOL     OW15805   0.392   2.983   6.871  0.2487 -0.3761 -0.0932
 1449SOL    HW115806   0.327   3.052   6.864  0.2686 -0.2507  0.9896
 1449SOL    HW215807   0.441   2.998   6.790  0.3836 -0.4103 -0.0199
 1450SOL     OW15808   3.637   3.470   3.672  0.0665 -0.0436 -0.9243
 1450SOL    HW115809   3.720   3.424   3.680  0.5812  0.9734 -0.4004
 1450SOL    HW215810   3.581   3.411   3.621  0.9583  0.9458 -3.0856
 1451SOL     OW15811   4.173   1.735   9.037 -0.3278 -0.0718  0.1774
 1451SOL    HW115812   4.234   1.742   8.963  0.0839 -1.4827  0.3835
 1451SOL    HW215813   4.130   1.820   9.034  1.9816  1.0921 -0.5828
 1452SOL     OW15814   4.384   3.132   4.868  1.2618  0.3032  0.0033
 1452SOL    HW115815   4.354   3.074   4.938 -0.5213 -0.4023 -1.3275
 1452SOL    HW215816   4.309   3.117   4.810 -0.3805  0.3310  2.1099
 1453SOL     OW15817   4.513   2.581   9.163 -0.3338  0.0260 -0.2173
 1453SOL    HW115818   4.524   2.544   9.251 -0.6503  1.7644  0.5371
 1453SOL    HW215819   4.561   2.514   9.113 -1.5056 -0.9617 -0.0202
 1454SOL     OW15820   0.974   3.473   4.200 -0.5552 -0.1862  0.0304
 1454SOL    HW115821   0.942   3.562   4.213  0.4070  0.1014  0.4105
 1454SOL    HW215822   0.894   3.424   4.218 -0.8643  0.9031  1.6071
 1455SOL     OW15823   3.837   3.716  10.532 -0.3274 -0.0224  0.6972
 1455SOL    HW115824   3.864   3.727  10.441 -1.1517 -0.3579  0.4185
 1455SOL    HW215825   3.748   3.750  10.528 -0.1380  0.3553 -0.3051
 1456SOL     OW15826   4.086   0.254   9.229 -0.2116 -0.1091  0.4971
 1456SOL    HW115827   4.075   0.344   9.259  3.5127 -0.2002  2.1366
 1456SOL    HW215828   4.018   0.255   9.161 -0.7143 -1.8756  0.9727
 1457SOL     OW15829   1.270   2.848   2.997  0.1390  0.6352 -0.3867
 1457SOL    HW115830   1.221   2.905   2.937 -1.8542 -0.6197  0.0472
 1457SOL    HW215831   1.359   2.881   2.986 -0.1734  2.0329  1.2899
 1458SOL     OW15832   3.633   0.756   5.935  0.0325 -0.1913 -0.2478
 1458SOL    HW115833   3.707   0.715   5.980 -1.0026  0.5505  2.1394
 1458SOL    HW215834   3.612   0.827   5.996  1.2287  0.4367 -0.5725
 1459SOL     OW15835   4.701   2.268   8.472 -0.2478  0.4296  0.5390
 1459SOL    HW115836   4.624   2.210   8.465 -0.5981  0.9105  0.4063
 1459SOL    HW215837   4.690   2.317   8.391  2.5630 -0.0114 -0.0976
 1460SOL     OW15838   2.686   2.726   5.949 -0.5419  0.7136  0.3125
 1460SOL    HW115839   2.750   2.655   5.950  0.8424  1.9706  3.2811
 1460SOL    HW215840   2.738   2.802   5.923 -0.7778  0.7929  0.0762
 1461SOL     OW15841   4.670   2.005  12.026 -0.3539  0.0819  0.0582
 1461SOL    HW115842   4.587   2.046  12.001 -1.1363 -2.1458 -1.0289
 1461SOL    HW215843   4.644   1.928  12.077  0.4879  0.3568  0.9026
 1462SOL     OW15844   4.148   3.182   5.298 -0.3500  0.4116  0.1966
 1462SOL    HW115845   4.236   3.169   5.334  0.7005 -0.9132 -2.8370
 1462SOL    HW215846   4.170   3.234   5.221 -1.2318 -0.7108 -0.8141
 1463SOL     OW15847   3.339   1.281   5.447  0.2816  0.0650  0.2028
 1463SOL    HW115848   3.386   1.314   5.370 -1.1597 -0.9542 -1.1232
 1463SOL    HW215849   3.375   1.194   5.463 -1.3272 -0.8291 -1.0102
 1464SOL     OW15850   3.648   1.144  15.058  0.1619 -0.3752 -0.0937
 1464SOL    HW115851   3.697   1.163  14.978  1.8438 -0.1948  0.9792
 1464SOL    HW215852   3.705   1.180  15.126 -1.1943  1.5030  0.0540
 1465SOL     OW15853   2.794   0.822   2.946 -0.1596  0.6136 -0.4884
 1465SOL    HW115854   2.862   0.884   2.920 -1.1218  1.8412 -0.1219
 1465SOL    HW215855   2.737   0.817   2.869  1.8726  1.3624 -2.0539
 1466SOL     OW15856   2.335   4.154   1.028 -0.1645 -0.0972 -0.0444
 1466SOL    HW115857   2.256   4.195   1.062 -0.1730 -0.7570  0.7497
 1466SOL    HW215858   2.335   4.181   0.937 -1.1446 -1.6163 -0.4832
 1467SOL     OW15859   1.116   1.661  17.461  0.1798 -0.1613 -0.0363
 1467SOL    HW115860   1.110   1.595  17.530 -0.1610  1.0896  1.1273
 1467SOL    HW215861   1.025   1.675  17.435  0.2108  0.1915  0.0504
 1468SOL     OW15862   3.693   2.869  14.550  0.3588 -0.2377 -0.2347
 1468SOL    HW115863   3.638   2.947  14.555 -0.1691 -0.8380  3.3048
 1468SOL    HW215864   3.686   2.840  14.641 -0.9619  1.1054  0.0851
 1469SOL     OW15865   2.117   4.150   7.940  0.2247  0.3187 -0.3563
 1469SOL    HW115866   2.181   4.134   7.870  0.4643  1.7231 -0.4766
 1469SOL    HW215867   2.073   4.068   7.960 -2.6619  1.8879 -0.2555
 1470SOL     OW15868   0.320   4.361  12.649 -0.2147  0.0126  0.3710
 1470SOL    HW115869   0.248   4.327  12.703  0.3622  2.2255  2.5481
 1470SOL    HW215870   0.357   4.409  12.723 -0.7641  2.4838 -0.9740
 1471SOL     OW15871   0.193   4.626   0.699  0.4758  0.1358 -0.0653
 1471SOL    HW115872   0.271   4.573   0.688 -0.1389 -0.5812 -1.0471
 1471SOL    HW215873   0.215   4.674   0.779 -0.1609 -0.9380  0.7384
 1472SOL     OW15874   4.583   3.348   9.906 -0.8408 -0.0524  0.6303
 1472SOL    HW115875   4.506   3.405   9.910 -0.2702  0.9211 -2.2271
 1472SOL    HW215876   4.550   3.286   9.840  1.2658 -1.3377  0.7696
 1473SOL     OW15877   2.945   2.836  12.322  0.4915  0.4018 -0.3590
 1473SOL    HW115878   2.983   2.831  12.410 -1.4256 -3.2193  0.2465
 1473SOL    HW215879   2.888   2.759  12.318  0.3127  0.4260  1.7107
 1474SOL     OW15880   1.649   3.932  15.721 -0.1937 -0.4126 -0.4665
 1474SOL    HW115881   1.648   4.027  15.723 -1.1437 -0.4376  0.1768
 1474SOL    HW215882   1.559   3.919  15.751  0.2869  0.4010  1.3252
 1475SOL     OW15883   4.409   3.525   4.613  0.4492 -0.2792 -0.2299
 1475SOL    HW115884   4.417   3.462   4.542  0.0597 -0.9904  0.3592
 1475SOL    HW215885   4.479   3.590   4.603  0.8035 -0.5326  0.6339
 1476SOL     OW15886   0.996   3.437   6.526  0.4129 -0.1790  0.4260
 1476SOL    HW115887   1.011   3.517   6.577 -0.9805 -1.5868  3.0511
 1476SOL    HW215888   0.986   3.479   6.441  1.9041 -2.8760 -1.0708
 1477SOL     OW15889   0.392   2.456   8.415 -0.6781  0.3324  0.0866
 1477SOL    HW115890   0.433   2.487   8.334  1.6255 -1.6045  0.5035
 1477SOL    HW215891   0.422   2.519   8.480 -0.3048  0.9398 -0.6793
 1478SOL     OW15892   3.362   1.027   7.822 -0.4532  0.0072 -0.1263
 1478SOL    HW115893   3.388   0.946   7.865 -1.7529  0.8569  2.2684
 1478SOL    HW215894   3.438   1.083   7.838 -0.4960  0.3367 -1.0562
 1479SOL     OW15895   3.225   3.781   5.233  0.4411 -0.6016  0.3114
 1479SOL    HW115896   3.267   3.803   5.149  1.0690 -2.5683  0.1068
 1479SOL    HW215897   3.195   3.692   5.213  0.1449 -0.8285  1.8320
 1480SOL     OW15898   4.208   2.508   6.244 -0.0814  0.4548  0.5509
 1480SOL    HW115899   4.243   2.568   6.310  1.7693  0.9682 -0.8800
 1480SOL    HW215900   4.131   2.558   6.219 -0.3011  0.0781  0.4703
 1481SOL     OW15901   1.642   3.684   8.330  0.3359  0.5035 -0.1184
 1481SOL    HW115902   1.583   3.715   8.399  1.6686  2.1119  0.2918
 1481SOL    HW215903   1.588   3.712   8.256 -1.3610 -1.5731  0.3282
 1482SOL     OW15904   4.530   2.968   6.743  0.1700  0.1847 -0.0772
 1482SOL    HW115905   4.485   2.908   6.802 -0.9750  1.1868  0.0657
 1482SOL    HW215906   4.567   2.911   6.676  2.6716  2.1629 -0.4075
 1483SOL     OW15907   1.570   4.052   1.222 -0.1406 -0.1681  0.6939
 1483SOL    HW115908   1.568   3.958   1.238  1.6239 -0.1372  1.0007
 1483SOL    HW215909   1.643   4.083   1.276  1.4612 -0.8449 -1.1341
 1484SOL     OW15910   3.096   1.820   4.867 -0.3916  0.0989  0.2737
 1484SOL    HW115911   3.044   1.829   4.947 -1.5699 -1.2649 -0.3535
 1484SOL    HW215912   3.145   1.903   4.864  0.4972 -0.4245  0.2377
 1485SOL     OW15913   4.624   2.491  13.301 -0.2125  0.3017 -0.1861
 1485SOL    HW115914   4.619   2.587  13.300 -5.5695  0.0131 -1.2144
 1485SOL    HW215915   4.700   2.481  13.358  0.1203 -1.6293 -0.9689
 1486SOL     OW15916   1.369   2.959   5.484  0.1518  0.2657  0.6112
 1486SOL    HW115917   1.305   3.025   5.509 -0.2981  0.4773 -1.1305
 1486SOL    HW215918   1.422   2.989   5.410  0.0006  1.6204  1.0604
 1487SOL     OW15919   4.002   1.112  12.072 -0.1817  0.0269  0.0264
 1487SOL    HW115920   4.028   1.076  11.987 -1.2414  1.9947 -1.1550
 1487SOL    HW215921   4.064   1.077  12.135  1.6271  2.5965 -0.3256
 1488SOL     OW15922   2.823   4.206  13.296 -0.4165 -0.2923 -0.3343
 1488SOL    HW115923   2.887   4.271  13.323  0.5359 -1.2486 -0.2938
 1488SOL    HW215924   2.798   4.237  13.209  2.5212  2.5972 -0.1240
 1489SOL     OW15925   1.372   2.386  16.561  0.4881  0.1339 -0.7078
 1489SOL    HW115926   1.337   2.340  16.484  1.4265 -1.1419 -0.3534
 1489SOL    HW215927   1.296   2.432  16.596  0.1374 -1.1289  0.1598
 1490SOL     OW15928   3.481   1.608  11.025  0.5187  0.2370 -0.6938
 1490SOL    HW115929   3.499   1.514  11.023 -1.2728 -0.1377  2.1303
 1490SOL    HW215930   3.471   1.606  11.120 -0.4248 -2.4669 -0.8718
 1491SOL     OW15931   2.579   0.399   6.023 -0.0232 -0.6674 -0.2722
 1491SOL    HW115932   2.512   0.391   6.090 -1.9910  0.8433 -2.0623
 1491SOL    HW215933   2.659   0.414   6.073 -0.4459  0.4187  0.0811
 1492SOL     OW15934   3.374   1.351   3.238  0.2056 -0.1740  0.0985
 1492SOL    HW115935   3.350   1.444   3.232 -1.4555 -0.5178  1.3477
 1492SOL    HW215936   3.456   1.336   3.190  1.1837  1.8053  1.1503
 1493SOL     OW15937   3.281   4.695   5.750 -0.1573  0.5198 -0.9352
 1493SOL    HW115938   3.373   4.713   5.771 -0.6661 -0.3820  2.1123
 1493SOL    HW215939   3.277   4.694   5.654  0.5102  3.1373 -0.9865
 1494SOL     OW15940   1.088   3.689  12.799 -0.3990 -0.0412  0.2669
 1494SOL    HW115941   1.151   3.700  12.728  1.3372 -0.1089  1.7879
 1494SOL    HW215942   1.153   3.654  12.860  0.4220  0.6970 -0.1865
 1495SOL     OW15943   3.499   3.120   5.750  0.1072  0.1590 -0.0922
 1495SOL    HW115944   3.582   3.161   5.773  1.3935 -1.6973 -1.3878
 1495SOL    HW215945   3.465   3.178   5.682  2.6125  1.1808 -0.4435
 1496SOL     OW15946   1.799   4.272   0.296  0.4836 -0.6105  0.0480
 1496SOL    HW115947   1.808   4.241   0.206  1.6885 -3.0522  0.9960
 1496SOL    HW215948   1.843   4.356   0.301  0.6450 -0.7748  1.4412
 1497SOL     OW15949   0.098   0.038   7.288 -0.1583 -0.0284  0.4828
 1497SOL    HW115950   0.126   0.028   7.379  2.3042 -1.3219 -0.4275
 1497SOL    HW215951   0.073   0.131   7.282 -0.8377 -0.1053  2.1713
 1498SOL     OW15952   3.812   3.511   0.180  0.0614 -0.1102  0.2446
 1498SOL    HW115953   3.795   3.483   0.090  1.5517  3.6406 -1.2273
 1498SOL    HW215954   3.749   3.463   0.233 -0.3779  0.0892 -0.0955
 1499SOL     OW15955   1.413   3.134   3.040 -0.4959  0.1686 -0.1524
 1499SOL    HW115956   1.437   3.190   3.113  0.3048  0.3560 -0.5591
 1499SOL    HW215957   1.331   3.174   3.010 -0.7330  1.0444  1.7148
 1500SOL     OW15958   1.576   4.258   3.522 -0.3913  0.2582  0.3522
 1500SOL    HW115959   1.619   4.274   3.437 -1.6730 -2.2077 -0.7747
 1500SOL    HW215960   1.512   4.191   3.497 -1.4556  1.3193  0.2449
 1501SOL     OW15961   0.075   0.554   9.096  0.2457  0.0090 -0.0002
 1501SOL    HW115962   0.098   0.623   9.159  2.2427  0.5406 -1.2859
 1501SOL    HW215963   0.111   0.476   9.137 -0.4526 -0.4677 -0.3084
 1502SOL     OW15964   2.150   1.672   7.904 -0.0027  0.4620  0.2142
 1502SOL    HW115965   2.151   1.711   7.991  0.0054 -1.5577  1.1319
 1502SOL    HW215966   2.080   1.713   7.853  0.6648  0.7371 -0.4804
 1503SOL     OW15967   1.386   3.901  15.845  0.2744  0.7420 -0.7687
 1503SOL    HW115968   1.335   3.973  15.808  0.2380  0.3310 -1.5140
 1503SOL    HW215969   1.325   3.827  15.847  0.8816  0.2243 -1.6848
 1504SOL     OW15970   1.350   0.329  17.559  0.0414  0.2291 -0.1291
 1504SOL    HW115971   1.423   0.365  17.609  0.5871  0.4251 -1.0730
 1504SOL    HW215972   1.367   0.239  17.589 -0.0558  0.4713  0.6522
 1505SOL     OW15973   3.055   1.099   7.222  0.4289 -0.0337 -0.7126
 1505SOL    HW115974   3.012   1.030   7.274 -0.9360  0.8509 -0.6553
 1505SOL    HW215975   3.022   1.174   7.271  1.5387 -0.5327  0.8005
 1506SOL     OW15976   3.430   3.676  11.779 -0.4283  0.9180 -0.4589
 1506SOL    HW115977   3.356   3.616  11.788  1.3599 -1.1520  0.2324
 1506SOL    HW215978   3.387   3.761  11.765  0.4454  1.5879  0.9373
 1507SOL     OW15979   0.190   0.418  11.929  0.2516 -0.3877  0.1666
 1507SOL    HW115980   0.279   0.449  11.911  1.2914 -3.3809  0.1784
 1507SOL    HW215981   0.166   0.399  11.839  1.6898 -2.8142  0.3082
 1508SOL     OW15982   1.365   4.573   4.350  0.1918  0.3025  0.1129
 1508SOL    HW115983   1.333   4.603   4.265  0.0566  0.4782  0.2251
 1508SOL    HW215984   1.359   4.478   4.344 -0.9901  0.3534  0.7040
 1509SOL     OW15985   4.449   3.444  13.460 -0.3632  0.1464  0.4431
 1509SOL    HW115986   4.385   3.376  13.440  1.9144 -1.3755 -1.5721
 1509SOL    HW215987   4.411   3.517  13.411  0.4539  1.2449  1.4397
 1510SOL     OW15988   2.421   4.184   5.157  0.4401  0.0390  0.0368
 1510SOL    HW115989   2.381   4.205   5.072 -1.5504  0.0523  0.9652
 1510SOL    HW215990   2.413   4.263   5.212  3.1533  1.6589 -1.9167
 1511SOL     OW15991   0.584   2.500   8.730 -0.6179 -0.2402 -0.1255
 1511SOL    HW115992   0.647   2.517   8.659  0.0401 -0.5460  0.3914
 1511SOL    HW215993   0.614   2.418   8.770 -0.0956  0.1276  0.2319
 1512SOL     OW15994   3.559   0.823   4.375 -0.2435 -0.0267 -0.4140
 1512SOL    HW115995   3.583   0.830   4.283  0.6482 -1.6084 -0.3050
 1512SOL    HW215996   3.629   0.761   4.396  1.1107  1.8119  0.5311
 1513SOL     OW15997   2.877   4.280   7.183 -0.1799  0.1370  0.2406
 1513SOL    HW115998   2.966   4.308   7.163 -0.1927  0.6090  0.8263
 1513SOL    HW215999   2.893   4.241   7.269 -0.6394 -0.5427  0.0119
 1514SOL     OW16000   2.378   3.607   1.190 -0.1896 -0.1840 -0.3719
 1514SOL    HW116001   2.340   3.689   1.220 -0.9561 -1.6103  2.5593
 1514SOL    HW216002   2.393   3.557   1.270  1.9638  1.3314  0.1534
 1515SOL     OW16003   3.304   0.922  16.887 -0.0906  0.0729 -0.1352
 1515SOL    HW116004   3.368   0.977  16.933  0.4373  0.3039 -1.1513
 1515SOL    HW216005   3.257   0.996  16.848 -0.3485 -1.4274 -2.6685
 1516SOL     OW16006   3.471   1.837   6.554  0.2461 -0.0836  0.0241
 1516SOL    HW116007   3.392   1.802   6.597  0.7931  0.4108  1.4395
 1516SOL    HW216008   3.501   1.883   6.632  1.0732 -1.1096  0.3126
 1517SOL     OW16009   2.989   2.905   5.883  0.0759  0.0743 -0.2377
 1517SOL    HW116010   3.036   2.823   5.890 -0.9817 -0.7110 -2.3171
 1517SOL    HW216011   3.021   2.953   5.959  1.1591  0.3794 -0.8746
 1518SOL     OW16012   2.039   0.319  11.774  0.1470  0.1374 -0.2369
 1518SOL    HW116013   1.945   0.303  11.776  0.4100 -0.8055  3.5480
 1518SOL    HW216014   2.084   0.258  11.832  1.2071 -0.1144 -1.3122
 1519SOL     OW16015   0.746   4.287   3.748  0.3420  0.5029  0.7180
 1519SOL    HW116016   0.765   4.270   3.656 -1.3213  0.2542  0.4307
 1519SOL    HW216017   0.675   4.348   3.731  0.5974  0.0701 -1.8950
 1520SOL     OW16018   0.971   4.599   8.517 -0.6064  0.1022  0.1510
 1520SOL    HW116019   0.944   4.668   8.578 -0.7854  0.2941 -0.1505
 1520SOL    HW216020   1.033   4.550   8.572 -2.9859 -1.1264  1.7027
 1521SOL     OW16021   0.427   0.912  15.995  0.0398 -0.1724 -0.2237
 1521SOL    HW116022   0.438   0.873  16.082  0.7208  0.4958 -0.0033
 1521SOL    HW216023   0.502   0.972  15.999 -1.2404  1.4544 -0.5438
 1522SOL     OW16024   2.344   1.611   7.707  0.3831  0.2917  0.4393
 1522SOL    HW116025   2.288   1.631   7.782  0.0440  0.5945  0.1110
 1522SOL    HW216026   2.277   1.565   7.656 -1.2829  2.4332  0.6824
 1523SOL     OW16027   3.692   3.358  17.003  0.2939 -0.5440 -0.3959
 1523SOL    HW116028   3.711   3.274  16.962  1.7191  1.6321 -4.1983
 1523SOL    HW216029   3.628   3.398  16.944 -0.6154 -1.2554  0.1061
 1524SOL     OW16030   3.291   0.621   4.929 -0.0982  0.8520 -0.1564
 1524SOL    HW116031   3.240   0.605   4.850 -1.6389 -0.7159  1.1626
 1524SOL    HW216032   3.262   0.551   4.988  0.7266  1.2351  0.7084
 1525SOL     OW16033   0.780   2.329   5.270 -0.2036  0.6167  0.6968
 1525SOL    HW116034   0.828   2.411   5.287  0.6355  0.4208 -0.7388
 1525SOL    HW216035   0.688   2.351   5.260  0.1581  0.5801 -2.7018
 1526SOL     OW16036   3.749   0.411  10.874  0.1033  0.2745  0.1715
 1526SOL    HW116037   3.728   0.459  10.954 -0.0341  1.3871 -0.5388
 1526SOL    HW216038   3.704   0.459  10.804 -1.0751 -0.0201  0.7297
 1527SOL     OW16039   2.339   1.891   1.328 -0.2375 -0.4416  0.1465
 1527SOL    HW116040   2.368   1.800   1.323  0.8756 -0.0819  0.1602
 1527SOL    HW216041   2.246   1.889   1.350 -0.1757 -0.3736  0.4086
 1528SOL     OW16042   1.759   0.224   5.197 -0.6241  0.4197  0.0789
 1528SOL    HW116043   1.818   0.288   5.239  2.0989 -0.9482 -1.6889
 1528SOL    HW216044   1.821   0.155   5.175 -1.4363  0.0677 -1.0911
 1529SOL     OW16045   3.745   3.245   5.794  0.5447  0.0774  0.1814
 1529SOL    HW116046   3.804   3.218   5.723  0.5778  0.8693 -0.0890
 1529SOL    HW216047   3.777   3.333   5.814  0.5081 -0.0900  0.9738
 1530SOL     OW16048   3.977   4.200  17.160 -0.0281 -0.4327 -0.6367
 1530SOL    HW116049   3.998   4.263  17.091 -0.3326  1.7251  1.2419
 1530SOL    HW216050   4.007   4.258  17.230 -0.8561  0.1810 -0.7822
 1531SOL     OW16051   3.641   2.023   3.126 -0.0371  0.0211  0.2724
 1531SOL    HW116052   3.726   1.996   3.094 -0.7021 -1.8635  0.1065
 1531SOL    HW216053   3.626   1.986   3.213  0.0080 -0.4734  0.0702
 1532SOL     OW16054   2.657   0.954   1.838  0.3288  0.0959 -0.1263
 1532SOL    HW116055   2.723   0.939   1.770 -1.4152 -1.7571 -1.4074
 1532SOL    HW216056   2.634   0.862   1.846  0.6347 -0.2611 -3.2806
 1533SOL     OW16057   2.255   3.391   2.727 -0.3152  0.0116  0.6383
 1533SOL    HW116058   2.210   3.455   2.782  0.0859  0.2042  0.7444
 1533SOL    HW216059   2.188   3.388   2.659  1.4990 -1.9000 -1.0866
 1534SOL     OW16060   0.110   1.126   4.910 -0.6618  0.3607  0.0643
 1534SOL    HW116061   0.121   1.032   4.898  2.3911  0.7849 -0.5135
 1534SOL    HW216062   0.176   1.127   4.979  0.7151  0.7136 -1.2451
 1535SOL     OW16063   3.359   1.731   4.732 -0.1841 -0.5553 -0.3961
 1535SOL    HW116064   3.279   1.678   4.731 -1.1987  0.9579  0.4068
 1535SOL    HW216065   3.318   1.813   4.761 -3.6599 -1.8339 -1.6776
 1536SOL     OW16066   3.813   2.697   5.461 -0.2779  0.1379 -0.6977
 1536SOL    HW116067   3.808   2.650   5.378 -2.1158  1.3906 -1.2795
 1536SOL    HW216068   3.782   2.623   5.515  0.6620 -0.9263 -1.6259
 1537SOL     OW16069   1.777   1.631   4.338  0.3119 -0.5295 -0.3836
 1537SOL    HW116070   1.837   1.558   4.346  0.5478 -0.2557  0.3543
 1537SOL    HW216071   1.790   1.652   4.246 -0.8870  0.0538 -0.4285
 1538SOL     OW16072   0.200   3.756   8.597  0.2393  0.2461 -0.4527
 1538SOL    HW116073   0.182   3.791   8.510 -1.9348 -3.3449 -1.4558
 1538SOL    HW216074   0.252   3.677   8.582  0.3503  0.6150 -2.0286
 1539SOL     OW16075   3.365   4.285   8.427  0.9540 -0.5017 -0.3919
 1539SOL    HW116076   3.458   4.301   8.445  0.5131 -0.2950  1.7122
 1539SOL    HW216077   3.326   4.367   8.457 -0.5169 -0.9646 -1.0855
 1540SOL     OW16078   3.478   3.402   6.570  0.7820  0.1733 -0.2575
 1540SOL    HW116079   3.427   3.396   6.489  0.3717  0.2021 -0.0017
 1540SOL    HW216080   3.534   3.476   6.547  0.7282  1.0685  2.4998
 1541SOL     OW16081   0.909   0.562   8.632 -0.1206 -0.0410  0.0618
 1541SOL    HW116082   0.842   0.523   8.689 -1.4881  3.2894  0.7721
 1541SOL    HW216083   0.917   0.497   8.562  2.8535  1.5488 -1.0682
 1542SOL     OW16084   0.977   4.659   0.546  0.0496 -0.2994  0.2499
 1542SOL    HW116085   0.936   4.680   0.630 -1.3361 -1.5301 -0.1213
 1542SOL    HW216086   0.901   4.638   0.491 -0.3413 -1.3850  1.2097
 1543SOL     OW16087   3.458   4.214   6.595  0.5860  0.5070  0.4856
 1543SOL    HW116088   3.466   4.233   6.501 -1.5326  0.3475  0.2853
 1543SOL    HW216089   3.415   4.290   6.633  1.8318  1.7927 -0.6717
 1544SOL     OW16090   3.247   2.913   7.361  0.6491 -0.1952  0.1165
 1544SOL    HW116091   3.281   2.844   7.418  0.3969 -0.0753  0.4107
 1544SOL    HW216092   3.175   2.868   7.318  0.8802  1.7205 -2.2672
 1545SOL     OW16093   1.566   1.230  17.598 -0.1866 -0.3660 -0.1966
 1545SOL    HW116094   1.621   1.164  17.640  2.1576  1.6642 -0.0905
 1545SOL    HW216095   1.514   1.262  17.672  0.3317  0.5699 -0.2372
 1546SOL     OW16096   1.238   0.749   7.574 -0.0240 -0.2757 -0.4123
 1546SOL    HW116097   1.268   0.837   7.598 -1.9351 -0.2542  1.8387
 1546SOL    HW216098   1.159   0.749   7.628 -0.8977 -2.4829 -1.7127
 1547SOL     OW16099   1.394   0.354   0.407 -0.4493  0.0194  0.5060
 1547SOL    HW116100   1.394   0.429   0.465  0.1800 -0.3384  0.9695
 1547SOL    HW216101   1.402   0.284   0.472 -3.6004  0.0553  0.9486
 1548SOL     OW16102   4.588   1.542   9.471 -0.3297 -0.2304  0.2832
 1548SOL    HW116103   4.623   1.460   9.508  0.9253 -0.4608 -1.3950
 1548SOL    HW216104   4.498   1.523   9.496 -0.8118 -0.4150 -1.5744
 1549SOL     OW16105   4.467   0.081   8.550  0.2079  0.0972 -0.3454
 1549SOL    HW116106   4.404   0.153   8.560  0.4246  0.3147 -0.5242
 1549SOL    HW216107   4.551   0.128   8.554 -0.0920  0.5412  0.9586
 1550SOL     OW16108   3.907   1.035  11.441 -0.1185 -0.2482  0.2257
 1550SOL    HW116109   3.971   1.056  11.510 -0.0623 -1.0443  0.4119
 1550SOL    HW216110   3.907   0.940  11.436 -1.5100 -0.2483  0.1376
 1551SOL     OW16111   2.818   4.286   5.865  0.1169 -0.6998 -0.5742
 1551SOL    HW116112   2.743   4.229   5.884  0.2173 -0.1403  1.4978
 1551SOL    HW216113   2.789   4.339   5.790 -1.7512 -1.1431 -0.1707
 1552SOL     OW16114   3.617   3.951   5.534  0.3964 -0.0622  0.1494
 1552SOL    HW116115   3.611   3.976   5.626  0.0218 -0.7655  0.3170
 1552SOL    HW216116   3.712   3.936   5.538  0.6455  1.1602 -1.2682
 1553SOL     OW16117   3.023   1.104  11.587 -0.3210  0.4851  0.2858
 1553SOL    HW116118   3.008   1.197  11.569 -0.5355  0.2244 -0.8808
 1553SOL    HW216119   3.010   1.110  11.681  0.1148 -0.2225  0.3862
 1554SOL     OW16120   1.794   4.582   8.128  0.1155  0.7148 -0.1134
 1554SOL    HW116121   1.889   4.576   8.136  0.4140  1.6966 -2.8060
 1554SOL    HW216122   1.780   4.560   8.036  1.3985  1.2555 -0.4369
 1555SOL     OW16123   0.013   3.900   3.457  0.1088 -0.0377  0.2106
 1555SOL    HW116124   4.688   3.982   3.466  1.6587  0.7347  1.4388
 1555SOL    HW216125   4.673   3.833   3.483 -2.3843  2.1375 -0.1425
 1556SOL     OW16126   2.146   2.097   7.287  0.0128 -0.1165  0.0027
 1556SOL    HW116127   2.120   2.026   7.346 -0.1465  1.7169  2.1051
 1556SOL    HW216128   2.058   2.126   7.264 -0.0668 -0.9847 -0.8137
 1557SOL     OW16129   3.430   2.138   1.122  0.3360 -0.3226  0.3280
 1557SOL    HW116130   3.390   2.216   1.161 -1.4663 -1.0276 -0.0864
 1557SOL    HW216131   3.500   2.168   1.063 -0.8210  1.0967 -0.3491
 1558SOL     OW16132   1.204   0.229   0.266 -0.1833  0.0436  0.8267
 1558SOL    HW116133   1.242   0.297   0.321  0.8543 -0.4404  0.7211
 1558SOL    HW216134   1.253   0.149   0.288 -1.7584 -0.6482  1.7888
 1559SOL     OW16135   3.735   3.394  14.789 -0.1475 -0.0340  0.0367
 1559SOL    HW116136   3.654   3.446  14.795  1.1740  1.7781  2.1998
 1559SOL    HW216137   3.797   3.463  14.812 -0.2180 -0.3371  1.1360
 1560SOL     OW16138   0.921   4.517   8.237  0.4300  0.3306  0.3250
 1560SOL    HW116139   0.957   4.523   8.326 -1.0118  1.5452  0.8174
 1560SOL    HW216140   0.986   4.452   8.210  2.9326  3.3787 -0.9089
 1561SOL     OW16141   2.810   2.482  16.845 -0.9298 -0.5297  0.7986
 1561SOL    HW116142   2.761   2.401  16.856 -2.0419  0.1327  0.7184
 1561SOL    HW216143   2.901   2.464  16.865 -0.6749 -2.0169 -1.6447
 1562SOL     OW16144   1.930   2.354  16.648 -0.2421  0.0456  0.1128
 1562SOL    HW116145   1.886   2.283  16.696  1.7685 -2.2788 -1.5546
 1562SOL    HW216146   1.873   2.382  16.576 -0.6352 -0.7234  0.1192
 1563SOL     OW16147   4.073   0.725  14.280  0.2359  0.4966  0.0582
 1563SOL    HW116148   3.987   0.691  14.302  0.9849  0.5940  3.1822
 1563SOL    HW216149   4.079   0.771  14.364  1.5091 -3.0378  1.9355
 1564SOL     OW16150   0.897   3.068   5.095  0.1992  0.4865  0.1070
 1564SOL    HW116151   0.820   3.013   5.078  1.1774 -1.2571  1.3368
 1564SOL    HW216152   0.911   3.085   5.002 -0.4104  0.6106  0.0353
 1565SOL     OW16153   0.138   4.277   7.827 -0.3277  0.1061  0.0405
 1565SOL    HW116154   0.069   4.274   7.761 -0.4799 -1.6219  0.2804
 1565SOL    HW216155   0.087   4.269   7.908  0.7177 -1.3514  0.5590
 1566SOL     OW16156   4.288   0.670  13.805 -0.1231 -0.2180 -0.4306
 1566SOL    HW116157   4.234   0.747  13.821 -1.9825 -1.4407 -0.8001
 1566SOL    HW216158   4.218   0.611  13.777 -0.6325 -0.2520  0.9481
 1567SOL     OW16159   4.186   1.044   5.413 -0.0444  0.7199  0.0781
 1567SOL    HW116160   4.181   0.950   5.432  2.8961  0.9445  1.9705
 1567SOL    HW216161   4.155   1.079   5.497  1.4678  0.1379  0.8924
 1568SOL     OW16162   0.156   2.213   1.304 -0.7414 -0.1155  0.2798
 1568SOL    HW116163   0.116   2.298   1.281 -0.9790 -0.3248 -0.0884
 1568SOL    HW216164   0.198   2.183   1.224 -0.1094  0.5612  0.3603
 1569SOL     OW16165   1.308   1.828   1.103  0.5624 -0.0571 -0.2800
 1569SOL    HW116166   1.375   1.797   1.163  2.4497  3.1019 -0.7736
 1569SOL    HW216167   1.264   1.743   1.093  1.5168 -0.6002  0.1627
 1570SOL     OW16168   3.952   3.424   4.951  0.0232 -0.2000  0.0496
 1570SOL    HW116169   3.978   3.516   4.942 -0.0969 -0.1265  0.4562
 1570SOL    HW216170   3.884   3.435   5.017  1.2281 -0.0658  1.2738
 1571SOL     OW16171   1.385   3.213  13.251 -0.2121 -0.0293 -0.3509
 1571SOL    HW116172   1.471   3.228  13.210 -0.2201 -1.2739 -0.8205
 1571SOL    HW216173   1.341   3.155  13.189 -1.1139 -0.8110  1.0005
 1572SOL     OW16174   0.843   0.493   6.230 -0.3514 -0.2255  0.9151
 1572SOL    HW116175   0.796   0.572   6.255 -0.2255 -0.1501  0.9122
 1572SOL    HW216176   0.878   0.519   6.145  0.5793  1.1135  1.7091
 1573SOL     OW16177   4.436   2.818  11.270 -0.2103  0.4007  0.3549
 1573SOL    HW116178   4.471   2.861  11.192 -1.0733  0.1238 -0.1876
 1573SOL    HW216179   4.347   2.854  11.281 -0.1676  0.5495  0.2226
 1574SOL     OW16180   0.115   1.841   7.571  0.1561 -0.0554  0.6914
 1574SOL    HW116181   0.100   1.932   7.542  1.8511  0.1508  0.4637
 1574SOL    HW216182   0.041   1.828   7.631  0.4209  0.2293  1.0777
 1575SOL     OW16183   0.500   0.559  11.452  0.6183 -0.0001 -0.1662
 1575SOL    HW116184   0.472   0.645  11.483  1.8984  0.6051 -0.6901
 1575SOL    HW216185   0.550   0.530  11.528  2.9988  0.7575 -1.4331
 1576SOL     OW16186   0.173   2.548  15.667  0.0254 -0.6215 -0.4019
 1576SOL    HW116187   0.124   2.631  15.664 -0.9896 -1.1457  1.2263
 1576SOL    HW216188   0.250   2.573  15.616 -1.2991  0.0386 -2.0688
 1577SOL     OW16189   0.164   4.322   8.731 -0.8329  0.1826  0.8175
 1577SOL    HW116190   0.100   4.333   8.801  0.0826  1.8784  1.3936
 1577SOL    HW216191   0.246   4.360   8.764  1.4517 -4.0996  0.1710
 1578SOL     OW16192   2.778   1.386  14.158  0.1797  0.1202 -1.1609
 1578SOL    HW116193   2.809   1.475  14.142  1.4678  0.1803  1.5627
 1578SOL    HW216194   2.686   1.401  14.137 -0.4445 -1.5958  0.3654
 1579SOL     OW16195   0.292   0.815   7.857  0.3366  0.2065 -0.4854
 1579SOL    HW116196   0.381   0.809   7.822  0.5861  0.9024  0.0346
 1579SOL    HW216197   0.301   0.791   7.949 -2.9831 -0.9715 -0.4758
 1580SOL     OW16198   0.857   1.539  14.758 -0.1646  0.0329 -0.4886
 1580SOL    HW116199   0.895   1.452  14.772 -1.6905 -0.8623 -1.8596
 1580SOL    HW216200   0.789   1.536  14.825  3.1319  2.0237  2.9596
 1581SOL     OW16201   4.519   1.589   9.826  0.0672 -0.0759 -0.0676
 1581SOL    HW116202   4.455   1.652   9.860  2.6498  0.7027  3.3475
 1581SOL    HW216203   4.533   1.627   9.740  0.0052  1.1030  0.4378
 1582SOL     OW16204   2.169   3.087  16.432 -0.4138  0.4554 -0.1445
 1582SOL    HW116205   2.192   3.141  16.507 -0.4800  0.1447  0.0963
 1582SOL    HW216206   2.252   3.041  16.421 -1.1476 -0.6116 -1.1865
 1583SOL     OW16207   3.437   4.295   7.291  0.9475 -0.3840 -0.3921
 1583SOL    HW116208   3.411   4.203   7.298 -1.0258  0.2438  0.4071
 1583SOL    HW216209   3.446   4.298   7.196 -1.6227  1.1971 -0.5878
 1584SOL     OW16210   1.333   4.411   9.365  0.1154 -0.0650 -0.1500
 1584SOL    HW116211   1.371   4.388   9.450 -0.9600 -1.0635  0.0623
 1584SOL    HW216212   1.408   4.436   9.311  0.2486 -1.1667 -0.4675
 1585SOL     OW16213   3.505   2.602  16.184 -0.3806  0.0370 -0.0312
 1585SOL    HW116214   3.488   2.654  16.105  0.3699 -0.3157 -0.4210
 1585SOL    HW216215   3.549   2.528  16.143 -1.5182  0.9933 -2.9771
 1586SOL     OW16216   1.429   3.392  13.658 -0.3037 -0.0639 -0.0571
 1586SOL    HW116217   1.419   3.450  13.733  0.0720  1.1785 -0.9734
 1586SOL    HW216218   1.522   3.407  13.646 -0.2259 -0.2274  0.3689
 1587SOL     OW16219   1.764   2.958  13.294 -0.0213  0.2002  0.6133
 1587SOL    HW116220   1.673   2.940  13.273  0.2048  2.1374 -2.0233
 1587SOL    HW216221   1.759   3.041  13.342 -0.4748  0.2549  0.4677
 1588SOL     OW16222   4.159   0.129   0.030  0.1200 -0.2820  0.3345
 1588SOL    HW116223   4.119   0.115   0.116 -1.2561 -0.3171 -0.3099
 1588SOL    HW216224   4.083   0.143  17.668  1.1214  1.7111 -0.5385
 1589SOL     OW16225   2.492   3.843   3.678 -0.0198 -0.3678  0.0207
 1589SOL    HW116226   2.418   3.849   3.618 -0.2693 -2.3136  0.1192
 1589SOL    HW216227   2.445   3.850   3.761 -1.0367  3.2673 -0.8983
 1590SOL     OW16228   0.903   1.898  14.177  0.5524 -0.5581  0.2174
 1590SOL    HW116229   0.807   1.896  14.178  0.5171  2.7508  2.2115
 1590SOL    HW216230   0.914   1.803  14.191  0.6002 -1.0289 -2.9316
 1591SOL     OW16231   0.727   2.891   2.630  0.3787 -0.1798  0.1383
 1591SOL    HW116232   0.686   2.969   2.592  0.7783  1.6916  3.5117
 1591SOL    HW216233   0.780   2.850   2.562  1.5275  1.5429 -0.0184
 1592SOL     OW16234   1.036   2.555   6.680 -0.1485  0.7957 -0.0555
 1592SOL    HW116235   1.058   2.646   6.696 -1.0958  0.8986  0.6484
 1592SOL    HW216236   0.947   2.552   6.714  0.1614 -0.7572  0.6150
 1593SOL     OW16237   1.441   3.377  12.540 -0.3422  0.3315 -0.1683
 1593SOL    HW116238   1.383   3.385  12.616 -1.1706  0.0950 -0.7669
 1593SOL    HW216239   1.433   3.463  12.500  1.9329  1.1135  1.0767
 1594SOL     OW16240   4.640   2.996   7.571  0.5603 -0.3585  0.3564
 1594SOL    HW116241   4.675   3.023   7.656 -1.2484  0.8472  0.7085
 1594SOL    HW216242   4.703   3.046   7.519  0.8760 -3.1497 -1.9343
 1595SOL     OW16243   1.016   2.287   8.257 -0.0904  0.5192  0.0275
 1595SOL    HW116244   1.098   2.292   8.306  0.9911 -0.7431 -1.7057
 1595SOL    HW216245   0.957   2.354   8.293 -0.5295  1.2992 -2.1294
 1596SOL     OW16246   1.240   0.234   4.251  0.0203 -0.1080  0.3598
 1596SOL    HW116247   1.149   0.235   4.223 -0.4462  0.5743  1.9575
 1596SOL    HW216248   1.281   0.208   4.168 -0.0591 -0.1723  0.3417
 1597SOL     OW16249   3.174   2.802   5.301 -0.0201  0.2287  0.0221
 1597SOL    HW116250   3.138   2.714   5.310  0.3061  0.1468  0.5081
 1597SOL    HW216251   3.202   2.817   5.391 -2.5950  1.3232  0.6249
 1598SOL     OW16252   1.404   2.748  14.329  0.2199 -0.5187  0.2616
 1598SOL    HW116253   1.345   2.697  14.384  0.1600 -0.0648  0.6153
 1598SOL    HW216254   1.337   2.798  14.281  1.2564 -0.8613 -1.5526
 1599SOL     OW16255   4.518   1.761  13.744  0.2381  0.1669 -0.3288
 1599SOL    HW116256   4.605   1.721  13.753 -0.6763 -2.5337 -3.0727
 1599SOL    HW216257   4.460   1.684  13.749  0.6840 -0.0610  1.1696
 1600SOL     OW16258   2.982   4.708   4.242  0.2054  0.5524  0.3390
 1600SOL    HW116259   3.029   0.050   4.191  0.5686  0.8538  1.0567
 1600SOL    HW216260   3.024   4.713   4.328 -0.1035 -2.5590  0.6788
 1601SOL     OW16261   1.921   2.431   7.720 -0.6142  0.4746  0.0731
 1601SOL    HW116262   1.881   2.449   7.635  2.0813 -0.0574 -1.2970
 1601SOL    HW216263   2.009   2.419   7.686 -1.1290  1.3742 -1.5515
 1602SOL     OW16264   0.991   2.112   5.251  0.1360 -0.1904  0.5237
 1602SOL    HW116265   0.905   2.156   5.251  0.5905  0.6893 -0.2118
 1602SOL    HW216266   1.001   2.089   5.159  0.6763 -0.4951  0.6590
 1603SOL     OW16267   2.684   2.188  17.371  0.0897 -0.7714 -0.2593
 1603SOL    HW116268   2.610   2.246  17.388  1.1146  0.7271 -0.9576
 1603SOL    HW216269   2.650   2.120  17.312 -1.3355 -0.5320  0.2769
 1604SOL     OW16270   0.239   3.588  17.695  0.0443 -0.1696  0.5846
 1604SOL    HW116271   0.276   3.676  17.688  1.3701 -0.8112 -0.4486
 1604SOL    HW216272   0.205   3.573  17.606  0.4809 -1.8321  0.7063
 1605SOL     OW16273   2.971   2.721   1.638  0.5210  0.9963 -0.2224
 1605SOL    HW116274   3.017   2.736   1.721 -0.5949 -2.2391  0.9584
 1605SOL    HW216275   2.883   2.735   1.672  0.5117 -1.6162  0.7941
 1606SOL     OW16276   3.629   3.285   2.508  0.5817  0.4962 -0.2485
 1606SOL    HW116277   3.533   3.285   2.511  0.5462  2.1546 -1.2068
 1606SOL    HW216278   3.635   3.284   2.413  1.7826 -0.0350 -0.1561
 1607SOL     OW16279   2.986   1.486   2.339 -0.1268  0.1144  0.0569
 1607SOL    HW116280   2.997   1.573   2.377  1.1361  0.3869 -0.9487
 1607SOL    HW216281   3.042   1.480   2.262  0.5544  0.6232  0.5222
 1608SOL     OW16282   3.261   3.924   7.966  0.3985 -0.1862 -0.4720
 1608SOL    HW116283   3.341   3.974   7.955  0.2819  0.0305 -0.3510
 1608SOL    HW216284   3.269   3.898   8.058  1.5326 -0.7822 -0.7524
 1609SOL     OW16285   4.694   2.244   2.881  0.2284  0.5483 -0.2581
 1609SOL    HW116286   4.699   2.164   2.829  2.4034  1.3540 -1.2796
 1609SOL    HW216287   4.630   2.216   2.946  0.3752  0.6643 -0.0668
 1610SOL     OW16288   3.899   0.842  15.873 -0.4195 -0.7142 -0.0381
 1610SOL    HW116289   3.921   0.872  15.785  1.4726 -0.4725  0.5196
 1610SOL    HW216290   3.983   0.836  15.918 -0.8750 -3.1197  0.5183
 1611SOL     OW16291   1.715   4.179  13.949  0.1783  0.0578 -0.1163
 1611SOL    HW116292   1.810   4.174  13.942  0.2896  0.5923  0.9990
 1611SOL    HW216293   1.698   4.154  13.858  2.6534 -0.0761 -0.5474
 1612SOL     OW16294   0.362   4.558  15.303 -0.0975  0.1335  0.3082
 1612SOL    HW116295   0.455   4.538  15.313  0.6335  3.9557  1.1299
 1612SOL    HW216296   0.343   4.508  15.223  1.4331 -0.9038  0.5944
 1613SOL     OW16297   0.002   4.163   3.932 -0.3103 -0.2639  0.1360
 1613SOL    HW116298   0.075   4.118   3.889  0.0090  0.1061  0.2850
 1613SOL    HW216299   0.022   4.157   4.025 -0.4206 -1.2482  0.0881
 1614SOL     OW16300   2.431   0.127   6.798 -0.1399  0.0507  0.3580
 1614SOL    HW116301   2.439   0.032   6.783 -1.3656  0.1993 -1.2511
 1614SOL    HW216302   2.371   0.122   6.872 -0.5267  0.1540  0.0531
 1615SOL     OW16303   3.834   3.140   8.432  0.1380  0.1985 -0.3367
 1615SOL    HW116304   3.905   3.095   8.386 -0.5753 -0.4837 -0.7566
 1615SOL    HW216305   3.887   3.143   8.511 -1.5453  1.4443  0.7425
 1616SOL     OW16306   3.877   1.193   3.090  0.6465  0.2554 -0.2567
 1616SOL    HW116307   3.871   1.117   3.032 -0.2209  0.0326  0.1334
 1616SOL    HW216308   3.947   1.169   3.151  1.0511 -0.4958 -1.0038
 1617SOL     OW16309   0.001   4.162   8.924  0.4054 -0.2380  0.7165
 1617SOL    HW116310   0.004   4.099   8.996  2.0630 -0.1982  0.6931
 1617SOL    HW216311   0.043   4.119   8.848  1.7986 -2.5325  2.7769
 1618SOL     OW16312   2.576   3.629   6.844  0.5525 -0.1094 -0.4099
 1618SOL    HW116313   2.497   3.623   6.898  0.5532 -1.4601 -0.5686
 1618SOL    HW216314   2.638   3.629   6.917  3.9774  2.8503 -3.3167
 1619SOL     OW16315   4.635   3.401   5.500  0.2491 -0.0540  0.2015
 1619SOL    HW116316   4.694   3.344   5.549 -0.2550 -0.5506  0.2436
 1619SOL    HW216317   4.639   3.485   5.545 -0.3682  0.5463 -0.8621
 1620SOL     OW16318   4.628   4.024   2.720 -0.1821  0.2990  0.1916
 1620SOL    HW116319   4.611   3.945   2.771  2.0536 -0.7158 -0.6384
 1620SOL    HW216320   4.723   4.035   2.707 -0.4508  1.7322 -0.5244
 1621SOL     OW16321   2.501   1.919   2.565  0.1524  0.4297  0.0570
 1621SOL    HW116322   2.482   1.832   2.599  0.3796  0.3134 -0.1086
 1621SOL    HW216323   2.552   1.913   2.484  2.2325 -1.4462  1.5306
 1622SOL     OW16324   2.392   4.294   2.415  0.4426  0.3585 -0.0765
 1622SOL    HW116325   2.300   4.295   2.390 -0.5032  2.4218  3.4645
 1622SOL    HW216326   2.406   4.234   2.488 -0.4809  0.3450  0.0921
 1623SOL     OW16327   0.244   2.767   6.937  0.8012  0.2823  0.3164
 1623SOL    HW116328   0.278   2.714   6.865  1.2393  2.2418 -0.9028
 1623SOL    HW216329   0.294   2.847   6.917  1.0434 -0.2735 -1.3228
 1624SOL     OW16330   3.841   3.400   5.221 -0.5273  0.3289 -0.2182
 1624SOL    HW116331   3.919   3.389   5.276 -1.0192  2.1456  0.8439
 1624SOL    HW216332   3.803   3.313   5.210 -0.6435  0.6545 -2.4814
 1625SOL     OW16333   2.888   3.877  13.710 -0.1305  0.1913  0.0952
 1625SOL    HW116334   2.904   3.930  13.788  1.1064 -1.9315  1.2585
 1625SOL    HW216335   2.812   3.827  13.738 -0.1250  0.0694 -0.1054
 1626SOL     OW16336   0.002   4.615   2.923 -0.0231 -0.2602  0.1341
 1626SOL    HW116337   4.697   4.604   3.014  1.8521 -1.6697  0.5408
 1626SOL    HW216338   4.691   4.547   2.865  0.1943 -0.1768 -0.0947
 1627SOL     OW16339   1.319   4.568   9.032 -0.2231  0.2090  0.3846
 1627SOL    HW116340   1.404   4.530   9.053 -0.8826 -1.1383  0.5523
 1627SOL    HW216341   1.347   4.631   8.965  0.0809 -1.0626 -0.6891
 1628SOL     OW16342   1.905   3.048   3.676  0.6479  0.0121 -0.2806
 1628SOL    HW116343   1.858   2.973   3.640  1.6062 -0.5737 -0.3130
 1628SOL    HW216344   1.943   3.013   3.757 -1.0184  1.7537  1.2476
 1629SOL     OW16345   3.699   1.456  10.554 -0.1722 -0.7864  0.1216
 1629SOL    HW116346   3.674   1.522  10.488 -1.6002  0.0923  1.5400
 1629SOL    HW216347   3.627   1.394  10.557  0.1161 -1.1894 -1.2189
 1630SOL     OW16348   1.463   0.199   1.814 -0.2077  0.0831 -0.5776
 1630SOL    HW116349   1.372   0.200   1.845 -0.3007  1.2801 -0.8970
 1630SOL    HW216350   1.509   0.245   1.884  0.6757 -2.5975  0.5949
 1631SOL     OW16351   4.223   4.581   2.263 -0.4384  0.1577 -0.7027
 1631SOL    HW116352   4.269   4.665   2.261  0.6526 -0.4652 -2.0305
 1631SOL    HW216353   4.290   4.533   2.214  0.6232  0.8772  0.0572
 1632SOL     OW16354   0.668   4.417   2.164 -0.0661  0.2980  0.5049
 1632SOL    HW116355   0.686   4.364   2.242  0.2130  1.2193  1.0684
 1632SOL    HW216356   0.753   4.458   2.148  0.2890 -1.2397 -1.6694
 1633SOL     OW16357   2.329   1.234   8.070 -0.1862 -0.2475  0.3588
 1633SOL    HW116358   2.256   1.294   8.088  2.0737  2.5813  0.1270
 1633SOL    HW216359   2.367   1.241   8.157  0.3449 -1.4494  0.2129
 1634SOL     OW16360   1.571   2.839   4.322  0.0641 -0.0915 -0.1857
 1634SOL    HW116361   1.574   2.784   4.244 -0.5010  0.6785 -0.7355
 1634SOL    HW216362   1.482   2.875   4.325 -0.4243 -1.2436 -0.7903
 1635SOL     OW16363   1.747   3.640  16.068  0.5334 -0.5239 -0.6018
 1635SOL    HW116364   1.685   3.568  16.075  0.5261 -0.3098  1.8318
 1635SOL    HW216365   1.829   3.591  16.071  0.1816 -1.0449  0.7083
 1636SOL     OW16366   1.650   0.133  17.026  0.0911  0.2031 -0.2949
 1636SOL    HW116367   1.635   0.129  16.931  0.3941  0.5968 -0.3602
 1636SOL    HW216368   1.700   0.052  17.036  0.7965  0.6100 -0.5777
 1637SOL     OW16369   3.855   1.150  14.894  0.2738 -0.1949  0.1751
 1637SOL    HW116370   3.931   1.154  14.951  1.5678 -2.1059 -1.4017
 1637SOL    HW216371   3.901   1.161  14.811 -1.3107 -0.7165 -0.7677
 1638SOL     OW16372   3.428   0.847   5.761  0.3769 -0.3318 -0.4635
 1638SOL    HW116373   3.388   0.903   5.828  0.1210 -3.8160  2.3451
 1638SOL    HW216374   3.493   0.804   5.817  0.6940  1.8975  0.8854
 1639SOL     OW16375   4.116   4.427   8.577 -0.2069 -0.0224  0.4200
 1639SOL    HW116376   4.074   4.482   8.642  0.4887  0.2545  0.6371
 1639SOL    HW216377   4.174   4.484   8.526 -1.3858  0.4214 -0.4120
 1640SOL     OW16378   2.829   1.516   5.693 -0.2245  0.6829  0.2330
 1640SOL    HW116379   2.804   1.591   5.639 -1.3086  0.1468 -0.0207
 1640SOL    HW216380   2.864   1.453   5.629  1.7902 -0.0495  2.0803
 1641SOL     OW16381   1.719   0.874  17.441 -0.2341 -0.0771  0.2373
 1641SOL    HW116382   1.747   0.863  17.532  0.6017 -2.1062 -0.2556
 1641SOL    HW216383   1.753   0.960  17.416 -1.3635  0.1155 -0.5977
 1642SOL     OW16384   1.213   0.828   7.185  0.3272 -0.1401  0.1512
 1642SOL    HW116385   1.217   0.733   7.181 -0.9825 -0.3128  2.9435
 1642SOL    HW216386   1.296   0.864   7.215  0.2137  1.0307 -0.8893
 1643SOL     OW16387   1.701   0.075   6.585  0.2256 -0.4660  0.6822
 1643SOL    HW116388   1.755   0.152   6.565  0.4338 -0.6257  0.6246
 1643SOL    HW216389   1.756   0.012   6.539  0.5553  1.1127 -1.0523
 1644SOL     OW16390   2.062   1.036   4.917  0.3385  0.2454  0.3346
 1644SOL    HW116391   2.109   0.962   4.877 -0.9488 -0.5645  0.2958
 1644SOL    HW216392   2.043   1.096   4.845  1.3204 -0.9141 -0.9065
 1645SOL     OW16393   3.850   1.444   2.173  0.0515 -0.8899  0.2879
 1645SOL    HW116394   3.782   1.472   2.112  0.1682 -0.3136  0.4220
 1645SOL    HW216395   3.835   1.350   2.182 -0.9976 -0.7147  0.2852
 1646SOL     OW16396   3.481   1.959   7.865 -0.3892 -0.1420 -0.4449
 1646SOL    HW116397   3.441   1.873   7.851 -0.7921  0.0194 -0.2792
 1646SOL    HW216398   3.505   1.994   7.779  0.9920 -2.1123 -0.8609
 1647SOL     OW16399   3.964   4.042   8.017 -0.5157  0.7970  0.2443
 1647SOL    HW116400   3.913   3.966   7.989 -2.4299  2.1348  0.0401
 1647SOL    HW216401   3.944   4.097   7.941  0.6298  0.5655 -0.2183
 1648SOL     OW16402   1.760   2.386   9.949 -0.2212 -0.0889 -0.1757
 1648SOL    HW116403   1.675   2.377   9.907 -1.2666  0.5948  1.7901
 1648SOL    HW216404   1.771   2.481   9.949 -0.7814 -0.0237  0.1819
 1649SOL     OW16405   3.957   1.189   7.877  0.5542  0.3724 -0.2803
 1649SOL    HW116406   3.994   1.260   7.931 -1.6742  1.4866 -0.1960
 1649SOL    HW216407   3.901   1.137   7.935 -0.5552  0.3764 -1.3535
 1650SOL     OW16408   0.608   0.313   4.878  0.7585  0.6120  0.3206
 1650SOL    HW116409   0.653   0.231   4.857  0.3917  1.1088 -2.3721
 1650SOL    HW216410   0.673   0.339   4.944  0.4613  0.3947  0.7025
 1651SOL     OW16411   3.011   3.470   4.800  0.1543  0.3932 -0.0797
 1651SOL    HW116412   2.991   3.381   4.771 -1.6456  1.3191 -1.7098
 1651SOL    HW216413   3.064   3.493   4.724 -0.2997 -1.4775 -0.9577
 1652SOL     OW16414   3.855   2.809   2.451 -0.5996 -0.0994  0.1598
 1652SOL    HW116415   3.930   2.826   2.507  1.4300  0.4727 -2.7596
 1652SOL    HW216416   3.881   2.736   2.394 -0.7214  0.0267 -0.0584
 1653SOL     OW16417   3.659   2.537   4.900 -0.0486  0.3866  0.0271
 1653SOL    HW116418   3.634   2.607   4.961  1.3265  1.4470 -0.6269
 1653SOL    HW216419   3.714   2.477   4.951 -2.1427 -1.5700 -0.0078
 1654SOL     OW16420   1.856   1.025   7.589  0.2634 -0.2827 -0.0374
 1654SOL    HW116421   1.908   0.999   7.512  2.2228  2.4038  0.4138
 1654SOL    HW216422   1.796   1.085   7.545 -0.1202  0.4205  1.4552
 1655SOL     OW16423   4.195   0.772   5.414 -0.0292 -0.0095 -0.0715
 1655SOL    HW116424   4.239   0.736   5.337  0.5792  1.9641 -0.6471
 1655SOL    HW216425   4.102   0.752   5.407  0.0439  0.1381 -1.3792
 1656SOL     OW16426   3.888   2.732   0.878  0.6637 -0.2042 -0.1449
 1656SOL    HW116427   3.976   2.770   0.879 -0.2452  1.9357 -1.0391
 1656SOL    HW216428   3.905   2.661   0.817  0.1044  0.7116 -1.3562
 1657SOL     OW16429   4.356   0.586   1.780 -0.5084 -0.7726  0.2735
 1657SOL    HW116430   4.316   0.559   1.863 -0.4492 -1.3603  0.1054
 1657SOL    HW216431   4.310   0.545   1.707  0.0185 -0.3241 -0.3095
 1658SOL     OW16432   2.720   2.161  11.233 -1.4470 -0.1488 -0.0409
 1658SOL    HW116433   2.723   2.254  11.254 -4.1282  0.1873 -1.1407
 1658SOL    HW216434   2.633   2.137  11.203 -0.4243 -1.3717 -2.0219
 1659SOL     OW16435   3.275   0.659   5.561  0.1585  0.1534 -0.0065
 1659SOL    HW116436   3.359   0.682   5.522  1.0972 -0.6361  1.5711
 1659SOL    HW216437   3.222   0.663   5.481 -1.2894  1.3145  1.0223
 1660SOL     OW16438   1.852   3.839  17.476  0.2713  0.2851 -0.4800
 1660SOL    HW116439   1.897   3.826  17.560 -0.3624  1.0083 -0.0311
 1660SOL    HW216440   1.865   3.933  17.466  0.4768  0.2519 -0.5093
 1661SOL     OW16441   0.875   3.170   9.829 -0.4726 -0.2132 -0.3943
 1661SOL    HW116442   0.940   3.119   9.781 -0.5745 -0.4876 -0.2446
 1661SOL    HW216443   0.808   3.102   9.837 -0.6823 -0.1605 -1.7437
 1662SOL     OW16444   3.298   4.286   9.110 -0.1372 -0.2766  0.0532
 1662SOL    HW116445   3.299   4.301   9.204 -0.7709 -1.0477  0.1932
 1662SOL    HW216446   3.220   4.230   9.103 -1.1267  0.9721  1.1920
 1663SOL     OW16447   4.433   4.690   8.254 -0.5589  0.7561 -0.1948
 1663SOL    HW116448   4.461   0.010   8.335  2.3836 -0.4245 -0.5876
 1663SOL    HW216449   4.492   0.002   8.188  0.3677  0.7886  0.6540
 1664SOL     OW16450   4.069   2.801   4.066 -0.2929 -0.4180  0.2440
 1664SOL    HW116451   4.126   2.814   4.142 -1.5732 -1.0218  1.3114
 1664SOL    HW216452   4.133   2.786   3.997 -0.2546 -0.4733  0.2912
 1665SOL     OW16453   3.250   1.728  13.404 -0.1366 -0.7823 -0.1881
 1665SOL    HW116454   3.251   1.646  13.354  0.9924 -1.4993  0.9989
 1665SOL    HW216455   3.284   1.790  13.340 -0.7412 -0.0659  0.1773
 1666SOL     OW16456   0.714   0.668   4.239 -0.4960 -0.3506 -0.1786
 1666SOL    HW116457   0.721   0.579   4.276 -0.1858 -0.4038 -0.3658
 1666SOL    HW216458   0.791   0.712   4.276 -0.4461 -0.0886 -0.6053
 1667SOL     OW16459   4.527   2.812   5.739  0.5743 -0.0595 -0.1298
 1667SOL    HW116460   4.432   2.815   5.749  0.5888 -1.1497  0.2710
 1667SOL    HW216461   4.544   2.762   5.819  0.4869  0.1315  0.0098
 1668SOL     OW16462   2.120   1.830   4.449  0.5693  0.1203 -0.4562
 1668SOL    HW116463   2.108   1.765   4.519 -0.2603 -1.3905 -2.0009
 1668SOL    HW216464   2.042   1.883   4.468  1.5079  1.7648 -1.1785
 1669SOL     OW16465   0.013   0.275   4.182  0.1665 -0.0836  0.2572
 1669SOL    HW116466   0.095   0.310   4.217 -0.4139 -0.5426  2.0907
 1669SOL    HW216467   0.020   0.279   4.087 -1.1693  0.7917  0.2014
 1670SOL     OW16468   1.489   1.400   0.994 -0.3051 -0.7161  0.4932
 1670SOL    HW116469   1.499   1.466   1.062 -1.4492  0.2994 -0.3329
 1670SOL    HW216470   1.399   1.373   1.011 -0.1538 -1.8249 -0.4467
 1671SOL     OW16471   1.536   0.297   4.243  0.2214  0.4432  0.2180
 1671SOL    HW116472   1.447   0.312   4.275  0.6424 -0.0321  1.6349
 1671SOL    HW216473   1.530   0.330   4.154  0.5640  0.4093  0.1803
 1672SOL     OW16474   1.635   4.267  11.343 -0.2767  0.3193  1.2328
 1672SOL    HW116475   1.683   4.218  11.276 -0.3243  2.5546 -0.4372
 1672SOL    HW216476   1.617   4.348  11.295 -0.2397 -0.4351 -0.0295
 1673SOL     OW16477   1.133   1.664   5.649 -0.3827 -0.0533  0.3978
 1673SOL    HW116478   1.107   1.622   5.731 -0.1087 -0.8314  0.0814
 1673SOL    HW216479   1.228   1.659   5.651 -0.5769 -3.0961  1.7825
 1674SOL     OW16480   4.105   1.642   5.086  0.1403  0.2489 -0.6613
 1674SOL    HW116481   4.198   1.649   5.064  0.3399 -0.1584  0.0352
 1674SOL    HW216482   4.077   1.611   5.000  0.4248  2.1829 -1.4451
 1675SOL     OW16483   3.885   2.107  11.272 -0.1737  0.2138 -0.2457
 1675SOL    HW116484   3.947   2.042  11.240  0.7675  0.1833  1.6788
 1675SOL    HW216485   3.812   2.085  11.214  0.3937 -0.7983 -0.5770
 1676SOL     OW16486   2.784   4.041   1.139 -0.4470  0.3052 -0.4337
 1676SOL    HW116487   2.789   4.026   1.044  1.0587 -0.7086 -0.1940
 1676SOL    HW216488   2.691   4.021   1.152 -0.7265  0.6780 -1.8973
 1677SOL     OW16489   4.221   1.022   6.508 -0.0757  0.4021  0.0276
 1677SOL    HW116490   4.314   1.041   6.498 -0.1981  0.1605 -1.5240
 1677SOL    HW216491   4.193   1.075   6.433  2.7378  2.7894  0.6492
 1678SOL     OW16492   3.329   2.994   6.604  0.0193  0.1568  0.2313
 1678SOL    HW116493   3.329   2.900   6.584  1.4013  0.2958 -0.3845
 1678SOL    HW216494   3.300   3.028   6.520  1.6194  2.5096  0.6247
 1679SOL     OW16495   3.963   2.515  17.624  0.2488 -0.1925  0.3515
 1679SOL    HW116496   3.878   2.550  17.650 -1.5258 -3.1936 -1.4510
 1679SOL    HW216497   3.937   2.424  17.608 -1.9699  0.0831  2.3698
 1680SOL     OW16498   2.553   0.995  13.841 -0.3006 -0.4636 -0.7385
 1680SOL    HW116499   2.639   0.999  13.882 -0.1207  0.8410 -1.2296
 1680SOL    HW216500   2.533   0.901  13.840  0.4841 -0.6531  1.0939
 1681SOL     OW16501   0.560   0.715   8.198  0.0069 -0.2389  0.9352
 1681SOL    HW116502   0.516   0.646   8.149 -0.4373  1.3299 -0.8614
 1681SOL    HW216503   0.568   0.666   8.280  0.8894  1.3476  1.7978
 1682SOL     OW16504   3.161   1.805  13.639  0.4085  0.1628 -0.0249
 1682SOL    HW116505   3.203   1.891  13.642  1.1241 -0.1947  0.2640
 1682SOL    HW216506   3.181   1.774  13.551  1.2828  0.7830 -0.0406
 1683SOL     OW16507   1.977   4.455   0.389 -0.0492  0.3952  0.1451
 1683SOL    HW116508   1.923   4.469   0.467 -0.7182 -0.3976 -0.1759
 1683SOL    HW216509   2.054   4.421   0.435 -0.3770  1.6517  1.6050
 1684SOL     OW16510   2.477   4.428   6.395  0.5529 -0.0331 -0.2219
 1684SOL    HW116511   2.511   4.515   6.376 -1.3268  0.1525 -2.8773
 1684SOL    HW216512   2.536   4.405   6.466 -0.9093  0.7481  1.2631
 1685SOL     OW16513   1.402   2.954   0.893 -0.4788  0.1068  0.0253
 1685SOL    HW116514   1.311   2.941   0.920  0.1135 -0.5317  1.7139
 1685SOL    HW216515   1.406   2.935   0.799 -0.1574  1.7297 -0.2877
 1686SOL     OW16516   1.653   3.106   4.315  0.3613 -0.9403  0.0174
 1686SOL    HW116517   1.736   3.071   4.282  0.1063 -1.3794 -0.1646
 1686SOL    HW216518   1.604   3.024   4.325  2.1848 -1.6993  2.8571
 1687SOL     OW16519   0.523   2.374   3.761 -0.0529  0.0886 -0.0384
 1687SOL    HW116520   0.485   2.462   3.753 -1.7586 -0.5969  0.5053
 1687SOL    HW216521   0.598   2.391   3.704 -0.4929 -0.8368 -0.8762
 1688SOL     OW16522   4.528   1.620   4.496  0.3204 -1.0605  0.1183
 1688SOL    HW116523   4.456   1.632   4.559 -2.4565 -2.1120 -2.8871
 1688SOL    HW216524   4.496   1.547   4.443 -0.7610 -0.5438  0.0604
 1689SOL     OW16525   2.935   4.223   5.413 -0.8639 -0.3451  0.3723
 1689SOL    HW116526   3.018   4.185   5.384 -0.6446 -0.0943  0.6675
 1689SOL    HW216527   2.968   4.287   5.476  0.3181 -0.4688 -0.1247
 1690SOL     OW16528   0.991   2.023   2.017 -0.2910  0.1897  0.0173
 1690SOL    HW116529   0.972   1.984   2.103  0.6953 -0.8207 -0.2213
 1690SOL    HW216530   0.902   2.038   1.984 -0.2694 -1.2928 -0.6854
 1691SOL     OW16531   3.783   0.138  10.989  0.2536 -0.4800 -0.3094
 1691SOL    HW116532   3.766   0.136  11.084 -4.1006 -0.2824 -1.0640
 1691SOL    HW216533   3.793   0.230  10.965  1.4272  0.1178  2.4014
 1692SOL     OW16534   0.306   4.345  10.704 -0.5281  0.6220 -0.5952
 1692SOL    HW116535   0.224   4.388  10.729 -1.1676 -0.3317 -1.0486
 1692SOL    HW216536   0.280   4.275  10.644 -0.2902 -0.4974  0.5919
 1693SOL     OW16537   3.490   0.086   2.654  0.2276  0.1350  0.7970
 1693SOL    HW116538   3.583   0.107   2.663 -0.1103  1.9948 -0.1013
 1693SOL    HW216539   3.452   0.174   2.651  2.6394  1.1208 -1.0088
 1694SOL     OW16540   1.945   2.275   5.701 -0.0916  0.2950 -0.4431
 1694SOL    HW116541   1.925   2.255   5.793 -2.9679  0.9243 -0.9227
 1694SOL    HW216542   1.878   2.339   5.679 -1.0921 -1.4178 -2.3694
 1695SOL     OW16543   2.466   1.600   8.062 -0.5285  0.2007  0.4797
 1695SOL    HW116544   2.443   1.561   7.978  3.0912 -0.4190 -0.2526
 1695SOL    HW216545   2.477   1.519   8.112  0.7932  0.9484  1.4205
 1696SOL     OW16546   1.612   4.614   2.025  0.0740  0.1130  0.0396
 1696SOL    HW116547   1.525   4.642   1.998 -0.3267 -0.3710  0.8176
 1696SOL    HW216548   1.605   4.521   2.000 -0.5880  0.5255 -1.3149
 1697SOL     OW16549   3.152   0.039  14.906 -0.2149 -0.5687 -0.0604
 1697SOL    HW116550   3.175   4.670  14.902 -0.1421 -0.3192 -4.6762
 1697SOL    HW216551   3.085   0.039  14.975 -2.1015 -1.3904 -1.9103
 1698SOL     OW16552   3.000   1.744   8.846  0.2734 -1.0479  0.5333
 1698SOL    HW116553   2.911   1.715   8.861  0.2273 -0.4180  1.5422
 1698SOL    HW216554   3.019   1.787   8.930  2.4143 -1.9890  0.5433
 1699SOL     OW16555   3.728   2.288  13.630  0.2411 -0.6367 -0.8749
 1699SOL    HW116556   3.773   2.293  13.546 -0.6644 -0.0734 -1.3297
 1699SOL    HW216557   3.800   2.289  13.692  0.4892 -0.9237 -1.1605
 1700SOL     OW16558   3.038   3.145  13.588 -0.3944 -0.3045  0.2556
 1700SOL    HW116559   3.012   3.224  13.636 -1.5214  0.0001 -0.8585
 1700SOL    HW216560   3.011   3.160  13.498 -0.2737 -0.5640  0.1774
 1701SOL     OW16561   1.786   2.849   3.465 -0.3839  0.6291 -0.4246
 1701SOL    HW116562   1.709   2.804   3.498  0.7929  1.4418  3.3767
 1701SOL    HW216563   1.777   2.845   3.370  0.0051  1.5668 -0.5111
 1702SOL     OW16564   2.398   2.361   1.591 -0.2141  0.4373  0.3374
 1702SOL    HW116565   2.320   2.313   1.617 -0.2505 -0.6820 -1.8452
 1702SOL    HW216566   2.404   2.347   1.496  0.4457  0.9450  0.3023
 1703SOL     OW16567   2.195   4.530   4.889  0.0867 -0.0872 -0.3053
 1703SOL    HW116568   2.201   4.620   4.922  0.6385 -0.2952  0.1491
 1703SOL    HW216569   2.193   4.540   4.793 -2.9980  2.0227 -0.0493
 1704SOL     OW16570   3.338   1.095   1.372  0.6101 -0.2139 -0.1105
 1704SOL    HW116571   3.429   1.071   1.352  1.0031  1.1887 -0.0016
 1704SOL    HW216572   3.334   1.190   1.368 -0.2109 -0.1836  1.2509
 1705SOL     OW16573   0.794   3.876   8.198 -0.2975 -0.1797 -0.2169
 1705SOL    HW116574   0.770   3.784   8.185 -0.0880 -0.1350 -0.9586
 1705SOL    HW216575   0.850   3.860   8.273 -0.2045 -0.0196 -0.2523
 1706SOL     OW16576   0.645   3.844  12.254  0.0130 -0.0712  0.0663
 1706SOL    HW116577   0.687   3.928  12.236 -2.4955  1.5990  2.0025
 1706SOL    HW216578   0.724   3.793  12.273  0.9910  0.0945 -3.6283
 1707SOL     OW16579   4.158   3.110   3.585 -0.4061 -0.0230  0.0127
 1707SOL    HW116580   4.122   3.096   3.673 -0.5590 -1.0329 -0.2056
 1707SOL    HW216581   4.080   3.081   3.537  1.6710 -3.3555 -1.3537
 1708SOL     OW16582   3.623   2.564   6.486 -0.4111  0.1807 -0.0847
 1708SOL    HW116583   3.585   2.584   6.571 -0.3728 -2.6019  0.5658
 1708SOL    HW216584   3.674   2.645   6.479  0.3282 -0.3718 -1.1199
 1709SOL     OW16585   1.518   3.377  10.389 -0.0145 -0.1954  0.1629
 1709SOL    HW116586   1.512   3.378  10.485  0.5294 -1.4314  0.2076
 1709SOL    HW216587   1.612   3.394  10.383  0.1581 -0.9116  0.7055
 1710SOL     OW16588   3.447   2.724   8.664 -0.6349 -0.1962  0.2837
 1710SOL    HW116589   3.498   2.643   8.673 -0.3190  0.0614  0.8782
 1710SOL    HW216590   3.395   2.715   8.584 -0.3257  1.6343 -0.1266
 1711SOL     OW16591   4.066   3.602   4.581  0.0214  0.5180  0.2153
 1711SOL    HW116592   4.121   3.676   4.606  0.1740  0.0410  1.2933
 1711SOL    HW216593   4.040   3.614   4.490 -1.2517  1.9066  0.7661
 1712SOL     OW16594   3.368   1.056   5.088  0.7671 -0.3230  0.2935
 1712SOL    HW116595   3.453   1.048   5.132 -0.0109 -1.1501  1.6372
 1712SOL    HW216596   3.309   1.032   5.159  0.1867 -1.3424 -0.5239
 1713SOL     OW16597   2.811   2.765   5.632 -0.3413 -0.0589  0.5807
 1713SOL    HW116598   2.851   2.730   5.553  1.6337  1.7202  0.7920
 1713SOL    HW216599   2.870   2.839   5.650  0.1598 -0.1499 -0.7224
 1714SOL     OW16600   2.148   0.774   7.977  0.0320  0.2296  0.0991
 1714SOL    HW116601   2.172   0.681   7.978 -0.5022  0.1124  1.9638
 1714SOL    HW216602   2.094   0.781   7.898  1.7441 -1.9749 -1.2751
 1715SOL     OW16603   2.337   0.754   7.618 -0.2468  0.3921  0.0249
 1715SOL    HW116604   2.342   0.786   7.708  0.7373  0.5586 -0.0872
 1715SOL    HW216605   2.324   0.838   7.574 -2.6692  0.0192  0.0398
 1716SOL     OW16606   2.958   0.397  12.778  0.0007  0.1998 -0.2684
 1716SOL    HW116607   2.979   0.472  12.722  0.2401 -1.1689 -2.0309
 1716SOL    HW216608   2.863   0.399  12.778 -0.0243 -1.5562  0.6944
 1717SOL     OW16609   3.400   3.243   5.499  0.4941  0.4038  0.1665
 1717SOL    HW116610   3.308   3.269   5.506  0.5983  0.9015 -0.2643
 1717SOL    HW216611   3.391   3.178   5.430  0.2261 -1.4001  1.9154
 1718SOL     OW16612   2.041   1.469   4.386  0.0740 -0.4558  0.2044
 1718SOL    HW116613   2.024   1.377   4.364 -1.5778 -0.1691  0.2944
 1718SOL    HW216614   2.026   1.466   4.481 -0.9010 -0.0497  0.0552
 1719SOL     OW16615   3.680   2.367   5.800 -0.3924 -0.2075 -0.1599
 1719SOL    HW116616   3.709   2.396   5.713  0.4857  0.0177  0.2040
 1719SOL    HW216617   3.597   2.326   5.775 -0.2974 -1.2880  1.2837
 1720SOL     OW16618   3.956   3.559   9.200 -0.3500 -0.4837 -0.4806
 1720SOL    HW116619   3.917   3.535   9.284  2.2755 -0.5953  0.6942
 1720SOL    HW216620   3.944   3.653   9.197  1.0852 -0.3292 -1.1815
 1721SOL     OW16621   2.925   3.036   8.609  0.3435 -0.2958 -0.0800
 1721SOL    HW116622   2.876   2.995   8.538  0.9088  0.3185 -0.8244
 1721SOL    HW216623   2.930   2.968   8.676  0.5921 -2.2016 -2.0363
 1722SOL     OW16624   4.650   0.373   0.231 -0.2788  0.1108 -0.2198
 1722SOL    HW116625   4.676   0.415   0.149 -1.6875  0.3264 -0.5509
 1722SOL    HW216626   4.581   0.431   0.264 -0.3829  0.5068 -1.1392
 1723SOL     OW16627   0.067   4.520  11.860  0.4305 -0.9543 -0.1731
 1723SOL    HW116628   4.714   4.554  11.907  0.9209  0.6865 -0.5624
 1723SOL    HW216629   0.039   4.528  11.769 -0.5881 -1.0434  0.1250
 1724SOL     OW16630   0.729   2.208   5.530  0.1961  0.1174  0.0698
 1724SOL    HW116631   0.738   2.271   5.459 -0.3103  0.4317  0.2900
 1724SOL    HW216632   0.802   2.148   5.511  0.5720  0.4927  0.3199
 1725SOL     OW16633   1.640   0.331  10.524  0.1495  0.2767 -0.3676
 1725SOL    HW116634   1.623   0.384  10.446  0.0098 -0.3077 -0.7281
 1725SOL    HW216635   1.579   0.366  10.589  0.3398 -0.2574  0.1045
 1726SOL     OW16636   0.173   3.791  14.818 -0.5443 -0.2281  0.3513
 1726SOL    HW116637   0.249   3.747  14.858 -0.6532 -0.5243  0.2244
 1726SOL    HW216638   0.212   3.820  14.736 -1.2267  1.6063  0.6640
 1727SOL     OW16639   1.014   1.848  10.559  0.4143 -0.8410  0.5712
 1727SOL    HW116640   0.948   1.885  10.617 -0.6784 -1.6329 -0.1602
 1727SOL    HW216641   1.007   1.916  10.491 -1.9873  0.9749  2.6579
 1728SOL     OW16642   0.313   1.223  12.333 -0.0315 -0.5579 -0.0368
 1728SOL    HW116643   0.315   1.268  12.248 -1.2682 -1.1417 -0.3848
 1728SOL    HW216644   0.402   1.226  12.368  0.7375 -3.0808 -1.7863
 1729SOL     OW16645   2.026   3.779   4.028 -0.4827 -0.3278 -0.1663
 1729SOL    HW116646   1.998   3.859   3.984 -2.3753  0.0442  1.7521
 1729SOL    HW216647   2.059   3.821   4.107 -0.3158 -1.2239  0.2472
 1730SOL     OW16648   3.227   2.911  15.835 -0.7301 -0.1688  0.0815
 1730SOL    HW116649   3.145   2.876  15.799 -0.4729  0.2631 -0.9467
 1730SOL    HW216650   3.213   3.006  15.833 -1.0498 -0.2500 -1.6907
 1731SOL     OW16651   3.921   2.184   7.280 -0.1306  0.4308 -0.0286
 1731SOL    HW116652   3.902   2.215   7.368 -1.7941  0.4386 -0.3900
 1731SOL    HW216653   3.986   2.118   7.303  0.4254  0.2905 -1.9857
 1732SOL     OW16654   0.426   0.698   7.443 -0.4475  0.2601 -0.0542
 1732SOL    HW116655   0.427   0.603   7.446  1.5907  0.2856  0.0987
 1732SOL    HW216656   0.461   0.724   7.358  0.4574  1.5387  0.6967
 1733SOL     OW16657   3.059   0.389   8.665  0.2387 -0.0526 -0.5965
 1733SOL    HW116658   3.105   0.309   8.691  1.3959  0.7673 -0.1371
 1733SOL    HW216659   3.023   0.362   8.581 -1.1126 -0.1522  0.0120
 1734SOL     OW16660   3.508   4.297  12.978 -0.0778 -0.1307  0.8037
 1734SOL    HW116661   3.530   4.204  12.976  0.8022  0.0695  0.9767
 1734SOL    HW216662   3.413   4.294  12.989 -0.0073  0.1313  1.5200
 1735SOL     OW16663   2.481   0.482  14.248 -0.2964 -0.1896  0.2458
 1735SOL    HW116664   2.553   0.512  14.303  2.4654 -4.2612 -1.2069
 1735SOL    HW216665   2.519   0.402  14.213  0.3608  0.0297  0.4521
 1736SOL     OW16666   0.398   0.659   4.253  0.0999  0.2600  0.0034
 1736SOL    HW116667   0.378   0.693   4.341 -0.4287  0.4624 -0.1950
 1736SOL    HW216668   0.486   0.696   4.247  0.4230 -0.5089 -0.0253
 1737SOL     OW16669   0.516   1.059   7.122 -0.3938 -0.2564  0.0002
 1737SOL    HW116670   0.608   1.075   7.103  0.1761 -2.9068  0.5341
 1737SOL    HW216671   0.517   1.052   7.217  0.0200  0.5704  0.0519
 1738SOL     OW16672   2.981   2.012   7.642 -0.2801 -0.0478  0.3959
 1738SOL    HW116673   2.958   2.087   7.588  1.3831  0.4703  0.3813
 1738SOL    HW216674   2.959   2.031   7.733 -1.9513 -1.9278  0.3745
 1739SOL     OW16675   2.357   3.012   0.862 -0.6543 -0.5911  0.1199
 1739SOL    HW116676   2.351   2.966   0.778 -1.1009 -0.5735  0.1388
 1739SOL    HW216677   2.452   3.010   0.868 -0.6222  1.9695  0.2685
 1740SOL     OW16678   0.340   1.583  10.636  0.3903  0.1122  0.2769
 1740SOL    HW116679   0.339   1.671  10.674 -0.0497 -0.0442  0.6305
 1740SOL    HW216680   0.433   1.570  10.618  0.5446  1.8445 -0.0950
 1741SOL     OW16681   3.290   3.113   6.330 -0.0051 -0.1680 -0.2114
 1741SOL    HW116682   3.352   3.076   6.267  1.2951  1.7659 -0.0541
 1741SOL    HW216683   3.310   3.206   6.322  0.0454 -0.2990 -1.5119
 1742SOL     OW16684   2.532   3.686   1.840  0.2300 -0.1279  0.0039
 1742SOL    HW116685   2.625   3.685   1.862  1.0871 -0.4421 -3.6736
 1742SOL    HW216686   2.535   3.703   1.746  0.3118 -2.1653 -0.3702
 1743SOL     OW16687   3.994   4.581  17.541  0.4885  0.0118  0.1313
 1743SOL    HW116688   4.084   4.581  17.572 -0.3047  0.5870  2.4770
 1743SOL    HW216689   3.981   4.674  17.520  0.3301 -0.0291  0.0476
 1744SOL     OW16690   0.965   3.007   4.801 -0.4207  0.0762 -0.3253
 1744SOL    HW116691   0.945   2.936   4.740 -2.6709  1.2636 -0.9747
 1744SOL    HW216692   1.028   2.961   4.856 -0.1355  0.5891 -0.2237
 1745SOL     OW16693   1.834   0.972  17.106 -0.1984 -0.0429 -0.5246
 1745SOL    HW116694   1.797   1.028  17.174 -0.1076 -0.0855 -0.4405
 1745SOL    HW216695   1.764   0.906  17.100  1.4572 -1.6767 -1.8756
 1746SOL     OW16696   1.188   3.151   5.412  0.1171  0.2892 -0.2482
 1746SOL    HW116697   1.173   3.232   5.363  0.1502  0.7985  0.5792
 1746SOL    HW216698   1.205   3.090   5.341 -0.6451 -0.5954  0.3350
 1747SOL     OW16699   3.742   1.689   5.701  0.9260  0.1246  0.0643
 1747SOL    HW116700   3.746   1.594   5.693 -3.5692  0.1001 -1.5996
 1747SOL    HW216701   3.768   1.705   5.792 -0.4324 -3.7070  1.1125
 1748SOL     OW16702   4.021   2.070   5.233 -0.0742  0.0550  0.0816
 1748SOL    HW116703   3.986   2.158   5.248 -1.1181  0.1575 -2.9135
 1748SOL    HW216704   3.984   2.028   5.310 -1.0551 -1.8942 -1.4352
 1749SOL     OW16705   1.384   1.255  13.935  0.8040 -0.0358 -0.6741
 1749SOL    HW116706   1.321   1.259  13.863 -1.7668 -1.4048  1.4672
 1749SOL    HW216707   1.447   1.212  13.878  0.7905 -1.0105  0.0449
 1750SOL     OW16708   2.617   2.043   8.874  0.3775 -0.2101 -0.2584
 1750SOL    HW116709   2.642   2.057   8.782 -1.1050 -0.3919 -0.6931
 1750SOL    HW216710   2.702   2.064   8.911  1.4081 -0.7297 -2.3215
 1751SOL     OW16711   0.548   1.392   7.254 -0.3040 -0.1729 -0.4438
 1751SOL    HW116712   0.515   1.379   7.165 -1.7788  2.0188 -0.2360
 1751SOL    HW216713   0.486   1.464   7.271 -0.0261 -0.0946  0.2177
 1752SOL     OW16714   1.544   4.561   7.369  0.5973  0.3010 -0.7927
 1752SOL    HW116715   1.621   4.528   7.321  0.6768  0.8321 -1.0259
 1752SOL    HW216716   1.477   4.502   7.334  2.1752 -0.8250 -1.8899
 1753SOL     OW16717   0.267   3.438   0.316  0.2451 -0.2063  0.0764
 1753SOL    HW116718   0.244   3.366   0.374  0.3831 -0.0393  0.3368
 1753SOL    HW216719   0.333   3.485   0.367  0.1412  1.7433 -1.5680
 1754SOL     OW16720   4.112   3.241   9.123  0.2699  0.1492 -0.4389
 1754SOL    HW116721   4.021   3.226   9.148  0.7196 -1.8313  0.0073
 1754SOL    HW216722   4.098   3.274   9.034 -1.3274  1.2842  0.2295
 1755SOL     OW16723   2.620   2.188   3.823  0.1708  0.7853  0.2656
 1755SOL    HW116724   2.545   2.131   3.837 -0.7904  1.4179 -2.3833
 1755SOL    HW216725   2.637   2.186   3.728  0.0981 -0.8484  0.2920
 1756SOL     OW16726   0.378   2.615   8.146 -0.1673 -0.1683  0.0316
 1756SOL    HW116727   0.286   2.612   8.175 -0.8211 -0.8170 -2.1374
 1756SOL    HW216728   0.402   2.707   8.158 -0.6471  0.1438 -1.4703
 1757SOL     OW16729   3.244   1.990   4.713 -0.0116  0.1372 -0.1080
 1757SOL    HW116730   3.322   2.045   4.718  1.4206 -1.7567 -1.9731
 1757SOL    HW216731   3.172   2.051   4.696 -2.4105 -3.1989 -1.8627
 1758SOL     OW16732   4.096   1.308  10.280 -0.1534 -0.3585 -0.1579
 1758SOL    HW116733   4.010   1.347  10.261  0.1232 -0.1882 -1.0499
 1758SOL    HW216734   4.142   1.392  10.293  0.1487 -0.9966  3.0062
 1759SOL     OW16735   3.922   1.094   1.157  0.3076  0.0818 -0.0318
 1759SOL    HW116736   3.933   1.154   1.083  0.1983 -0.2226 -0.2957
 1759SOL    HW216737   3.970   1.133   1.230 -0.8146  1.8543 -0.2372
 1760SOL     OW16738   2.165   1.229  11.359 -0.3231  0.4313 -0.1019
 1760SOL    HW116739   2.239   1.263  11.409 -0.2461 -1.1120  0.8236
 1760SOL    HW216740   2.170   1.136  11.381 -0.7244 -0.3755 -3.4425
 1761SOL     OW16741   1.439   1.491   8.941 -0.6944 -0.1985 -0.4459
 1761SOL    HW116742   1.374   1.555   8.968  0.8043  0.3695  1.8805
 1761SOL    HW216743   1.492   1.499   9.021  0.3419 -1.6239 -0.9871
 1762SOL     OW16744   1.686   3.511   3.790  0.4847  0.1338  0.2587
 1762SOL    HW116745   1.682   3.544   3.879 -1.2346 -0.8299  0.5564
 1762SOL    HW216746   1.729   3.426   3.797  0.4670  0.3010  2.2722
 1763SOL     OW16747   3.409   0.058   4.784 -0.2548 -0.2079 -0.2858
 1763SOL    HW116748   3.320   0.092   4.798 -0.0039  0.8279 -1.1806
 1763SOL    HW216749   3.393   4.692   4.815 -0.3413 -0.6012 -1.4741
 1764SOL     OW16750   2.361   1.003  12.085 -0.0030  0.0811  0.3891
 1764SOL    HW116751   2.301   1.003  12.160 -0.0087  0.8431  0.3814
 1764SOL    HW216752   2.359   1.098  12.071 -0.1460 -0.2527 -1.8580
 1765SOL     OW16753   3.353   3.794   2.414  0.3033  0.0049  0.2256
 1765SOL    HW116754   3.406   3.873   2.424 -0.4593  0.4149  1.0042
 1765SOL    HW216755   3.391   3.733   2.479 -0.9831 -1.3965 -0.3398
 1766SOL     OW16756   2.930   0.152   7.257 -0.1841  0.6628 -0.3712
 1766SOL    HW116757   2.859   0.107   7.303 -1.8078  1.3331 -2.2233
 1766SOL    HW216758   2.988   0.080   7.236  0.0275 -0.0044  2.4216
 1767SOL     OW16759   4.207   3.631   3.790  0.4419 -0.5114 -0.1028
 1767SOL    HW116760   4.232   3.677   3.870  1.1816 -1.1001  0.0131
 1767SOL    HW216761   4.292   3.592   3.769  0.6911  0.6544 -1.1909
 1768SOL     OW16762   2.582   1.195  10.345 -0.3394  0.1006 -0.7307
 1768SOL    HW116763   2.573   1.283  10.309 -1.0510  0.5285  0.4752
 1768SOL    HW216764   2.521   1.144  10.291  0.2423 -2.5036  1.0732
 1769SOL     OW16765   1.589   0.060   0.599 -0.6200 -0.4194  0.0457
 1769SOL    HW116766   1.525   0.128   0.622 -1.1308 -0.4299 -1.3399
 1769SOL    HW216767   1.654   0.122   0.566 -2.1328  1.3822  0.4947
 1770SOL     OW16768   0.982   0.714   3.737 -0.2113 -0.4583 -0.8908
 1770SOL    HW116769   1.038   0.636   3.734  1.2488  0.4818  2.2953
 1770SOL    HW216770   0.991   0.732   3.830 -1.2371 -0.0320 -0.8767
 1771SOL     OW16771   2.152   1.090   4.179 -0.5693 -0.1136 -0.4632
 1771SOL    HW116772   2.130   1.002   4.211  0.7195  0.5213  2.1693
 1771SOL    HW216773   2.075   1.140   4.204  0.3309  1.1490 -0.2221
 1772SOL     OW16774   1.451   4.659   6.837 -0.0280 -0.0694  0.0828
 1772SOL    HW116775   1.504   4.720   6.784 -0.3747  1.2913  1.2884
 1772SOL    HW216776   1.391   4.622   6.773 -1.3810  1.5215  0.4278
 1773SOL     OW16777   1.404   2.488   3.170  0.1112  0.0131 -0.0431
 1773SOL    HW116778   1.400   2.521   3.080 -0.8714  0.1110  0.0328
 1773SOL    HW216779   1.322   2.526   3.202  0.1069  0.2806 -0.3700
 1774SOL     OW16780   3.862   4.343   2.197  0.2802  0.0708  0.2827
 1774SOL    HW116781   3.895   4.256   2.220 -0.2983 -0.0936  0.5003
 1774SOL    HW216782   3.769   4.325   2.180  0.8057 -1.6898 -0.7312
 1775SOL     OW16783   0.006   1.528   5.327 -0.2328  0.7956  0.0344
 1775SOL    HW116784   4.655   1.480   5.291  0.6610 -0.1507 -0.5601
 1775SOL    HW216785   4.706   1.612   5.288  0.3985  0.1339 -1.7868
 1776SOL     OW16786   4.314   0.760   1.158  0.2543 -0.6594  0.2793
 1776SOL    HW116787   4.230   0.799   1.181  0.4004  0.3621 -0.8654
 1776SOL    HW216788   4.353   0.778   1.243 -1.7990 -0.4063  1.1504
 1777SOL     OW16789   3.407   2.333  11.725 -0.0999 -0.0699  0.6483
 1777SOL    HW116790   3.499   2.320  11.703 -0.1216 -0.5741  0.8610
 1777SOL    HW216791   3.378   2.242  11.726  1.6187 -0.6311 -1.3837
 1778SOL     OW16792   3.644   0.128   2.229  0.0337 -0.6404 -0.4923
 1778SOL    HW116793   3.555   0.135   2.263  0.0485 -0.6587 -0.4507
 1778SOL    HW216794   3.629   0.144   2.136  2.8334 -0.5080 -0.9279
 1779SOL     OW16795   0.386   3.377  11.090 -0.3684 -0.3187 -0.3718
 1779SOL    HW116796   0.383   3.285  11.062 -0.8845 -0.7905  1.2404
 1779SOL    HW216797   0.361   3.367  11.181 -1.9480  0.1427 -0.7518
 1780SOL     OW16798   3.457   2.357   2.368 -0.2552 -0.0963  0.0623
 1780SOL    HW116799   3.422   2.319   2.287 -0.7362  1.6268 -0.5429
 1780SOL    HW216800   3.376   2.386   2.410 -2.2486  0.6930 -4.2555
 1781SOL     OW16801   1.408   1.010   6.650  0.2429  0.7615 -0.0623
 1781SOL    HW116802   1.330   0.955   6.647  0.7653  0.0276 -0.0785
 1781SOL    HW216803   1.369   1.096   6.633  1.5038  1.5707  1.1513
 1782SOL     OW16804   3.801   3.714   0.360 -0.4476  0.2945  0.4024
 1782SOL    HW116805   3.888   3.753   0.369 -0.8892  1.7306 -1.5078
 1782SOL    HW216806   3.820   3.662   0.282  1.7985  0.3374  0.9201
 1783SOL     OW16807   0.804   1.057   4.774  0.4220 -0.1769  0.3216
 1783SOL    HW116808   0.834   0.971   4.802  2.3903 -0.0264 -1.3323
 1783SOL    HW216809   0.786   1.036   4.682  0.1304  1.3008  0.0320
 1784SOL     OW16810   1.789   2.301  15.753 -0.6739  0.8123 -0.3322
 1784SOL    HW116811   1.748   2.371  15.703  1.5001  0.4443 -2.6200
 1784SOL    HW216812   1.857   2.268  15.694 -0.9116  0.7863 -0.5889
 1785SOL     OW16813   3.013   4.375   6.017 -0.0597  0.4669  0.0814
 1785SOL    HW116814   2.940   4.327   5.978 -2.1428  2.5737  1.3984
 1785SOL    HW216815   3.067   4.299   6.039 -2.7027 -0.8006  2.2639
 1786SOL     OW16816   2.131   2.230   6.851 -0.1075  0.0699 -0.0176
 1786SOL    HW116817   2.089   2.214   6.766 -0.1976 -0.1911  0.0746
 1786SOL    HW216818   2.062   2.217   6.915  0.5895  0.4088  0.8000
 1787SOL     OW16819   1.727   2.727   5.247 -0.0858 -0.4876  0.2484
 1787SOL    HW116820   1.722   2.779   5.327  0.7334 -0.8837  0.5639
 1787SOL    HW216821   1.695   2.646   5.289 -0.7948  0.8943  2.3718
 1788SOL     OW16822   1.713   3.288   8.078  0.0266 -0.2134 -0.3811
 1788SOL    HW116823   1.792   3.298   8.025 -0.2756  0.4864 -0.6967
 1788SOL    HW216824   1.651   3.247   8.017 -1.7409  2.0198 -0.0504
 1789SOL     OW16825   0.972   1.169   3.665 -0.1596 -0.7573  0.0703
 1789SOL    HW116826   0.890   1.205   3.701  0.8212  0.5502  0.9761
 1789SOL    HW216827   1.021   1.180   3.747 -0.5294  1.5262 -0.0001
 1790SOL     OW16828   2.244   0.095   1.398  0.4870  0.5677 -0.3309
 1790SOL    HW116829   2.265   0.037   1.324 -1.1125  0.2813 -0.5650
 1790SOL    HW216830   2.255   0.037   1.473 -1.6795  1.0399  0.3343
 1791SOL     OW16831   3.634   3.620  13.366 -0.4520 -0.3480 -0.0598
 1791SOL    HW116832   3.711   3.676  13.377  0.1590 -1.2769  0.4032
 1791SOL    HW216833   3.634   3.590  13.457  0.1536  0.8861  0.3467
 1792SOL     OW16834   1.272   2.975   9.568 -0.1074 -0.0153  0.3623
 1792SOL    HW116835   1.362   2.990   9.598  0.1765 -1.0825  0.0393
 1792SOL    HW216836   1.288   2.894   9.520  0.1503  0.9611 -1.2047
 1793SOL     OW16837   2.282   1.326   8.492 -0.0064 -0.3779  0.2494
 1793SOL    HW116838   2.228   1.394   8.533  0.7078  0.4752 -0.2192
 1793SOL    HW216839   2.218   1.255   8.488 -0.7132  0.4323 -2.5246
 1794SOL     OW16840   3.339   0.999   5.959  0.0413 -0.2240  0.8830
 1794SOL    HW116841   3.337   1.061   6.032  1.3576 -0.0325  0.7584
 1794SOL    HW216842   3.249   0.978   5.983 -0.7546 -0.3762 -2.2285
 1795SOL     OW16843   4.650   3.534   1.174  0.5714 -0.0228 -0.6834
 1795SOL    HW116844   4.669   3.440   1.179  4.2766  0.6994 -0.5437
 1795SOL    HW216845   4.697   3.564   1.252  0.8657 -1.0146 -0.4719
 1796SOL     OW16846   4.662   0.206   6.582  0.4983  0.1622  0.0512
 1796SOL    HW116847   0.010   0.262   6.612  0.1252  1.3977 -1.3962
 1796SOL    HW216848   4.643   0.150   6.658  0.2964  0.7211  0.4177
 1797SOL     OW16849   2.063   0.490   5.023 -0.2386  0.0002  0.3401
 1797SOL    HW116850   2.043   0.420   4.961 -1.9834 -0.9255  1.9867
 1797SOL    HW216851   1.992   0.553   5.011  0.7251  1.6450  3.2711
 1798SOL     OW16852   3.719   2.582  14.779  0.0452 -0.1461  0.4956
 1798SOL    HW116853   3.687   2.673  14.778 -1.7710 -0.7685  1.1958
 1798SOL    HW216854   3.745   2.577  14.870  2.6313  2.2733 -0.1032
 1799SOL     OW16855   2.720   1.917   5.442  0.4109  0.1559  0.3838
 1799SOL    HW116856   2.651   1.970   5.403  0.5497  0.3922  0.4610
 1799SOL    HW216857   2.790   1.982   5.443 -1.0515  1.7034  1.4129
 1800SOL     OW16858   4.074   3.983   9.637 -0.0892 -0.2341  0.3688
 1800SOL    HW116859   4.023   4.017   9.563  1.5037  0.3046 -0.4723
 1800SOL    HW216860   4.008   3.930   9.682  1.1360 -1.4278  0.7325
 1801SOL     OW16861   3.652   3.416   9.723 -0.8235 -0.1891 -0.6533
 1801SOL    HW116862   3.739   3.439   9.689 -0.4536 -2.2722 -1.0824
 1801SOL    HW216863   3.676   3.369   9.802  1.3173  1.4606 -0.3160
 1802SOL     OW16864   3.328   1.839   8.770 -0.3538 -0.8538 -0.8198
 1802SOL    HW116865   3.233   1.837   8.779 -0.3972  0.8940 -0.9723
 1802SOL    HW216866   3.332   1.822   8.676  1.4034 -0.7394 -0.7733
 1803SOL     OW16867   1.021   3.977   5.529 -0.5224  0.0710 -0.3240
 1803SOL    HW116868   0.969   3.901   5.504 -0.6414  0.3973 -1.0751
 1803SOL    HW216869   0.963   4.053   5.522  0.3360  0.8345  0.9539
 1804SOL     OW16870   1.118   0.261  15.189 -0.2601 -0.2303  0.3522
 1804SOL    HW116871   1.135   0.204  15.114  0.1187 -1.1504  1.1424
 1804SOL    HW216872   1.091   0.340  15.141  1.4197  0.8062  1.1005
 1805SOL     OW16873   0.411   0.131   7.655  0.5599  0.0893 -0.6818
 1805SOL    HW116874   0.319   0.132   7.683  1.2288 -1.4735  1.5435
 1805SOL    HW216875   0.412   0.076   7.577  0.0707 -0.9927  0.0755
 1806SOL     OW16876   4.462   1.874   6.642  0.2154 -0.4396  0.3070
 1806SOL    HW116877   4.400   1.928   6.592  0.4806 -0.0912  0.3584
 1806SOL    HW216878   4.513   1.938   6.690  1.0892 -0.1940 -0.9578
 1807SOL     OW16879   0.678   0.735   2.562  0.1895 -0.0258  0.0340
 1807SOL    HW116880   0.694   0.671   2.493  0.5819 -0.8231  0.8729
 1807SOL    HW216881   0.723   0.703   2.640  1.1031 -3.6441 -1.9947
 1808SOL     OW16882   0.560   0.268   3.666  0.1946 -0.3411 -0.3088
 1808SOL    HW116883   0.601   0.251   3.581 -0.3757 -0.5454 -0.5420
 1808SOL    HW216884   0.482   0.212   3.667 -0.5732  0.7702  2.6865
 1809SOL     OW16885   3.006   2.806   7.274 -0.2940  0.3688 -0.2756
 1809SOL    HW116886   2.972   2.732   7.325  0.3848  1.5883  1.9537
 1809SOL    HW216887   2.981   2.787   7.184 -0.9413 -1.1349  0.2273
 1810SOL     OW16888   1.261   4.427  13.653 -0.2666  0.0836 -0.8303
 1810SOL    HW116889   1.286   4.345  13.697  1.1363  1.7917  1.5431
 1810SOL    HW216890   1.168   4.407  13.652  0.3247 -2.6854 -0.2297
 1811SOL     OW16891   3.926   4.582  12.953  0.0261  0.5439  0.2366
 1811SOL    HW116892   3.928   4.621  13.040  1.7853 -0.9386  0.8595
 1811SOL    HW216893   3.832   4.595  12.938 -0.1699  0.9851  1.8414
 1812SOL     OW16894   0.496   0.037  10.886  0.1574 -0.2539  0.3590
 1812SOL    HW116895   0.544   4.679  10.902 -0.8617 -1.1284 -1.0403
 1812SOL    HW216896   0.402   0.031  10.903 -0.1186  1.2054 -0.6437
 1813SOL     OW16897   2.720   2.930  13.185 -0.1052  1.0976  0.5373
 1813SOL    HW116898   2.658   2.912  13.256  1.2035  2.6428  2.0469
 1813SOL    HW216899   2.805   2.909  13.222  0.2339 -0.8843 -1.3466
 1814SOL     OW16900   3.348   1.465  14.295  0.1377 -0.0480  0.0326
 1814SOL    HW116901   3.427   1.417  14.320  0.7291  1.1526  0.4870
 1814SOL    HW216902   3.355   1.540  14.354 -0.2273 -1.4155  1.8108
 1815SOL     OW16903   4.135   4.162   6.764  0.3688  0.5567 -0.2242
 1815SOL    HW116904   4.117   4.169   6.671 -0.6252 -2.5779 -0.2373
 1815SOL    HW216905   4.057   4.114   6.789  1.3322 -0.6961  0.3742
 1816SOL     OW16906   0.048   3.874   5.611  0.8118 -0.4525  0.0166
 1816SOL    HW116907   0.042   3.966   5.638  1.4030 -0.0189 -1.3577
 1816SOL    HW216908   0.060   3.883   5.517 -0.9494 -0.2285 -0.1819
 1817SOL     OW16909   1.227   2.761   7.577 -0.8329 -0.3727  0.2881
 1817SOL    HW116910   1.322   2.749   7.570 -0.9744 -0.9254 -0.7138
 1817SOL    HW216911   1.207   2.780   7.485 -0.8526  1.7119  0.7331
 1818SOL     OW16912   1.286   1.140  17.111 -0.3549  0.5117  0.1809
 1818SOL    HW116913   1.365   1.117  17.061 -0.8614  2.1844 -1.3876
 1818SOL    HW216914   1.331   1.155  17.194 -1.5436  1.0816  0.7270
 1819SOL     OW16915   0.427   0.591   4.800  0.5962 -0.4011  0.1868
 1819SOL    HW116916   0.454   0.527   4.867  1.2799 -1.1423 -0.7894
 1819SOL    HW216917   0.444   0.677   4.839 -2.6269  0.8476 -1.1844
 1820SOL     OW16918   1.247   2.480   8.007 -0.2469  0.3217 -0.0231
 1820SOL    HW116919   1.291   2.518   7.931  0.3643 -0.7895 -0.2253
 1820SOL    HW216920   1.229   2.554   8.065  0.6195  2.5444 -2.5914
 1821SOL     OW16921   3.465   4.099   7.941  0.0203  0.0330 -0.3684
 1821SOL    HW116922   3.522   4.138   8.007  0.8681 -0.6607 -0.6939
 1821SOL    HW216923   3.509   4.150   7.872  1.0972  1.1656  1.1566
 1822SOL     OW16924   1.539   2.289   9.830 -0.1461 -0.3529  0.2464
 1822SOL    HW116925   1.532   2.198   9.801 -1.0366 -0.1911 -0.0451
 1822SOL    HW216926   1.503   2.326   9.750  0.1721  0.8838  0.6860
 1823SOL     OW16927   2.932   2.296   5.213  0.3229 -0.0072  0.5483
 1823SOL    HW116928   2.894   2.305   5.126  0.5523 -1.2455  0.3225
 1823SOL    HW216929   2.907   2.205   5.230  3.6599 -0.6912  1.8078
 1824SOL     OW16930   0.707   3.491  12.191  0.2709 -0.1433  0.0352
 1824SOL    HW116931   0.765   3.479  12.115 -0.2102 -2.0073 -0.0290
 1824SOL    HW216932   0.763   3.547  12.244 -0.3679 -0.9547  1.5761
 1825SOL     OW16933   4.261   0.096   3.649  0.2464 -0.0179  0.3315
 1825SOL    HW116934   4.298   0.059   3.569 -0.3552  0.6845 -0.2675
 1825SOL    HW216935   4.284   0.188   3.634  2.5701 -0.9555 -1.7707
 1826SOL     OW16936   1.001   3.500   6.256 -0.0875 -0.0309  0.4122
 1826SOL    HW116937   1.060   3.433   6.221 -1.4236 -0.0704 -1.7483
 1826SOL    HW216938   0.977   3.555   6.181 -1.4185 -1.5060 -0.2349
 1827SOL     OW16939   1.706   3.129   2.301  0.0044 -0.3197  0.1172
 1827SOL    HW116940   1.684   3.125   2.208  0.0191 -1.6489  0.1817
 1827SOL    HW216941   1.616   3.131   2.333 -0.0113  0.7314  0.0147
 1828SOL     OW16942   1.045   3.966   8.817 -0.1361 -0.3852 -0.4875
 1828SOL    HW116943   0.955   3.997   8.818  0.6149  1.7847 -0.2866
 1828SOL    HW216944   1.088   4.051   8.810 -0.8978  0.1831  1.9466
 1829SOL     OW16945   4.054   3.098  10.986  0.3336  0.3138  0.0326
 1829SOL    HW116946   4.142   3.129  11.003  0.0027  1.4587 -0.3364
 1829SOL    HW216947   4.032   3.140  10.903 -3.3988  0.8051  1.2557
 1830SOL     OW16948   2.000   1.794  14.467  0.8340 -0.4093  0.8506
 1830SOL    HW116949   2.026   1.703  14.454 -0.2449 -0.5201 -0.5533
 1830SOL    HW216950   1.915   1.783  14.509  1.7862 -5.0543  1.5806
 1831SOL     OW16951   4.577   0.846   2.405 -0.5119 -0.2191  0.1780
 1831SOL    HW116952   4.568   0.778   2.339  1.7696 -0.2066 -0.1617
 1831SOL    HW216953   4.669   0.860   2.430 -0.1615 -1.4082 -0.4659
 1832SOL     OW16954   2.027   0.453  11.348 -0.0843 -0.2143  0.8719
 1832SOL    HW116955   1.975   0.523  11.387 -2.5221 -1.9605  0.7166
 1832SOL    HW216956   1.965   0.428  11.280  1.2458  0.5373 -0.6207
 1833SOL     OW16957   2.208   4.693   3.260  0.0188 -0.3266 -0.2679
 1833SOL    HW116958   2.155   0.020   3.199  0.0450 -0.0777 -0.0861
 1833SOL    HW216959   2.200   4.604   3.226 -0.6928 -0.3645 -0.0049
 1834SOL     OW16960   4.019   3.020  15.898  0.2712  1.0386  0.7597
 1834SOL    HW116961   4.073   3.042  15.975 -0.3079 -1.2826  1.8045
 1834SOL    HW216962   4.002   2.927  15.906  1.5102  0.9349  2.3116
 1835SOL     OW16963   1.275   4.318   5.865 -0.2239  0.0702 -0.6962
 1835SOL    HW116964   1.216   4.249   5.835 -0.3782 -0.5048  0.9493
 1835SOL    HW216965   1.245   4.389   5.808 -2.6577 -3.0234 -3.2904
 1836SOL     OW16966   2.006   3.226   7.598 -0.3815  0.2646  0.6101
 1836SOL    HW116967   1.997   3.153   7.536  1.6994 -0.5881  1.3021
 1836SOL    HW216968   2.095   3.258   7.581 -0.0275 -1.7331 -1.3928
 1837SOL     OW16969   1.833   3.747  14.603  0.1982  0.0545 -0.3731
 1837SOL    HW116970   1.867   3.833  14.579  0.0727  0.1668 -0.1402
 1837SOL    HW216971   1.751   3.765  14.558 -0.0446 -2.7013 -1.0718
 1838SOL     OW16972   3.633   2.057  11.162 -0.1557  0.1485  0.3046
 1838SOL    HW116973   3.604   2.128  11.105  0.1826 -0.9943 -1.3115
 1838SOL    HW216974   3.611   1.986  11.100  1.3333 -0.2038  0.1932
 1839SOL     OW16975   3.638   3.425   2.853 -0.1842 -0.1603  0.3182
 1839SOL    HW116976   3.684   3.449   2.773 -0.6278 -0.0031  0.1141
 1839SOL    HW216977   3.711   3.452   2.910  0.1151 -3.8175  1.6484
 1840SOL     OW16978   0.930   2.062   8.093  0.5551 -0.4879  0.2249
 1840SOL    HW116979   0.938   2.133   8.157 -1.4550 -0.6211  0.6425
 1840SOL    HW216980   0.954   1.983   8.143  0.7761 -1.1875 -0.9960
 1841SOL     OW16981   0.667   2.680  10.444 -0.0689 -0.1953 -0.5455
 1841SOL    HW116982   0.617   2.761  10.455  0.9503  0.0383  2.3823
 1841SOL    HW216983   0.593   2.625  10.418 -2.0580  2.0025  0.4097
 1842SOL     OW16984   3.318   1.052   7.152  0.3034  0.6854 -0.1976
 1842SOL    HW116985   3.224   1.036   7.162 -0.0771  1.7977 -1.8513
 1842SOL    HW216986   3.348   1.011   7.233 -0.6009 -1.2153 -0.8391
 1843SOL     OW16987   4.553   3.200   3.269  0.0631 -0.3287 -0.0123
 1843SOL    HW116988   4.545   3.126   3.209 -3.3364 -0.4685  0.6136
 1843SOL    HW216989   4.479   3.184   3.327 -0.3862 -0.3195 -0.5742
 1844SOL     OW16990   4.180   4.713   4.918 -0.2160 -0.3425 -0.0374
 1844SOL    HW116991   4.257   4.691   4.866  0.2140  0.7854  0.1299
 1844SOL    HW216992   4.213   4.679   5.001 -0.6937 -0.6471  0.0261
 1845SOL     OW16993   3.892   2.196   3.823  0.1619  0.0141 -0.3309
 1845SOL    HW116994   3.877   2.105   3.798 -1.1317 -0.2059  1.2964
 1845SOL    HW216995   3.967   2.184   3.882 -0.6688  0.2430  0.7750
 1846SOL     OW16996   1.084   3.714   1.082 -0.3141 -0.2262 -0.4253
 1846SOL    HW116997   1.105   3.629   1.120  2.2680 -0.1355 -1.6689
 1846SOL    HW216998   1.173   3.741   1.060  0.2411 -0.5895  1.3858
 1847SOL     OW16999   3.036   3.655  11.023  0.6647  0.3624 -0.1883
 1847SOL    HW117000   2.976   3.638  11.096  0.4024  0.0029 -0.4854
 1847SOL    HW217001   3.022   3.746  11.000  0.2474  0.9283  2.2452
 1848SOL     OW17002   0.283   1.230  17.388  0.1734 -0.0660  0.3159
 1848SOL    HW117003   0.375   1.208  17.403 -0.0374 -0.8912  0.3996
 1848SOL    HW217004   0.291   1.251  17.295  1.0838 -1.6683  0.0286
 1849SOL     OW17005   2.550   3.665   4.696  0.2883  0.2281  0.3232
 1849SOL    HW117006   2.570   3.614   4.617 -0.6254 -1.1357  0.9875
 1849SOL    HW217007   2.634   3.709   4.707 -0.0487  1.5038 -2.1238
 1850SOL     OW17008   4.573   3.547   1.663 -0.3805  0.5523 -0.6811
 1850SOL    HW117009   4.618   3.469   1.695 -0.9709  0.1793 -0.7609
 1850SOL    HW217010   4.490   3.510   1.631 -0.5556 -0.4005  0.8748
 1851SOL     OW17011   3.898   3.236   5.567  0.3730 -0.0486 -0.2272
 1851SOL    HW117012   3.919   3.154   5.523  1.7528  0.8430 -1.2624
 1851SOL    HW217013   3.823   3.274   5.522  0.4301  0.0153 -0.2683
 1852SOL     OW17014   2.022   2.916   3.054 -0.2422  0.1522 -0.0727
 1852SOL    HW117015   2.078   2.866   2.995  1.1336 -0.1522  1.4600
 1852SOL    HW217016   2.051   2.884   3.140  2.9561  0.1098 -1.1835
 1853SOL     OW17017   4.192   0.014   6.843 -0.6995 -0.2980  0.6177
 1853SOL    HW117018   4.245   4.685   6.784  0.5248 -0.8384  2.2001
 1853SOL    HW217019   4.109   4.692   6.826 -0.5708 -0.9414  1.7317
 1854SOL     OW17020   0.010   2.369   6.023  0.4753  0.8538 -0.3661
 1854SOL    HW117021   4.657   2.315   6.041  0.5008  0.4585 -1.4774
 1854SOL    HW217022   0.070   2.339   6.091  1.8983 -0.9096 -2.4031
 1855SOL     OW17023   0.346   1.152   9.891  0.0958  0.0606 -0.4839
 1855SOL    HW117024   0.251   1.156   9.906  0.0956 -0.3364 -0.3766
 1855SOL    HW217025   0.380   1.151   9.980  1.3471 -2.4559 -0.9913
 1856SOL     OW17026   2.848   2.956   9.245  0.2230  0.0315  0.3236
 1856SOL    HW117027   2.791   2.987   9.315 -0.3272 -0.7532  0.2214
 1856SOL    HW217028   2.781   2.924   9.185  0.3103  0.6935 -0.1248
 1857SOL     OW17029   0.250   1.225   5.528 -0.1672  0.0694 -0.2089
 1857SOL    HW117030   0.259   1.161   5.598  0.7939  0.6445  0.1920
 1857SOL    HW217031   0.219   1.173   5.454 -1.3133 -0.1235  0.3962
 1858SOL     OW17032   2.598   0.799  15.474 -0.1673  0.3369  0.3328
 1858SOL    HW117033   2.515   0.764  15.505 -0.4753 -1.2000 -2.2221
 1858SOL    HW217034   2.614   0.857  15.549 -3.8690 -0.2783  1.5682
 1859SOL     OW17035   3.285   3.092  17.473  0.3976  0.3841  0.0509
 1859SOL    HW117036   3.292   3.035  17.550 -1.1498 -3.4447 -2.6284
 1859SOL    HW217037   3.245   3.029  17.413  0.7110  0.2842 -0.0520
 1860SOL     OW17038   3.383   3.116   4.088 -0.4964 -0.0866  0.0993
 1860SOL    HW117039   3.340   3.164   4.017 -0.6744  0.6438  0.6984
 1860SOL    HW217040   3.309   3.062   4.117 -0.2000 -0.5426 -0.0089
 1861SOL     OW17041   3.761   0.069   0.145  0.1848 -0.1750  0.1330
 1861SOL    HW117042   3.668   0.083   0.126  0.0981 -0.1260  0.5921
 1861SOL    HW217043   3.797   4.721   0.093  0.8021  0.6420 -0.5614
 1862SOL     OW17044   2.707   0.066   4.732 -0.2849  0.6618  0.1640
 1862SOL    HW117045   2.735   4.705   4.697 -0.2295  0.4608  0.6993
 1862SOL    HW217046   2.702   0.046   4.825  1.9056 -1.5175 -0.2092
 1863SOL     OW17047   4.564   3.794   3.806  0.5247  0.5892 -0.5261
 1863SOL    HW117048   4.552   3.773   3.714  1.1344  0.6084 -0.6066
 1863SOL    HW217049   4.625   3.727   3.837 -1.2288  0.1186  1.9422
 1864SOL     OW17050   0.930   4.339   8.962 -0.1232 -0.5007 -0.5435
 1864SOL    HW117051   0.951   4.333   9.055 -3.2703  0.4493  0.2508
 1864SOL    HW217052   0.927   4.433   8.945 -0.5088 -0.1256  1.6326
 1865SOL     OW17053   2.622   1.452  11.212 -0.4064  0.2795  0.6343
 1865SOL    HW117054   2.697   1.409  11.171 -0.0989  2.4327 -1.0516
 1865SOL    HW217055   2.571   1.378  11.246  1.9622 -2.1236 -1.0214
 1866SOL     OW17056   3.800   0.163   1.174  0.2091 -0.2555 -0.1254
 1866SOL    HW117057   3.740   0.171   1.100 -2.3376 -0.4523  1.9192
 1866SOL    HW217058   3.792   0.242   1.227  0.7334 -1.4304  1.7138
 1867SOL     OW17059   3.700   4.000   4.129  0.1585 -0.1030 -0.5203
 1867SOL    HW117060   3.756   4.004   4.052  1.4109  0.5493  0.4170
 1867SOL    HW217061   3.760   4.007   4.204  1.5867 -2.3827 -1.4378
 1868SOL     OW17062   0.284   1.836   1.148  0.0477  0.6312  0.5710
 1868SOL    HW117063   0.254   1.917   1.106  1.2970  0.9378  0.2895
 1868SOL    HW217064   0.318   1.789   1.073 -1.7969 -0.5346  0.4787
 1869SOL     OW17065   4.566   4.217  10.694  0.8181 -0.0606  0.0776
 1869SOL    HW117066   4.486   4.177  10.728  0.3833  1.3901  0.7902
 1869SOL    HW217067   4.532   4.301  10.660 -3.2257 -2.7671 -2.5893
 1870SOL     OW17068   4.563   0.633  13.817  0.1840 -0.0127  0.0787
 1870SOL    HW117069   4.570   0.557  13.760  1.6724 -0.5803  1.0282
 1870SOL    HW217070   4.517   0.696  13.761 -0.2198 -0.5136 -0.1567
 1871SOL     OW17071   2.219   1.772   8.161  0.6355  0.2456 -0.4046
 1871SOL    HW117072   2.266   1.854   8.176 -0.3059  1.0150 -1.6147
 1871SOL    HW217073   2.254   1.719   8.232  3.2921 -0.1031 -1.9854
 1872SOL     OW17074   3.242   1.746   6.717  0.2537 -0.2687 -0.4640
 1872SOL    HW117075   3.208   1.672   6.768 -0.7624  1.8033  1.8283
 1872SOL    HW217076   3.167   1.805   6.714 -1.1332 -2.0157 -0.2985
 1873SOL     OW17077   3.023   2.657   4.720  0.0275 -0.1325 -0.7058
 1873SOL    HW117078   2.990   2.588   4.661  0.3122 -0.0554 -0.9560
 1873SOL    HW217079   2.983   2.621   4.799  0.3841 -2.1458 -1.4348
 1874SOL     OW17080   1.807   2.973   8.109  0.2724 -0.1452  0.0543
 1874SOL    HW117081   1.812   3.048   8.168 -2.4945 -1.1957  1.6543
 1874SOL    HW217082   1.872   2.969   8.039 -0.1204  3.2558 -0.5056
 1875SOL     OW17083   4.565   0.511  13.227 -0.4553 -0.0248 -0.2091
 1875SOL    HW117084   4.499   0.483  13.290  1.0839 -0.9406  1.0177
 1875SOL    HW217085   4.551   0.606  13.223 -0.9952 -0.0981 -0.0592
 1876SOL     OW17086   1.424   2.560   9.778  0.2425  0.0121 -0.6333
 1876SOL    HW117087   1.471   2.578   9.859 -1.2022 -2.3637  0.7535
 1876SOL    HW217088   1.339   2.605   9.788  1.2583  1.6903  0.4838
 1877SOL     OW17089   2.700   2.905   8.179 -0.6095  0.3153 -0.3642
 1877SOL    HW117090   2.758   2.936   8.109  0.7120  0.0944  0.6420
 1877SOL    HW217091   2.651   2.836   8.132  0.1790  0.7555 -1.8409
 1878SOL     OW17092   4.519   2.950  15.483 -0.0612  0.4052 -0.3698
 1878SOL    HW117093   4.445   2.933  15.542  0.9244 -1.0159  0.4640
 1878SOL    HW217094   4.511   2.873  15.426  1.3764 -1.0354  1.3840
 1879SOL     OW17095   0.176   3.591   1.311  0.0043 -0.1008 -0.3789
 1879SOL    HW117096   0.199   3.572   1.402 -0.6681 -1.8317 -0.5583
 1879SOL    HW217097   0.263   3.586   1.273  0.3994 -0.3368  0.5557
 1880SOL     OW17098   2.125   4.453  10.818  0.1105 -0.4395 -0.0634
 1880SOL    HW117099   2.180   4.396  10.765 -0.8380 -0.0824 -1.4407
 1880SOL    HW217100   2.099   4.508  10.744 -0.7780  1.5570  1.7140
 1881SOL     OW17101   3.956   2.606   7.808  0.4167  0.6141  0.2294
 1881SOL    HW117102   4.041   2.573   7.780  0.3604  1.5950 -1.0720
 1881SOL    HW217103   3.902   2.567   7.738 -0.0387  0.2819  0.7622
 1882SOL     OW17104   0.651   0.517  11.674 -0.1298 -0.7060 -0.1188
 1882SOL    HW117105   0.720   0.469  11.628  1.0022  1.8316 -1.0521
 1882SOL    HW217106   0.700   0.596  11.698 -1.6668  0.8901 -2.2628
 1883SOL     OW17107   0.367   4.458   7.300 -0.2183  0.2380 -0.3181
 1883SOL    HW117108   0.299   4.402   7.261 -1.6504  1.1895  0.8144
 1883SOL    HW217109   0.347   4.460   7.393  0.8255  0.7461 -0.1039
 1884SOL     OW17110   0.327   0.631  10.997  0.2395 -0.1471 -0.0995
 1884SOL    HW117111   0.390   0.665  11.061 -3.5997  0.6574  3.2894
 1884SOL    HW217112   0.355   0.664  10.912 -1.4972 -0.6517 -0.8801
 1885SOL     OW17113   0.348   2.788  15.225  0.2149  0.2523 -0.3487
 1885SOL    HW117114   0.342   2.858  15.161  1.4637 -0.4233 -1.2207
 1885SOL    HW217115   0.265   2.741  15.217 -0.2951  1.2795 -1.0840
 1886SOL     OW17116   2.183   1.397  15.652 -0.9233  0.4674 -0.2318
 1886SOL    HW117117   2.240   1.468  15.683 -1.4381  1.9112 -2.5770
 1886SOL    HW217118   2.221   1.392  15.565 -0.9635 -0.4478 -0.1907
 1887SOL     OW17119   1.860   3.541  13.280  0.0505  0.3047 -0.2852
 1887SOL    HW117120   1.874   3.518  13.188  1.3077  1.1157 -0.2880
 1887SOL    HW217121   1.856   3.636  13.275  0.3987  0.3947  1.1791
 1888SOL     OW17122   0.435   3.705  15.573  0.0803  0.6022  0.5235
 1888SOL    HW117123   0.476   3.786  15.605  0.4103  0.4411  0.5039
 1888SOL    HW217124   0.369   3.679  15.637  0.2829 -0.4011  0.3171
 1889SOL     OW17125   1.600   1.460   4.623 -0.3980  0.2630  0.1109
 1889SOL    HW117126   1.671   1.449   4.686 -0.6778  0.6567  0.4969
 1889SOL    HW217127   1.564   1.372   4.613 -0.3061  0.1616  0.6739
 1890SOL     OW17128   4.539   1.532   3.306  0.0692  0.2253 -0.1450
 1890SOL    HW117129   4.556   1.477   3.383  0.2710 -0.7369 -0.8732
 1890SOL    HW217130   4.624   1.571   3.285 -0.2211  1.3666  0.8049
 1891SOL     OW17131   0.004   0.582  15.357  0.2808  0.5058  0.2597
 1891SOL    HW117132   4.641   0.589  15.316 -0.0380 -1.2448  0.6097
 1891SOL    HW217133   0.013   0.488  15.371 -1.4855 -0.0792 -2.5588
 1892SOL     OW17134   1.975   0.553   3.163  0.7545  0.2998 -0.0036
 1892SOL    HW117135   2.055   0.524   3.119  1.4087 -0.6181  1.7669
 1892SOL    HW217136   2.003   0.557   3.255  1.1933  0.6827 -0.1544
 1893SOL     OW17137   0.524   3.876   3.112  0.0112 -0.6261  0.4971
 1893SOL    HW117138   0.519   3.910   3.202  0.3456  1.5183 -0.3093
 1893SOL    HW217139   0.453   3.812   3.117 -0.6059  0.0174 -0.1413
 1894SOL     OW17140   0.261   0.519   0.283  0.1632  0.0523 -0.2317
 1894SOL    HW117141   0.186   0.513   0.343 -0.4424  0.2712 -0.9628
 1894SOL    HW217142   0.256   0.614   0.274 -1.1965 -0.4414 -4.6778
 1895SOL     OW17143   4.013   3.721   5.750  0.1099 -0.1650  0.2927
 1895SOL    HW117144   3.992   3.768   5.669 -0.6600 -1.2645 -0.1497
 1895SOL    HW217145   3.976   3.780   5.816  1.9796  2.3582 -0.9517
 1896SOL     OW17146   3.446   0.566   0.608  0.1499  0.5616  0.0238
 1896SOL    HW117147   3.422   0.658   0.617 -0.2450  0.4919 -0.3139
 1896SOL    HW217148   3.518   0.555   0.669  0.8520  0.6502 -0.7821
 1897SOL     OW17149   2.551   2.958  12.959 -0.2807  0.0157 -0.0756
 1897SOL    HW117150   2.556   3.050  12.934 -0.8475 -0.5244 -2.1796
 1897SOL    HW217151   2.629   2.956  13.014  0.5366 -1.7147 -1.2908
 1898SOL     OW17152   3.336   2.878   6.113 -0.2497 -0.1123  0.0223
 1898SOL    HW117153   3.402   2.941   6.085 -0.3621  0.5896  1.3373
 1898SOL    HW217154   3.381   2.834   6.185 -1.9036 -0.4330  0.8603
 1899SOL     OW17155   0.372   2.644   8.661  0.3530 -0.1421 -0.6693
 1899SOL    HW117156   0.448   2.595   8.690 -0.4359 -0.7550  0.3724
 1899SOL    HW217157   0.389   2.724   8.710 -2.4533  1.1284 -1.7616
 1900SOL     OW17158   2.736   4.363   5.311 -0.3616 -0.0104  0.3848
 1900SOL    HW117159   2.773   4.439   5.355 -1.0845  0.0886  0.8163
 1900SOL    HW217160   2.801   4.301   5.343 -2.1445 -2.0123  0.1117
 1901SOL     OW17161   4.568   0.602   2.176  0.0630 -0.3803 -0.1120
 1901SOL    HW117162   4.619   0.609   2.095 -1.3944  1.9622 -0.8496
 1901SOL    HW217163   4.483   0.565   2.153 -0.2220  0.7073 -0.8112
 1902SOL     OW17164   0.953   1.818   2.858 -0.1873 -0.0768 -0.2179
 1902SOL    HW117165   0.873   1.842   2.903  1.6054  1.9923  1.8261
 1902SOL    HW217166   1.013   1.813   2.932 -0.6770 -2.9425  0.0091
 1903SOL     OW17167   0.219   3.524   4.532 -0.2917 -0.6110  0.0512
 1903SOL    HW117168   0.273   3.602   4.547 -1.3171  0.1526 -0.2647
 1903SOL    HW217169   0.145   3.562   4.486 -1.8222 -2.5284  0.9268
 1904SOL     OW17170   4.388   2.811   7.764  0.1106  0.5946 -0.4088
 1904SOL    HW117171   4.402   2.903   7.787  0.9079  0.4339 -0.2527
 1904SOL    HW217172   4.467   2.783   7.719  0.2884 -2.9845  2.1342
 1905SOL     OW17173   2.692   2.035   8.581 -0.0913 -0.4867 -0.0745
 1905SOL    HW117174   2.754   2.095   8.539 -0.8617 -1.3944 -2.4886
 1905SOL    HW217175   2.725   1.950   8.552  0.3496 -0.1056 -0.7110
 1906SOL     OW17176   3.156   4.091  10.616 -0.0938  0.2705 -0.1571
 1906SOL    HW117177   3.244   4.111  10.647 -0.6935  1.0308  1.0216
 1906SOL    HW217178   3.123   4.061  10.701 -0.3220 -1.6094 -0.8893
 1907SOL     OW17179   4.380   1.411   5.947 -0.1754  0.0849 -0.0259
 1907SOL    HW117180   4.422   1.378   6.027  3.1672  1.9272 -1.0106
 1907SOL    HW217181   4.348   1.334   5.900 -0.9646  0.5752 -0.3022
 1908SOL     OW17182   0.119   1.584   4.967 -0.4693  0.0527  0.6910
 1908SOL    HW117183   0.095   1.495   4.991  0.2183 -0.1657  0.5835
 1908SOL    HW217184   0.034   1.627   4.966 -1.1073 -1.2569 -0.3486
 1909SOL     OW17185   1.270   1.413   1.136 -0.1125  0.1119  0.2154
 1909SOL    HW117186   1.265   1.460   1.220 -0.0120 -1.8080  1.3007
 1909SOL    HW217187   1.222   1.479   1.086  1.0045  3.2552  3.2970
 1910SOL     OW17188   2.896   0.769   8.240  0.2361  0.0006 -0.0506
 1910SOL    HW117189   2.825   0.707   8.259 -0.2492  0.3469 -0.7575
 1910SOL    HW217190   2.908   0.813   8.324 -0.0145  0.4049 -0.2236
 1911SOL     OW17191   4.241   3.593   6.116 -0.2061 -0.1837 -0.0602
 1911SOL    HW117192   4.242   3.590   6.020  2.5580  0.7957 -0.0760
 1911SOL    HW217193   4.203   3.506   6.131 -0.8261 -0.0387 -0.7706
 1912SOL     OW17194   1.648   1.737   5.901 -0.2884 -0.0832 -0.3970
 1912SOL    HW117195   1.582   1.709   5.964  0.5582  0.0184  0.5355
 1912SOL    HW217196   1.691   1.654   5.881  0.3847  0.0513  0.4640
 1913SOL     OW17197   2.885   2.692   9.338  0.2436  0.1368  0.7465
 1913SOL    HW117198   2.925   2.761   9.285  1.6137 -1.3094 -0.1001
 1913SOL    HW217199   2.956   2.658   9.392  1.2447 -1.9060 -1.8437
 1914SOL     OW17200   1.455   4.322   4.205  0.0508 -0.1266 -0.1240
 1914SOL    HW117201   1.495   4.408   4.219  0.4308  0.0370 -2.2564
 1914SOL    HW217202   1.509   4.268   4.264 -0.5196  0.2839  0.7687
 1915SOL     OW17203   1.576   0.928   9.480 -0.7037  0.0168  0.2284
 1915SOL    HW117204   1.566   1.013   9.522 -1.2879 -0.1573  0.4444
 1915SOL    HW217205   1.528   0.866   9.535  0.9643 -2.8094 -1.4989
 1916SOL     OW17206   0.520   2.118   4.068 -0.1452  0.1066 -0.6213
 1916SOL    HW117207   0.547   2.206   4.094 -0.8090 -0.3758  1.7282
 1916SOL    HW217208   0.503   2.120   3.974  0.8679 -2.3089 -0.8622
 1917SOL     OW17209   2.107   2.022  13.786 -0.2234 -0.6658  0.7549
 1917SOL    HW117210   2.172   1.954  13.769 -0.2667  0.0909 -2.4180
 1917SOL    HW217211   2.030   1.981  13.746 -0.3146  1.4873 -1.2440
 1918SOL     OW17212   0.289   1.206  14.410  0.0124 -0.1865  0.0036
 1918SOL    HW117213   0.219   1.270  14.419  0.6710  0.6624 -0.8974
 1918SOL    HW217214   0.268   1.199  14.316  1.4937 -1.8596 -0.2168
 1919SOL     OW17215   0.248   4.675   9.945 -0.5594 -0.7462  0.0269
 1919SOL    HW117216   0.242   0.043   9.917  3.4043 -0.3048  0.6574
 1919SOL    HW217217   0.190   4.689  10.020  2.5691 -0.1319  2.3183
 1920SOL     OW17218   2.147   2.606   4.255 -0.0511 -0.3218 -0.6861
 1920SOL    HW117219   2.103   2.522   4.239 -1.1809  0.2538 -0.6517
 1920SOL    HW217220   2.182   2.600   4.344 -2.3837  0.3129  0.2858
 1921SOL     OW17221   2.620   2.509  16.518 -0.5182 -0.0795  0.0554
 1921SOL    HW117222   2.712   2.500  16.493 -0.2532  0.5975  0.7871
 1921SOL    HW217223   2.595   2.416  16.521  3.2053 -1.0751  0.5787
 1922SOL     OW17224   1.602   0.312  14.207  0.0130 -0.1272  0.4162
 1922SOL    HW117225   1.605   0.221  14.236  0.3544 -0.9808 -2.3141
 1922SOL    HW217226   1.573   0.296  14.117 -0.1816  2.0230  0.1021
 1923SOL     OW17227   3.747   2.076  10.055 -0.4340  0.2192  0.0815
 1923SOL    HW117228   3.672   2.135  10.051  1.0560  1.8609 -3.6453
 1923SOL    HW217229   3.800   2.134  10.110 -1.1311 -1.5708  2.6296
 1924SOL     OW17230   4.122   4.294   9.916 -0.3547 -0.5947 -0.7215
 1924SOL    HW117231   4.028   4.299   9.933 -0.4642 -0.1711 -1.4567
 1924SOL    HW217232   4.124   4.338   9.831 -0.3696 -1.2815 -1.0761
 1925SOL     OW17233   4.467   2.201  10.708 -0.3049  0.6339  0.5990
 1925SOL    HW117234   4.474   2.121  10.761  2.7899  0.9797  0.7558
 1925SOL    HW217235   4.385   2.187  10.662 -0.3194  1.1738  0.4658
 1926SOL     OW17236   0.493   1.732  16.515  0.3543  0.2180 -0.1734
 1926SOL    HW117237   0.496   1.640  16.539 -1.2171  0.1579 -0.2210
 1926SOL    HW217238   0.486   1.770  16.603  0.1068 -1.4046  0.5040
 1927SOL     OW17239   4.257   2.347   6.573 -0.4591 -0.5427 -0.1621
 1927SOL    HW117240   4.270   2.325   6.666 -0.2213 -1.6294 -0.4517
 1927SOL    HW217241   4.187   2.284   6.554 -1.8034  0.4121  1.5798
 1928SOL     OW17242   2.419   2.742   9.483  0.0873  0.4045  0.1336
 1928SOL    HW117243   2.441   2.801   9.555 -0.9603  2.2457 -1.0450
 1928SOL    HW217244   2.504   2.700   9.470 -0.1452 -1.3210  4.3241
 1929SOL     OW17245   1.282   1.965   6.875 -0.0877 -0.3406  0.1596
 1929SOL    HW117246   1.202   2.016   6.858  0.2640  0.2320  0.2267
 1929SOL    HW217247   1.290   1.982   6.969  0.7962 -0.3330  0.0786
 1930SOL     OW17248   0.011   3.915   0.196 -0.1102  0.0364  0.2100
 1930SOL    HW117249   4.722   3.841   0.136  1.5103 -1.6320  1.9533
 1930SOL    HW217250   0.075   3.872   0.253  0.0829 -0.8024 -0.6352
 1931SOL     OW17251   3.625   1.294   1.496  0.2878 -0.2476 -0.6212
 1931SOL    HW117252   3.634   1.322   1.587 -3.3332  0.4866 -0.4815
 1931SOL    HW217253   3.542   1.341   1.488 -0.4969 -1.4126  0.7450
 1932SOL     OW17254   4.452   3.996   1.732  0.0973 -0.1407 -0.4289
 1932SOL    HW117255   4.514   3.928   1.757  0.2052  0.0511 -0.1729
 1932SOL    HW217256   4.372   3.952   1.758  0.4388  0.3174  1.4009
 1933SOL     OW17257   3.897   3.916   8.814  0.3255  0.3406 -0.5654
 1933SOL    HW117258   3.913   3.871   8.731 -2.5561 -1.5227 -0.1048
 1933SOL    HW217259   3.947   3.997   8.813  1.3796 -0.3149 -1.7080
 1934SOL     OW17260   3.812   1.868   2.441  0.6913 -0.0019 -1.0399
 1934SOL    HW117261   3.769   1.792   2.480  0.1674 -0.0852 -1.7873
 1934SOL    HW217262   3.807   1.847   2.348  3.1243  1.3481 -1.4809
 1935SOL     OW17263   0.069   1.130   3.000 -0.3500 -0.2985 -0.0063
 1935SOL    HW117264   0.151   1.082   2.995  0.1937  0.6521 -0.2911
 1935SOL    HW217265   0.059   1.168   2.913  3.4345 -0.4736 -0.5346
 1936SOL     OW17266   4.546   3.996   3.255 -0.4551  0.5477  0.1004
 1936SOL    HW117267   4.487   4.017   3.183 -3.9682 -3.7286  1.7387
 1936SOL    HW217268   4.556   3.903   3.238  1.6352  0.8416 -0.2283
 1937SOL     OW17269   3.952   0.712   7.336 -0.0083  0.0437 -0.1765
 1937SOL    HW117270   4.047   0.696   7.334 -0.7679 -4.4036 -1.0119
 1937SOL    HW217271   3.948   0.766   7.257 -3.1032 -0.2472 -0.2141
 1938SOL     OW17272   4.522   4.374   1.507  0.8136 -0.2104 -0.4117
 1938SOL    HW117273   4.531   4.310   1.437 -0.8187  0.5516 -1.3241
 1938SOL    HW217274   4.556   4.458   1.476 -1.0966 -0.0587 -2.1589
 1939SOL     OW17275   0.426   4.349  14.640  0.3150 -0.3594  0.3127
 1939SOL    HW117276   0.431   4.255  14.657 -1.3331 -0.6882 -1.0831
 1939SOL    HW217277   0.339   4.359  14.602  0.3851 -0.1731  0.2033
 1940SOL     OW17278   4.015   3.686   2.881  0.6113 -0.1370 -0.3943
 1940SOL    HW117279   4.006   3.781   2.890 -2.1142 -0.4947  0.9383
 1940SOL    HW217280   4.000   3.680   2.787  1.2390  2.3817 -0.6758
 1941SOL     OW17281   3.560   1.172   9.787  0.2005  0.1578  0.6419
 1941SOL    HW117282   3.511   1.090   9.789  0.5207 -0.0383  0.1708
 1941SOL    HW217283   3.482   1.226   9.776  2.3319  2.7898 -1.4092
 1942SOL     OW17284   3.597   2.250   5.115  0.2727 -0.2613  0.2983
 1942SOL    HW117285   3.573   2.301   5.192 -2.0717  0.0680 -0.6364
 1942SOL    HW217286   3.614   2.159   5.139  2.2120 -0.4165 -1.6518
 1943SOL     OW17287   1.682   1.215  12.305  0.1294  0.1197 -0.1431
 1943SOL    HW117288   1.646   1.226  12.393 -1.2048 -0.5027 -0.6173
 1943SOL    HW217289   1.605   1.189  12.255 -1.3371  1.1679  1.5580
 1944SOL     OW17290   4.118   1.603   6.198 -0.7693 -0.1555  0.0549
 1944SOL    HW117291   4.104   1.581   6.106  1.1099  1.3795 -0.6078
 1944SOL    HW217292   4.068   1.685   6.198  2.7230  1.9538 -0.8103
 1945SOL     OW17293   2.717   3.008   9.483 -0.0896  0.3476 -0.2679
 1945SOL    HW117294   2.682   2.933   9.531  3.6121  0.0250  1.8874
 1945SOL    HW217295   2.748   3.064   9.554 -1.1884  0.1790  0.3418
 1946SOL     OW17296   0.308   1.503   0.493 -0.1277  0.6527  0.3093
 1946SOL    HW117297   0.227   1.511   0.442  0.4375  2.9612 -0.2156
 1946SOL    HW217298   0.353   1.440   0.436 -1.7656  0.1080 -0.3698
 1947SOL     OW17299   2.945   3.333  10.908  0.0468  0.1952  0.1308
 1947SOL    HW117300   2.889   3.411  10.900 -1.2750 -0.6998  0.5191
 1947SOL    HW217301   2.959   3.328  11.003 -1.5464  0.4752  0.3937
 1948SOL     OW17302   3.284   0.246  14.528 -0.0843  0.6115  0.4531
 1948SOL    HW117303   3.209   0.230  14.586  0.2077 -1.2934  0.3056
 1948SOL    HW217304   3.298   0.335  14.558 -0.1568  0.5371  0.7032
 1949SOL     OW17305   2.702   0.507   3.239 -0.2021  0.0834 -0.1929
 1949SOL    HW117306   2.743   0.441   3.294 -0.1253  1.2232  1.1212
 1949SOL    HW217307   2.695   0.583   3.297 -0.8367 -0.0671 -0.0737
 1950SOL     OW17308   4.105   4.643  14.745  0.2279  0.0283  0.2126
 1950SOL    HW117309   4.111   4.687  14.830 -1.5681 -1.3658  1.0523
 1950SOL    HW217310   4.039   4.704  14.712  1.8356  2.0736  0.7351
 1951SOL     OW17311   3.197   0.421  12.928  0.4846  0.4608  0.0148
 1951SOL    HW117312   3.132   0.425  12.857 -1.9683  1.4075  2.3249
 1951SOL    HW217313   3.259   0.481  12.887  0.6207  0.7613  0.6724
 1952SOL     OW17314   1.582   2.778   2.642 -0.2742 -0.0440 -0.2214
 1952SOL    HW117315   1.574   2.701   2.586 -0.4958  0.1064 -0.3981
 1952SOL    HW217316   1.677   2.785   2.650 -0.1268  0.4697 -2.3072
 1953SOL     OW17317   0.589   2.206   7.010 -0.2219  0.2146  0.7754
 1953SOL    HW117318   0.574   2.115   7.037  2.0291 -0.7728 -1.2606
 1953SOL    HW217319   0.505   2.239   6.979 -1.5610 -1.1304  2.9888
 1954SOL     OW17320   1.245   4.019   5.398 -0.3714 -0.5960 -0.0817
 1954SOL    HW117321   1.235   4.112   5.417 -1.0941 -0.5751 -0.5476
 1954SOL    HW217322   1.168   3.989   5.447 -1.2782 -0.8974 -1.6927
 1955SOL     OW17323   3.664   0.309   0.426  0.6460 -0.0489  0.1356
 1955SOL    HW117324   3.715   0.316   0.346 -0.5167 -0.0376 -0.6129
 1955SOL    HW217325   3.696   0.227   0.463  1.0157  0.2437  0.4625
 1956SOL     OW17326   2.677   2.168   1.218 -0.1961  0.2010 -0.3057
 1956SOL    HW117327   2.770   2.150   1.232 -0.8481 -3.0056  0.0864
 1956SOL    HW217328   2.650   2.196   1.306 -0.6220 -2.7221  0.4957
 1957SOL     OW17329   2.202   3.511   7.376  0.0664  0.2113 -0.5057
 1957SOL    HW117330   2.192   3.441   7.311 -0.0801  1.3911 -1.7375
 1957SOL    HW217331   2.249   3.568   7.316 -1.0948  2.0547  0.3414
 1958SOL     OW17332   0.225   3.363   5.886  0.0854  0.1922 -0.9567
 1958SOL    HW117333   0.233   3.281   5.934 -0.8973  0.9925  0.6009
 1958SOL    HW217334   0.145   3.345   5.836 -0.5243 -0.2113  0.1460
 1959SOL     OW17335   2.991   4.572   2.262 -0.3929 -0.7615 -0.4956
 1959SOL    HW117336   3.060   4.549   2.325  0.2745  2.9146  0.1448
 1959SOL    HW217337   2.985   4.500   2.199 -0.4085 -0.5920 -0.6880
 1960SOL     OW17338   0.763   3.664   3.779 -0.1999  0.1967  0.1902
 1960SOL    HW117339   0.844   3.663   3.728 -1.1898 -1.1004 -1.3913
 1960SOL    HW217340   0.715   3.623   3.706  1.4275  0.4963 -1.0528
 1961SOL     OW17341   0.667   4.197   3.254 -0.3103 -0.1354  1.1605
 1961SOL    HW117342   0.628   4.116   3.286 -0.6913  0.3086  1.8120
 1961SOL    HW217343   0.612   4.249   3.311 -0.5624  0.1695  0.6355
 1962SOL     OW17344   2.491   3.603   7.917  0.0114 -0.2958 -0.0770
 1962SOL    HW117345   2.512   3.697   7.917 -0.3800 -0.2061  1.9780
 1962SOL    HW217346   2.511   3.562   8.001 -0.5468 -0.6842 -0.1393
 1963SOL     OW17347   1.321   1.490  13.631  0.3699 -0.2163  0.0181
 1963SOL    HW117348   1.275   1.412  13.663  1.7747 -0.7966  0.6209
 1963SOL    HW217349   1.243   1.534  13.596  0.6390 -0.8867 -1.4379
 1964SOL     OW17350   1.779   0.044  16.260 -0.1375 -1.0986 -0.3659
 1964SOL    HW117351   1.820   0.003  16.184 -0.4627  1.0371 -1.6810
 1964SOL    HW217352   1.829   4.718  16.326 -0.7781 -0.8072  0.3425
 1965SOL     OW17353   0.982   3.668   3.662 -0.5850  0.0200  0.3804
 1965SOL    HW117354   0.963   3.709   3.577 -0.5361  0.4565  0.5792
 1965SOL    HW217355   1.074   3.645   3.646 -1.3396 -0.8731 -2.7406
 1966SOL     OW17356   3.415   3.471  13.077 -0.1344 -0.1004 -0.4548
 1966SOL    HW117357   3.395   3.515  12.994  1.7634  0.9332 -0.3765
 1966SOL    HW217358   3.432   3.548  13.131 -0.7721 -0.2443 -0.0567
 1967SOL     OW17359   2.943   4.249   6.695 -0.7817  0.3439 -0.0603
 1967SOL    HW117360   2.919   4.172   6.644  0.6236 -0.5358  0.6086
 1967SOL    HW217361   2.892   4.230   6.773  0.9308 -0.2302  0.9233
 1968SOL     OW17362   3.938   3.572   1.045  0.2155  0.5943 -0.5810
 1968SOL    HW117363   3.869   3.613   1.096  0.8565  2.1515 -0.9567
 1968SOL    HW217364   3.973   3.653   1.006  1.9157  2.0209  3.8664
 1969SOL     OW17365   1.477   3.908   5.384  0.5192 -0.2316 -0.0349
 1969SOL    HW117366   1.407   3.973   5.394  0.7834 -0.0223  0.4482
 1969SOL    HW217367   1.429   3.829   5.410 -2.2821  1.1207 -1.0427
 1970SOL     OW17368   4.438   2.712   5.163  0.2163 -0.3889 -0.0426
 1970SOL    HW117369   4.447   2.712   5.258  1.3513  0.1225 -0.1578
 1970SOL    HW217370   4.516   2.656   5.154 -0.4890 -1.3818 -0.0345
 1971SOL     OW17371   0.714   3.384  10.439 -0.0967 -0.2865 -0.0406
 1971SOL    HW117372   0.766   3.463  10.454  0.4935 -0.7458  0.2829
 1971SOL    HW217373   0.628   3.426  10.426 -0.4218 -0.7854  0.4874
 1972SOL     OW17374   3.787   0.478   7.416  0.1190 -0.2821  0.4927
 1972SOL    HW117375   3.753   0.435   7.338 -0.3982  0.0932  0.5094
 1972SOL    HW217376   3.831   0.555   7.381  0.6998 -0.8709 -0.0580
 1973SOL     OW17377   4.584   2.789   3.879 -0.6046 -0.1149 -0.4275
 1973SOL    HW117378   4.623   2.727   3.817  0.9422  0.1502  0.2842
 1973SOL    HW217379   4.654   2.851   3.898  0.5288 -1.6674  0.3900
 1974SOL     OW17380   1.258   4.715   4.996 -0.3950 -0.1210  0.6417
 1974SOL    HW117381   1.273   4.632   4.951 -1.4831 -0.5140  1.0019
 1974SOL    HW217382   1.245   4.691   5.087 -1.9785 -0.5726  0.3057
 1975SOL     OW17383   1.348   0.963   3.119 -0.6665 -0.0669  0.0668
 1975SOL    HW117384   1.386   0.983   3.204  0.8594 -1.6525 -0.2489
 1975SOL    HW217385   1.302   0.881   3.136  0.7044 -0.9760 -0.5140
 1976SOL     OW17386   3.231   4.556   9.281 -0.2102  0.1400 -0.0932
 1976SOL    HW117387   3.162   4.601   9.232 -0.9270  1.0304  1.7473
 1976SOL    HW217388   3.192   4.567   9.367  1.0419  0.2568  0.4687
 1977SOL     OW17389   1.049   4.422   5.347 -0.1700 -0.1193 -0.2536
 1977SOL    HW117390   1.030   4.470   5.428 -2.1857  0.9865 -1.3868
 1977SOL    HW217391   0.965   4.379   5.330 -1.0339  1.5078 -0.1105
 1978SOL     OW17392   0.144   4.180   0.863 -0.5430  0.3328 -0.0903
 1978SOL    HW117393   0.158   4.086   0.870 -2.7986  0.1247  1.5008
 1978SOL    HW217394   0.116   4.186   0.771  0.0394 -0.1619 -0.2991
 1979SOL     OW17395   2.222   1.401  16.040 -0.5137 -0.0298  0.3412
 1979SOL    HW117396   2.170   1.352  15.977 -3.2156  1.5071  1.3651
 1979SOL    HW217397   2.283   1.332  16.068  0.5610  0.6178 -0.3833
 1980SOL     OW17398   2.994   0.693   2.281  0.2641  0.9727  0.2139
 1980SOL    HW117399   2.903   0.679   2.256  0.3926  0.6604 -0.0764
 1980SOL    HW217400   3.033   0.654   2.203 -0.5740 -0.2589  0.4121
 1981SOL     OW17401   4.674   0.589  15.009 -0.7172 -0.2277 -0.2085
 1981SOL    HW117402   4.621   0.527  14.958 -0.0924  2.1633 -3.7100
 1981SOL    HW217403   0.029   0.535  15.018  0.3620  1.6831  1.9199
 1982SOL     OW17404   2.638   2.012  10.046  0.5876  0.2878  0.4503
 1982SOL    HW117405   2.614   1.979  10.132 -0.5241  1.5208  0.6042
 1982SOL    HW217406   2.648   2.106  10.060  1.9342  0.0308  1.2630
 1983SOL     OW17407   3.125   0.338  15.707 -0.2291 -0.3857 -0.5354
 1983SOL    HW117408   3.176   0.416  15.729 -0.3280  0.0816 -1.9788
 1983SOL    HW217409   3.036   0.371  15.695 -0.6764 -1.3074  0.2798
 1984SOL     OW17410   1.044   0.863   8.308 -0.1871 -0.1657 -0.1190
 1984SOL    HW117411   1.053   0.857   8.403 -0.3481  2.9503  0.1006
 1984SOL    HW217412   1.031   0.770   8.288 -2.1109  0.0636  0.0900
 1985SOL     OW17413   1.345   1.228   3.075  0.2813 -0.1605  0.2115
 1985SOL    HW117414   1.336   1.133   3.077 -1.1010  0.0049  2.2141
 1985SOL    HW217415   1.386   1.238   2.989 -1.2730 -0.8766 -0.6188
 1986SOL     OW17416   4.630   0.082  10.286  0.2506 -0.4174  0.2204
 1986SOL    HW117417   4.663   0.140  10.354  0.8435  0.1684 -0.5644
 1986SOL    HW217418   4.665   0.130  10.210  2.8117 -4.5233 -1.1866
 1987SOL     OW17419   1.745   3.006  15.060  0.7384 -0.0307  0.1665
 1987SOL    HW117420   1.701   3.025  15.143 -1.0571 -0.2230 -0.7555
 1987SOL    HW217421   1.753   2.910  15.060  1.4838  0.0272  1.0488
 1988SOL     OW17422   1.353   2.549   5.788  0.3331 -0.1490 -0.4708
 1988SOL    HW117423   1.286   2.603   5.746  2.6218  1.6863 -1.6783
 1988SOL    HW217424   1.383   2.497   5.714 -0.8402 -0.3945 -0.7822
 1989SOL     OW17425   1.630   1.569  14.705  0.1863  0.2937  0.1682
 1989SOL    HW117426   1.540   1.574  14.674  0.2192 -2.6929 -0.3696
 1989SOL    HW217427   1.621   1.585  14.799 -0.5063  4.9114 -0.6980
 1990SOL     OW17428   1.538   3.445   6.502 -0.2277 -0.0050  0.4088
 1990SOL    HW117429   1.448   3.416   6.518 -0.1776 -0.9761 -0.9847
 1990SOL    HW217430   1.577   3.441   6.589  0.0671 -1.8294  0.1941
 1991SOL     OW17431   1.306   1.869   6.386 -0.1013 -0.2153  0.0228
 1991SOL    HW117432   1.340   1.792   6.340  0.4614 -0.4807  0.8783
 1991SOL    HW217433   1.337   1.865   6.476  0.5649  0.4189 -0.1783
 1992SOL     OW17434   4.108   2.761   3.542  0.5170  0.1732  0.1189
 1992SOL    HW117435   4.041   2.734   3.479  0.5822  0.4701 -0.0808
 1992SOL    HW217436   4.064   2.829   3.593  2.0140 -0.2027  1.9257
 1993SOL     OW17437   1.365   1.944   2.356  0.2146 -0.2239  0.4189
 1993SOL    HW117438   1.375   1.979   2.444 -1.4990 -0.2188  0.6272
 1993SOL    HW217439   1.269   1.950   2.348  0.1729 -3.1102 -1.5719
 1994SOL     OW17440   0.548   3.455   3.354  0.3935 -0.3367  0.0591
 1994SOL    HW117441   0.468   3.417   3.317 -1.2613  2.3756  0.8207
 1994SOL    HW217442   0.543   3.433   3.447  0.4497  0.0857  0.1648
 1995SOL     OW17443   1.814   2.640   9.972  0.4367  0.1060 -0.3834
 1995SOL    HW117444   1.901   2.679   9.964  0.4746  0.8275  3.5193
 1995SOL    HW217445   1.801   2.652  10.066 -0.7271  1.9457 -0.7750
 1996SOL     OW17446   4.551   4.218   0.811  0.2272  0.2465 -0.2083
 1996SOL    HW117447   4.569   4.191   0.901 -0.0482  4.0742  1.0156
 1996SOL    HW217448   4.582   4.309   0.803 -2.7926  1.3984  0.9805
 1997SOL     OW17449   0.782   2.365  12.094 -0.0727 -0.4396 -0.0753
 1997SOL    HW117450   0.760   2.277  12.065 -0.4584 -0.0471 -0.9654
 1997SOL    HW217451   0.715   2.368  12.162 -1.1171  0.1062 -1.1419
 1998SOL     OW17452   0.320   2.347  14.096  0.9562  0.0321  0.0415
 1998SOL    HW117453   0.363   2.326  14.013 -0.2170 -1.4708 -0.1891
 1998SOL    HW217454   0.384   2.413  14.122  1.6265 -0.5082 -0.2235
 1999SOL     OW17455   3.259   4.185   3.843 -0.2304 -0.1184 -0.2704
 1999SOL    HW117456   3.336   4.167   3.896  0.6820  0.1719 -1.5072
 1999SOL    HW217457   3.291   4.192   3.753 -1.1927  1.7538 -0.4755
 2000SOL     OW17458   4.215   0.589   7.916  0.2409 -0.0934 -0.2102
 2000SOL    HW117459   4.297   0.638   7.928  0.1869 -0.3662  1.3550
 2000SOL    HW217460   4.155   0.664   7.918 -0.3457 -0.5765  0.3845
 2001SOL     OW17461   3.855   1.985  12.409  0.2848 -0.4828 -0.5572
 2001SOL    HW117462   3.835   2.048  12.479 -1.9756  0.0447 -1.6771
 2001SOL    HW217463   3.829   1.905  12.454 -1.7085 -0.3951 -1.5391
 2002SOL     OW17464   0.283   1.971  17.435 -0.9680  0.5807 -0.5829
 2002SOL    HW117465   0.221   2.012  17.495 -0.6468 -0.0536  0.1838
 2002SOL    HW217466   0.325   2.048  17.397  0.8473  0.9205  2.0981
 2003SOL     OW17467   1.689   2.543   4.508 -0.3408 -0.4168  0.0468
 2003SOL    HW117468   1.650   2.477   4.451  1.2002 -1.7345  0.5421
 2003SOL    HW217469   1.660   2.522   4.597 -1.1606  0.9926  0.1190
 2004SOL     OW17470   4.149   0.755   1.532 -0.1575 -0.0316 -0.0391
 2004SOL    HW117471   4.159   0.819   1.461 -3.0343  1.6716  1.0745
 2004SOL    HW217472   4.187   0.674   1.500 -2.8640 -0.9207 -1.0277
 2005SOL     OW17473   1.490   0.230   4.584 -0.1430  0.3706 -0.2756
 2005SOL    HW117474   1.585   0.224   4.573 -0.0366  0.3188  0.7463
 2005SOL    HW217475   1.469   0.220   4.676  1.0659  2.0621  0.1823
 2006SOL     OW17476   1.140   4.607   5.768  0.3220 -0.1276  0.0237
 2006SOL    HW117477   1.101   4.690   5.796 -1.4817 -1.2355  0.7872
 2006SOL    HW217478   1.222   4.620   5.816 -0.7770  1.3620  1.5027
 2007SOL     OW17479   3.177   3.605   8.810 -0.3258 -0.2990  0.5956
 2007SOL    HW117480   3.155   3.518   8.844  1.8989 -1.5316 -1.1495
 2007SOL    HW217481   3.267   3.588   8.782 -0.5645 -0.6903  0.0664
 2008SOL     OW17482   2.056   3.043   5.257  0.4428  0.9500  0.3858
 2008SOL    HW117483   2.135   3.061   5.207 -0.7062 -2.2497 -2.6059
 2008SOL    HW217484   1.991   3.032   5.187 -0.9786  4.5677  1.1644
 2009SOL     OW17485   2.687   1.800   9.416 -0.4488  0.2255  0.2833
 2009SOL    HW117486   2.730   1.719   9.440  0.8337  1.8054  3.2560
 2009SOL    HW217487   2.616   1.756   9.368  0.4217 -1.0593  0.1811
 2010SOL     OW17488   4.181   0.955   1.336  0.0197 -0.4565 -0.5745
 2010SOL    HW117489   4.249   1.021   1.339  1.0785 -1.5502 -0.3303
 2010SOL    HW217490   4.100   1.001   1.358  0.7608 -0.5077  2.1825
 2011SOL     OW17491   2.839   2.761   6.312 -0.3119 -0.1128 -0.0049
 2011SOL    HW117492   2.769   2.696   6.313 -0.7260  0.3209 -3.3786
 2011SOL    HW217493   2.829   2.804   6.228  2.0619  1.8683  0.7002
 2012SOL     OW17494   1.942   0.988  10.345 -0.2854 -0.7061 -0.2729
 2012SOL    HW117495   2.017   1.022  10.394 -0.2231 -0.0872 -0.8038
 2012SOL    HW217496   1.875   1.050  10.374  0.9453  1.2403 -1.6615
 2013SOL     OW17497   1.824   2.710  13.948  0.2296 -0.3008 -0.5585
 2013SOL    HW117498   1.846   2.644  14.015 -0.9560  0.5401  0.6581
 2013SOL    HW217499   1.799   2.778  14.010  2.0856  2.2190 -2.5990
 2014SOL     OW17500   0.110   3.522   8.812  0.5126 -0.1790  0.3849
 2014SOL    HW117501   0.070   3.435   8.807 -1.7982  0.9913 -1.3636
 2014SOL    HW217502   0.172   3.516   8.740 -1.0661  1.5441 -1.1117
 2015SOL     OW17503   3.387   0.427  14.315 -0.5975 -0.0512 -0.0197
 2015SOL    HW117504   3.316   0.421  14.251 -1.1054  0.1044  0.5211
 2015SOL    HW217505   3.393   0.337  14.346 -1.5631  0.6487  2.2191
 2016SOL     OW17506   2.939   3.337   5.415 -0.4455 -0.4346  0.2487
 2016SOL    HW117507   2.904   3.426   5.423  1.0074  0.1097  0.5283
 2016SOL    HW217508   2.879   3.309   5.346  0.5223  1.9379 -1.5584
 2017SOL     OW17509   3.645   2.332  10.101 -0.3285 -0.3780  0.3569
 2017SOL    HW117510   3.654   2.345  10.195  1.1802 -1.3822  0.3444
 2017SOL    HW217511   3.710   2.397  10.076 -2.4752  0.1868 -3.9351
 2018SOL     OW17512   3.868   4.373   3.044 -0.2844 -0.5006 -0.0004
 2018SOL    HW117513   3.906   4.305   2.988  1.4875 -0.7852  1.5411
 2018SOL    HW217514   3.781   4.382   3.006 -1.3813 -1.5375  2.2608
 2019SOL     OW17515   2.879   3.424   1.434  0.0991 -0.2092  0.1329
 2019SOL    HW117516   2.862   3.509   1.473  0.2515  0.6570 -1.7121
 2019SOL    HW217517   2.895   3.452   1.345  0.1856 -2.4191 -0.5522
 2020SOL     OW17518   2.212   3.935   9.131 -0.1097  0.1158 -0.9449
 2020SOL    HW117519   2.239   3.880   9.058 -1.7141 -1.0464 -0.6614
 2020SOL    HW217520   2.299   3.954   9.164 -1.0953  0.9192  1.1956
 2021SOL     OW17521   1.177   0.001   9.818  0.2948  0.0798  0.4322
 2021SOL    HW117522   1.200   0.094   9.824  0.2093  0.0647  0.9857
 2021SOL    HW217523   1.233   4.687   9.885 -1.7302  0.7349  2.4799
 2022SOL     OW17524   2.105   3.749   9.388  0.3271  0.2030  0.8256
 2022SOL    HW117525   2.171   3.818   9.390  0.3106  0.2987 -2.7621
 2022SOL    HW217526   2.153   3.692   9.448 -0.9102 -0.3814  1.2671
 2023SOL     OW17527   1.881   2.585  12.727  0.4744  0.1540 -0.4872
 2023SOL    HW117528   1.838   2.580  12.813  3.0288 -0.5708  0.7390
 2023SOL    HW217529   1.959   2.636  12.750  0.1011  1.4476 -2.0616
 2024SOL     OW17530   3.455   2.483   3.957 -0.5247 -0.1237  0.4072
 2024SOL    HW117531   3.468   2.554   3.894  0.6853 -0.0803  0.7108
 2024SOL    HW217532   3.437   2.413   3.894 -1.7252  1.2758 -0.8279
 2025SOL     OW17533   4.159   2.202  16.200 -0.0019  0.0376 -0.0123
 2025SOL    HW117534   4.239   2.237  16.239  1.2465 -1.0857 -1.6006
 2025SOL    HW217535   4.132   2.279  16.150  0.2404  0.9984  1.3417
 2026SOL     OW17536   4.083   2.091   3.981  0.3162  0.0311  0.2135
 2026SOL    HW117537   4.054   2.004   4.009 -0.4927 -0.6504 -2.7096
 2026SOL    HW217538   4.169   2.068   3.945  1.0337  2.3276  0.4701
 2027SOL     OW17539   0.979   3.974   4.799 -0.5274  0.3242 -0.4734
 2027SOL    HW117540   1.007   3.992   4.889 -1.3711  0.3104 -0.2084
 2027SOL    HW217541   0.952   4.062   4.773 -0.3102  0.4431 -0.3014
 2028SOL     OW17542   4.692   0.296   6.210 -0.1791 -0.8543  0.1672
 2028SOL    HW117543   0.045   0.288   6.268  0.1214 -1.9702 -0.3886
 2028SOL    HW217544   4.618   0.278   6.268  1.1222  1.1696  2.4738
 2029SOL     OW17545   3.395   3.508   3.265  0.1130 -0.4458  0.2417
 2029SOL    HW117546   3.306   3.517   3.300  0.0700 -0.1332  0.0438
 2029SOL    HW217547   3.390   3.480   3.174 -0.6235  1.0445 -0.1677
 2030SOL     OW17548   1.941   1.816  13.555 -0.0643  0.1668  0.4310
 2030SOL    HW117549   1.917   1.754  13.485  0.7900  1.4364 -0.9966
 2030SOL    HW217550   1.871   1.807  13.619 -1.2096 -0.0846 -0.8373
 2031SOL     OW17551   0.090   1.623   4.438 -0.1306  0.0094 -0.1299
 2031SOL    HW117552   0.081   1.562   4.365  1.5639 -0.3443 -0.0531
 2031SOL    HW217553   4.722   1.652   4.447  0.0639  1.3256 -2.4056
 2032SOL     OW17554   3.434   3.497  14.185  0.1276  0.0919 -0.5757
 2032SOL    HW117555   3.483   3.572  14.151 -2.7543  1.3793 -1.9557
 2032SOL    HW217556   3.423   3.526  14.276  1.8773 -2.9712  0.6128
 2033SOL     OW17557   3.136   0.263  14.745 -0.0683  0.2777 -0.0807
 2033SOL    HW117558   3.197   0.309  14.802 -0.1252 -0.5815  0.6731
 2033SOL    HW217559   3.117   0.186  14.798 -1.3119 -0.3424 -1.4278
 2034SOL     OW17560   3.745   4.335  14.123 -0.1533  0.0968  0.4509
 2034SOL    HW117561   3.816   4.356  14.184  1.3421 -2.1720 -0.5360
 2034SOL    HW217562   3.703   4.259  14.161  0.3093 -0.1993  0.3642
 2035SOL     OW17563   1.786   4.322   9.522  0.0427  0.1321  0.6594
 2035SOL    HW117564   1.710   4.371   9.491 -0.3986 -2.0265 -1.6679
 2035SOL    HW217565   1.843   4.325   9.445 -0.3193  0.8362  0.4174
 2036SOL     OW17566   2.150   1.839   7.534  0.1423 -0.5055  0.3874
 2036SOL    HW117567   2.084   1.900   7.567  0.4587  0.6288 -1.0857
 2036SOL    HW217568   2.099   1.758   7.537 -0.6534 -0.0786 -1.8579
 2037SOL     OW17569   2.226   1.178   2.600  0.2012  0.1337  0.6871
 2037SOL    HW117570   2.230   1.087   2.630  3.2959  0.9976  2.8871
 2037SOL    HW217571   2.136   1.174   2.568  0.7453 -3.4400 -0.3464
 2038SOL     OW17572   3.573   0.155   3.125 -0.6210  0.7846  0.4261
 2038SOL    HW117573   3.585   0.210   3.048 -1.4466 -1.1841 -1.1037
 2038SOL    HW217574   3.478   0.165   3.131 -0.6359 -0.0216  1.5582
 2039SOL     OW17575   3.561   2.463   5.273 -0.3169  0.3220 -0.4130
 2039SOL    HW117576   3.534   2.536   5.217  0.8868  0.6411 -0.5822
 2039SOL    HW217577   3.653   2.489   5.281 -0.0592 -1.0987  1.1922
 2040SOL     OW17578   2.913   0.510   9.239  0.3405  0.0969 -0.0688
 2040SOL    HW117579   2.821   0.483   9.237  0.9015 -1.7631 -2.1914
 2040SOL    HW217580   2.921   0.535   9.147  0.0917 -2.5335 -0.8210
 2041SOL     OW17581   4.434   0.744   7.905  0.6907  0.0808  0.2710
 2041SOL    HW117582   4.476   0.732   7.820  0.4281 -2.4705  0.4828
 2041SOL    HW217583   4.507   0.790   7.946 -0.6838  1.6457  0.9692
 2042SOL     OW17584   0.233   1.320   2.484 -0.0989  0.8714  0.3253
 2042SOL    HW117585   0.219   1.319   2.390  1.7012 -2.2053  0.1053
 2042SOL    HW217586   0.320   1.282   2.493 -0.0400  0.7914 -0.6649
 2043SOL     OW17587   4.414   3.372   4.368 -0.1694 -0.0678  0.0642
 2043SOL    HW117588   4.320   3.373   4.348 -0.1638 -1.3709  0.0191
 2043SOL    HW217589   4.452   3.313   4.302  1.4039 -1.1752  1.9690
 2044SOL     OW17590   1.364   4.235   6.906 -0.0557  0.0279 -0.1432
 2044SOL    HW117591   1.371   4.143   6.931 -2.4149 -0.2279 -0.4226
 2044SOL    HW217592   1.444   4.282   6.931  0.1123 -1.1669  1.6239
 2045SOL     OW17593   4.594   2.321   7.950 -0.2532  0.1104 -0.1366
 2045SOL    HW117594   4.504   2.327   7.918 -0.0496  1.2907 -0.4643
 2045SOL    HW217595   4.641   2.392   7.907 -0.7766  1.0593  0.8798
 2046SOL     OW17596   1.202   3.963   8.072 -0.8133 -0.3666 -0.3529
 2046SOL    HW117597   1.284   3.960   8.121 -1.0268  0.6034  0.0646
 2046SOL    HW217598   1.153   3.906   8.131 -0.5490 -0.8351 -0.5833
 2047SOL     OW17599   3.577   1.316   4.968  0.1477  0.1108 -0.2083
 2047SOL    HW117600   3.547   1.384   4.908  1.3832  1.0070  0.1783
 2047SOL    HW217601   3.570   1.240   4.911 -0.7822 -1.5437  2.0913
 2048SOL     OW17602   0.763   0.081   4.828  0.3420 -0.0037 -0.3615
 2048SOL    HW117603   0.814   0.081   4.747 -0.5319  0.8440 -0.9294
 2048SOL    HW217604   0.769   4.718   4.868 -0.4759  1.0785  2.1051
 2049SOL     OW17605   0.809   2.575   2.772 -0.5636  0.0839 -0.2802
 2049SOL    HW117606   0.772   2.565   2.860 -1.1776 -1.2809 -0.6966
 2049SOL    HW217607   0.905   2.573   2.781 -0.4673  0.7066 -1.1609
 2050SOL     OW17608   2.434   0.430   3.159 -0.3589  0.2297  0.4760
 2050SOL    HW117609   2.503   0.470   3.211 -0.2314 -1.5128  1.6602
 2050SOL    HW217610   2.479   0.366   3.105 -0.4397  0.6514 -0.0862
 2051SOL     OW17611   4.382   4.075  15.462  0.5274 -0.2412 -0.3614
 2051SOL    HW117612   4.445   4.119  15.520  0.7513 -0.0135 -0.7790
 2051SOL    HW217613   4.439   4.011  15.420 -0.1875 -1.4180  0.4556
 2052SOL     OW17614   2.016   3.704   3.466 -0.4108  0.6734 -0.1849
 2052SOL    HW117615   1.986   3.734   3.552  1.8162 -3.2207  1.9462
 2052SOL    HW217616   2.008   3.609   3.472 -0.9367  0.5873 -2.2446
 2053SOL     OW17617   0.763   4.283   2.994  0.5016  0.3411  0.0393
 2053SOL    HW117618   0.783   4.196   2.959  0.2187  0.8964 -1.4992
 2053SOL    HW217619   0.748   4.266   3.087  2.8752  0.1352  0.3867
 2054SOL     OW17620   0.168   4.054   3.746 -0.2181 -0.1959 -0.6287
 2054SOL    HW117621   0.183   4.043   3.652 -1.1653  0.2985 -0.8384
 2054SOL    HW217622   0.196   3.974   3.791  0.0657  1.0145  1.3439
 2055SOL     OW17623   1.300   0.385  15.370 -0.6194  0.5625  0.1481
 2055SOL    HW117624   1.298   0.338  15.453  2.0349 -1.6421 -0.9927
 2055SOL    HW217625   1.232   0.337  15.323 -0.0006 -1.4291  1.2790
 2056SOL     OW17626   2.042   1.292  15.091 -0.1829  0.5711  0.0472
 2056SOL    HW117627   2.030   1.271  14.998 -2.2094 -1.6537  0.8437
 2056SOL    HW217628   2.053   1.209  15.137  0.1950  0.8671  0.4954
 2057SOL     OW17629   2.327   3.136   5.221 -0.4192 -0.2215  0.5285
 2057SOL    HW117630   2.344   3.202   5.288 -1.2158  0.8305 -0.2857
 2057SOL    HW217631   2.310   3.063   5.280 -1.9460  1.0729  1.6990
 2058SOL     OW17632   0.828   2.589  14.286  0.5597 -0.0641  0.2042
 2058SOL    HW117633   0.875   2.509  14.309 -1.7814 -1.0151  1.6612
 2058SOL    HW217634   0.905   2.646  14.274 -0.0940  0.6482 -0.6067
 2059SOL     OW17635   1.438   3.350  15.913 -0.2470  0.3954 -0.2226
 2059SOL    HW117636   1.466   3.415  15.848 -1.1049  0.2235 -0.7641
 2059SOL    HW217637   1.382   3.302  15.852 -1.2008  2.6887 -1.1361
 2060SOL     OW17638   1.694   0.522   3.459 -0.5854  0.1056 -0.5999
 2060SOL    HW117639   1.760   0.554   3.520 -0.1319 -0.5591 -0.7448
 2060SOL    HW217640   1.759   0.490   3.397 -0.7352 -1.1654 -0.0985
 2061SOL     OW17641   1.397   2.282   6.673 -0.1107 -0.2536  1.0691
 2061SOL    HW117642   1.362   2.339   6.604  2.0445 -2.2921 -1.6930
 2061SOL    HW217643   1.326   2.285   6.738 -0.7219  0.7785  0.3576
 2062SOL     OW17644   1.804   1.982   1.465  0.4694  0.1462 -0.7062
 2062SOL    HW117645   1.791   1.923   1.539 -0.3319  1.9757  0.5760
 2062SOL    HW217646   1.863   1.927   1.413  2.7052  0.5391  1.4341
 2063SOL     OW17647   1.674   3.217   6.320  0.4993  0.1239 -0.5257
 2063SOL    HW117648   1.649   3.297   6.367 -1.0153 -0.8000  0.2547
 2063SOL    HW217649   1.615   3.157   6.367  0.9147  1.2542  1.4070
 2064SOL     OW17650   0.141   4.226   0.135  0.0455 -0.0980 -0.4823
 2064SOL    HW117651   0.072   4.160   0.129  0.6988 -1.0640  2.4636
 2064SOL    HW217652   0.093   4.303   0.166  1.6453  0.3210  0.9487
 2065SOL     OW17653   3.139   3.142   7.657 -0.4743  0.6763  0.1846
 2065SOL    HW117654   3.052   3.163   7.621 -1.1679 -1.7555  0.3865
 2065SOL    HW217655   3.135   3.174   7.747 -0.4899 -0.3368  0.5515
 2066SOL     OW17656   3.293   1.663   1.355  0.7830 -0.1577  0.4800
 2066SOL    HW117657   3.253   1.705   1.432 -2.0212  0.1771 -1.1628
 2066SOL    HW217658   3.358   1.729   1.329 -1.3660  1.7143 -0.1361
 2067SOL     OW17659   4.052   1.549   4.837  0.0702 -0.3171  0.1464
 2067SOL    HW117660   4.011   1.590   4.761  1.1034  1.4538  0.5523
 2067SOL    HW217661   4.099   1.477   4.794  1.6820 -0.0359  1.4135
 2068SOL     OW17662   0.690   0.087   6.427 -0.1674 -0.1833 -0.0453
 2068SOL    HW117663   0.617   0.148   6.417  0.6032  0.6314 -0.7443
 2068SOL    HW217664   0.703   0.059   6.337  1.6669 -0.8413  0.4189
 2069SOL     OW17665   3.232   0.571   4.370  0.0379 -0.1208 -0.0833
 2069SOL    HW117666   3.238   0.667   4.377  0.6134 -0.2309  0.9500
 2069SOL    HW217667   3.147   0.568   4.327 -0.0676 -0.8634  0.1767
 2070SOL     OW17668   2.002   0.747   5.189 -0.1241  0.2617  0.6949
 2070SOL    HW117669   1.965   0.769   5.103  1.9861  2.0511  0.2428
 2070SOL    HW217670   1.934   0.692   5.228 -1.0803  0.7622 -0.2529
 2071SOL     OW17671   0.189   1.812  15.546 -0.4673 -0.0078  0.0572
 2071SOL    HW117672   0.138   1.838  15.470 -0.7738  2.8470  1.2218
 2071SOL    HW217673   0.144   1.857  15.618  0.3792  1.3697 -0.2751
 2072SOL     OW17674   3.824   0.773   0.561  0.0528 -0.3478 -0.2038
 2072SOL    HW117675   3.812   0.818   0.644  3.6695  1.4245 -0.6490
 2072SOL    HW217676   3.816   0.679   0.581  1.4763 -0.7158 -1.2827
 2073SOL     OW17677   2.066   3.003  16.118  0.1474  0.0782  0.2495
 2073SOL    HW117678   2.087   2.927  16.172 -0.5801 -1.8732 -2.1965
 2073SOL    HW217679   2.038   2.959  16.038 -0.8370  0.7710  0.2052
 2074SOL     OW17680   2.698   3.233   4.003  0.0922  0.1279 -0.3535
 2074SOL    HW117681   2.665   3.263   3.918  0.2702 -0.5532 -0.6658
 2074SOL    HW217682   2.775   3.290   4.010 -0.8146  1.1840  0.8410
 2075SOL     OW17683   4.343   0.129   1.305  0.3042 -0.7736 -0.0855
 2075SOL    HW117684   4.424   0.098   1.345  0.7808 -1.7030 -1.7841
 2075SOL    HW217685   4.291   0.132   1.385  2.6592 -0.2719  1.4374
 2076SOL     OW17686   4.165   3.736   8.694  0.1659  0.1010  0.1275
 2076SOL    HW117687   4.246   3.787   8.696  0.7870 -0.9413  2.3674
 2076SOL    HW217688   4.157   3.716   8.788  0.8866  0.6375  0.3008
 2077SOL     OW17689   3.782   3.982   7.514  0.0543  0.4772 -0.2784
 2077SOL    HW117690   3.740   3.954   7.433 -3.5272  0.3343  1.6479
 2077SOL    HW217691   3.873   3.985   7.485  0.8343 -1.3775  1.9648
 2078SOL     OW17692   4.679   3.754   8.758  0.1744 -0.2009 -0.5697
 2078SOL    HW117693   4.716   3.678   8.803 -0.2847 -1.1868 -1.8495
 2078SOL    HW217694   0.031   3.792   8.712 -0.3400  2.4114  0.7340
 2079SOL     OW17695   1.984   4.305   9.166  0.0581  0.0395  0.5662
 2079SOL    HW117696   2.033   4.299   9.248  1.3218  0.8857 -0.1268
 2079SOL    HW217697   2.037   4.241   9.119  1.6781  2.4189 -0.8422
 2080SOL     OW17698   4.253   4.612  17.587  0.0844  0.1854 -0.6144
 2080SOL    HW117699   4.301   4.634  17.507  0.2291  1.2286 -0.2430
 2080SOL    HW217700   4.263   4.690  17.642  1.0203  0.2274 -0.8516
 2081SOL     OW17701   1.334   1.673   4.646 -1.0427 -0.0382  0.1622
 2081SOL    HW117702   1.352   1.644   4.736 -1.0878  0.4248  0.3169
 2081SOL    HW217703   1.346   1.585   4.611 -2.6903 -1.0242  2.0665
 2082SOL     OW17704   2.368   1.046   8.678 -0.2926 -0.2692  0.0290
 2082SOL    HW117705   2.278   1.063   8.648  0.3773  1.3323 -1.0190
 2082SOL    HW217706   2.379   0.951   8.672 -0.0594 -0.3323  1.3625
 2083SOL     OW17707   0.430   2.423  13.028  0.3555  0.1509 -0.2153
 2083SOL    HW117708   0.480   2.500  13.001  0.1762  1.2560  2.5820
 2083SOL    HW217709   0.435   2.429  13.124  1.9633  1.0568 -0.3508
 2084SOL     OW17710   1.567   1.017  17.180 -0.7617 -0.0757  0.1273
 2084SOL    HW117711   1.550   1.026  17.086  0.4406 -2.6298 -0.3143
 2084SOL    HW217712   1.520   0.936  17.199  0.6039 -1.1277 -0.9647
 2085SOL     OW17713   2.052   2.552  12.983  0.0719 -0.0738  0.0383
 2085SOL    HW117714   2.136   2.560  13.027  0.5886  1.0084 -1.1490
 2085SOL    HW217715   2.003   2.507  13.052 -0.8438 -0.8050 -1.0639
 2086SOL     OW17716   1.977   3.674   7.422 -0.9535 -0.1653 -0.4659
 2086SOL    HW117717   2.003   3.765   7.438 -0.3290 -0.6355  1.1991
 2086SOL    HW217718   2.061   3.641   7.391 -1.0879 -1.6632  0.7802
 2087SOL     OW17719   2.993   0.553   3.095  0.0441  0.5006 -0.1431
 2087SOL    HW117720   3.083   0.585   3.095  0.8618 -1.8075 -0.6593
 2087SOL    HW217721   3.013   0.465   3.065 -0.4681  0.3929 -0.1717
 2088SOL     OW17722   1.922   3.497   0.090  0.9578 -0.1640 -0.4019
 2088SOL    HW117723   1.843   3.518   0.140 -1.0852  1.0234 -4.0977
 2088SOL    HW217724   1.939   3.412   0.130 -0.7646 -0.1557  0.3484
 2089SOL     OW17725   0.567   3.461   1.472  0.4844 -0.6077  0.3082
 2089SOL    HW117726   0.611   3.385   1.509  0.8581  0.0064  1.1024
 2089SOL    HW217727   0.638   3.513   1.436  1.3032 -0.3875  2.3149
 2090SOL     OW17728   3.605   3.480   8.172 -0.6701  0.3182  0.0721
 2090SOL    HW117729   3.572   3.555   8.221 -0.3130  3.3597 -4.4024
 2090SOL    HW217730   3.638   3.518   8.091 -0.4751  1.4334  0.6799
 2091SOL     OW17731   0.159   2.044   5.256 -0.2805 -0.2520  0.0064
 2091SOL    HW117732   0.162   2.051   5.351 -0.4563  0.9206 -0.0801
 2091SOL    HW217733   0.252   2.048   5.232 -0.3971 -1.8970 -0.7305
 2092SOL     OW17734   4.616   3.276   1.731  0.4486 -0.3858 -0.1735
 2092SOL    HW117735   4.611   3.186   1.699  0.0820 -0.9077  1.3607
 2092SOL    HW217736   4.709   3.281   1.755  1.0288 -2.0161 -2.0747
 2093SOL     OW17737   3.576   3.178   9.181 -0.0802  0.2026  0.6318
 2093SOL    HW117738   3.513   3.186   9.253  1.1805  0.3186  1.7148
 2093SOL    HW217739   3.527   3.143   9.106 -0.8575  1.9869  0.3075
 2094SOL     OW17740   0.628   3.448   2.767  0.5396 -0.0052 -1.0740
 2094SOL    HW117741   0.603   3.399   2.689  1.0284 -1.0865 -0.5586
 2094SOL    HW217742   0.558   3.413   2.824  1.3333 -0.8798 -0.6292
 2095SOL     OW17743   4.197   2.645  12.152  0.1639  0.0094 -0.1632
 2095SOL    HW117744   4.116   2.600  12.129  0.6761 -1.7266  1.3869
 2095SOL    HW217745   4.172   2.736  12.138 -0.0958 -0.1669 -0.8151
 2096SOL     OW17746   0.571   0.293  11.877  0.1590  0.1252  0.9854
 2096SOL    HW117747   0.582   0.313  11.784  0.5866  0.3289  1.0771
 2096SOL    HW217748   0.629   0.217  11.885 -2.8073 -1.9733  2.3937
 2097SOL     OW17749   2.064   3.651   6.149 -0.2530 -0.4810  0.3667
 2097SOL    HW117750   1.998   3.676   6.084 -0.3170 -0.2499  0.5200
 2097SOL    HW217751   2.137   3.617   6.098 -1.9665 -2.0865 -1.0089
 2098SOL     OW17752   0.608   4.208   9.741 -0.2561 -0.7057  0.1072
 2098SOL    HW117753   0.685   4.161   9.710  0.2596  1.0384 -1.2468
 2098SOL    HW217754   0.556   4.131   9.768  0.6442 -0.7239  1.7989
 2099SOL     OW17755   0.870   2.659   7.266  0.4474 -0.5848  0.0412
 2099SOL    HW117756   0.837   2.637   7.353  0.5222 -0.1745  0.1697
 2099SOL    HW217757   0.892   2.572   7.232  0.2161 -1.2062  1.4720
 2100SOL     OW17758   4.215   1.273   4.049 -0.6144  0.2704 -0.2538
 2100SOL    HW117759   4.192   1.192   4.093 -0.5852  0.1148 -0.5258
 2100SOL    HW217760   4.276   1.239   3.983  1.1189  2.7114  0.0732
 2101SOL     OW17761   2.279   3.813   3.496  0.6154  0.1653 -0.0091
 2101SOL    HW117762   2.298   3.777   3.409  0.0975 -2.2996  0.8803
 2101SOL    HW217763   2.206   3.753   3.513  1.2635 -1.6645 -3.5745
 2102SOL     OW17764   0.210   2.458   8.801  0.3835 -0.9456  0.4355
 2102SOL    HW117765   0.257   2.518   8.744 -2.3667 -0.1870 -1.0436
 2102SOL    HW217766   0.221   2.499   8.887 -0.0423  1.1650 -0.5178
 2103SOL     OW17767   1.284   1.173   6.285  0.4602  0.0482  0.0714
 2103SOL    HW117768   1.225   1.202   6.215  1.6605  1.2496 -0.4445
 2103SOL    HW217769   1.371   1.183   6.248  0.1367  1.1269 -0.3919
 2104SOL     OW17770   0.036   2.710   4.977  0.0225 -0.4491  0.5223
 2104SOL    HW117771   0.079   2.627   4.955  0.6156  0.0279 -0.1126
 2104SOL    HW217772   0.051   2.703   5.072  0.3932 -1.5109  0.3912
 2105SOL     OW17773   0.983   4.517   6.923 -0.5806  0.5314 -0.3030
 2105SOL    HW117774   0.904   4.470   6.952 -1.2037  0.6164 -1.8442
 2105SOL    HW217775   1.049   4.493   6.988 -0.3566 -0.8683 -1.0324
 2106SOL     OW17776   1.823   2.738  13.399  0.5136  0.3372  0.3549
 2106SOL    HW117777   1.809   2.828  13.372  1.6861  0.4161  0.0289
 2106SOL    HW217778   1.733   2.723  13.429 -0.4136 -1.9645 -3.5841
 2107SOL     OW17779   2.416   1.835   0.303  0.4291  0.1934 -0.0150
 2107SOL    HW117780   2.357   1.821   0.377  1.3501 -0.9386  0.4971
 2107SOL    HW217781   2.352   1.836   0.232 -0.5046  1.2852  0.8413
 2108SOL     OW17782   3.813   4.388  12.321  0.3544 -0.3179 -0.2825
 2108SOL    HW117783   3.848   4.432  12.398 -0.4918  1.4569 -0.9135
 2108SOL    HW217784   3.894   4.345  12.292  1.5856  1.2011  0.8531
 2109SOL     OW17785   1.465   0.994  11.793  0.7199  0.1749 -0.2853
 2109SOL    HW117786   1.371   1.011  11.784  0.5902 -0.5263 -0.2800
 2109SOL    HW217787   1.460   0.981  11.699 -0.8182 -0.4805 -0.1225
 2110SOL     OW17788   0.448   1.733   3.132  0.0298 -0.5318 -0.3146
 2110SOL    HW117789   0.529   1.682   3.140  1.1276  0.9922 -1.8722
 2110SOL    HW217790   0.411   1.731   3.220  1.4541 -0.5938  0.2942
 2111SOL     OW17791   2.583   4.082   4.472 -0.2734  0.1678  0.0859
 2111SOL    HW117792   2.577   3.988   4.452 -2.3012  0.2675  0.1506
 2111SOL    HW217793   2.629   4.097   4.554 -0.7153 -0.5582  0.4707
 2112SOL     OW17794   3.580   2.715   2.941 -0.7203 -0.6740  0.1443
 2112SOL    HW117795   3.556   2.629   2.908 -0.2968 -0.9515  0.5651
 2112SOL    HW217796   3.672   2.707   2.916  0.1330 -2.0263  3.7898
 2113SOL     OW17797   3.303   1.502   2.771  0.6796  0.2127 -0.2852
 2113SOL    HW117798   3.383   1.552   2.785 -0.0380 -0.1943  5.1519
 2113SOL    HW217799   3.334   1.439   2.706 -0.3453  1.0697 -1.6227
 2114SOL     OW17800   1.381   3.390   7.295 -0.2056 -0.1971  0.3323
 2114SOL    HW117801   1.416   3.479   7.292 -1.2096  0.1500 -0.7858
 2114SOL    HW217802   1.306   3.395   7.354 -0.9581 -1.9673 -0.4812
 2115SOL     OW17803   3.001   0.634  11.799 -0.1945 -0.1627  0.5504
 2115SOL    HW117804   3.089   0.667  11.780 -0.1573 -0.2084  0.6447
 2115SOL    HW217805   2.993   0.593  11.713 -2.6535  0.8833  0.2894
 2116SOL     OW17806   2.498   3.577  10.408 -0.1275 -0.9823  0.5254
 2116SOL    HW117807   2.467   3.547  10.323  1.2272  0.9369 -0.6351
 2116SOL    HW217808   2.424   3.624  10.447 -0.0853 -0.2615 -0.2565
 2117SOL     OW17809   3.281   4.433  11.791 -0.5151  0.2109  0.3438
 2117SOL    HW117810   3.343   4.419  11.863  0.7389 -1.0371 -0.9768
 2117SOL    HW217811   3.278   4.524  11.764  2.1471 -0.5036 -2.3924
 2118SOL     OW17812   0.805   2.537  14.019  0.1930 -0.0751 -0.1224
 2118SOL    HW117813   0.814   2.630  13.995  3.1336 -0.2667  0.3392
 2118SOL    HW217814   0.810   2.552  14.114  0.8253  0.6663 -0.2716
 2119SOL     OW17815   1.803   3.601   3.308 -0.0958 -0.6453  0.7196
 2119SOL    HW117816   1.842   3.515   3.292  0.3526 -0.0763 -1.2541
 2119SOL    HW217817   1.866   3.658   3.352  1.0976 -1.5619  0.1915
 2120SOL     OW17818   4.316   0.775   6.880  0.2404 -0.7142  0.2904
 2120SOL    HW117819   4.341   0.682   6.882 -1.9356 -1.3578 -2.3227
 2120SOL    HW217820   4.319   0.775   6.976 -0.2898  2.6418  0.3157
 2121SOL     OW17821   2.520   1.948   7.001 -0.4026 -0.3019  0.1005
 2121SOL    HW117822   2.587   1.887   6.968  0.5445  1.4551 -1.2126
 2121SOL    HW217823   2.528   2.006   6.925 -1.3289 -0.6602 -0.2715
 2122SOL     OW17824   2.184   3.419  10.129 -0.2414 -0.1941  0.1925
 2122SOL    HW117825   2.185   3.355  10.059 -0.0789  0.1159 -0.0864
 2122SOL    HW217826   2.277   3.435  10.138 -0.5076  0.9210  0.9720
 2123SOL     OW17827   3.981   2.694   9.079 -0.0899  0.2694  0.2677
 2123SOL    HW117828   4.001   2.763   9.015  1.4846  0.0778  0.5703
 2123SOL    HW217829   3.969   2.741   9.162 -1.4089 -2.0752  1.4070
 2124SOL     OW17830   0.664   4.030   8.033  0.7708  0.3654 -0.0906
 2124SOL    HW117831   0.720   3.984   8.096  1.4601 -0.6365 -1.4465
 2124SOL    HW217832   0.706   3.998   7.954 -1.0711 -1.1525 -0.4602
 2125SOL     OW17833   4.159   3.823   7.247  0.0056 -0.2547 -0.4037
 2125SOL    HW117834   4.207   3.837   7.165 -0.8710  2.4322 -0.4621
 2125SOL    HW217835   4.200   3.746   7.286 -0.3627 -1.1487 -1.7370
 2126SOL     OW17836   1.769   2.793   3.969 -0.1766  0.6617 -0.4494
 2126SOL    HW117837   1.824   2.772   4.044  1.0802  3.1713 -0.6601
 2126SOL    HW217838   1.691   2.738   3.978  1.1597 -1.4445 -1.9225
 2127SOL     OW17839   3.158   4.212   4.645  0.1733 -0.6233  0.1306
 2127SOL    HW117840   3.213   4.282   4.611  1.9798 -1.3651  1.5263
 2127SOL    HW217841   3.120   4.251   4.724  0.5234 -1.5554  0.7480
 2128SOL     OW17842   1.801   1.325   2.309  0.1196 -0.1893 -0.0447
 2128SOL    HW117843   1.811   1.345   2.215 -0.6335  0.0629 -0.0721
 2128SOL    HW217844   1.839   1.407   2.340  1.1578 -1.0817  1.0296
 2129SOL     OW17845   1.668   1.817  10.480  0.5188 -0.3658 -0.7737
 2129SOL    HW117846   1.593   1.764  10.452  0.2902 -0.2260 -0.4337
 2129SOL    HW217847   1.640   1.837  10.570  1.1461 -0.9835 -0.4466
 2130SOL     OW17848   1.764   2.363   3.095 -0.6252 -0.3806 -0.2366
 2130SOL    HW117849   1.730   2.405   3.016  0.8079  0.9836 -0.1169
 2130SOL    HW217850   1.831   2.304   3.059  0.4701  1.3648 -1.0356
 2131SOL     OW17851   4.533   1.679   2.318  0.2304 -0.1298 -0.2520
 2131SOL    HW117852   4.454   1.697   2.267  0.1511 -1.1075 -0.4884
 2131SOL    HW217853   4.526   1.584   2.328 -0.5959 -0.1179 -0.7511
 2132SOL     OW17854   2.708   0.993   5.063  0.0423 -0.0148  0.1153
 2132SOL    HW117855   2.670   1.030   4.984 -1.0754 -0.0838  0.6178
 2132SOL    HW217856   2.652   0.916   5.071 -0.9902  0.6805 -0.3800
 2133SOL     OW17857   3.502   1.138   4.333 -0.2915  0.2057 -0.2354
 2133SOL    HW117858   3.455   1.104   4.410 -0.2921  3.1434  1.0375
 2133SOL    HW217859   3.437   1.125   4.265 -0.9188 -1.2934  0.6445
 2134SOL     OW17860   4.489   3.801   4.370 -0.1792  0.1083  0.3261
 2134SOL    HW117861   4.417   3.764   4.321  1.3678  0.6639 -2.3498
 2134SOL    HW217862   4.496   3.886   4.325  1.2712 -0.1211  0.1207
 2135SOL     OW17863   3.936   1.411   5.568 -0.3723 -0.3980  0.1755
 2135SOL    HW117864   3.919   1.488   5.515 -2.0345 -0.7172  0.2424
 2135SOL    HW217865   3.862   1.406   5.628 -0.9414 -0.6948 -0.5481
 2136SOL     OW17866   1.029   4.448   3.246  0.8713 -0.6009  0.4979
 2136SOL    HW117867   1.018   4.353   3.236  1.3391 -0.7622  1.5583
 2136SOL    HW217868   1.093   4.450   3.317  1.2753 -0.3113  0.1224
 2137SOL     OW17869   2.240   2.291  12.965 -0.0023  0.1008  0.1087
 2137SOL    HW117870   2.281   2.360  13.017  0.6240  0.5370 -0.9497
 2137SOL    HW217871   2.313   2.242  12.928 -0.2733 -0.2682  0.0573
 2138SOL     OW17872   4.604   3.579   4.969  0.0911 -0.1716  0.0247
 2138SOL    HW117873   4.533   3.527   4.932  0.3116 -0.3066 -0.2073
 2138SOL    HW217874   4.583   3.562   5.061  1.2424  0.9981  0.5023
 2139SOL     OW17875   4.558   1.906   3.820 -0.0562 -0.1302  0.4887
 2139SOL    HW117876   4.609   1.958   3.758  0.5035  0.9335  1.8405
 2139SOL    HW217877   4.503   1.850   3.765  1.7886 -0.1180 -1.3680
 2140SOL     OW17878   4.683   1.475   7.449 -0.1626  0.0973 -0.0721
 2140SOL    HW117879   4.627   1.552   7.448 -2.2465 -1.4248  1.7725
 2140SOL    HW217880   4.686   1.454   7.542  1.6349  0.0038 -0.1482
 2141SOL     OW17881   1.946   1.810   7.771  0.6206 -0.4741 -0.5027
 2141SOL    HW117882   1.887   1.840   7.840 -0.4806  1.6027 -2.3420
 2141SOL    HW217883   1.982   1.894   7.740 -0.3638  0.3426  0.5568
 2142SOL     OW17884   2.896   3.563   9.621  0.2995 -0.8703 -0.7503
 2142SOL    HW117885   2.941   3.614   9.554  3.8300 -1.4890  1.1551
 2142SOL    HW217886   2.806   3.594   9.621  0.6278  0.0756  3.2651
 2143SOL     OW17887   4.210   1.987  10.866  0.3548 -0.0840 -0.1274
 2143SOL    HW117888   4.195   1.898  10.835 -0.4992  0.0171  0.0029
 2143SOL    HW217889   4.306   1.988  10.867  0.3701  0.3199 -1.1346
 2144SOL     OW17890   4.129   1.999   7.603  0.3745  0.1645 -0.2208
 2144SOL    HW117891   4.090   1.912   7.609  0.2120  0.3671  1.6923
 2144SOL    HW217892   4.180   1.977   7.525 -0.5127 -0.6222 -0.5838
 2145SOL     OW17893   0.975   1.389   8.695 -0.7269 -0.0351 -0.5014
 2145SOL    HW117894   0.978   1.317   8.631  0.6481 -0.6070  0.2200
 2145SOL    HW217895   0.920   1.456   8.653 -2.1107 -0.8565 -0.0169
 2146SOL     OW17896   3.548   0.780   2.859  0.7333 -0.4033  0.8952
 2146SOL    HW117897   3.571   0.749   2.947  2.7726 -0.0244  0.4979
 2146SOL    HW217898   3.587   0.720   2.796 -1.6060 -1.2422  0.2261
 2147SOL     OW17899   0.952   3.291   7.841 -0.2500  0.4793 -0.1782
 2147SOL    HW117900   1.027   3.242   7.807  1.8749  2.0955  2.1623
 2147SOL    HW217901   0.979   3.383   7.845 -1.6060  0.8728 -0.0398
 2148SOL     OW17902   3.282   0.846   4.352 -1.1915 -0.1734  0.4891
 2148SOL    HW117903   3.293   0.886   4.266 -0.1455  0.4517  0.9146
 2148SOL    HW217904   3.368   0.812   4.376 -1.1297 -0.3284  0.0533
 2149SOL     OW17905   2.281   3.281   1.489  0.1130 -0.0222 -0.2441
 2149SOL    HW117906   2.352   3.235   1.444 -0.1416  0.0794 -0.7500
 2149SOL    HW217907   2.236   3.320   1.413  1.5707 -0.4702 -1.3511
 2150SOL     OW17908   3.067   4.479   1.345  0.0761  0.0847 -0.1271
 2150SOL    HW117909   3.062   4.397   1.394  0.5285 -0.4963 -1.0441
 2150SOL    HW217910   3.137   4.530   1.386 -1.0324  2.0546 -0.6462
 2151SOL     OW17911   2.657   1.905   1.329  0.0040 -0.2642 -0.5074
 2151SOL    HW117912   2.573   1.864   1.311  0.9445 -2.7006  0.5721
 2151SOL    HW217913   2.649   1.993   1.292 -0.7109 -0.1853 -0.1622
 2152SOL     OW17914   1.330   4.686   2.551  0.2686  0.6340 -0.9126
 2152SOL    HW117915   1.296   4.641   2.629 -0.0583  0.2846 -1.2565
 2152SOL    HW217916   1.274   4.650   2.482  0.7050 -2.1738  0.1898
 2153SOL     OW17917   3.246   2.009   6.442 -0.1541 -0.1704  0.0342
 2153SOL    HW117918   3.317   2.035   6.501  0.5559 -0.8240 -0.5190
 2153SOL    HW217919   3.178   1.987   6.506  0.0390 -0.5083  0.1269
 2154SOL     OW17920   1.303   1.508   7.617 -0.3617 -0.0623  0.2595
 2154SOL    HW117921   1.249   1.434   7.588  0.8258 -0.4060 -1.0799
 2154SOL    HW217922   1.321   1.561   7.540 -1.9734 -0.8584 -0.6601
 2155SOL     OW17923   2.344   0.135   8.409 -0.0652 -0.3760  0.5702
 2155SOL    HW117924   2.355   0.135   8.504  0.4346  4.1149  0.4981
 2155SOL    HW217925   2.264   0.083   8.399 -0.4893  0.4698 -0.3937
 2156SOL     OW17926   4.201   0.752  12.062  0.7469  0.0905 -0.6214
 2156SOL    HW117927   4.287   0.766  12.023  1.6762  0.4339  1.5446
 2156SOL    HW217928   4.149   0.789  11.991  2.6835  0.0383 -2.0425
 2157SOL     OW17929   4.131   1.600   3.553  0.0495  0.6260  0.0404
 2157SOL    HW117930   4.053   1.558   3.518  0.4254  0.4109 -0.5358
 2157SOL    HW217931   4.179   1.628   3.475  1.4241 -1.3223  0.1953
 2158SOL     OW17932   3.394   3.350   4.943  0.3848 -0.1661  0.0324
 2158SOL    HW117933   3.380   3.442   4.922  2.2921 -0.1533 -1.1967
 2158SOL    HW217934   3.441   3.319   4.866  0.1117 -1.4347  0.3674
 2159SOL     OW17935   1.488   1.236   3.934 -0.1801  0.3563  0.0358
 2159SOL    HW117936   1.554   1.291   3.891 -1.7456  0.9939 -1.5655
 2159SOL    HW217937   1.471   1.296   4.007 -0.8939 -2.5297  2.2484
 2160SOL     OW17938   3.737   2.940   3.255 -0.2369 -0.1171  0.0220
 2160SOL    HW117939   3.662   2.908   3.205  0.1607  0.5696 -1.0041
 2160SOL    HW217940   3.700   3.023   3.284 -2.6231 -1.4543  0.7724
 2161SOL     OW17941   1.852   0.791  16.261 -0.2522  0.2680 -0.1374
 2161SOL    HW117942   1.823   0.822  16.175  0.1267  2.2235  0.4345
 2161SOL    HW217943   1.844   0.696  16.259  0.2584  0.2057  1.2357
 2162SOL     OW17944   4.651   3.468   9.020  0.1562  0.0489  0.2835
 2162SOL    HW117945   4.683   3.380   9.041 -0.4680 -0.1884  0.2482
 2162SOL    HW217946   4.720   3.506   8.965  0.6071 -0.6337  0.3732
 2163SOL     OW17947   0.301   4.704   4.792  0.7414  0.1281 -0.1032
 2163SOL    HW117948   0.268   0.023   4.713  1.3946  0.7037 -0.0618
 2163SOL    HW217949   0.310   0.047   4.860 -0.2124  0.2808 -0.1275
 2164SOL     OW17950   2.942   3.440  12.552 -0.8590  0.2164  0.1145
 2164SOL    HW117951   2.911   3.349  12.562 -1.7655  0.4619 -0.4624
 2164SOL    HW217952   2.924   3.474  12.640 -1.1993 -1.2071  0.6000
 2165SOL     OW17953   1.798   0.384   5.510 -0.6710 -0.1790 -0.3124
 2165SOL    HW117954   1.823   0.426   5.592  0.3712  1.0760 -1.2614
 2165SOL    HW217955   1.880   0.393   5.460 -0.4071 -0.5269  0.0620
 2166SOL     OW17956   2.790   0.219  12.937  0.3381  0.1719  0.1702
 2166SOL    HW117957   2.840   0.215  12.855  0.1921  1.0620  0.0377
 2166SOL    HW217958   2.866   0.237  12.992  2.2733 -2.2472 -1.7160
 2167SOL     OW17959   2.460   1.518   6.057  0.1742 -0.0488  0.1822
 2167SOL    HW117960   2.555   1.529   6.051  0.2339 -0.0129  1.3223
 2167SOL    HW217961   2.443   1.531   6.150 -1.9654  1.1644 -0.3494
 2168SOL     OW17962   1.487   2.460   6.164  0.0717 -0.4096 -0.5189
 2168SOL    HW117963   1.489   2.377   6.212  1.2459  0.0414  0.2345
 2168SOL    HW217964   1.407   2.452   6.113 -0.4486  0.6405  0.1203
 2169SOL     OW17965   2.351   0.177   6.004  0.0011  0.1783  0.5258
 2169SOL    HW117966   2.415   0.132   5.949 -1.7379  0.9720 -2.1765
 2169SOL    HW217967   2.299   0.102   6.036 -1.0490  1.1231  1.0346
 2170SOL     OW17968   3.261   0.705   3.658 -0.0667 -0.5570 -0.1484
 2170SOL    HW117969   3.331   0.691   3.594 -1.0307 -0.7247 -1.1432
 2170SOL    HW217970   3.312   0.684   3.737  1.0027 -0.2853 -0.7580
 2171SOL     OW17971   3.002   2.409   0.855 -1.1263 -0.5317 -0.0903
 2171SOL    HW117972   2.927   2.355   0.878 -1.7157  1.2306  2.1039
 2171SOL    HW217973   3.026   2.368   0.772 -1.4694 -1.2659  0.1768
 2172SOL     OW17974   2.518   2.073   5.363  0.5186 -0.0074  0.7560
 2172SOL    HW117975   2.431   2.112   5.355  1.3428  2.0450  1.7910
 2172SOL    HW217976   2.567   2.145   5.325 -0.8818 -0.5424 -2.0741
 2173SOL     OW17977   0.405   4.541   4.158  0.4233 -0.2456  0.0513
 2173SOL    HW117978   0.329   4.593   4.132  0.4972  0.1099  0.5536
 2173SOL    HW217979   0.366   4.454   4.154 -0.0738 -0.0155 -0.1380
 2174SOL     OW17980   0.516   1.819  17.500 -0.5298 -0.1439  0.3367
 2174SOL    HW117981   0.455   1.890  17.482 -2.0313 -1.4312  0.3892
 2174SOL    HW217982   0.562   1.811  17.417 -0.1363  0.2960  0.5107
 2175SOL     OW17983   3.529   3.698   0.413 -0.2584  0.3194 -0.0504
 2175SOL    HW117984   3.621   3.700   0.389  0.7462  1.1555  3.9994
 2175SOL    HW217985   3.530   3.697   0.508  2.0611  1.0714 -0.0859
 2176SOL     OW17986   1.423   3.797   4.944  0.2778  0.2142  0.3845
 2176SOL    HW117987   1.403   3.773   4.854  2.0658 -0.7570  0.2375
 2176SOL    HW217988   1.386   3.886   4.944  2.2048  1.0241  0.3510
 2177SOL     OW17989   1.197   4.582   2.338  0.3885 -0.6204  0.2354
 2177SOL    HW117990   1.125   4.519   2.328  0.5449 -0.6970 -0.4264
 2177SOL    HW217991   1.145   4.658   2.311  1.3276  0.5295  1.6266
 2178SOL     OW17992   0.453   2.742  13.464  0.2690  0.5640  0.1030
 2178SOL    HW117993   0.408   2.677  13.410  1.9310  1.0011 -1.8478
 2178SOL    HW217994   0.389   2.809  13.489  0.6271 -0.2882  3.2744
 2179SOL     OW17995   3.232   2.075   5.250  0.6230 -0.0980 -0.1060
 2179SOL    HW117996   3.231   2.086   5.155 -1.3872  4.3421  0.3832
 2179SOL    HW217997   3.237   1.980   5.250 -0.5352 -0.1676  0.5238
 2180SOL     OW17998   3.916   1.124   8.837  0.0990  0.4192 -0.0723
 2180SOL    HW117999   3.839   1.162   8.795 -0.2597 -1.6675 -1.3332
 2180SOL    HW218000   3.975   1.126   8.761 -1.0304  0.2936 -0.9662
 2181SOL     OW18001   1.537   3.426   6.132  0.3378  0.4998  0.5185
 2181SOL    HW118002   1.511   3.358   6.194  0.5882  0.1626  0.2463
 2181SOL    HW218003   1.472   3.411   6.063 -0.4093 -0.5470  1.4381
 2182SOL     OW18004   4.051   2.389   7.142  0.0478  0.0210 -0.1014
 2182SOL    HW118005   4.063   2.475   7.183  1.3371  0.7588 -2.0675
 2182SOL    HW218006   3.982   2.349   7.195 -0.2857  1.0709  0.2654
 2183SOL     OW18007   1.030   1.252   7.172  0.9683 -0.5199 -0.6373
 2183SOL    HW118008   0.947   1.288   7.140  1.3036  1.2849  0.5144
 2183SOL    HW218009   1.035   1.173   7.119 -1.2582 -1.5411  0.6826
 2184SOL     OW18010   2.631   1.837   3.706  0.4680  0.0039 -0.5300
 2184SOL    HW118011   2.563   1.861   3.768 -1.3387 -0.8916 -2.1531
 2184SOL    HW218012   2.596   1.864   3.621  0.2424 -1.6517 -0.9605
 2185SOL     OW18013   1.749   0.306   7.822 -0.2630  0.2607  0.0598
 2185SOL    HW118014   1.818   0.371   7.831 -1.9104  2.0309 -0.1663
 2185SOL    HW218015   1.672   0.359   7.843 -0.4697 -0.0244  0.0229
 2186SOL     OW18016   3.786   1.004   0.193 -0.6204 -0.0289 -0.0057
 2186SOL    HW118017   3.843   1.064   0.145 -0.9214 -0.0445 -0.3823
 2186SOL    HW218018   3.842   1.011   0.270  1.1652 -2.3432 -1.0671
 2187SOL     OW18019   3.605   4.386   7.499  0.0869 -0.0831 -0.2056
 2187SOL    HW118020   3.545   4.325   7.542 -1.8811  0.9420 -1.4927
 2187SOL    HW218021   3.605   4.349   7.411  2.1957 -1.8229  0.5360
 2188SOL     OW18022   3.331   0.875   6.796  0.3486 -0.0098 -0.1077
 2188SOL    HW118023   3.366   0.870   6.707 -1.6427  0.2534 -0.8963
 2188SOL    HW218024   3.409   0.914   6.835  1.3023 -0.7369 -1.2703
 2189SOL     OW18025   3.900   2.465  16.140  0.0989  0.0149  0.5617
 2189SOL    HW118026   3.936   2.553  16.145  1.4797 -0.4092 -1.8360
 2189SOL    HW218027   3.914   2.429  16.228 -0.8945 -2.8945 -0.4430
 2190SOL     OW18028   3.965   0.768   5.665 -0.0182  0.3758  0.1686
 2190SOL    HW118029   3.881   0.728   5.643  0.4044 -0.2030 -0.3952
 2190SOL    HW218030   3.941   0.853   5.701 -1.0355 -0.0713  0.5412
 2191SOL     OW18031   3.955   4.456  10.218  0.5942 -0.0134  0.0048
 2191SOL    HW118032   3.910   4.439  10.135  0.9517 -2.2300  0.2587
 2191SOL    HW218033   3.963   4.551  10.214 -2.1127  0.1428 -1.7742
 2192SOL     OW18034   3.097   3.062   9.201  0.4421  0.3065  0.2777
 2192SOL    HW118035   3.145   2.988   9.164 -0.3951  0.5559 -1.2903
 2192SOL    HW218036   3.014   3.019   9.221  0.8057 -0.8559 -0.7323
 2193SOL     OW18037   4.301   1.680   4.670 -0.3475 -0.1658 -0.0442
 2193SOL    HW118038   4.245   1.603   4.662  1.0409 -1.1431 -0.2862
 2193SOL    HW218039   4.289   1.703   4.763 -0.4052  0.5428 -0.2272
 2194SOL     OW18040   0.815   1.112  15.724  0.2870 -0.1182  0.6867
 2194SOL    HW118041   0.843   1.128  15.634 -3.2084 -0.0622 -0.3888
 2194SOL    HW218042   0.843   1.021  15.739 -1.2119 -0.9002 -1.3159
 2195SOL     OW18043   4.006   1.686   3.790 -0.1312  0.0283 -0.1848
 2195SOL    HW118044   4.025   1.595   3.810  0.9789  0.1386 -0.7282
 2195SOL    HW218045   4.044   1.694   3.702 -1.3597  0.7120 -0.6539
 2196SOL     OW18046   4.003   4.035   3.684 -0.8410  0.2682 -0.5368
 2196SOL    HW118047   4.041   4.048   3.597  2.9547 -1.8018  0.7985
 2196SOL    HW218048   4.082   4.027   3.737 -0.2838 -1.0162 -1.5519
 2197SOL     OW18049   0.245   0.973   6.064  0.7016  0.6022  0.3084
 2197SOL    HW118050   0.217   0.911   5.997 -1.1242  1.2415  0.4698
 2197SOL    HW218051   0.302   0.913   6.113 -0.3899 -2.1229 -1.7832
 2198SOL     OW18052   0.987   4.223   3.854  0.3342 -0.2739 -0.2653
 2198SOL    HW118053   0.906   4.250   3.812  0.4410 -0.3982 -0.5515
 2198SOL    HW218054   1.047   4.220   3.779  0.2103  2.7270 -0.4519
 2199SOL     OW18055   3.785   4.389   5.845  0.0158 -0.2031  1.0037
 2199SOL    HW118056   3.801   4.444   5.922  2.5497 -1.2736  1.2172
 2199SOL    HW218057   3.701   4.426   5.816  0.0408 -2.2987 -1.7339
 2200SOL     OW18058   2.450   1.247   2.806  0.2334 -0.3584  0.4045
 2200SOL    HW118059   2.413   1.275   2.722  0.3475  0.1915  0.5366
 2200SOL    HW218060   2.378   1.254   2.868 -0.4571 -0.2229 -0.4136
 2201SOL     OW18061   4.531   4.074   4.639 -0.0630 -0.4350 -0.6503
 2201SOL    HW118062   4.440   4.100   4.656  0.4570 -1.6757  3.9573
 2201SOL    HW218063   4.576   4.156   4.658  0.0347 -0.3827 -1.1267
 2202SOL     OW18064   4.288   3.179   2.436  0.0453 -0.7849 -0.2458
 2202SOL    HW118065   4.302   3.264   2.393  0.3487 -1.0652 -0.6956
 2202SOL    HW218066   4.343   3.185   2.514 -0.1953 -0.6215 -0.0836
 2203SOL     OW18067   1.874   3.670   8.688 -0.2977 -0.4437 -0.2770
 2203SOL    HW118068   1.934   3.687   8.761 -0.4544  0.9226 -0.4728
 2203SOL    HW218069   1.936   3.677   8.616 -0.0533 -1.3751 -0.1494
 2204SOL     OW18070   1.983   4.127   6.863  0.5568  0.1742 -0.2468
 2204SOL    HW118071   1.928   4.198   6.896  1.7885  0.9615  0.1157
 2204SOL    HW218072   2.058   4.174   6.827 -0.6582  1.5992 -0.9080
 2205SOL     OW18073   2.905   2.129   6.934  0.5560  0.0611 -0.3918
 2205SOL    HW118074   2.849   2.174   6.998 -1.5081 -1.7591 -0.9164
 2205SOL    HW218075   2.845   2.145   6.861  0.7783 -0.6919 -0.7375
 2206SOL     OW18076   4.081   1.807  11.523  0.1892  0.3837  0.2053
 2206SOL    HW118077   4.081   1.767  11.437 -1.0417 -0.4256  0.5744
 2206SOL    HW218078   3.989   1.805  11.549  0.2257 -0.2994  0.2721
 2207SOL     OW18079   3.339   1.004  10.823  0.1552  0.0562 -0.3523
 2207SOL    HW118080   3.389   0.991  10.903  1.2372  2.1527 -0.6594
 2207SOL    HW218081   3.253   1.025  10.859 -1.0466 -2.0509 -2.0220
 2208SOL     OW18082   2.599   0.251  15.781 -0.0042  0.4514  0.1721
 2208SOL    HW118083   2.609   0.165  15.821 -1.0833 -0.1711 -0.9211
 2208SOL    HW218084   2.680   0.298  15.802  1.1793  0.1463 -3.7488
 2209SOL     OW18085   4.480   4.160   7.289  0.1278  0.4252 -0.2261
 2209SOL    HW118086   4.521   4.210   7.219  1.3205 -1.6640 -1.0142
 2209SOL    HW218087   4.386   4.176   7.285  0.1761  0.9672  0.8343
 2210SOL     OW18088   1.911   2.732   4.205  0.3922 -0.5065  0.0952
 2210SOL    HW118089   1.886   2.729   4.298 -0.5421  2.3915 -0.0534
 2210SOL    HW218090   1.996   2.690   4.218  1.1940  0.8586 -0.7852
 2211SOL     OW18091   2.814   2.881   8.429  0.4570  0.4805 -0.3156
 2211SOL    HW118092   2.768   2.890   8.346 -0.8978  2.0201  0.6020
 2211SOL    HW218093   2.904   2.861   8.402 -0.5193 -1.2873 -2.2149
 2212SOL     OW18094   4.006   0.689  16.606 -0.0282  0.1573  0.1608
 2212SOL    HW118095   3.951   0.761  16.637 -0.8053 -0.3601 -0.0316
 2212SOL    HW218096   4.028   0.634  16.681  0.1804  0.6596  0.4722
 2213SOL     OW18097   0.373   2.298   9.307 -0.4040 -0.2646 -0.3326
 2213SOL    HW118098   0.300   2.265   9.255 -0.6738  2.4253 -1.6442
 2213SOL    HW218099   0.330   2.355   9.371  0.7011 -3.0005  2.8663
 2214SOL     OW18100   0.274   2.390   5.212 -0.6702  0.2581  0.1902
 2214SOL    HW118101   0.346   2.446   5.185 -0.1489  0.2767  1.6040
 2214SOL    HW218102   0.313   2.313   5.255 -0.3003  1.3413  1.7955
 2215SOL     OW18103   0.328   4.002  10.731 -0.0268 -0.2695  0.1299
 2215SOL    HW118104   0.338   3.968  10.642 -2.7718  1.0489 -0.6711
 2215SOL    HW218105   0.247   3.959  10.759  0.5971 -0.1901  2.1039
 2216SOL     OW18106   0.346   2.289   0.643 -0.4380  0.7460 -0.5069
 2216SOL    HW118107   0.434   2.326   0.651  0.2425 -1.1156  0.7578
 2216SOL    HW218108   0.317   2.309   0.554 -0.8552 -0.7981 -0.7213
 2217SOL     OW18109   1.890   0.377  15.471  0.9064  0.2082  0.2647
 2217SOL    HW118110   1.898   0.402  15.563 -0.5425  0.9673  0.1886
 2217SOL    HW218111   1.910   0.284  15.472 -2.3110 -0.4569  1.1100
 2218SOL     OW18112   1.990   0.522   7.352  0.2076 -0.5257  0.0456
 2218SOL    HW118113   2.000   0.427   7.346  1.4325 -0.3390 -0.6892
 2218SOL    HW218114   1.899   0.531   7.381  0.1398  0.1200 -0.3648
 2219SOL     OW18115   1.667   0.790   0.437  0.0330  0.9202 -0.3882
 2219SOL    HW118116   1.716   0.709   0.425 -0.4407  0.6854 -0.7178
 2219SOL    HW218117   1.722   0.856   0.394 -0.7239  0.8085 -1.5367
 2220SOL     OW18118   4.302   1.833   5.831  0.5985 -0.0786  0.4588
 2220SOL    HW118119   4.343   1.790   5.907 -0.2540 -1.5462  0.0840
 2220SOL    HW218120   4.209   1.832   5.855  0.1750 -0.7063 -1.2290
 2221SOL     OW18121   0.217   3.204   6.863 -0.1393  0.4639 -0.0162
 2221SOL    HW118122   0.288   3.231   6.921 -0.5196  2.0728 -0.3030
 2221SOL    HW218123   0.144   3.203   6.925  0.6151 -0.7378  0.8383
 2222SOL     OW18124   1.884   1.524   1.624  0.2573 -0.6100 -0.4792
 2222SOL    HW118125   1.891   1.446   1.570  0.5965 -2.5083  2.2679
 2222SOL    HW218126   1.789   1.529   1.636  0.1328 -1.6929 -1.0519
 2223SOL     OW18127   4.467   4.539   0.082 -0.4513 -0.0190  0.2304
 2223SOL    HW118128   4.485   4.633   0.080 -1.8269  0.2299 -0.9166
 2223SOL    HW218129   4.376   4.540   0.051 -1.0720  0.7620  2.1157
 2224SOL     OW18130   3.201   3.720  15.477  0.7829  0.2508  0.4358
 2224SOL    HW118131   3.276   3.697  15.532 -0.1300  0.0362  1.5629
 2224SOL    HW218132   3.197   3.657  15.405  0.0720  1.0019 -0.1819
 2225SOL     OW18133   4.122   0.126  16.544  0.0965  0.0212  0.0032
 2225SOL    HW118134   4.199   0.183  16.546  0.4366 -0.5194  1.6707
 2225SOL    HW218135   4.163   0.041  16.559 -2.6271 -1.3782 -0.5325
 2226SOL     OW18136   1.406   2.574   7.801 -0.6199 -0.0151  0.2137
 2226SOL    HW118137   1.374   2.628   7.729  0.9781 -0.1792 -0.6168
 2226SOL    HW218138   1.484   2.618   7.836 -1.4372  1.2616  0.4330
 2227SOL     OW18139   2.277   3.499   4.534 -0.0092  0.2077 -0.0295
 2227SOL    HW118140   2.367   3.523   4.511  0.0485 -0.3457 -0.3827
 2227SOL    HW218141   2.266   3.410   4.501  0.1199  0.6120 -1.1798
 2228SOL     OW18142   3.992   1.942   2.668 -0.0247  0.1889  0.4107
 2228SOL    HW118143   3.980   1.848   2.685 -1.3059  0.6899  2.2006
 2228SOL    HW218144   3.966   1.945   2.575  2.7377  0.1726 -0.3692
 2229SOL     OW18145   2.560   4.119   7.519  0.0777  0.0997 -0.5496
 2229SOL    HW118146   2.557   4.052   7.451  1.2294 -0.6951  0.1824
 2229SOL    HW218147   2.612   4.188   7.477  2.0497 -0.7992  0.4188
 2230SOL     OW18148   2.954   4.119   9.155  0.6364  0.7147 -0.6190
 2230SOL    HW118149   3.021   4.052   9.144 -0.1511 -0.0746 -0.5645
 2230SOL    HW218150   2.896   4.093   9.084 -0.3683 -0.4597  0.6321
 2231SOL     OW18151   4.679   0.785   6.924 -0.0514  0.1135 -0.2664
 2231SOL    HW118152   4.677   0.834   7.006 -1.8700 -0.3639 -0.0156
 2231SOL    HW218153   4.619   0.841   6.875  0.7276  0.4904 -0.7956
 2232SOL     OW18154   2.198   3.498   5.201  0.0794 -0.0812  0.5571
 2232SOL    HW118155   2.260   3.558   5.160  0.0696 -0.0823  0.5405
 2232SOL    HW218156   2.218   3.429   5.138  0.5771 -1.7203  2.5180
 2233SOL     OW18157   2.218   4.353  11.599  0.0546 -0.0733 -0.2522
 2233SOL    HW118158   2.172   4.280  11.557 -0.0730 -0.3234  0.3102
 2233SOL    HW218159   2.195   4.354  11.692 -0.6890  2.0802 -0.4762
 2234SOL     OW18160   2.655   2.596   7.370 -0.1552 -0.2398 -0.4052
 2234SOL    HW118161   2.609   2.513   7.383  0.0538 -0.5131 -1.3594
 2234SOL    HW218162   2.683   2.591   7.278  2.6439  0.8745  0.3807
 2235SOL     OW18163   3.480   2.633  17.514  0.3175  0.4945  0.1510
 2235SOL    HW118164   3.400   2.686  17.512  0.2616  0.4367  0.8446
 2235SOL    HW218165   3.488   2.639  17.418 -0.8745 -1.1812 -0.0446
 2236SOL     OW18166   3.971   0.214   3.677 -0.2226  0.1411  0.1573
 2236SOL    HW118167   3.971   0.120   3.658 -1.2498  0.6459 -2.3366
 2236SOL    HW218168   3.969   0.246   3.587 -0.9875 -1.7783 -0.5066
 2237SOL     OW18169   1.550   3.926   6.156 -0.3880  0.0024  0.8977
 2237SOL    HW118170   1.554   3.897   6.065 -1.8501  0.8928  0.5623
 2237SOL    HW218171   1.531   3.847   6.206  0.1436  1.1293  2.8889
 2238SOL     OW18172   3.825   1.025   6.057 -0.1729 -0.8558 -1.1163
 2238SOL    HW118173   3.742   0.987   6.084  0.5172 -0.7342  1.2158
 2238SOL    HW218174   3.800   1.117   6.051 -1.8130 -1.1172  1.7144
 2239SOL     OW18175   1.548   0.223   5.396  0.0634  0.3820 -0.7052
 2239SOL    HW118176   1.644   0.231   5.392  0.2783 -1.4710  0.5860
 2239SOL    HW218177   1.531   0.294   5.458  1.2133  1.9785 -2.2265
 2240SOL     OW18178   3.743   0.783   8.021 -0.0230  1.0603  0.4899
 2240SOL    HW118179   3.763   0.745   7.935 -1.9799  3.7812 -1.1330
 2240SOL    HW218180   3.821   0.761   8.072 -0.4039 -0.4269  0.4394
 2241SOL     OW18181   2.676   1.122  15.447 -0.2780 -0.5043  0.3268
 2241SOL    HW118182   2.698   1.134  15.354 -3.8653 -0.0897 -0.4636
 2241SOL    HW218183   2.730   1.184  15.497 -1.5882  1.7782 -1.1208
 2242SOL     OW18184   1.142   0.252   6.822 -0.0005 -0.5129  0.1361
 2242SOL    HW118185   1.060   0.218   6.858 -1.0943  0.7898 -1.0950
 2242SOL    HW218186   1.127   0.224   6.732  0.4324 -1.0473  0.2309
 2243SOL     OW18187   2.924   3.319  12.971 -0.3514 -0.5326  0.0565
 2243SOL    HW118188   2.984   3.362  13.032  0.1526 -0.4307 -0.5195
 2243SOL    HW218189   2.929   3.383  12.900  0.5803 -1.5741 -0.8036
 2244SOL     OW18190   3.498   4.458   4.266 -0.2173  0.1802  0.0492
 2244SOL    HW118191   3.579   4.447   4.316 -0.4905  1.2210  0.7123
 2244SOL    HW218192   3.459   4.537   4.304  0.2441  0.6186 -0.3778
 2245SOL     OW18193   0.208   3.284  17.468  0.1961  0.0720  0.6758
 2245SOL    HW118194   0.148   3.232  17.415  1.8681 -2.2140  1.0351
 2245SOL    HW218195   0.180   3.267  17.558 -0.6882 -0.4955  0.2974
 2246SOL     OW18196   3.651   4.701  13.164 -0.4721 -1.3354 -0.0335
 2246SOL    HW118197   3.735   0.022  13.160 -1.1222  0.1088  2.4566
 2246SOL    HW218198   3.684   4.614  13.187  0.6347 -1.3539 -1.7106
 2247SOL     OW18199   0.486   3.601   8.804 -0.4066  0.1021 -0.3971
 2247SOL    HW118200   0.504   3.544   8.729 -0.1984  0.0189 -0.2860
 2247SOL    HW218201   0.517   3.687   8.773  0.6951 -0.1693 -0.0441
 2248SOL     OW18202   3.496   3.803   4.596  0.0821 -0.3085  0.1450
 2248SOL    HW118203   3.466   3.753   4.520 -1.4218  2.5730 -1.1564
 2248SOL    HW218204   3.407   3.818   4.627 -0.3511 -0.6413 -0.9364
 2249SOL     OW18205   3.758   1.743   8.648 -0.1753  0.2396 -0.0586
 2249SOL    HW118206   3.751   1.839   8.647  0.7454  0.3152  0.2037
 2249SOL    HW218207   3.668   1.716   8.631 -0.2907  1.4850 -1.4505
 2250SOL     OW18208   3.999   3.601   3.601 -0.2242 -0.0307 -0.1786
 2250SOL    HW118209   3.981   3.527   3.658 -0.3578 -1.4747 -2.0965
 2250SOL    HW218210   4.059   3.647   3.660 -1.1070  1.8065 -0.7188
 2251SOL     OW18211   2.792   0.915   5.766 -0.2589  0.0889  0.1230
 2251SOL    HW118212   2.735   0.967   5.710  0.0993  2.4415  1.9523
 2251SOL    HW218213   2.853   0.883   5.699 -1.8186 -1.6654 -0.4271
 2252SOL     OW18214   2.861   0.228  12.468 -0.5313  0.8306 -0.6586
 2252SOL    HW118215   2.777   0.228  12.514 -0.6629 -0.5824 -0.9017
 2252SOL    HW218216   2.838   0.300  12.409 -1.6175  2.2782  1.5388
 2253SOL     OW18217   2.813   4.007   6.111  0.7743 -0.3748 -0.0471
 2253SOL    HW118218   2.886   4.000   6.050  2.7863 -0.1834  2.3059
 2253SOL    HW218219   2.859   3.997   6.195  3.0337  1.5108 -1.0639
 2254SOL     OW18220   0.394   3.987   9.730 -0.4343 -0.1561 -0.1404
 2254SOL    HW118221   0.389   3.960   9.822  0.5371 -0.5466 -0.2023
 2254SOL    HW218222   0.425   3.904   9.695 -0.0487 -1.2669  2.8102
 2255SOL     OW18223   2.663   2.359   0.271  0.0297 -0.4047 -0.4293
 2255SOL    HW118224   2.686   2.303   0.196  0.5596 -1.9653  0.8896
 2255SOL    HW218225   2.698   2.445   0.251 -0.6869 -0.2836 -1.1687
 2256SOL     OW18226   3.417   3.095   3.063 -0.6569 -0.5271  0.5472
 2256SOL    HW118227   3.442   3.008   3.091 -0.4929 -0.5543  0.3165
 2256SOL    HW218228   3.410   3.085   2.968 -0.9500 -0.5602  0.5714
 2257SOL     OW18229   0.743   4.465   8.520 -0.1623 -0.3178  0.5504
 2257SOL    HW118230   0.758   4.395   8.584 -0.7551 -1.5395 -0.6354
 2257SOL    HW218231   0.814   4.526   8.539 -0.5742  0.6253 -0.9606
 2258SOL     OW18232   1.542   3.835   5.871 -0.4003 -0.5033  0.3161
 2258SOL    HW118233   1.510   3.910   5.821 -0.7496  0.0196  1.3053
 2258SOL    HW218234   1.464   3.780   5.878  0.1196 -1.4722 -1.4135
 2259SOL     OW18235   1.406   1.686   3.431  0.6393 -0.3976  0.3935
 2259SOL    HW118236   1.452   1.739   3.496 -0.2333  1.7502 -0.7065
 2259SOL    HW218237   1.319   1.685   3.470 -0.2617 -0.4933 -1.5819
 2260SOL     OW18238   2.477   1.388   7.738  0.5209 -0.0283 -0.3706
 2260SOL    HW118239   2.418   1.463   7.731  0.6906  0.1783  0.4268
 2260SOL    HW218240   2.536   1.405   7.665  0.2625 -0.7561 -0.7547
 2261SOL     OW18241   3.482   3.376   6.914  0.0230 -0.3756 -1.0395
 2261SOL    HW118242   3.557   3.423   6.949 -0.3121  1.4078 -2.6950
 2261SOL    HW218243   3.446   3.338   6.995  0.4239  1.7135  0.0900
 2262SOL     OW18244   0.997   3.476  13.202 -0.5433  0.5149  0.3068
 2262SOL    HW118245   1.091   3.491  13.192 -0.6878  2.1641  1.3287
 2262SOL    HW218246   0.984   3.449  13.111 -1.8296 -0.9467  0.9421
 2263SOL     OW18247   2.019   3.882   4.742 -0.3402 -0.2722  0.1905
 2263SOL    HW118248   2.010   3.855   4.833 -2.0066  0.3186  0.1967
 2263SOL    HW218249   2.027   3.793   4.707 -0.5832 -0.4460  0.5776
 2264SOL     OW18250   0.384   1.742  12.280 -0.2537 -0.1032  0.6520
 2264SOL    HW118251   0.305   1.706  12.321 -0.8742 -0.7659 -1.1291
 2264SOL    HW218252   0.347   1.817  12.234  0.9962 -0.6453 -1.2118
 2265SOL     OW18253   2.543   2.827   8.925  0.0204 -0.3627 -0.5857
 2265SOL    HW118254   2.614   2.778   8.884  0.1798  1.0765 -2.0135
 2265SOL    HW218255   2.472   2.779   8.884  0.1745 -1.3979  0.3511
 2266SOL     OW18256   1.947   1.142  12.232 -0.0803  0.1901 -0.1826
 2266SOL    HW118257   2.000   1.215  12.266 -0.0298  0.8588 -1.6620
 2266SOL    HW218258   1.861   1.183  12.236  0.0375  0.5283 -1.0408
 2267SOL     OW18259   4.606   4.170   7.045  0.3462 -0.4403  1.0425
 2267SOL    HW118260   4.660   4.130   6.977  1.0273  1.0085  0.7266
 2267SOL    HW218261   4.532   4.185   6.987  0.5664  1.3778  1.2305
 2268SOL     OW18262   4.263   1.703  17.178  0.6697 -0.1965  0.5028
 2268SOL    HW118263   4.350   1.685  17.143  1.1635  1.3940  0.8808
 2268SOL    HW218264   4.247   1.625  17.230 -0.2793 -1.4405 -1.6696
 2269SOL     OW18265   4.017   0.365  14.139  0.6060 -0.2264  0.3498
 2269SOL    HW118266   3.959   0.424  14.092  0.5600 -0.3572  0.2429
 2269SOL    HW218267   4.095   0.377  14.085 -0.8061  1.3703 -1.3463
 2270SOL     OW18268   2.497   0.486   3.573 -0.8142 -1.0201  0.1265
 2270SOL    HW118269   2.529   0.573   3.548 -4.8558 -0.2138 -2.1551
 2270SOL    HW218270   2.503   0.486   3.669 -1.9810  0.6349  0.1987
 2271SOL     OW18271   2.670   3.518   7.300  0.1841  0.1284  0.4867
 2271SOL    HW118272   2.743   3.457   7.313 -0.3804 -0.8940 -1.0950
 2271SOL    HW218273   2.603   3.456   7.269 -0.8558  0.7267  1.5366
 2272SOL     OW18274   0.519   0.925   0.188  0.2854  0.2525  0.2941
 2272SOL    HW118275   0.474   0.950   0.107  0.7499  1.3795  0.3822
 2272SOL    HW218276   0.463   0.973   0.248  0.3389  0.3980  0.2282
 2273SOL     OW18277   4.097   1.523   5.929  0.3789 -0.2452 -0.5785
 2273SOL    HW118278   4.113   1.573   5.849 -2.1113  4.4176  1.7920
 2273SOL    HW218279   4.175   1.468   5.925  0.2345 -0.3898 -1.3590
 2274SOL     OW18280   0.104   3.029   8.182  0.8020 -0.0691  0.1454
 2274SOL    HW118281   0.119   3.122   8.166  2.5603 -0.7305 -1.9910
 2274SOL    HW218282   0.086   3.036   8.276  0.0566  2.4656 -0.1909
 2275SOL     OW18283   2.975   0.335  15.075  0.6253 -0.2671  0.6388
 2275SOL    HW118284   2.919   0.259  15.059 -0.4227  0.5221  0.5331
 2275SOL    HW218285   2.988   0.375  14.989 -0.5888  2.9594  1.9908
 2276SOL     OW18286   3.046   3.019   2.214  0.2695  0.2781 -0.2309
 2276SOL    HW118287   3.118   2.972   2.171  2.3325  3.9420 -0.7455
 2276SOL    HW218288   3.082   3.033   2.302 -0.1873  0.1486 -0.0228
 2277SOL     OW18289   2.053   2.076   4.192  0.1337 -0.6648  0.1833
 2277SOL    HW118290   1.967   2.057   4.154  0.4313  2.8278 -2.2433
 2277SOL    HW218291   2.031   2.139   4.261  2.8401 -0.0275  0.4583
 2278SOL     OW18292   1.859   2.055   5.589 -0.2085 -0.3081 -0.0525
 2278SOL    HW118293   1.884   2.126   5.648 -1.2961 -0.4926  0.6239
 2278SOL    HW218294   1.930   2.065   5.525 -0.2540 -0.9674 -0.2022
 2279SOL     OW18295   1.325   2.781  16.960  0.0668  0.0639 -0.4639
 2279SOL    HW118296   1.279   2.857  16.925  0.8561 -0.0237 -1.6999
 2279SOL    HW218297   1.271   2.754  17.035  0.4360  1.4987  0.3304
 2280SOL     OW18298   3.978   0.246   1.450 -0.3051  0.1823 -0.0187
 2280SOL    HW118299   3.937   0.169   1.410 -0.1358  0.2779 -0.3828
 2280SOL    HW218300   3.915   0.306   1.410 -0.1881 -0.3643 -1.0431
 2281SOL     OW18301   2.083   1.994   9.140  0.2876  0.2698 -0.3876
 2281SOL    HW118302   2.133   1.933   9.086 -1.1926 -1.7034  0.5009
 2281SOL    HW218303   1.996   1.959   9.119  0.0154 -1.4854  3.6991
 2282SOL     OW18304   1.123   3.911   7.809  0.4423  0.2420  0.0517
 2282SOL    HW118305   1.186   3.956   7.752  0.3012 -1.0677 -1.1523
 2282SOL    HW218306   1.160   3.933   7.894  1.1893  1.6326 -0.6223
 2283SOL     OW18307   1.843   0.058  11.573 -0.0745 -0.5712  0.2602
 2283SOL    HW118308   1.903   4.713  11.603 -0.8345 -0.8922  1.0440
 2283SOL    HW218309   1.811   0.016  11.493  0.6594 -2.9337  1.2159
 2284SOL     OW18310   1.866   2.716  10.705  0.0068 -0.0683 -0.0735
 2284SOL    HW118311   1.896   2.679  10.621 -1.3349 -1.2653 -0.0207
 2284SOL    HW218312   1.777   2.750  10.698  0.4305  0.7817 -1.2846
 2285SOL     OW18313   3.440   2.382   3.345  0.0790  0.6262  0.1343
 2285SOL    HW118314   3.461   2.462   3.395  1.4447  0.5330 -0.3016
 2285SOL    HW218315   3.502   2.316   3.375 -0.5535  0.5584  1.3261
 2286SOL     OW18316   2.876   1.249  13.951  0.0716 -0.1340  0.4332
 2286SOL    HW118317   2.904   1.335  13.921 -0.2580 -0.9081 -2.1446
 2286SOL    HW218318   2.833   1.268  14.034 -0.0663  1.2950  0.0245
 2287SOL     OW18319   4.271   0.418   5.683 -0.3396 -0.3826  0.2664
 2287SOL    HW118320   4.182   0.447   5.661 -0.6148 -1.6676 -0.3396
 2287SOL    HW218321   4.298   0.473   5.757  1.1529  0.3041 -0.7965
 2288SOL     OW18322   0.293   2.899   1.267  0.4379 -0.6116 -0.2787
 2288SOL    HW118323   0.281   2.920   1.360  0.5548 -2.1374  0.0780
 2288SOL    HW218324   0.372   2.845   1.272  0.8081  0.0385  1.0224
 2289SOL     OW18325   0.245   4.475   4.965  0.1683  0.7596 -0.6776
 2289SOL    HW118326   0.159   4.514   4.982  0.1589  0.7271 -0.6494
 2289SOL    HW218327   0.269   4.527   4.889  2.4038  3.5044  1.8759
 2290SOL     OW18328   1.633   1.329   1.697  0.4993  0.1389  0.2369
 2290SOL    HW118329   1.618   1.350   1.605 -1.3442  2.0437  0.9648
 2290SOL    HW218330   1.668   1.241   1.683 -1.2224 -0.1362 -2.2234
 2291SOL     OW18331   2.051   2.401   5.476 -0.2065  0.2298  0.0068
 2291SOL    HW118332   2.013   2.326   5.520  0.7558 -0.4143 -0.2617
 2291SOL    HW218333   2.076   2.467   5.541  1.1528  1.1372 -1.4245
 2292SOL     OW18334   0.137   4.074   4.177  0.4008  0.1339 -0.0505
 2292SOL    HW118335   0.137   4.071   4.273  1.8035 -1.0915 -0.0827
 2292SOL    HW218336   0.231   4.079   4.158  0.4880 -2.0142 -0.1985
 2293SOL     OW18337   2.937   4.531   6.456  0.2175  0.0350  0.1165
 2293SOL    HW118338   2.893   4.539   6.372 -1.0709 -1.0401  0.6835
 2293SOL    HW218339   3.005   4.465   6.446  0.5393  0.5417 -0.9882
 2294SOL     OW18340   1.876   1.717   0.889 -0.3316 -0.5494  0.5635
 2294SOL    HW118341   1.831   1.650   0.839 -0.1178  1.3204 -2.1351
 2294SOL    HW218342   1.815   1.739   0.959  0.4116  0.4878  0.8907
 2295SOL     OW18343   2.762   0.254  11.378  0.2127  0.0987  0.1888
 2295SOL    HW118344   2.730   0.280  11.292 -1.4214 -0.8800  0.5033
 2295SOL    HW218345   2.740   0.161  11.383  4.0214 -0.8033  0.9432
 2296SOL     OW18346   2.197   3.015   5.621 -0.2394  0.7406 -0.6030
 2296SOL    HW118347   2.217   3.107   5.639  0.9979  0.2771  0.3805
 2296SOL    HW218348   2.224   2.974   5.703 -1.9660  0.4207 -0.1988
 2297SOL     OW18349   0.766   2.384   3.617 -0.2352 -0.1309  0.1899
 2297SOL    HW118350   0.841   2.326   3.632 -0.1581 -0.0353  0.1740
 2297SOL    HW218351   0.802   2.450   3.558  0.0209 -0.1880  0.2821
 2298SOL     OW18352   0.184   1.428  17.566 -0.3625  0.0932  0.4718
 2298SOL    HW118353   0.263   1.455  17.614 -0.2058  0.4854 -0.0061
 2298SOL    HW218354   0.194   1.337  17.537 -0.3828  0.7453 -1.6034
 2299SOL     OW18355   2.347   2.989   4.712  0.1387 -0.5613  0.2277
 2299SOL    HW118356   2.362   3.082   4.725 -0.6662 -0.5755  1.2451
 2299SOL    HW218357   2.423   2.950   4.669 -0.1676  0.0990 -0.9193
 2300SOL     OW18358   4.223   0.082   0.570 -0.0922  0.0129  0.2441
 2300SOL    HW118359   4.151   0.089   0.633  0.0491  1.9340  0.1844
 2300SOL    HW218360   4.261   4.719   0.585  0.5022  0.6196  2.2165
 2301SOL     OW18361   1.582   0.656   3.143  0.1280 -0.5781 -0.2526
 2301SOL    HW118362   1.656   0.620   3.093  0.2034  0.8132 -1.1556
 2301SOL    HW218363   1.524   0.676   3.069  1.3978  1.1207 -0.8022
 2302SOL     OW18364   2.893   3.523   9.951 -0.8205 -0.1613 -0.3667
 2302SOL    HW118365   2.943   3.443   9.970 -0.4314  0.1351 -0.1352
 2302SOL    HW218366   2.918   3.529   9.859  0.8870  0.3657  0.1308
 2303SOL     OW18367   2.455   1.173   4.589 -0.3734 -0.4615  0.6723
 2303SOL    HW118368   2.500   1.148   4.508 -0.2648 -0.9497  0.8804
 2303SOL    HW218369   2.506   1.119   4.649  0.7434 -0.1454  0.0169
 2304SOL     OW18370   3.858   2.808   8.746 -0.0566  0.1721 -0.0127
 2304SOL    HW118371   3.859   2.811   8.651  0.0080  1.0242  0.0195
 2304SOL    HW218372   3.924   2.742   8.768  0.7138  0.4052 -1.6085
 2305SOL     OW18373   3.330   0.923   8.172 -0.6764 -0.6700 -0.2874
 2305SOL    HW118374   3.332   0.938   8.077 -0.7845  1.8131  0.0970
 2305SOL    HW218375   3.257   0.863   8.183 -0.4914 -0.7424  0.5046
 2306SOL     OW18376   1.598   0.177   3.534  0.3786  0.4208  0.5412
 2306SOL    HW118377   1.663   0.186   3.464 -0.5682 -0.9083 -0.5095
 2306SOL    HW218378   1.574   0.084   3.527  0.8877  0.2897  0.5213
 2307SOL     OW18379   0.032   4.062   6.529 -0.4584 -0.3893  0.0354
 2307SOL    HW118380   0.062   4.150   6.508 -0.4012 -0.7111 -1.2349
 2307SOL    HW218381   0.068   4.010   6.457 -0.4971  2.2022 -1.8387
 2308SOL     OW18382   1.377   1.228   8.965  0.2513 -0.9838 -0.8184
 2308SOL    HW118383   1.352   1.252   9.054  1.2380  0.2612 -0.8689
 2308SOL    HW218384   1.427   1.305   8.938  0.0853 -1.0881 -1.4244
 2309SOL     OW18385   1.507   3.584  15.130 -0.1097 -1.1213 -0.2766
 2309SOL    HW118386   1.572   3.514  15.139  0.7006 -0.2260  0.7270
 2309SOL    HW218387   1.434   3.528  15.102 -0.0037 -0.7150 -1.3488
 2310SOL     OW18388   2.860   1.458   8.758  0.3172  0.1726 -0.9073
 2310SOL    HW118389   2.924   1.467   8.688  0.6678 -0.2198 -0.6344
 2310SOL    HW218390   2.861   1.364   8.779 -2.0873  0.2243 -0.4847
 2311SOL     OW18391   2.910   3.520   1.189 -0.4463 -0.3421 -0.1637
 2311SOL    HW118392   2.879   3.471   1.113 -0.3485 -0.3023 -0.2300
 2311SOL    HW218393   2.995   3.557   1.164 -0.9894 -0.9095 -2.7966
 2312SOL     OW18394   2.093   0.263   7.724 -0.6000 -0.2264  0.2680
 2312SOL    HW118395   2.123   0.246   7.813 -1.2366  1.4094  0.8059
 2312SOL    HW218396   2.101   0.358   7.720 -2.0229 -0.1357 -0.6410
 2313SOL     OW18397   2.994   4.279  13.680 -0.7714  0.0066 -0.0966
 2313SOL    HW118398   3.025   4.242  13.598  1.7388 -0.2622  0.9936
 2313SOL    HW218399   2.904   4.297  13.651 -0.0595  2.7660 -0.5088
 2314SOL     OW18400   0.497   1.759   3.813  0.2668  0.1989  0.4262
 2314SOL    HW118401   0.414   1.801   3.791 -0.9572 -3.4362 -1.9311
 2314SOL    HW218402   0.476   1.667   3.796 -1.4801  0.0042  3.7619
 2315SOL     OW18403   1.351   1.201   9.969 -0.5615 -0.7825 -0.4489
 2315SOL    HW118404   1.274   1.196   9.911 -0.6269 -1.7620 -0.2927
 2315SOL    HW218405   1.414   1.144   9.926  0.0004 -2.1616  2.1695
 2316SOL     OW18406   2.396   2.373   9.423 -0.3489  0.1188 -0.3564
 2316SOL    HW118407   2.445   2.293   9.437 -0.0404  0.3100 -0.3372
 2316SOL    HW218408   2.395   2.415   9.509 -0.5794  1.2497 -0.9031
 2317SOL     OW18409   4.671   0.740   3.872 -0.2860 -0.5094 -0.0210
 2317SOL    HW118410   4.718   0.808   3.921  0.9093 -1.6396  0.3883
 2317SOL    HW218411   4.674   0.782   3.786  1.3068 -1.6742 -0.5297
 2318SOL     OW18412   3.291   3.884  10.944 -0.2338 -0.1075  0.0486
 2318SOL    HW118413   3.197   3.901  10.949 -0.2596  0.2589 -1.6860
 2318SOL    HW218414   3.316   3.951  10.880  2.2284 -0.1705  0.9671
 2319SOL     OW18415   0.722   0.355   0.836 -0.0969  0.1532  0.4019
 2319SOL    HW118416   0.697   0.415   0.906 -2.0375  0.0399 -0.2006
 2319SOL    HW218417   0.642   0.304   0.845 -0.3135  0.4526  0.1743
 2320SOL     OW18418   1.961   1.336   3.474  0.6194  0.2096 -0.3855
 2320SOL    HW118419   1.865   1.333   3.478  0.5847  0.8208 -0.7081
 2320SOL    HW218420   1.980   1.245   3.450 -0.8117 -0.8274  2.3908
 2321SOL     OW18421   2.027   1.185  16.679 -0.3210 -0.2008 -0.7122
 2321SOL    HW118422   2.112   1.207  16.715 -1.3970  1.4076  0.8647
 2321SOL    HW218423   2.014   1.105  16.729  0.5776 -0.2010 -0.4800
 2322SOL     OW18424   2.542   3.566   9.911 -0.9436  0.4047  0.5366
 2322SOL    HW118425   2.566   3.610   9.992  0.7935  1.9946 -0.8270
 2322SOL    HW218426   2.540   3.475   9.940  0.8565  0.5531  1.1056
 2323SOL     OW18427   1.210   1.438   2.338 -0.3232 -0.0597  0.0619
 2323SOL    HW118428   1.293   1.392   2.322 -1.0829 -1.0726 -0.9675
 2323SOL    HW218429   1.170   1.363   2.382  1.3558 -0.9504  0.0791
 2324SOL     OW18430   2.947   0.263   0.730  0.5664 -0.0357  0.7088
 2324SOL    HW118431   3.019   0.256   0.794 -0.9580  0.7636  2.5066
 2324SOL    HW218432   3.005   0.259   0.654  0.8784 -0.9934  0.9964
 2325SOL     OW18433   0.756   0.694   7.043  0.2806 -0.2300  0.2732
 2325SOL    HW118434   0.797   0.739   7.117 -0.0299 -0.3779  0.5335
 2325SOL    HW218435   0.667   0.675   7.073  0.0391  2.5643  1.3339
 2326SOL     OW18436   1.893   3.765   2.837 -0.2106 -0.7691  0.4225
 2326SOL    HW118437   1.812   3.727   2.802 -0.5248  0.6669 -0.4207
 2326SOL    HW218438   1.858   3.788   2.923  1.2048  1.0647  0.4999
 2327SOL     OW18439   2.386   3.307   1.049 -0.5336 -0.3086  0.2098
 2327SOL    HW118440   2.438   3.263   1.116 -1.5561  1.1070  1.9394
 2327SOL    HW218441   2.424   3.395   1.039 -0.8353 -0.3135 -0.9838
 2328SOL     OW18442   4.578   3.354  16.218 -0.3022  0.1289 -0.0680
 2328SOL    HW118443   4.611   3.278  16.169  1.5633  0.7386  0.2693
 2328SOL    HW218444   4.633   3.355  16.295 -0.1972 -1.1951 -0.1321
 2329SOL     OW18445   1.955   2.012   4.561  0.2883  0.4126  0.2961
 2329SOL    HW118446   1.892   2.048   4.623 -1.5261 -0.7097 -0.8735
 2329SOL    HW218447   2.009   2.090   4.547  0.7831  0.1079  0.5080
 2330SOL     OW18448   1.187   4.030   0.262  0.0663  0.5429 -0.0385
 2330SOL    HW118449   1.262   4.009   0.206 -0.7701 -0.1103 -0.9148
 2330SOL    HW218450   1.215   3.998   0.347 -2.0127 -1.4463 -0.0943
 2331SOL     OW18451   2.789   1.360   8.228  0.1684  0.4574 -0.3522
 2331SOL    HW118452   2.795   1.265   8.218  1.8471  0.6931 -1.6756
 2331SOL    HW218453   2.726   1.373   8.157 -1.4576 -0.0036  1.0153
 2332SOL     OW18454   2.434   0.776   8.622 -0.6034 -0.0789 -0.3891
 2332SOL    HW118455   2.402   0.686   8.627  0.1292 -0.2819  0.5872
 2332SOL    HW218456   2.528   0.763   8.609 -0.4111  0.9323  0.0020
 2333SOL     OW18457   2.479   1.818   8.817  0.2355 -0.2411 -0.1745
 2333SOL    HW118458   2.548   1.882   8.839 -0.7888  1.2141 -1.2113
 2333SOL    HW218459   2.532   1.739   8.810  0.2018 -0.4267  1.6240
 2334SOL     OW18460   0.985   2.333   8.603 -0.5088 -0.3575  0.1205
 2334SOL    HW118461   0.925   2.290   8.542 -0.7248  0.4416 -0.2276
 2334SOL    HW218462   1.026   2.395   8.542  1.3023 -2.8529 -1.2350
 2335SOL     OW18463   0.541   1.951   8.039  0.1774  0.6287 -0.4696
 2335SOL    HW118464   0.544   1.857   8.057  0.7157  0.3789 -1.9060
 2335SOL    HW218465   0.450   1.973   8.020 -0.2922 -0.9283 -0.0971
 2336SOL     OW18466   1.456   3.972   2.937 -0.1915  0.3372 -0.4866
 2336SOL    HW118467   1.455   4.066   2.924 -0.3861  0.6670  1.8244
 2336SOL    HW218468   1.361   3.960   2.927 -0.4724  1.6634  0.6034
 2337SOL     OW18469   3.993   4.217   2.865  0.3080  0.1154 -0.4391
 2337SOL    HW118470   3.945   4.247   2.788 -0.4013 -2.7177 -1.0691
 2337SOL    HW218471   4.084   4.208   2.835  0.3684  0.3970 -0.3501
 2338SOL     OW18472   0.645   0.356   6.094 -0.1796  0.6223 -0.3856
 2338SOL    HW118473   0.665   0.339   6.002 -0.0821  0.1817 -0.2828
 2338SOL    HW218474   0.727   0.369   6.141 -1.5089 -1.9979  2.6050
 2339SOL     OW18475   3.724   0.291  12.909 -0.5152  0.3945 -0.5974
 2339SOL    HW118476   3.705   0.202  12.881 -2.6012  0.9989 -1.0885
 2339SOL    HW218477   3.779   0.264  12.983  0.6838  0.9102 -1.2990
 2340SOL     OW18478   3.126   1.275   4.734  0.0229  0.2765 -0.0293
 2340SOL    HW118479   3.125   1.342   4.802  0.0098  1.4358 -1.1814
 2340SOL    HW218480   3.178   1.202   4.767 -0.8886 -0.2029  0.3550
 2341SOL     OW18481   0.727   0.020  11.363  0.0490  0.3905 -0.2181
 2341SOL    HW118482   0.807   0.005  11.312 -0.1669  0.2123 -0.5070
 2341SOL    HW218483   0.755   0.079  11.433 -0.2663 -0.4875  0.6376
 2342SOL     OW18484   2.994   3.736  14.551 -0.7397  0.0972 -0.3389
 2342SOL    HW118485   3.055   3.805  14.523 -0.0304 -0.4149 -0.0671
 2342SOL    HW218486   2.935   3.747  14.477 -1.9167 -0.0733  0.5730
 2343SOL     OW18487   0.442   4.188  17.026  0.0736 -0.7181  0.0912
 2343SOL    HW118488   0.388   4.230  17.093  1.6027  0.8333  0.3585
 2343SOL    HW218489   0.373   4.154  16.969  0.5665 -2.2596  0.4288
 2344SOL     OW18490   3.703   0.838   6.684  0.3674 -0.4782  0.5089
 2344SOL    HW118491   3.799   0.845   6.683  0.3558 -0.3251  0.4518
 2344SOL    HW218492   3.691   0.746   6.705 -0.4371 -0.3750  0.4750
 2345SOL     OW18493   2.605   0.619   2.704  0.5653 -0.3541  0.2387
 2345SOL    HW118494   2.564   0.705   2.704  0.3655 -0.4638  2.5874
 2345SOL    HW218495   2.547   0.567   2.648 -1.0755 -0.8105  2.3888
 2346SOL     OW18496   1.533   1.499   4.377 -0.0840  0.4310 -0.1182
 2346SOL    HW118497   1.618   1.532   4.346  1.1941 -0.8997  1.9987
 2346SOL    HW218498   1.552   1.473   4.467 -0.3634 -1.2672 -0.5567
 2347SOL     OW18499   0.151   4.213  12.813  0.2476  0.3136  0.4443
 2347SOL    HW118500   0.093   4.146  12.778  1.2381 -0.0271 -0.5483
 2347SOL    HW218501   0.120   4.205  12.903  0.7984  0.3074  0.6365
 2348SOL     OW18502   0.313   0.981  14.589  0.5887 -0.4948 -0.9812
 2348SOL    HW118503   0.314   1.067  14.548  1.0636  0.7105  1.5273
 2348SOL    HW218504   0.238   0.936  14.550  1.4398 -2.0901 -0.7653
 2349SOL     OW18505   0.082   0.532   7.961  0.4767 -0.2376  0.1366
 2349SOL    HW118506   0.055   0.623   7.975  0.6258 -0.0520 -0.7898
 2349SOL    HW218507   0.111   0.514   8.051 -1.6094 -0.4291  0.7692
 2350SOL     OW18508   3.178   4.688   7.459 -0.0535  0.4035  0.1228
 2350SOL    HW118509   3.160   4.662   7.549 -1.2527 -2.8407 -1.0310
 2350SOL    HW218510   3.209   0.055   7.463 -0.0050  0.4857 -2.0441
 2351SOL     OW18511   1.330   3.144   6.713  0.2650  0.6564  0.3477
 2351SOL    HW118512   1.336   3.199   6.791  0.4258  0.9383  0.1353
 2351SOL    HW218513   1.325   3.198   6.634 -0.3924 -1.3013 -0.9744
 2352SOL     OW18514   4.077   2.711   2.164  0.4960  0.2142  0.6429
 2352SOL    HW118515   4.148   2.747   2.218 -0.0117 -0.3517  1.6733
 2352SOL    HW218516   4.053   2.794   2.122  3.7008  1.0607  0.4391
 2353SOL     OW18517   0.984   4.215   6.904  0.8290 -0.0794 -0.2684
 2353SOL    HW118518   1.000   4.285   6.968  0.8867  2.5967 -3.1925
 2353SOL    HW218519   0.901   4.192   6.944  0.3314  0.0782 -1.2155
 2354SOL     OW18520   1.576   2.724  10.340  0.1793 -0.2062 -0.7586
 2354SOL    HW118521   1.522   2.787  10.293 -1.7362 -0.7568  0.7150
 2354SOL    HW218522   1.550   2.643  10.296  1.2545 -0.9081 -0.0951
 2355SOL     OW18523   0.147   2.805   4.107 -0.1146  0.3509 -0.5173
 2355SOL    HW118524   0.117   2.873   4.168  2.1349 -1.4198  2.5974
 2355SOL    HW218525   0.200   2.853   4.044 -0.3690  0.7635 -0.4174
 2356SOL     OW18526   0.322   1.911  13.187 -0.1362  0.1362 -0.0148
 2356SOL    HW118527   0.303   1.996  13.149  1.3193  0.3093 -0.3383
 2356SOL    HW218528   0.245   1.863  13.156 -0.1497 -0.2906  0.6757
 2357SOL     OW18529   4.247   3.809   4.591  0.7966  0.2965  0.4680
 2357SOL    HW118530   4.212   3.887   4.548 -1.0529 -2.5452 -3.1505
 2357SOL    HW218531   4.340   3.808   4.565  0.1964  1.2960 -1.6926
 2358SOL     OW18532   1.657   4.316   1.965  0.2190  0.6445 -0.0721
 2358SOL    HW118533   1.564   4.296   1.959  0.4952 -1.2401  2.3068
 2358SOL    HW218534   1.701   4.235   1.941  0.8664  1.3035 -1.1467
 2359SOL     OW18535   4.040   0.970   5.188  0.0222  0.4753 -0.6161
 2359SOL    HW118536   4.035   1.055   5.144 -3.0146  0.0145 -1.1381
 2359SOL    HW218537   4.106   0.982   5.257  1.1406 -3.2302 -1.0225
 2360SOL     OW18538   2.390   0.401   1.009 -0.1085 -0.2842 -0.3062
 2360SOL    HW118539   2.413   0.494   1.001 -0.2172 -0.1366  1.0431
 2360SOL    HW218540   2.296   0.414   1.024 -0.0937 -0.3286 -0.1741
 2361SOL     OW18541   0.330   0.142   3.733 -0.2134 -0.4725 -0.2925
 2361SOL    HW118542   0.240   0.160   3.706 -0.0105  0.8125 -0.1300
 2361SOL    HW218543   0.321   0.167   3.825  0.8622 -0.1334 -0.2817
 2362SOL     OW18544   2.807   1.836   2.583 -0.0488  0.0306 -0.3512
 2362SOL    HW118545   2.821   1.744   2.607  0.2191 -0.1526 -1.2232
 2362SOL    HW218546   2.758   1.830   2.501 -0.3267  0.1284 -0.1938
 2363SOL     OW18547   4.712   2.355  15.560  0.0342  0.6672  0.0135
 2363SOL    HW118548   0.043   2.401  15.624  2.1040 -3.1897  1.0180
 2363SOL    HW218549   0.042   2.377  15.484 -1.9588  2.9694 -0.7194
 2364SOL     OW18550   2.551   4.120  17.149 -0.2465 -0.2501 -0.3328
 2364SOL    HW118551   2.599   4.058  17.094 -1.2013 -0.0668 -1.3712
 2364SOL    HW218552   2.496   4.163  17.082  0.5108 -1.0498 -1.4719
 2365SOL     OW18553   1.467   0.126  11.479  0.4723  0.3826  0.4210
 2365SOL    HW118554   1.495   0.123  11.388  1.1772  0.9164  0.6171
 2365SOL    HW218555   1.507   0.209  11.507  0.1383 -0.0028  2.0468
 2366SOL     OW18556   2.429   1.062  17.519 -0.4778 -0.6585  0.4164
 2366SOL    HW118557   2.389   1.134  17.570  0.2390 -0.8375  1.2336
 2366SOL    HW218558   2.522   1.083  17.528  0.2251 -2.7861 -2.1578
 2367SOL     OW18559   2.971   1.699  15.403  0.4040  0.0543  0.2786
 2367SOL    HW118560   2.923   1.718  15.484  0.2167  2.7053 -0.4725
 2367SOL    HW218561   3.033   1.630  15.430  1.3689  0.6312 -0.4965
 2368SOL     OW18562   2.957   4.704   7.679  0.3156 -0.5553 -0.3533
 2368SOL    HW118563   3.003   0.043   7.735 -0.5714 -1.6032  1.5227
 2368SOL    HW218564   2.891   4.670   7.739 -1.7970  0.4192 -2.1273
 2369SOL     OW18565   3.759   4.275  12.769 -0.1370  0.1354  0.0689
 2369SOL    HW118566   3.687   4.334  12.749 -0.7412 -0.2293  1.2160
 2369SOL    HW218567   3.822   4.316  12.710  0.0453  0.6212  0.6078
 2370SOL     OW18568   4.651   2.959  13.119 -0.2408  0.0067  0.0186
 2370SOL    HW118569   4.713   2.953  13.191  1.1459  0.3662 -1.1236
 2370SOL    HW218570   4.689   3.037  13.078 -0.8088 -0.6906 -1.8596
 2371SOL     OW18571   2.826   4.697   0.872 -0.1647  0.6899  0.5542
 2371SOL    HW118572   2.883   4.644   0.928 -1.0139  0.7264  1.4533
 2371SOL    HW218573   2.850   4.656   0.789 -1.4849  1.1036 -0.0325
 2372SOL     OW18574   1.966   0.927   5.966  0.4505  0.1006  0.6252
 2372SOL    HW118575   2.026   0.871   5.916  0.3521  0.9268 -0.3995
 2372SOL    HW218576   2.008   0.895   6.047  0.5561 -2.3621 -0.4089
 2373SOL     OW18577   4.097   4.689   4.521 -0.2438  0.2939 -0.3968
 2373SOL    HW118578   4.053   4.658   4.601  4.1372 -0.0242  1.9103
 2373SOL    HW218579   4.051   0.050   4.514  0.6087  0.7595 -0.3096
 2374SOL     OW18580   0.458   1.880  10.548  0.4568 -0.1082 -0.0629
 2374SOL    HW118581   0.388   1.867  10.612  1.5189 -0.2036  1.0710
 2374SOL    HW218582   0.514   1.802  10.553  1.1344  0.4474  0.9983
 2375SOL     OW18583   4.684   4.620   8.082 -0.0155 -0.1351  0.3660
 2375SOL    HW118584   4.686   4.608   8.177  1.8287 -0.9273  0.2365
 2375SOL    HW218585   0.043   4.591   8.041  1.4468  1.1523  2.3853
 2376SOL     OW18586   4.059   2.747   7.482 -0.0511  0.8629  0.2878
 2376SOL    HW118587   4.096   2.690   7.549 -4.8584 -0.4271  1.8822
 2376SOL    HW218588   3.991   2.785   7.537 -1.1215  0.0205 -0.4510
 2377SOL     OW18589   0.540   0.143   5.190  0.1390 -0.4407  0.1088
 2377SOL    HW118590   0.505   0.125   5.103  2.0847  2.1561 -1.1782
 2377SOL    HW218591   0.475   0.106   5.250  0.6663 -2.3571 -0.5156
 2378SOL     OW18592   3.081   3.842   8.882  0.0380  0.2540 -0.0488
 2378SOL    HW118593   3.165   3.833   8.927  0.2218  0.5637 -0.3318
 2378SOL    HW218594   3.085   3.751   8.852 -0.0653  0.2943 -0.1855
 2379SOL     OW18595   1.272   0.151   9.506  0.0301 -0.0686 -0.0096
 2379SOL    HW118596   1.304   0.062   9.520  0.6340 -0.0403 -1.1960
 2379SOL    HW218597   1.283   0.184   9.595 -0.9722  0.2453 -0.0034
 2380SOL     OW18598   4.706   3.410   7.254 -1.0410  0.3364 -0.7125
 2380SOL    HW118599   4.655   3.347   7.203  1.1790 -0.0797 -2.4019
 2380SOL    HW218600   0.011   3.468   7.183  2.5620 -0.2266  0.2553
 2381SOL     OW18601   2.597   4.383   1.095 -0.2471 -0.1340  0.6268
 2381SOL    HW118602   2.502   4.385   1.099 -0.3226  0.7105 -1.5385
 2381SOL    HW218603   2.610   4.321   1.023  2.4000  0.8802  0.2126
 2382SOL     OW18604   3.811   4.559   2.613  0.2343 -0.0281  0.0803
 2382SOL    HW118605   3.800   4.644   2.656  1.3546  1.0185 -1.7104
 2382SOL    HW218606   3.786   4.576   2.522  2.2729  0.8325 -0.3263
 2383SOL     OW18607   3.724   4.013  13.879 -0.7198 -0.6343 -0.3927
 2383SOL    HW118608   3.784   3.955  13.833 -1.7555 -0.2156 -2.2841
 2383SOL    HW218609   3.787   4.066  13.928 -2.0138 -0.0103  0.6309
 2384SOL     OW18610   3.542   0.484   6.042  0.1967  0.7469 -0.0120
 2384SOL    HW118611   3.536   0.483   5.946  1.0225  0.7993 -0.0610
 2384SOL    HW218612   3.622   0.534   6.057  2.1350 -1.7482 -1.8999
 2385SOL     OW18613   2.914   1.604   2.741 -0.0626  0.3639  0.1377
 2385SOL    HW118614   2.935   1.514   2.765  0.1986  0.5146  0.4776
 2385SOL    HW218615   2.883   1.638   2.825 -1.5574  0.8087 -0.5911
 2386SOL     OW18616   0.062   1.700   9.362 -0.6291  0.0628 -0.1292
 2386SOL    HW118617   4.721   1.658   9.419 -0.7390  2.2500  1.3785
 2386SOL    HW218618   0.137   1.647   9.388  0.5310  1.4520 -0.6396
 2387SOL     OW18619   3.549   1.530   3.973 -0.2865  0.6067 -0.2925
 2387SOL    HW118620   3.584   1.529   3.884 -1.1450  2.6173 -0.6673
 2387SOL    HW218621   3.488   1.459   3.954 -2.3579  2.2209  0.3281
 2388SOL     OW18622   1.067   4.229   2.118 -0.3795 -0.2102 -0.0907
 2388SOL    HW118623   1.128   4.194   2.184  1.6702  2.0117 -0.8309
 2388SOL    HW218624   1.115   4.307   2.091 -0.5425  0.3317  1.1924
 2389SOL     OW18625   0.955   0.118   3.889  0.3954 -0.0148 -0.2122
 2389SOL    HW118626   0.967   0.198   3.839  0.2690 -2.1173 -3.5886
 2389SOL    HW218627   0.863   0.093   3.881  0.3704  0.3070 -0.9276
 2390SOL     OW18628   0.787   4.409   3.487  0.0316  0.5419  1.2906
 2390SOL    HW118629   0.809   4.474   3.554 -0.6166  1.8644  0.2360
 2390SOL    HW218630   0.764   4.455   3.406  1.2880  0.6654  1.0086
 2391SOL     OW18631   2.179   1.739  16.338  0.3299  0.4620 -0.5695
 2391SOL    HW118632   2.086   1.758  16.327 -0.1897 -2.2116 -0.7328
 2391SOL    HW218633   2.182   1.644  16.335  0.2483  0.4160  0.7239
 2392SOL     OW18634   4.306   1.476  16.915  0.0465 -0.2869 -0.5498
 2392SOL    HW118635   4.391   1.451  16.951 -0.2056  0.6836  0.6942
 2392SOL    HW218636   4.330   1.514  16.830  1.9017  1.8780  0.9365
 2393SOL     OW18637   4.204   2.614   7.665 -0.2398 -0.2034  0.2860
 2393SOL    HW118638   4.233   2.690   7.716  0.5508 -0.4327  0.1830
 2393SOL    HW218639   4.254   2.547   7.712  0.6441  1.0214  1.1191
 2394SOL     OW18640   2.132   2.258  15.034  0.3258 -0.0594  0.1873
 2394SOL    HW118641   2.069   2.329  15.046 -1.1406 -1.2950 -0.2407
 2394SOL    HW218642   2.084   2.210  14.966 -0.0528  0.8355 -0.1795
 2395SOL     OW18643   3.725   2.424   1.983 -0.8002 -0.4423 -0.4573
 2395SOL    HW118644   3.718   2.450   2.075 -0.3910  1.3172 -0.9172
 2395SOL    HW218645   3.639   2.383   1.977 -0.4344 -1.0650 -1.3636
 2396SOL     OW18646   4.339   2.033   6.447 -0.3283 -0.5037  0.1599
 2396SOL    HW118647   4.248   2.042   6.474 -0.5583  0.0852 -0.8079
 2396SOL    HW218648   4.350   2.115   6.399  1.5160 -0.0112  1.4223
 2397SOL     OW18649   3.849   0.960   6.449 -0.2097  0.0083  0.4568
 2397SOL    HW118650   3.925   0.902   6.450  0.8020  1.3337  0.0619
 2397SOL    HW218651   3.882   1.030   6.393  0.3724 -1.4118 -0.9629
 2398SOL     OW18652   4.344   0.412  17.396  0.3084 -0.0915 -0.3220
 2398SOL    HW118653   4.326   0.379  17.484 -1.1026  1.7669  0.0704
 2398SOL    HW218654   4.421   0.465  17.414 -0.0595  0.1711  0.4689
 2399SOL     OW18655   2.501   0.646   8.191  0.3184 -0.2304  0.6378
 2399SOL    HW118656   2.426   0.592   8.215 -0.6860 -0.3071 -2.6221
 2399SOL    HW218657   2.485   0.646   8.097  0.6423 -2.1676  0.5967
 2400SOL     OW18658   3.622   1.955  17.440  0.2211  0.0315 -0.0246
 2400SOL    HW118659   3.590   2.036  17.401 -5.5362 -1.9455  0.4668
 2400SOL    HW218660   3.707   1.953  17.396 -0.1646  0.2846 -0.7840
 2401SOL     OW18661   4.185   3.497   5.357  0.2596  0.3815  0.2991
 2401SOL    HW118662   4.174   3.496   5.262 -0.7327 -2.3236  0.4325
 2401SOL    HW218663   4.251   3.428   5.365  0.2972  0.5970  1.8251
 2402SOL     OW18664   0.981   2.009   5.004  0.0691 -0.3069 -0.7258
 2402SOL    HW118665   0.968   1.921   4.968  0.1584 -0.7157  0.2457
 2402SOL    HW218666   0.910   2.058   4.962 -1.4802 -0.9861  1.1020
 2403SOL     OW18667   2.157   3.693   4.946  0.1274 -0.4211 -0.5505
 2403SOL    HW118668   2.191   3.783   4.949 -1.6204  0.2205 -0.0045
 2403SOL    HW218669   2.231   3.652   4.990  1.2932  1.6757 -0.5696
 2404SOL     OW18670   4.307   1.125  15.475 -0.4894  0.7983 -0.1156
 2404SOL    HW118671   4.232   1.078  15.442  0.4816 -0.2948 -0.7402
 2404SOL    HW218672   4.319   1.186  15.403  1.5771  0.0274 -0.4359
 2405SOL     OW18673   1.719   4.291   9.209 -0.3214  0.1506  0.3622
 2405SOL    HW118674   1.813   4.284   9.194  0.0518  2.1968  1.7954
 2405SOL    HW218675   1.708   4.219   9.270 -0.2080  0.0673  0.2849
 2406SOL     OW18676   1.061   1.627   3.946 -0.0913  0.3969  0.0880
 2406SOL    HW118677   0.985   1.673   3.982  0.0977 -0.2720  1.3396
 2406SOL    HW218678   1.083   1.558   4.009 -0.4224  0.3849  0.1951
 2407SOL     OW18679   4.246   3.264   5.832  0.1792 -0.7918 -0.3774
 2407SOL    HW118680   4.216   3.279   5.743 -1.0897 -0.0850  0.1780
 2407SOL    HW218681   4.306   3.337   5.848 -0.2731 -0.7477  1.1360
 2408SOL     OW18682   0.881   1.769   3.608 -0.2718 -0.5141 -0.5976
 2408SOL    HW118683   0.843   1.684   3.585 -0.4556 -0.0864 -1.9167
 2408SOL    HW218684   0.802   1.822   3.612 -0.4616 -0.7149 -1.5154
 2409SOL     OW18685   4.166   1.715  10.843  0.0580  0.3108 -0.3741
 2409SOL    HW118686   4.167   1.627  10.882  0.3180  0.1075 -0.8391
 2409SOL    HW218687   4.072   1.734  10.839  0.2480  1.2955 -0.1725
 2410SOL     OW18688   2.152   0.746   7.299  0.0240  0.0721 -0.2987
 2410SOL    HW118689   2.084   0.679   7.311 -0.9410  0.5858 -2.8786
 2410SOL    HW218690   2.221   0.688   7.268  0.9294  0.5419  0.8819
 2411SOL     OW18691   3.950   3.915  14.702  0.2040  0.0376 -0.2921
 2411SOL    HW118692   3.963   3.821  14.703 -0.6773 -0.0597  1.8956
 2411SOL    HW218693   3.854   3.920  14.707  0.4749  1.7664  3.0481
 2412SOL     OW18694   3.498   1.053   3.417  0.0174 -0.1297  0.5746
 2412SOL    HW118695   3.527   1.037   3.327  1.3300  1.1732  0.7529
 2412SOL    HW218696   3.524   0.971   3.458  0.4943  0.1604  0.8478
 2413SOL     OW18697   0.370   0.236   4.023  0.3674 -0.1523  0.6924
 2413SOL    HW118698   0.276   0.233   4.038  0.1520 -0.8608 -0.7642
 2413SOL    HW218699   0.395   0.328   4.015 -0.5029 -0.1284 -1.6683
 2414SOL     OW18700   0.293   0.374   8.354  0.2553 -0.0983 -0.3509
 2414SOL    HW118701   0.311   0.350   8.263  2.7350 -1.1603  0.3939
 2414SOL    HW218702   0.217   0.428   8.333 -1.7022 -2.7094  0.0261
 2415SOL     OW18703   4.174   1.932  10.133  0.3361  0.0059 -0.3506
 2415SOL    HW118704   4.162   2.017  10.177  2.1674  0.0905 -0.0213
 2415SOL    HW218705   4.190   1.881  10.213  3.0614  0.6812 -0.4836
 2416SOL     OW18706   0.988   2.691  16.397 -0.0828 -0.3831 -0.8574
 2416SOL    HW118707   0.975   2.774  16.351 -0.6059  0.4251  0.7494
 2416SOL    HW218708   1.080   2.667  16.387  0.1825  0.0908  0.5086
 2417SOL     OW18709   3.104   2.248   1.071  0.3395 -0.0731  0.5883
 2417SOL    HW118710   3.067   2.328   1.034 -2.0050 -2.2429 -1.7269
 2417SOL    HW218711   3.034   2.233   1.135  0.7389  0.1248  1.0792
 2418SOL     OW18712   0.250   3.385   1.069 -0.6065  0.1551 -0.5305
 2418SOL    HW118713   0.331   3.374   1.119 -0.9472  1.0999  0.2185
 2418SOL    HW218714   0.273   3.470   1.030  1.4396 -0.4352 -0.6389
 2419SOL     OW18715   0.960   2.438   6.428  0.2818  0.1626 -0.0516
 2419SOL    HW118716   0.988   2.476   6.512  1.6028  2.4672 -1.5503
 2419SOL    HW218717   1.021   2.481   6.368  0.1195  1.3911  0.6605
 2420SOL     OW18718   1.087   3.641   7.753 -0.0400  0.0466  0.0799
 2420SOL    HW118719   0.995   3.638   7.779  0.3161  0.4317  1.3561
 2420SOL    HW218720   1.111   3.723   7.796  1.8520  1.1640 -3.0242
 2421SOL     OW18721   4.693   0.731   4.543  0.3898 -0.2974 -0.0465
 2421SOL    HW118722   4.710   0.653   4.491 -1.6736 -0.4763 -0.4561
 2421SOL    HW218723   4.627   0.701   4.605 -0.3378  2.5989  0.6071
 2422SOL     OW18724   2.713   3.936   7.048  0.0788  0.4841  0.1922
 2422SOL    HW118725   2.669   3.851   7.046 -1.2176  1.1196  1.7567
 2422SOL    HW218726   2.641   3.999   7.049 -0.2535  0.1295 -1.4975
 2423SOL     OW18727   2.965   1.466  10.647 -0.2253 -0.3477  0.3235
 2423SOL    HW118728   3.044   1.483  10.596  0.4034  0.5613  1.5976
 2423SOL    HW218729   2.950   1.549  10.692 -1.9531  0.5505 -1.9143
 2424SOL     OW18730   1.399   2.484   4.651 -0.3742 -0.3095 -0.4183
 2424SOL    HW118731   1.464   2.547   4.679 -1.1213  0.8727 -1.3270
 2424SOL    HW218732   1.380   2.528   4.568 -0.6400 -0.7582 -0.5967
 2425SOL     OW18733   0.201   1.741  15.097 -0.3200 -0.0211  0.0757
 2425SOL    HW118734   0.133   1.760  15.033 -0.2609 -0.3960 -0.0986
 2425SOL    HW218735   0.139   1.755  15.169 -0.6987  0.2219 -0.3006
 2426SOL     OW18736   2.156   2.828   6.219 -0.6793  0.0820 -0.1452
 2426SOL    HW118737   2.166   2.921   6.235  0.4629 -0.5072  2.5979
 2426SOL    HW218738   2.237   2.810   6.171 -0.9634  2.9289 -1.6592
 2427SOL     OW18739   0.173   2.947   6.468  0.1627  0.3439 -0.5793
 2427SOL    HW118740   0.238   3.002   6.511  1.0649 -0.3633 -1.0477
 2427SOL    HW218741   0.127   3.012   6.414  1.1177  2.5640  1.2470
 2428SOL     OW18742   2.924   3.386   7.336 -0.2287  0.2857 -1.0936
 2428SOL    HW118743   3.005   3.350   7.301 -0.2870 -0.1894 -0.7466
 2428SOL    HW218744   2.948   3.465   7.383 -0.7486  0.2340 -0.7320
 2429SOL     OW18745   2.540   4.126   5.919  0.0307 -0.1941  0.1702
 2429SOL    HW118746   2.533   4.031   5.911  0.3874 -0.1955 -0.1372
 2429SOL    HW218747   2.551   4.138   6.013  0.2052  0.4351  0.0708
 2430SOL     OW18748   0.954   1.544   6.615 -0.0659 -0.1579 -0.1954
 2430SOL    HW118749   0.902   1.500   6.683  0.7275  0.3382  0.7258
 2430SOL    HW218750   0.923   1.631   6.638 -1.1847 -0.0570 -2.0360
 2431SOL     OW18751   4.356   0.037   0.242  0.0815  0.0403  0.0966
 2431SOL    HW118752   4.263   0.053   0.258 -0.0179 -1.4336  0.9911
 2431SOL    HW218753   4.385   4.695   0.306 -0.6226  0.4458  0.8201
 2432SOL     OW18754   0.436   1.433   0.900  0.1604 -0.4415  0.1563
 2432SOL    HW118755   0.432   1.339   0.912 -0.9635 -0.9496 -4.4290
 2432SOL    HW218756   0.428   1.456   0.993  1.6451 -0.5510  0.3096
 2433SOL     OW18757   4.498   0.632   7.665 -0.2908 -0.0980 -0.0279
 2433SOL    HW118758   4.587   0.634   7.630  0.8371 -2.0525  2.7509
 2433SOL    HW218759   4.454   0.585   7.594 -2.3207  0.5568  0.8061
 2434SOL     OW18760   1.367   3.625   3.784 -0.3030  0.1811 -0.1808
 2434SOL    HW118761   1.328   3.590   3.865 -2.1057 -0.5217 -1.3517
 2434SOL    HW218762   1.424   3.694   3.820 -2.7932  1.3589  1.5290
 2435SOL     OW18763   3.841   4.073   3.905  0.0925 -0.0265  0.2301
 2435SOL    HW118764   3.881   4.145   3.955 -0.8169 -0.0491  0.9931
 2435SOL    HW218765   3.893   4.064   3.825  1.2815 -0.5190  1.0520
 2436SOL     OW18766   0.626   0.437   3.226 -0.1120  0.2272  0.4031
 2436SOL    HW118767   0.628   0.397   3.139 -0.6993 -0.7784  0.8460
 2436SOL    HW218768   0.610   0.527   3.200  2.0696  0.2860 -0.6471
 2437SOL     OW18769   2.365   2.568   5.361  0.1698  0.1759  0.7461
 2437SOL    HW118770   2.342   2.556   5.453  0.7139 -0.3512  0.8180
 2437SOL    HW218771   2.282   2.595   5.323  0.7912  1.2804  0.1632
 2438SOL     OW18772   3.694   3.641   5.564  0.3496  0.8170 -0.2658
 2438SOL    HW118773   3.699   3.566   5.504  2.8002  0.4043  0.4841
 2438SOL    HW218774   3.613   3.686   5.538 -1.6986 -2.6532  0.1946
 2439SOL     OW18775   3.181   1.619   8.019  0.0421 -0.0979 -0.3256
 2439SOL    HW118776   3.150   1.533   7.989  1.3654 -0.9251  0.6306
 2439SOL    HW218777   3.206   1.659   7.936  1.2225  0.4574  0.3021
 2440SOL     OW18778   3.905   2.218  10.216  0.1598  0.7552  0.2417
 2440SOL    HW118779   3.877   2.304  10.247 -1.6667  0.1942  0.1312
 2440SOL    HW218780   3.920   2.175  10.300  0.1669  0.4193  0.0694
 2441SOL     OW18781   3.195   1.659  12.493  0.6513  0.5726 -0.3564
 2441SOL    HW118782   3.195   1.573  12.452  1.8176  0.9622 -1.1776
 2441SOL    HW218783   3.213   1.635  12.584  2.0980  0.2003 -0.7435
 2442SOL     OW18784   4.361   1.104   6.042  0.0184  0.6148 -0.3722
 2442SOL    HW118785   4.373   1.189   6.086 -0.9547  0.4512  0.2062
 2442SOL    HW218786   4.404   1.044   6.102 -0.9498  1.3661  1.0705
 2443SOL     OW18787   2.336   3.557   3.045  0.1583 -0.2530 -0.9797
 2443SOL    HW118788   2.243   3.545   3.062  0.5531 -2.0612 -0.1062
 2443SOL    HW218789   2.363   3.640   3.086  0.8214 -2.5977  3.3389
 2444SOL     OW18790   3.129   1.956   5.748 -0.7726 -0.0067  0.1102
 2444SOL    HW118791   3.176   2.009   5.813  0.0676 -1.1000  0.4086
 2444SOL    HW218792   3.196   1.958   5.680  0.4730  0.5927  1.3439
 2445SOL     OW18793   2.886   3.418   4.006 -0.0333  0.1475  0.1534
 2445SOL    HW118794   2.890   3.479   4.079 -0.8729  0.8558 -0.3940
 2445SOL    HW218795   2.898   3.476   3.931 -1.5613  0.4334  0.1378
 2446SOL     OW18796   1.854   3.751  12.342  0.4127 -0.1306  0.1394
 2446SOL    HW118797   1.770   3.706  12.341 -0.3139  1.1966  1.6608
 2446SOL    HW218798   1.889   3.716  12.425  2.4242  2.0207  0.1875
 2447SOL     OW18799   2.777   2.821  16.388  0.3314  0.5621 -0.3154
 2447SOL    HW118800   2.824   2.872  16.323 -1.6342  2.1097 -0.5235
 2447SOL    HW218801   2.697   2.802  16.339  0.2861 -0.5778  0.2019
 2448SOL     OW18802   2.918   0.326  14.578 -0.1512  0.5134  0.3404
 2448SOL    HW118803   2.989   0.310  14.640  0.2217 -3.7012 -1.1489
 2448SOL    HW218804   2.850   0.343  14.642  0.0061  1.5025  0.2508
 2449SOL     OW18805   3.693   1.389  16.844 -0.4205  0.0119 -0.2611
 2449SOL    HW118806   3.716   1.297  16.857 -2.0229 -0.4655 -0.7808
 2449SOL    HW218807   3.700   1.376  16.750  1.4067  1.0608 -0.2687
 2450SOL     OW18808   0.139   0.733  14.152  0.2820 -0.1826  0.1857
 2450SOL    HW118809   0.111   0.820  14.181 -0.5303  0.1819 -1.6871
 2450SOL    HW218810   0.066   0.686  14.112 -0.3524  0.3664  0.7081
 2451SOL     OW18811   3.787   1.680   0.193 -0.5420 -0.5670  0.4347
 2451SOL    HW118812   3.847   1.710   0.125 -0.8487 -2.7182 -0.7989
 2451SOL    HW218813   3.789   1.585   0.183 -1.1433 -0.5163 -0.1526
 2452SOL     OW18814   0.795   1.380   7.068 -0.4380 -0.7002 -0.8068
 2452SOL    HW118815   0.703   1.353   7.070 -0.4686 -0.6180 -1.0590
 2452SOL    HW218816   0.796   1.458   7.124  0.2829 -0.0062 -1.7994
 2453SOL     OW18817   4.482   1.877   4.735  0.4714  0.0359  0.1052
 2453SOL    HW118818   4.492   1.942   4.666 -0.1925 -1.9908 -1.9305
 2453SOL    HW218819   4.456   1.797   4.688 -1.7404 -0.8658  2.8794
 2454SOL     OW18820   1.644   4.307   8.101 -0.2038  0.0007  0.1161
 2454SOL    HW118821   1.689   4.228   8.130  3.0960  1.5069 -0.9351
 2454SOL    HW218822   1.716   4.358   8.064  0.3720 -1.6725 -1.0512
 2455SOL     OW18823   0.021   2.768   5.608 -0.1966  0.4680  0.5858
 2455SOL    HW118824   0.007   2.857   5.575  0.1686  1.1048  2.1477
 2455SOL    HW218825   4.670   2.773   5.669 -0.5746 -1.1033  0.2671
 2456SOL     OW18826   1.938   0.196   3.961  0.1415 -0.1399 -0.4843
 2456SOL    HW118827   1.993   0.259   4.008 -0.6680 -0.8455  1.3953
 2456SOL    HW218828   2.000   0.148   3.906 -0.8899 -1.2402 -0.6725
 2457SOL     OW18829   3.739   2.986   2.811  0.2475 -0.5421 -0.3927
 2457SOL    HW118830   3.805   3.000   2.879 -0.3282 -0.7840  0.2136
 2457SOL    HW218831   3.658   2.975   2.861 -0.4462 -1.6473 -1.7435
 2458SOL     OW18832   1.364   1.154   7.869 -0.2787 -0.2269 -0.8737
 2458SOL    HW118833   1.413   1.236   7.862  0.5738 -0.5406  1.4972
 2458SOL    HW218834   1.276   1.185   7.888  0.2703  0.1325  1.0371
 2459SOL     OW18835   2.076   0.360   6.788  0.0618  0.1331  0.2001
 2459SOL    HW118836   2.113   0.413   6.859 -1.6295  0.1600  1.0556
 2459SOL    HW218837   1.984   0.380   6.803  0.5217  1.3907  1.3570
 2460SOL     OW18838   3.735   2.758   2.101 -0.1819  0.2247  0.1704
 2460SOL    HW118839   3.730   2.680   2.155 -0.5548  0.5997  0.6829
 2460SOL    HW218840   3.663   2.755   2.038 -1.8988 -0.5216  2.1664
 2461SOL     OW18841   4.405   3.485  11.330  0.0384  0.4458 -0.0510
 2461SOL    HW118842   4.355   3.526  11.400 -1.6502  2.3720 -2.4101
 2461SOL    HW218843   4.415   3.400  11.373 -1.6209  1.3328  2.1099
 2462SOL     OW18844   2.563   3.559   3.613 -0.6166 -0.2250 -0.1203
 2462SOL    HW118845   2.594   3.479   3.657 -0.3228 -0.0128  0.0573
 2462SOL    HW218846   2.542   3.615   3.688 -0.8053 -0.3915 -0.0481
 2463SOL     OW18847   2.851   1.614   9.523  0.3148 -0.4853  0.7926
 2463SOL    HW118848   2.880   1.594   9.612  0.4075  0.6464  1.0160
 2463SOL    HW218849   2.919   1.575   9.468 -2.4705 -0.5215 -2.6459
 2464SOL     OW18850   1.086   4.198   2.888 -0.0649 -0.4346 -0.0601
 2464SOL    HW118851   1.099   4.235   2.801  0.6063 -1.6715 -0.4802
 2464SOL    HW218852   0.999   4.234   2.903  0.3127 -0.3654  1.9925
 2465SOL     OW18853   4.040   1.739  11.254 -0.0038 -0.0300  0.4821
 2465SOL    HW118854   4.048   1.831  11.229  0.5799 -0.6555 -1.5361
 2465SOL    HW218855   3.952   1.714  11.226 -0.8751  3.4422  0.0885
 2466SOL     OW18856   3.138   1.424   4.152  0.2027  0.2042 -0.2478
 2466SOL    HW118857   3.197   1.485   4.107 -1.2581  1.9332  0.1708
 2466SOL    HW218858   3.074   1.474   4.203  0.0812  0.7573 -0.9422
 2467SOL     OW18859   3.620   0.112   5.397 -0.4463  1.0692 -0.0276
 2467SOL    HW118860   3.591   0.198   5.428 -0.9750  0.9335 -0.1454
 2467SOL    HW218861   3.695   0.090   5.452 -1.4452  0.8303  1.2298
 2468SOL     OW18862   3.044   2.337   6.858 -0.2107  0.4322 -0.0366
 2468SOL    HW118863   3.027   2.254   6.904  2.4162 -0.2216 -0.2429
 2468SOL    HW218864   2.996   2.318   6.777 -1.5821  0.6450  0.7212
 2469SOL     OW18865   0.722   2.568   4.013  0.6308 -0.2462 -0.5438
 2469SOL    HW118866   0.743   2.640   4.073  1.0114 -0.7395 -0.0919
 2469SOL    HW218867   0.717   2.625   3.936 -1.3712  2.2324  1.4210
 2470SOL     OW18868   4.329   0.173  10.177  0.3778 -0.2728 -0.0772
 2470SOL    HW118869   4.341   0.257  10.222  4.0909 -0.1071 -1.4022
 2470SOL    HW218870   4.235   0.184  10.159  0.2212  1.3174  1.6979
 2471SOL     OW18871   2.528   1.766   5.805  0.0503 -0.4574 -0.5516
 2471SOL    HW118872   2.590   1.794   5.873 -0.0514 -3.1718  0.6667
 2471SOL    HW218873   2.595   1.724   5.751  1.5050 -0.2933  1.1158
 2472SOL     OW18874   4.133   3.041   6.392  0.0930  0.1317 -0.2382
 2472SOL    HW118875   4.212   3.092   6.409  0.8972 -0.7172 -1.4085
 2472SOL    HW218876   4.169   2.991   6.319  0.4256 -0.3376  0.2435
 2473SOL     OW18877   0.804   0.410   4.316  0.8341  0.2501 -0.4548
 2473SOL    HW118878   0.898   0.413   4.300  1.0741 -0.4048  0.8855
 2473SOL    HW218879   0.782   0.318   4.334 -1.2005  0.1471 -3.2748
 2474SOL     OW18880   3.404   0.356   6.999 -0.1879  0.5191  0.1065
 2474SOL    HW118881   3.325   0.357   7.053  1.1789 -0.2246  2.1097
 2474SOL    HW218882   3.398   0.280   6.942 -0.2516 -0.5679  1.5881
 2475SOL     OW18883   4.273   4.226   5.656 -0.4245  0.1053  0.5709
 2475SOL    HW118884   4.267   4.171   5.735  4.1277  1.8813  2.1446
 2475SOL    HW218885   4.228   4.304   5.688 -2.6814 -0.6791 -0.6855
 2476SOL     OW18886   0.694   3.636  14.593 -0.0529 -0.3971 -0.4752
 2476SOL    HW118887   0.651   3.719  14.615  1.9115  0.0825  1.5014
 2476SOL    HW218888   0.629   3.566  14.587 -0.0905 -0.4071  0.0656
 2477SOL     OW18889   4.357   0.629   5.184 -0.1054  0.0168  0.5381
 2477SOL    HW118890   4.422   0.561   5.164 -1.0330 -0.2916 -1.3951
 2477SOL    HW218891   4.283   0.584   5.143  1.0074 -1.7343  0.4577
 2478SOL     OW18892   1.578   4.607  10.577 -0.0609 -0.3019  0.1527
 2478SOL    HW118893   1.566   4.513  10.574 -1.8788 -0.0663 -0.0016
 2478SOL    HW218894   1.506   4.624  10.638 -1.2701  1.5836 -1.8076
 2479SOL     OW18895   1.204   2.705   8.195 -0.2378 -0.4482  0.2435
 2479SOL    HW118896   1.139   2.773   8.213  0.5990  0.3935  0.0847
 2479SOL    HW218897   1.286   2.744   8.227 -0.0278 -1.2953  0.7490
 2480SOL     OW18898   0.439   3.488   4.255  0.0993  0.3059 -0.1682
 2480SOL    HW118899   0.434   3.580   4.280  2.2774  0.3844  0.0080
 2480SOL    HW218900   0.353   3.460   4.287 -0.2381 -2.5351 -3.4773
 2481SOL     OW18901   4.559   2.556   3.293  0.0087  0.2991  0.0207
 2481SOL    HW118902   4.554   2.549   3.198 -2.7936 -0.8545  0.2339
 2481SOL    HW218903   4.537   2.470   3.328  2.5545 -1.0854 -1.8231
 2482SOL     OW18904   1.356   0.586  15.567  0.8334 -0.2628 -0.4709
 2482SOL    HW118905   1.348   0.538  15.485  1.9665 -2.6596  0.8200
 2482SOL    HW218906   1.401   0.668  15.549 -0.1488 -0.1623 -2.3955
 2483SOL     OW18907   4.416   4.681  11.083  0.1757 -0.6789  0.8638
 2483SOL    HW118908   4.457   4.604  11.122  0.8368  1.1264  3.7153
 2483SOL    HW218909   4.324   4.657  11.075  0.4931 -1.7550  0.3174
 2484SOL     OW18910   0.445   2.001   1.326  0.0485  0.9405 -1.1320
 2484SOL    HW118911   0.377   1.953   1.277 -0.2161  1.1652 -0.9883
 2484SOL    HW218912   0.482   2.053   1.255 -0.3162  0.6127 -1.5686
 2485SOL     OW18913   1.683   0.474   8.149 -0.1557 -0.0827 -0.1158
 2485SOL    HW118914   1.594   0.438   8.141  0.0509 -0.5289 -0.3885
 2485SOL    HW218915   1.677   0.550   8.091  1.7602  0.2009  0.0632
 2486SOL     OW18916   3.648   1.620   1.438 -0.0347  0.3373 -0.0109
 2486SOL    HW118917   3.577   1.576   1.484 -0.8904 -0.9128 -2.5031
 2486SOL    HW218918   3.591   1.688   1.404 -2.8019 -2.7539 -1.5157
 2487SOL     OW18919   2.294   0.611   9.020 -0.7398  0.1563 -0.3194
 2487SOL    HW118920   2.273   0.568   9.102  0.4874 -0.6523 -0.4455
 2487SOL    HW218921   2.305   0.704   9.041  0.7377  0.4874 -2.5468
 2488SOL     OW18922   3.415   4.079   6.850  0.0370  0.3177 -0.3230
 2488SOL    HW118923   3.444   4.105   6.763  1.2142 -0.5831 -0.1891
 2488SOL    HW218924   3.337   4.029   6.827 -0.3301  1.1910 -1.0069
 2489SOL     OW18925   2.766   3.696   7.806 -0.2402 -0.0849 -0.4472
 2489SOL    HW118926   2.695   3.746   7.767  0.1413 -0.4645 -1.6425
 2489SOL    HW218927   2.752   3.619   7.750  0.2276 -1.8218  1.8343
 2490SOL     OW18928   3.412   2.177   5.450  0.2456 -0.4253 -0.4201
 2490SOL    HW118929   3.351   2.127   5.396  0.5176 -1.9007  0.6653
 2490SOL    HW218930   3.490   2.153   5.401  1.4621  1.4782  0.5873
 2491SOL     OW18931   3.428   2.866   1.062  0.1905  0.2466 -0.0391
 2491SOL    HW118932   3.456   2.934   1.124  1.9216  0.2357 -0.8074
 2491SOL    HW218933   3.512   2.847   1.020 -0.7165 -3.9009  0.1030
 2492SOL     OW18934   1.930   0.636   2.028 -0.1151 -0.2951  0.2330
 2492SOL    HW118935   1.906   0.545   2.007  1.3109 -0.5161 -0.4284
 2492SOL    HW218936   1.971   0.626   2.113 -2.0344 -1.5083  1.0234
 2493SOL     OW18937   0.020   2.139  11.780 -0.1952 -0.1013 -0.0898
 2493SOL    HW118938   0.026   2.069  11.846 -1.9429  0.0400  0.2242
 2493SOL    HW218939   4.701   2.213  11.824  0.0675 -0.0790  0.1223
 2494SOL     OW18940   3.417   1.474  13.995 -0.4966  0.2095  0.0669
 2494SOL    HW118941   3.390   1.486  13.904 -0.2834 -1.8084 -0.2426
 2494SOL    HW218942   3.334   1.479  14.044 -0.9786  1.1137 -0.8355
 2495SOL     OW18943   0.594   2.211   2.344  0.1498  0.3655  0.0562
 2495SOL    HW118944   0.608   2.180   2.433  0.1327  1.2252  0.3622
 2495SOL    HW218945   0.575   2.303   2.363 -0.2147  0.5009 -0.9490
 2496SOL     OW18946   4.614   3.259   7.063  0.0187  0.0773 -0.2083
 2496SOL    HW118947   4.526   3.222   7.050  0.1093  0.0267 -0.6921
 2496SOL    HW218948   4.643   3.265   6.972  0.1327  1.7947 -0.0643
 2497SOL     OW18949   1.713   3.725   7.735 -0.7527 -0.0590  0.0203
 2497SOL    HW118950   1.730   3.775   7.656 -2.7717 -0.7144 -0.8355
 2497SOL    HW218951   1.794   3.673   7.738 -0.6997 -0.1259 -3.4422
 2498SOL     OW18952   2.495   2.076   0.469  0.1982 -0.2394  0.3368
 2498SOL    HW118953   2.452   2.106   0.389 -1.2994  0.6171  1.4478
 2498SOL    HW218954   2.561   2.016   0.435 -1.5306 -2.0159  0.1426
 2499SOL     OW18955   2.988   4.558   8.889 -0.0493 -0.6869  0.2226
 2499SOL    HW118956   2.918   4.533   8.949 -0.2559 -0.9112 -0.1204
 2499SOL    HW218957   2.946   4.524   8.811 -0.2147 -0.4912  0.2278
 2500SOL     OW18958   4.259   2.909   2.302 -0.1584  0.2740  0.7016
 2500SOL    HW118959   4.244   2.998   2.335 -0.4961  0.9470 -1.2517
 2500SOL    HW218960   4.302   2.934   2.221 -1.1791  1.3872  0.4951
 2501SOL     OW18961   0.716   0.111   6.709  0.3423 -0.0261 -0.3233
 2501SOL    HW118962   0.722   0.205   6.697  3.4799 -0.2906 -0.7359
 2501SOL    HW218963   0.711   0.062   6.627  1.3470  0.7107 -0.8144
 2502SOL     OW18964   2.328   3.081  12.653 -0.1613  0.1297  0.2699
 2502SOL    HW118965   2.416   3.075  12.616  0.5449  0.6722  1.8834
 2502SOL    HW218966   2.306   3.164  12.611  0.3240 -0.4872 -1.2084
 2503SOL     OW18967   3.734   4.317   6.206 -0.3190 -0.3780  0.0995
 2503SOL    HW118968   3.704   4.364   6.128  0.2072 -1.8605 -0.9952
 2503SOL    HW218969   3.791   4.248   6.172 -0.5642 -0.2191 -0.6372
 2504SOL     OW18970   2.086   3.290  17.005 -0.4634  0.2272  0.0835
 2504SOL    HW118971   2.017   3.355  16.988 -1.6309 -1.1310 -0.3786
 2504SOL    HW218972   2.078   3.224  16.936  0.5660 -0.0083  0.1980
 2505SOL     OW18973   3.699   1.672  16.287 -0.2432  0.4111  0.2718
 2505SOL    HW118974   3.781   1.695  16.332  0.1763  1.4287 -1.0121
 2505SOL    HW218975   3.700   1.577  16.273  0.1248  0.6084 -1.0028
 2506SOL     OW18976   0.771   2.483   7.762 -0.2335 -0.5419 -0.0726
 2506SOL    HW118977   0.678   2.483   7.784 -1.0381  2.4491 -3.4294
 2506SOL    HW218978   0.801   2.466   7.852  0.2667 -1.0308 -0.3346
 2507SOL     OW18979   3.049   2.480   3.767  0.4489  0.3804  0.0375
 2507SOL    HW118980   3.059   2.385   3.761  1.6628  0.5846 -0.9014
 2507SOL    HW218981   3.082   2.504   3.681 -0.6123 -0.2993 -0.5719
 2508SOL     OW18982   4.071   2.537   3.760 -0.2695  0.3203  0.1288
 2508SOL    HW118983   4.062   2.621   3.715 -1.3277  0.5890  0.8449
 2508SOL    HW218984   3.985   2.530   3.800 -0.0367 -0.4187  0.5023
 2509SOL     OW18985   1.515   3.289   5.065  0.4229  0.2032  0.1026
 2509SOL    HW118986   1.468   3.266   4.986  1.2767  1.2808 -0.7205
 2509SOL    HW218987   1.604   3.307   5.034  0.3733  1.8592  0.8857
 2510SOL     OW18988   3.628   0.764   4.040 -0.3511 -0.1749  0.0758
 2510SOL    HW118989   3.572   0.841   4.030  0.1997  0.6109  3.1069
 2510SOL    HW218990   3.714   0.805   4.036 -0.2564 -0.0493  3.5496
 2511SOL     OW18991   2.738   1.281   7.573 -0.1448 -0.4341 -0.1226
 2511SOL    HW118992   2.718   1.372   7.596  1.5414 -0.3452  0.9739
 2511SOL    HW218993   2.743   1.278   7.478  0.1138 -1.2821 -0.0811
 2512SOL     OW18994   3.876   0.194   7.164  0.7631  0.0398  0.4485
 2512SOL    HW118995   3.797   0.147   7.138  0.6405 -0.4706  1.7700
 2512SOL    HW218996   3.901   0.121   7.220 -1.5094 -0.6980  0.4705
 2513SOL     OW18997   1.273   1.358   8.289  0.4568  0.3674  0.1452
 2513SOL    HW118998   1.355   1.364   8.338 -0.1716  2.4352  0.9018
 2513SOL    HW218999   1.251   1.265   8.276 -1.4136  0.5152  2.3163
 2514SOL     OW19000   0.701   0.449   2.054  0.2710  0.6821  0.3042
 2514SOL    HW119001   0.663   0.533   2.080 -0.7242 -0.8079  3.7386
 2514SOL    HW219002   0.736   0.463   1.966  1.4692 -1.3916  0.4709
 2515SOL     OW19003   1.135   1.205   6.043 -0.3343 -0.5885  0.0067
 2515SOL    HW119004   1.093   1.134   5.995  1.1761 -1.6780  0.3188
 2515SOL    HW219005   1.055   1.253   6.067  0.7914  0.7437  1.1215
 2516SOL     OW19006   0.847   4.281  15.052  0.2449 -0.3169 -0.2621
 2516SOL    HW119007   0.857   4.214  15.119 -0.0303  0.8704  0.9679
 2516SOL    HW219008   0.909   4.342  15.091  0.6216 -0.5307 -0.5327
 2517SOL     OW19009   3.311   2.044   4.333 -0.2418 -0.2007 -0.7934
 2517SOL    HW119010   3.405   2.060   4.324 -0.1257  0.5743  1.6450
 2517SOL    HW219011   3.280   2.120   4.383 -0.1500  1.7283 -3.6994
 2518SOL     OW19012   0.690   2.553   6.012  0.7455 -0.3140  0.1623
 2518SOL    HW119013   0.733   2.588   6.089 -0.7974 -2.7828  2.1738
 2518SOL    HW219014   0.662   2.469   6.049 -2.7379 -0.0651 -1.8451
 2519SOL     OW19015   4.006   2.536   1.941 -0.1765  0.1317 -0.5125
 2519SOL    HW119016   4.015   2.594   2.017 -0.4892 -3.8916  2.6337
 2519SOL    HW219017   3.912   2.521   1.953 -0.3054  0.7745 -0.7640
 2520SOL     OW19018   4.437   1.057  11.339 -0.0822  0.2478  0.0657
 2520SOL    HW119019   4.387   1.126  11.293 -0.0182  1.8935  2.4493
 2520SOL    HW219020   4.494   1.105  11.399 -0.7578  3.1533 -1.5675
 2521SOL     OW19021   4.375   3.355   9.304 -0.2142  0.0445 -0.0441
 2521SOL    HW119022   4.355   3.320   9.390 -1.6226  1.3660  0.1689
 2521SOL    HW219023   4.313   3.429   9.303 -0.5822 -0.2491  1.8833
 2522SOL     OW19024   3.345   3.902  15.298 -0.3843 -0.2793 -0.1935
 2522SOL    HW119025   3.263   3.866  15.332  0.0704 -0.1638  1.0358
 2522SOL    HW219026   3.323   3.996  15.295 -2.3003 -0.6345  2.2193
 2523SOL     OW19027   0.151   2.731   1.959  0.6482 -0.2148 -0.0401
 2523SOL    HW119028   0.104   2.700   2.036 -0.7777 -1.4084 -1.3771
 2523SOL    HW219029   0.241   2.706   1.981  0.7471  0.4342  0.2764
 2524SOL     OW19030   0.988   1.959   3.116 -0.0788  0.4573 -0.1216
 2524SOL    HW119031   0.943   1.960   3.200 -1.4278 -0.3895 -0.8367
 2524SOL    HW219032   1.077   1.937   3.144  0.3198 -1.4469 -2.8739
 2525SOL     OW19033   1.448   1.855   3.883  0.3242 -0.2372  0.8835
 2525SOL    HW119034   1.356   1.858   3.858 -0.1179  0.5246  2.6441
 2525SOL    HW219035   1.457   1.944   3.917  1.0041 -0.9819  2.6444
 2526SOL     OW19036   3.606   1.153   7.858 -0.0746 -0.3286  0.2833
 2526SOL    HW119037   3.661   1.120   7.930 -0.7519  1.2624  1.5241
 2526SOL    HW219038   3.670   1.196   7.801  0.3527 -2.6539 -0.9942
 2527SOL     OW19039   1.813   2.771   4.476 -0.2652 -0.4802  0.0882
 2527SOL    HW119040   1.772   2.686   4.495 -1.1345 -0.5702 -2.1751
 2527SOL    HW219041   1.738   2.824   4.451 -0.4951 -0.9837 -0.2940
 2528SOL     OW19042   1.950   1.460   0.554  0.8775  0.6233  0.1275
 2528SOL    HW119043   1.954   1.551   0.525  0.5791  0.5378 -0.1840
 2528SOL    HW219044   1.884   1.462   0.623 -0.3768 -1.0033 -1.0334
 2529SOL     OW19045   3.325   0.348   3.994  0.0185 -0.1361  0.0278
 2529SOL    HW119046   3.409   0.375   4.031  1.1389 -2.3131 -0.9280
 2529SOL    HW219047   3.348   0.345   3.901  0.8014  2.2459  0.1442
 2530SOL     OW19048   0.378   1.224   3.725 -0.6489  0.6757  0.5493
 2530SOL    HW119049   0.358   1.227   3.631 -0.3874  2.4243  0.5372
 2530SOL    HW219050   0.312   1.276   3.771 -0.1903  1.4033  0.3884
 2531SOL     OW19051   3.770   0.135   8.266  0.0904 -0.2368  0.2475
 2531SOL    HW119052   3.684   0.175   8.251  0.6251  0.6161 -0.4687
 2531SOL    HW219053   3.827   0.175   8.201  2.6538  0.0203  2.6540
 2532SOL     OW19054   0.008   1.214   3.639 -0.5606  0.3028 -0.0101
 2532SOL    HW119055   0.081   1.160   3.611  2.4618  4.1765  0.4557
 2532SOL    HW219056   4.708   1.157   3.712  1.3326  2.8688  2.5923
 2533SOL     OW19057   0.277   0.359   4.563  0.1101  0.3842  0.0344
 2533SOL    HW119058   0.371   0.349   4.580  0.6488  2.6801 -1.4336
 2533SOL    HW219059   0.251   0.268   4.573 -0.6497  0.9532  3.0395
 2534SOL     OW19060   4.532   3.736   5.897 -0.2332 -0.4820  0.0715
 2534SOL    HW119061   4.576   3.821   5.890  0.1424 -0.6084  0.8649
 2534SOL    HW219062   4.505   3.747   5.988  0.7450  0.6758  0.2302
 2535SOL     OW19063   4.382   1.810   6.330 -0.3745 -0.5701 -0.1340
 2535SOL    HW119064   4.345   1.892   6.365 -0.1372 -1.1391  1.4590
 2535SOL    HW219065   4.336   1.737   6.371  1.0836  0.5053  3.4190
 2536SOL     OW19066   1.921   4.584  10.630 -0.2962 -0.0674  0.6539
 2536SOL    HW119067   1.867   4.509  10.606  0.6218 -0.3438 -0.4921
 2536SOL    HW219068   1.872   4.654  10.588  0.3076 -1.2017 -1.9059
 2537SOL     OW19069   2.871   0.195   1.061 -0.0126 -0.2607  0.5156
 2537SOL    HW119070   2.785   0.197   1.102 -0.8227  0.7512 -1.2424
 2537SOL    HW219071   2.874   0.109   1.018 -0.4448  0.3687 -0.7900
 2538SOL     OW19072   4.331   1.066   0.735 -0.6734  1.0211  0.3305
 2538SOL    HW119073   4.411   1.015   0.720 -2.5511 -1.1289 -2.4818
 2538SOL    HW219074   4.364   1.154   0.715  0.3454  0.6550  0.3826
 2539SOL     OW19075   0.663   3.226  12.221  0.4209  0.0353  0.5159
 2539SOL    HW119076   0.681   3.207  12.129  0.6514 -1.6364  0.9199
 2539SOL    HW219077   0.697   3.316  12.218 -1.6651  0.7487 -1.6312
 2540SOL     OW19078   4.173   3.725   0.905 -0.2735 -0.1906 -0.4838
 2540SOL    HW119079   4.240   3.659   0.925 -1.7386 -1.6377 -0.2859
 2540SOL    HW219080   4.201   3.797   0.961 -0.1386  0.1615 -1.0013
 2541SOL     OW19081   0.471   1.087  17.630 -0.6642 -0.0024  0.3932
 2541SOL    HW119082   0.540   1.028  17.598 -0.1311  0.6566  0.3205
 2541SOL    HW219083   0.402   1.074  17.565  0.4056  0.5044 -0.8477
 2542SOL     OW19084   2.768   1.975  17.046 -0.2313 -1.0015 -0.5945
 2542SOL    HW119085   2.691   1.955  17.100  0.4757  2.6839  1.7523
 2542SOL    HW219086   2.831   1.999  17.113 -0.5495  0.5144 -0.8549
 2543SOL     OW19087   1.122   0.108  14.965 -0.0104 -0.0440  0.2335
 2543SOL    HW119088   1.049   0.074  14.912 -0.5016  1.7088 -0.1935
 2543SOL    HW219089   1.189   0.111  14.896  0.8734 -1.9801  1.0113
 2544SOL     OW19090   1.753   4.630  11.337 -0.2575  0.0829 -0.0854
 2544SOL    HW119091   1.763   4.685  11.259 -0.9606  1.9427  1.1499
 2544SOL    HW219092   1.691   4.563  11.307  0.4237 -0.5024 -0.1873
 2545SOL     OW19093   2.165   4.561   4.610  0.2774  0.2095 -0.0950
 2545SOL    HW119094   2.250   4.605   4.608  0.1137  0.5424  0.4600
 2545SOL    HW219095   2.134   4.580   4.522 -0.0514 -2.7886 -0.6488
 2546SOL     OW19096   3.788   0.377   4.959 -0.9553 -0.4490 -0.0246
 2546SOL    HW119097   3.761   0.343   5.044  0.6152 -1.0418  0.2322
 2546SOL    HW219098   3.703   0.401   4.922 -1.7072 -1.0601  1.3020
 2547SOL     OW19099   2.652   0.374   1.486  0.4524 -0.2284  0.0270
 2547SOL    HW119100   2.601   0.293   1.482 -0.9369  0.6791 -0.6321
 2547SOL    HW219101   2.713   0.351   1.556 -0.8633  0.5264  1.3955
 2548SOL     OW19102   0.406   2.784   4.933  0.1056  0.3140  0.4121
 2548SOL    HW119103   0.359   2.859   4.898  0.2279  0.2646  0.1369
 2548SOL    HW219104   0.429   2.739   4.851 -1.6117  1.6439 -0.7999
 2549SOL     OW19105   2.731   2.244   7.112 -0.0137  0.1259 -0.3692
 2549SOL    HW119106   2.670   2.180   7.147 -1.0372  0.3797 -1.7024
 2549SOL    HW219107   2.672   2.313   7.081  0.7120  0.7277 -0.4052
 2550SOL     OW19108   0.087   1.588  17.251  0.2556 -0.4447 -0.1305
 2550SOL    HW119109   0.172   1.631  17.244 -0.5578  1.5276  2.2340
 2550SOL    HW219110   0.043   1.662  17.293  0.4477  0.6989 -1.9610
 2551SOL     OW19111   4.509   2.493   6.568  0.2735  0.0175  0.2977
 2551SOL    HW119112   4.481   2.559   6.505 -1.9331 -1.2963 -0.0762
 2551SOL    HW219113   4.423   2.457   6.589  0.0010  0.5330  0.0584
 2552SOL     OW19114   0.790   4.366  11.498  0.4485 -0.9195 -0.0568
 2552SOL    HW119115   0.882   4.342  11.506 -0.8587 -5.1936  1.8081
 2552SOL    HW219116   0.804   4.399  11.409  1.7942 -1.4927 -0.0563
 2553SOL     OW19117   1.874   4.035  12.117  0.0326  0.0014  0.2173
 2553SOL    HW119118   1.800   3.997  12.070 -1.3430  2.0197  0.7479
 2553SOL    HW219119   1.943   4.044  12.052  0.6694 -1.9876  0.6187
 2554SOL     OW19120   1.545   2.221   4.628 -0.2256  0.2244 -0.2428
 2554SOL    HW119121   1.509   2.306   4.651 -0.3820  0.1002 -0.0339
 2554SOL    HW219122   1.478   2.179   4.575  0.1339 -2.9446  1.8517
 2555SOL     OW19123   4.321   2.438   5.999  0.2306 -0.4070  0.5764
 2555SOL    HW119124   4.397   2.384   6.022  1.2946 -0.1034 -2.2061
 2555SOL    HW219125   4.275   2.450   6.082  0.0443 -1.1173  0.5769
 2556SOL     OW19126   1.004   3.060   1.777 -0.2099  0.7236 -0.5217
 2556SOL    HW119127   0.946   3.134   1.796 -1.8546 -0.7098 -0.0465
 2556SOL    HW219128   0.947   2.994   1.816  3.1685 -1.2218  1.0703
 2557SOL     OW19129   4.619   3.675   3.506 -0.6000  0.4207  0.2551
 2557SOL    HW119130   4.625   3.661   3.412 -0.9105 -0.2730  0.3423
 2557SOL    HW219131   4.668   3.601   3.541 -0.5550 -0.3082 -1.3683
 2558SOL     OW19132   1.234   2.877   6.775 -0.0921 -0.0102 -0.4202
 2558SOL    HW119133   1.151   2.846   6.810 -0.2083  0.3333 -0.3918
 2558SOL    HW219134   1.219   2.969   6.753 -1.2218 -0.0230  0.3359
 2559SOL     OW19135   4.574   4.345   4.133 -0.0262  0.2996 -0.0898
 2559SOL    HW119136   4.655   4.360   4.085  0.2765  1.6883  0.8770
 2559SOL    HW219137   4.590   4.400   4.209 -1.8045 -2.2945  2.1974
 2560SOL     OW19138   3.627   1.689   6.373 -0.0834 -0.1216  0.4425
 2560SOL    HW119139   3.551   1.743   6.350 -0.3714  0.3076  2.3959
 2560SOL    HW219140   3.614   1.678   6.467 -0.6207 -3.4739 -0.0360
 2561SOL     OW19141   1.323   4.432   0.703 -0.5600  0.5703  0.4744
 2561SOL    HW119142   1.294   4.523   0.691  1.4128  0.7838 -2.5014
 2561SOL    HW219143   1.245   4.379   0.688 -0.2106 -0.0494  0.8335
 2562SOL     OW19144   1.222   3.120   5.722  0.1723 -0.1884  0.0499
 2562SOL    HW119145   1.145   3.107   5.778 -0.3777  0.9244 -0.4372
 2562SOL    HW219146   1.181   3.144   5.639  0.8614  3.2614  0.7461
 2563SOL     OW19147   2.373   3.276   4.128 -0.0825  0.2115  0.0658
 2563SOL    HW119148   2.410   3.363   4.139 -0.6944  0.6257 -1.0806
 2563SOL    HW219149   2.351   3.285   4.035  1.0991 -1.6469 -0.3974
 2564SOL     OW19150   3.749   3.785   4.540  0.0431 -0.0297  0.2478
 2564SOL    HW119151   3.660   3.765   4.567 -0.0157 -0.2678 -0.1314
 2564SOL    HW219152   3.796   3.728   4.601 -0.2602  1.3188  1.7433
 2565SOL     OW19153   2.854   3.137  12.545  0.1783 -0.1460 -0.5587
 2565SOL    HW119154   2.949   3.122  12.544  0.4077  1.0408  2.1404
 2565SOL    HW219155   2.832   3.071  12.611  2.2607 -0.2756  0.0210
 2566SOL     OW19156   4.018   4.357   9.631  0.1066  0.0604 -0.6786
 2566SOL    HW119157   4.075   4.425   9.596 -1.1038  1.4251 -0.0242
 2566SOL    HW219158   3.930   4.384   9.601 -0.4120  0.1351  0.9290
 2567SOL     OW19159   3.045   0.216   6.491 -0.1541 -0.1914  0.2266
 2567SOL    HW119160   3.038   0.309   6.472  1.7302 -0.3514 -1.2405
 2567SOL    HW219161   3.069   0.226   6.583  0.1097  1.5166 -0.0288
 2568SOL     OW19162   4.500   2.999  13.415  0.6147 -0.4528 -0.2556
 2568SOL    HW119163   4.532   3.078  13.460  0.8093 -0.0972 -1.0182
 2568SOL    HW219164   4.450   3.040  13.344  0.0352 -0.5159  0.1103
 2569SOL     OW19165   2.393   2.315   6.809  0.2806  0.1745 -0.0851
 2569SOL    HW119166   2.309   2.272   6.824  0.5039  0.2692  1.4811
 2569SOL    HW219167   2.459   2.250   6.784  0.7754 -0.4758  2.9097
 2570SOL     OW19168   4.484   0.293   4.905 -0.5066  0.7817 -0.4558
 2570SOL    HW119169   4.506   0.344   4.984  0.4471 -0.8044  0.2993
 2570SOL    HW219170   4.390   0.302   4.893 -0.3785  1.5613 -0.9198
 2571SOL     OW19171   2.426   2.767   3.120  0.3400  0.6794  0.2684
 2571SOL    HW119172   2.418   2.855   3.084  4.0871  0.8158 -0.2068
 2571SOL    HW219173   2.502   2.790   3.174 -0.5717  1.0002  1.4355
 2572SOL     OW19174   3.102   3.335   8.819 -0.7686 -0.3862  0.2978
 2572SOL    HW119175   3.141   3.339   8.906  1.0159 -0.2216 -0.4858
 2572SOL    HW219176   3.029   3.278   8.842 -0.0693 -1.2756  0.3305
 2573SOL     OW19177   2.212   2.041   0.706 -0.1792  0.1130 -0.5050
 2573SOL    HW119178   2.139   2.048   0.644 -0.6219  1.2579  0.1293
 2573SOL    HW219179   2.207   2.124   0.754  1.6610  0.3108 -0.6300
 2574SOL     OW19180   4.413   0.262  11.119 -0.1728  0.1735 -0.0297
 2574SOL    HW119181   4.429   0.334  11.057  2.9954 -0.5680 -0.0992
 2574SOL    HW219182   4.408   0.181  11.070 -2.3440  0.0163  0.4699
 2575SOL     OW19183   0.550   2.176   9.127  0.0703  0.8432  0.2808
 2575SOL    HW119184   0.493   2.218   9.063 -0.5692  0.0699  0.3386
 2575SOL    HW219185   0.545   2.236   9.202  0.4012 -1.7304  2.3514
 2576SOL     OW19186   3.637   3.068   4.057 -0.6502  0.1773 -0.0931
 2576SOL    HW119187   3.542   3.076   4.049 -0.6633  3.0607  2.9750
 2576SOL    HW219188   3.650   2.990   4.112  0.7277  0.6343  0.2205
 2577SOL     OW19189   3.807   1.767   7.774  0.3290  0.1707 -0.3662
 2577SOL    HW119190   3.807   1.672   7.787 -3.2174  0.2398  0.0130
 2577SOL    HW219191   3.812   1.796   7.865  1.8849  1.2408 -0.7926
 2578SOL     OW19192   0.559   4.318  11.733  0.5289  0.1159 -0.3908
 2578SOL    HW119193   0.602   4.376  11.672  1.6325 -0.9086 -0.5761
 2578SOL    HW219194   0.617   4.320  11.809  2.0230  0.5642 -1.5599
 2579SOL     OW19195   3.476   0.694   0.899  0.0554 -0.0759  0.2705
 2579SOL    HW119196   3.428   0.776   0.905  0.8365  0.4901 -1.2455
 2579SOL    HW219197   3.562   0.735   0.890  0.7620 -1.2642  1.4794
 2580SOL     OW19198   2.507   1.450  10.263  0.6268  0.1610 -0.0850
 2580SOL    HW119199   2.419   1.461  10.226  0.4311 -0.9294  0.0431
 2580SOL    HW219200   2.565   1.479  10.192  0.9644  0.8814  0.4905
 2581SOL     OW19201   1.318   2.176   6.291  0.3164  0.0523 -0.0081
 2581SOL    HW119202   1.361   2.108   6.343 -2.0777 -1.4398 -0.0095
 2581SOL    HW219203   1.230   2.142   6.309  0.5349 -0.3671  0.2665
 2582SOL     OW19204   3.146   3.344   5.586  0.3520 -0.0598 -0.2525
 2582SOL    HW119205   3.124   3.258   5.623  1.8101  0.7267  2.4525
 2582SOL    HW219206   3.081   3.351   5.516 -0.6972  1.7907  0.9125
 2583SOL     OW19207   3.602   2.371   4.504  0.2392 -0.0829 -0.0570
 2583SOL    HW119208   3.595   2.359   4.410 -0.6176 -1.9194  0.2541
 2583SOL    HW219209   3.520   2.332   4.534  0.1490  0.8786  0.9619
 2584SOL     OW19210   2.021   4.542   3.712  0.5930 -0.0793 -0.2086
 2584SOL    HW119211   2.070   4.465   3.740 -0.9377 -0.5422  1.1577
 2584SOL    HW219212   1.929   4.528   3.733  0.5201 -1.1379 -1.2957
 2585SOL     OW19213   2.299   0.287   7.351  0.4127 -0.4010 -0.0393
 2585SOL    HW119214   2.215   0.327   7.328 -0.3907 -1.2309  1.4396
 2585SOL    HW219215   2.359   0.293   7.277  2.1237  1.7242  1.5355
 2586SOL     OW19216   4.248   4.230   9.529 -0.3210  0.3101 -0.3554
 2586SOL    HW119217   4.259   4.241   9.435  1.7102  1.5105  0.0327
 2586SOL    HW219218   4.167   4.277   9.549 -0.5202  0.5162 -1.6824
 2587SOL     OW19219   3.875   0.474   3.745  0.1528 -0.6578 -0.0705
 2587SOL    HW119220   3.940   0.505   3.682 -0.1088 -0.2073 -0.1190
 2587SOL    HW219221   3.878   0.381   3.726 -1.6625 -0.3228 -2.0409
 2588SOL     OW19222   0.236   0.248   6.296 -0.2899 -0.2411 -0.5412
 2588SOL    HW119223   0.201   0.159   6.301  1.1865 -0.6762  1.5728
 2588SOL    HW219224   0.319   0.247   6.343  0.0248 -2.0970 -1.1341
 2589SOL     OW19225   0.428   4.328   3.015 -0.3320 -0.1061  0.6773
 2589SOL    HW119226   0.501   4.390   3.022  0.2798 -0.5748 -1.5695
 2589SOL    HW219227   0.467   4.244   3.042 -1.5597 -0.7447  0.4480
 2590SOL     OW19228   3.625   4.250   2.494 -0.1178  0.5900 -0.1065
 2590SOL    HW119229   3.613   4.286   2.406  3.2614  0.3968 -0.6374
 2590SOL    HW219230   3.540   4.208   2.508  0.4945 -0.6312 -0.0663
 2591SOL     OW19231   0.735   1.993   7.144 -0.2398  0.1902  0.1398
 2591SOL    HW119232   0.806   2.055   7.133 -1.7318  2.3028  2.4447
 2591SOL    HW219233   0.713   2.002   7.236  2.0582 -0.6420  0.7525
 2592SOL     OW19234   0.424   1.581  17.605 -0.0410 -0.8821 -0.6131
 2592SOL    HW119235   0.502   1.526  17.605  1.6701  1.5387  0.7278
 2592SOL    HW219236   0.460   1.660  17.563  0.6783 -0.3987  0.9005
 2593SOL     OW19237   3.523   1.638   8.662 -0.9371  0.1613  0.5267
 2593SOL    HW119238   3.448   1.694   8.645 -0.2890  1.0978  0.7463
 2593SOL    HW219239   3.490   1.548   8.657 -0.3706  0.0131 -0.4860
 2594SOL     OW19240   1.102   0.352   0.018 -0.5919 -0.3616 -0.2928
 2594SOL    HW119241   1.142   0.362  17.627  0.6681  0.6788  0.4119
 2594SOL    HW219242   1.177   0.320   0.068 -0.1294  1.0276 -0.1059
 2595SOL     OW19243   3.494   1.577   7.125  0.5229  0.3531 -0.1176
 2595SOL    HW119244   3.479   1.671   7.131  1.5239  0.3953  1.5532
 2595SOL    HW219245   3.416   1.538   7.165  0.5798  0.4558  0.0926
 2596SOL     OW19246   2.716   0.012   4.154  0.1166  0.0292  0.3081
 2596SOL    HW119247   2.713   0.026   4.059 -0.5955  0.8982  0.4660
 2596SOL    HW219248   2.810   0.002   4.170  0.3571  1.0141 -0.5144
 2597SOL     OW19249   0.549   0.978   5.882 -0.1003  0.2523 -0.1845
 2597SOL    HW119250   0.490   0.989   5.957  0.7642 -2.4990  0.9027
 2597SOL    HW219251   0.513   0.901   5.838  1.0746 -0.4563  0.0879
 2598SOL     OW19252   3.869   4.347   1.353 -0.3641 -0.0352 -0.6453
 2598SOL    HW119253   3.846   4.267   1.399 -1.1014  1.5428  1.7066
 2598SOL    HW219254   3.787   4.395   1.359  0.9937  2.2161  0.0234
 2599SOL     OW19255   0.406   4.212  15.339 -0.4722  0.2834  0.0570
 2599SOL    HW119256   0.313   4.221  15.359 -1.1193  1.1970 -3.3608
 2599SOL    HW219257   0.441   4.268  15.408 -0.6658 -1.7915  1.8117
 2600SOL     OW19258   4.306   0.172   2.473  0.0570 -0.0325  0.0177
 2600SOL    HW119259   4.343   0.086   2.497  3.2898  0.9041 -1.5787
 2600SOL    HW219260   4.212   0.158   2.476 -0.1337  0.9787 -1.2582
 2601SOL     OW19261   0.602   1.182   1.423 -0.3078  0.5257  0.0535
 2601SOL    HW119262   0.585   1.203   1.331  0.9450 -0.2361 -0.3573
 2601SOL    HW219263   0.685   1.223   1.446  1.0304 -3.5222  2.4573
 2602SOL     OW19264   2.696   1.782   1.900 -0.3392 -0.7672 -0.5699
 2602SOL    HW119265   2.772   1.796   1.957 -1.3857 -2.0282  1.1422
 2602SOL    HW219266   2.733   1.730   1.828  0.0192 -1.2809 -0.0161
 2603SOL     OW19267   3.344   1.808   8.513  0.1968 -0.3049 -0.7650
 2603SOL    HW119268   3.339   1.892   8.468 -0.0639  0.7927  1.3340
 2603SOL    HW219269   3.339   1.747   8.439  0.3481  0.9682 -1.8234
 2604SOL     OW19270   2.928   1.724   7.546  0.3988  0.1025  0.2775
 2604SOL    HW119271   2.867   1.780   7.498  1.4028  0.1284 -0.9760
 2604SOL    HW219272   2.907   1.752   7.635 -1.6921 -4.6077  1.2951
 2605SOL     OW19273   1.057   0.882  13.051 -0.1714  0.3234  0.2748
 2605SOL    HW119274   0.963   0.888  13.069 -0.0432  1.3920  0.5619
 2605SOL    HW219275   1.053   0.894  12.956 -2.6121 -0.5299  0.2530
 2606SOL     OW19276   2.787   2.897   2.343 -0.1204 -0.8502  0.1570
 2606SOL    HW119277   2.880   2.919   2.338  0.4905 -3.5836 -0.9102
 2606SOL    HW219278   2.761   2.907   2.251  1.3857 -3.1493 -0.5263
 2607SOL     OW19279   4.690   0.007   3.251  0.3964 -0.7507  0.5591
 2607SOL    HW119280   0.052   4.693   3.230 -0.7276 -3.1170  0.2344
 2607SOL    HW219281   4.642   4.694   3.177 -1.8080  4.2672 -0.5068
 2608SOL     OW19282   3.542   0.342   8.328  0.3605  0.1629  0.0419
 2608SOL    HW119283   3.467   0.387   8.366 -1.5375 -2.3230 -0.7864
 2608SOL    HW219284   3.589   0.405   8.274 -2.7466  2.2344 -0.2466
 2609SOL     OW19285   1.709   3.270   4.876  0.3773  0.1235 -0.2330
 2609SOL    HW119286   1.667   3.294   4.793 -1.7458 -0.0639  0.7882
 2609SOL    HW219287   1.790   3.318   4.860  0.9723 -0.8545 -0.1441
 2610SOL     OW19288   2.996   0.062  15.180 -0.3713 -1.0276 -0.5025
 2610SOL    HW119289   2.939   0.112  15.237 -0.3919 -1.8172  0.1712
 2610SOL    HW219290   3.072   0.119  15.169 -1.2486  0.0467 -1.0230
 2611SOL     OW19291   3.775   4.234   6.928  0.0106 -1.4028 -0.0621
 2611SOL    HW119292   3.757   4.317   6.972 -0.0135 -0.4293 -1.9403
 2611SOL    HW219293   3.817   4.182   6.997  1.1205 -1.8834 -1.1196
 2612SOL     OW19294   3.576   3.693   4.133 -0.7668 -0.4130 -0.0511
 2612SOL    HW119295   3.627   3.655   4.061  1.2934 -0.7523  1.5678
 2612SOL    HW219296   3.532   3.766   4.091  0.3270  0.6040  0.5456
 2613SOL     OW19297   1.893   4.198   0.063 -0.0389  0.0155  0.0174
 2613SOL    HW119298   1.948   4.263   0.020 -0.7620  0.9130  0.4490
 2613SOL    HW219299   1.870   4.151  17.677  0.5129 -0.6956  0.2775
 2614SOL     OW19300   0.052   0.379   0.756 -0.2525 -0.4220  0.5883
 2614SOL    HW119301   0.048   0.285   0.771  0.0959 -0.7563 -1.3989
 2614SOL    HW219302   0.023   0.421   0.837 -3.5938 -1.4190 -0.1218
 2615SOL     OW19303   3.765   0.487   9.656 -0.2498 -0.6362  0.0514
 2615SOL    HW119304   3.679   0.521   9.632 -0.0292  0.5087  0.8877
 2615SOL    HW219305   3.734   0.397   9.665 -0.6950 -0.1866  2.8003
 2616SOL     OW19306   3.094   1.076  10.984  0.5152  0.2588  0.2304
 2616SOL    HW119307   3.038   1.125  10.923 -1.0040  0.5674  1.8795
 2616SOL    HW219308   3.056   0.992  11.008 -0.9037  1.2149  1.3610
 2617SOL     OW19309   0.833   4.697   0.770 -0.3879 -0.0744  0.1037
 2617SOL    HW119310   0.798   4.690   0.859 -1.0500 -3.0667 -0.4136
 2617SOL    HW219311   0.869   0.062   0.781 -0.9656  0.2006 -0.2432
 2618SOL     OW19312   2.864   1.794   3.924 -0.4519 -0.4768  0.0855
 2618SOL    HW119313   2.839   1.803   3.832 -0.8366 -0.4491  0.1917
 2618SOL    HW219314   2.831   1.877   3.959 -1.0489 -0.1396 -1.2801
 2619SOL     OW19315   3.606   0.584   3.789 -0.6001  0.5118 -0.4157
 2619SOL    HW119316   3.691   0.544   3.772  0.8203  3.7535 -1.0650
 2619SOL    HW219317   3.627   0.659   3.846  4.0502 -1.0353 -0.0749
 2620SOL     OW19318   2.121   3.688  10.092 -0.0718  0.2224  0.0132
 2620SOL    HW119319   2.131   3.595  10.111  2.3550  0.7889  1.4253
 2620SOL    HW219320   2.025   3.684  10.086  0.0651  0.0269 -2.2395
 2621SOL     OW19321   1.944   1.097   3.318 -0.2580 -0.5234  0.5315
 2621SOL    HW119322   1.988   1.034   3.261  0.4014  0.6351 -0.2493
 2621SOL    HW219323   1.851   1.095   3.295  0.1661 -0.4709 -1.2103
 2622SOL     OW19324   3.269   2.282   6.308 -0.0613  0.1154  0.9100
 2622SOL    HW119325   3.264   2.209   6.369  0.3066  1.6813  2.8225
 2622SOL    HW219326   3.194   2.276   6.249  1.9185 -0.6759 -1.5316
 2623SOL     OW19327   4.076   0.286   3.908 -0.3896  0.1370  0.3386
 2623SOL    HW119328   4.031   0.259   3.829 -0.9174 -1.4022  1.1698
 2623SOL    HW219329   4.161   0.320   3.878  0.3329 -1.6171  0.4172
 2624SOL     OW19330   0.307   4.399   1.656  0.3672 -0.4057  0.1323
 2624SOL    HW119331   0.337   4.480   1.614 -0.1657 -1.2492 -1.8870
 2624SOL    HW219332   0.262   4.374   1.575 -0.9341  0.7980  0.4786
 2625SOL     OW19333   0.926   1.361   8.071  0.5677  0.4891  0.1647
 2625SOL    HW119334   0.878   1.441   8.049 -1.4608 -0.6670  0.4295
 2625SOL    HW219335   0.917   1.354   8.166  0.6354  0.4665  0.1696
 2626SOL     OW19336   1.295   1.234   3.725 -0.0971  0.0677 -0.0133
 2626SOL    HW119337   1.340   1.231   3.809 -0.3067 -0.0036  0.0966
 2626SOL    HW219338   1.350   1.171   3.679 -2.1691 -0.4084 -1.8427
 2627SOL     OW19339   1.509   4.456   5.318  0.3368 -0.2946 -0.5226
 2627SOL    HW119340   1.526   4.519   5.387 -0.1226  2.2730 -2.7760
 2627SOL    HW219341   1.589   4.403   5.311  0.2923 -0.3363 -0.7277
 2628SOL     OW19342   4.483   1.844   0.962  0.1712  0.1087 -0.6700
 2628SOL    HW119343   4.549   1.913   0.964  0.1464  0.1308 -0.6277
 2628SOL    HW219344   4.489   1.818   1.054  1.9967  1.1258 -0.4977
 2629SOL     OW19345   1.411   4.295   9.605  0.0852 -0.3444 -0.0169
 2629SOL    HW119346   1.379   4.221   9.553 -0.2241  0.1441 -0.5195
 2629SOL    HW219347   1.361   4.271   9.683  0.4422 -1.5371 -0.1538
 2630SOL     OW19348   2.867   2.983   4.207 -0.1457 -0.2053 -0.0957
 2630SOL    HW119349   2.800   3.046   4.235 -1.1649 -1.1051 -0.5185
 2630SOL    HW219350   2.811   2.908   4.190  0.1131 -0.2432 -0.7481
 2631SOL     OW19351   1.264   4.573  10.150  0.3336 -0.6475 -0.1864
 2631SOL    HW119352   1.195   4.637  10.165 -0.2000 -1.6419  1.5630
 2631SOL    HW219353   1.332   4.619  10.100  0.7280 -1.8171 -0.7143
 2632SOL     OW19354   0.550   2.277   4.605  0.0447  0.0288 -0.2751
 2632SOL    HW119355   0.551   2.198   4.658 -0.0603  0.0722 -0.2098
 2632SOL    HW219356   0.603   2.246   4.532  1.8658  0.7120  0.7513
 2633SOL     OW19357   1.888   3.708  10.497 -0.0998  0.0418  0.1614
 2633SOL    HW119358   1.915   3.640  10.436  0.9491 -0.0024  0.6667
 2633SOL    HW219359   1.877   3.654  10.575  0.1460  0.3479  0.4096
 2634SOL     OW19360   4.237   4.175   2.411  0.3764 -0.0206  0.0314
 2634SOL    HW119361   4.329   4.162   2.436  0.6950 -0.6937 -1.5019
 2634SOL    HW219362   4.221   4.266   2.438 -5.2783 -1.4966  1.5527
 2635SOL     OW19363   1.462   1.016  12.204 -0.0146  0.3856  0.0553
 2635SOL    HW119364   1.369   1.015  12.181 -0.0328 -2.1652  0.2489
 2635SOL    HW219365   1.461   0.985  12.295 -0.9451 -1.9441 -0.7669
 2636SOL     OW19366   2.850   0.874  10.842 -0.5194 -0.2710  0.2743
 2636SOL    HW119367   2.933   0.830  10.827  0.3038  1.9477 -1.7542
 2636SOL    HW219368   2.792   0.841  10.773 -1.2762  0.6744  0.4574
 2637SOL     OW19369   4.686   1.998   1.235  0.2322 -0.2137  0.4852
 2637SOL    HW119370   4.706   2.018   1.143  2.7628  0.9862  1.2975
 2637SOL    HW219371   0.043   2.034   1.272  0.6884 -2.6464  1.8699
 2638SOL     OW19372   1.706   1.817   8.511  0.0308  0.0539 -0.6111
 2638SOL    HW119373   1.788   1.769   8.518 -0.7300 -1.3668 -1.2805
 2638SOL    HW219374   1.657   1.745   8.471 -1.8146  1.0702 -0.1971
 2639SOL     OW19375   2.132   1.120   8.970  0.1207  0.0596 -0.0942
 2639SOL    HW119376   2.039   1.146   8.968 -0.7576 -3.1057 -0.3832
 2639SOL    HW219377   2.178   1.202   8.987  1.0016 -0.7161  1.2789
 2640SOL     OW19378   3.864   3.085   9.227  0.0165  0.1094  0.9538
 2640SOL    HW119379   3.836   3.061   9.138  1.9814  0.9040  0.1325
 2640SOL    HW219380   3.784   3.134   9.250  0.7831  1.4069  0.8772
 2641SOL     OW19381   1.169   0.762   6.694  0.2762  0.9100 -0.0072
 2641SOL    HW119382   1.077   0.747   6.716 -0.1042  1.0698 -1.4816
 2641SOL    HW219383   1.200   0.723   6.775  0.5668  0.9529 -0.0978
 2642SOL     OW19384   4.541   3.436   3.118 -0.1146  0.3087 -0.1677
 2642SOL    HW119385   4.447   3.442   3.137  0.2559  1.5493  1.3384
 2642SOL    HW219386   4.568   3.360   3.170 -1.6245 -0.7034 -0.8525
 2643SOL     OW19387   1.006   3.060  11.144 -0.2104  0.0517  0.3242
 2643SOL    HW119388   0.989   3.091  11.233 -1.1513  1.1979 -0.2535
 2643SOL    HW219389   0.934   3.004  11.115  1.4157 -2.5850  1.3749
 2644SOL     OW19390   2.694   0.375   5.752 -0.1361  0.5080  0.9431
 2644SOL    HW119391   2.659   0.362   5.840 -0.7480  0.1646  0.6412
 2644SOL    HW219392   2.776   0.417   5.780 -0.0411  0.7705  0.2615
 2645SOL     OW19393   0.379   3.801   2.061 -0.0061 -0.3918 -0.2502
 2645SOL    HW119394   0.432   3.736   2.014  1.0408 -2.2911  3.5617
 2645SOL    HW219395   0.304   3.787   2.003 -0.1552  1.2160 -0.4557
 2646SOL     OW19396   4.229   0.141   0.921 -0.2014 -0.2260 -0.6396
 2646SOL    HW119397   4.139   0.108   0.923 -1.2377  2.6915  0.7800
 2646SOL    HW219398   4.216   0.211   0.857  0.7435  1.1896  0.7235
 2647SOL     OW19399   0.794   4.596   5.130 -0.0518  0.4425  0.7358
 2647SOL    HW119400   0.727   4.625   5.068  0.9226  2.7558  0.7468
 2647SOL    HW219401   0.738   4.569   5.203 -0.7748  1.5046  0.5709
 2648SOL     OW19402   0.844   3.766  16.828 -0.0831 -0.3131  0.5695
 2648SOL    HW119403   0.793   3.813  16.893 -0.6365  1.2047 -0.9733
 2648SOL    HW219404   0.893   3.708  16.886  2.5338  1.3224 -0.0283
 2649SOL     OW19405   0.544   2.069   8.294  0.4399 -0.0493 -0.2420
 2649SOL    HW119406   0.626   2.115   8.275  0.0894  0.7932  0.2386
 2649SOL    HW219407   0.536   2.029   8.208  0.3542 -0.0568 -0.2302
 2650SOL     OW19408   1.804   3.433   6.037  0.3095  0.1544  0.0289
 2650SOL    HW119409   1.861   3.385   6.097  0.1627  1.8895  1.5661
 2650SOL    HW219410   1.718   3.437   6.079  1.3907  2.8367  1.9901
 2651SOL     OW19411   0.916   1.941   4.228  0.1245 -0.4517 -0.4518
 2651SOL    HW119412   0.844   1.890   4.191 -0.8772  0.1811  0.6621
 2651SOL    HW219413   0.926   2.005   4.157  0.2312  0.8850  0.7662
 2652SOL     OW19414   3.686   0.840   5.010 -0.1032 -0.2220  0.0443
 2652SOL    HW119415   3.627   0.897   5.059 -1.8295 -2.4614  0.5506
 2652SOL    HW219416   3.678   0.885   4.925  1.4870 -0.1037 -0.0326
 2653SOL     OW19417   0.051   2.490   5.571  0.4467  0.0165  0.2831
 2653SOL    HW119418   0.096   2.445   5.642 -2.3798 -0.6363  1.6682
 2653SOL    HW219419   0.062   2.582   5.595 -2.2355  1.2203 -2.9315
 2654SOL     OW19420   0.340   3.044  16.963  0.1317  0.4243  0.8877
 2654SOL    HW119421   0.402   3.103  16.919  0.2753  0.5485  1.2576
 2654SOL    HW219422   0.373   2.968  16.915  0.4222  0.5464  0.8953
 2655SOL     OW19423   3.693   2.520   2.232  0.3931 -0.4528  0.1071
 2655SOL    HW119424   3.622   2.489   2.287  1.2659 -1.1320  0.8649
 2655SOL    HW219425   3.768   2.485   2.282  1.3680 -0.1905 -1.1700
 2656SOL     OW19426   0.686   4.148   7.575  0.4388 -0.5497 -0.6009
 2656SOL    HW119427   0.602   4.131   7.533 -1.6787  1.0001  2.9590
 2656SOL    HW219428   0.738   4.082   7.530  1.3674 -0.6122  0.5616
 2657SOL     OW19429   2.300   1.869   5.404  0.5738  0.0378  0.7249
 2657SOL    HW119430   2.315   1.923   5.482 -2.4685 -1.2785  2.2347
 2657SOL    HW219431   2.357   1.905   5.336 -0.8618 -1.3048 -1.1702
 2658SOL     OW19432   2.097   1.398   8.133 -0.6282 -0.0767  0.9120
 2658SOL    HW119433   2.081   1.493   8.139  0.7930  0.3838 -2.3847
 2658SOL    HW219434   2.024   1.376   8.190  0.9849 -2.8533  1.8915
 2659SOL     OW19435   4.244   0.758   4.753 -0.3016 -0.3226  0.1435
 2659SOL    HW119436   4.194   0.768   4.834 -0.4708  1.1088 -0.1311
 2659SOL    HW219437   4.301   0.682   4.752  0.0310 -0.0490 -2.2327
 2660SOL     OW19438   4.379   3.244   3.508 -0.3781 -0.8791 -0.4482
 2660SOL    HW119439   4.297   3.196   3.521 -0.1988 -1.5144 -1.7239
 2660SOL    HW219440   4.403   3.257   3.600 -0.5752  1.7448 -0.7622
 2661SOL     OW19441   2.331   2.558  16.540  0.1272 -0.1859 -0.2905
 2661SOL    HW119442   2.423   2.542  16.519  0.0701  0.6490 -1.2173
 2661SOL    HW219443   2.318   2.540  16.633  0.3019 -0.0543 -0.2392
 2662SOL     OW19444   2.479   1.117   7.298 -0.2772  0.1558 -0.0450
 2662SOL    HW119445   2.518   1.195   7.257 -1.2374  0.2108 -0.8402
 2662SOL    HW219446   2.399   1.100   7.250 -1.3316  0.3368  1.6558
 2663SOL     OW19447   2.644   4.310   2.460 -0.6791 -0.2376  0.1884
 2663SOL    HW119448   2.552   4.326   2.440 -1.1120 -1.7711  0.9601
 2663SOL    HW219449   2.671   4.318   2.368 -1.1258  1.3230  0.1986
 2664SOL     OW19450   4.208   1.051  15.211 -0.7915 -0.4358  0.1943
 2664SOL    HW119451   4.225   0.957  15.197  2.2115  0.2365 -0.5370
 2664SOL    HW219452   4.298   1.082  15.206 -0.7428 -0.8182 -1.2168
 2665SOL     OW19453   2.255   1.847   7.080 -0.9168  0.4121 -0.0905
 2665SOL    HW119454   2.219   1.935   7.069  0.0614  0.6931 -1.0600
 2665SOL    HW219455   2.349   1.866   7.080 -0.7923 -0.1889  1.1739
 2666SOL     OW19456   3.576   0.101   6.807 -0.6442 -0.5043  0.1718
 2666SOL    HW119457   3.492   0.065   6.779 -0.9193  1.9435 -2.2108
 2666SOL    HW219458   3.635   0.058   6.745  0.7702  2.0488 -0.2596
 2667SOL     OW19459   3.264   2.588   9.035  0.2032  0.8745 -0.3319
 2667SOL    HW119460   3.306   2.642   9.102  0.9098 -2.5579  2.0395
 2667SOL    HW219461   3.226   2.521   9.092  0.2983  0.1971 -1.0588
 2668SOL     OW19462   4.102   1.390   2.692 -0.1253 -0.2442 -0.2434
 2668SOL    HW119463   4.190   1.418   2.718 -1.6166  3.1142  1.1140
 2668SOL    HW219464   4.119   1.382   2.598 -0.3496 -4.7162  0.1123
 2669SOL     OW19465   4.008   0.002   3.902  0.4119 -0.6202  0.6258
 2669SOL    HW119466   4.003   4.694   3.811  0.4041 -3.4743  1.5995
 2669SOL    HW219467   4.092   0.047   3.904 -1.9009  3.5907  1.5685
 2670SOL     OW19468   3.537   0.316   9.662  0.0446 -0.3973  0.6601
 2670SOL    HW119469   3.526   0.254   9.590 -1.7567 -2.0826  2.3922
 2670SOL    HW219470   3.444   0.322   9.686 -1.3839 -2.4112 -4.3598
 2671SOL     OW19471   4.461   1.724   0.224  0.0052 -0.3384 -0.0355
 2671SOL    HW119472   4.506   1.800   0.186 -1.6247  0.4965 -0.2772
 2671SOL    HW219473   4.383   1.767   0.257  0.0153 -0.2504 -0.1267
 2672SOL     OW19474   4.240   0.338   1.110 -0.0825 -0.2005  0.1588
 2672SOL    HW119475   4.257   0.290   1.191  0.9078 -0.2727 -0.0877
 2672SOL    HW219476   4.252   0.265   1.050  1.1941  0.4526 -0.3872
 2673SOL     OW19477   4.226   3.982   3.828  0.1778  0.2673 -0.0592
 2673SOL    HW119478   4.251   3.912   3.888 -0.9123  0.1798  0.2946
 2673SOL    HW219479   4.308   4.000   3.783 -0.0621 -0.9244 -0.9596
 2674SOL     OW19480   2.570   3.511   4.470 -0.3830 -0.0452 -0.1596
 2674SOL    HW119481   2.641   3.483   4.412  0.9220  0.2058  1.3114
 2674SOL    HW219482   2.586   3.445   4.537  0.2362  1.7351  1.4612
 2675SOL     OW19483   1.235   4.203   7.696  0.4945  0.3051 -0.2139
 2675SOL    HW119484   1.283   4.209   7.614 -0.9431  2.5446 -0.8958
 2675SOL    HW219485   1.293   4.167   7.764 -1.1802 -1.6205  0.1929
 2676SOL     OW19486   0.122   3.217  16.940 -0.2782  0.2271  0.4894
 2676SOL    HW119487   0.083   3.218  17.027 -1.6253  1.1289 -0.1143
 2676SOL    HW219488   0.187   3.149  16.950 -0.9433 -0.3748  0.7296
 2677SOL     OW19489   2.651   1.896  12.310  0.1704  0.6301 -0.0864
 2677SOL    HW119490   2.648   1.827  12.376 -0.1388  1.7064  1.0215
 2677SOL    HW219491   2.614   1.851  12.234  1.5080  1.5706 -1.2834
 2678SOL     OW19492   3.288   0.166   8.574 -0.4112  0.0141  0.0759
 2678SOL    HW119493   3.313   0.087   8.621  1.6739  1.1945  0.9617
 2678SOL    HW219494   3.374   0.182   8.536  0.6635  1.1485  2.9623
 2679SOL     OW19495   4.459   0.409   3.500 -0.4912  0.4124 -0.2007
 2679SOL    HW119496   4.495   0.496   3.481 -1.1035  1.1934  2.1274
 2679SOL    HW219497   4.516   0.353   3.449 -2.1302 -0.9762 -0.4931
 2680SOL     OW19498   0.298   0.580  14.683  0.2833 -0.2176 -0.6487
 2680SOL    HW119499   0.362   0.524  14.638  2.5628  0.7536  1.4108
 2680SOL    HW219500   0.207   0.566  14.655  0.3874  0.1040 -1.1537
 2681SOL     OW19501   2.937   0.516   5.733  0.7199  0.0343  0.3152
 2681SOL    HW119502   2.937   0.532   5.639  0.9562 -1.5085  0.0456
 2681SOL    HW219503   3.000   0.580   5.765  1.3981 -0.6726  0.3820
 2682SOL     OW19504   3.822   3.813   7.999 -0.6448  0.0934 -0.5879
 2682SOL    HW119505   3.753   3.840   7.938  0.7317  0.6707 -1.8663
 2682SOL    HW219506   3.762   3.825   8.073 -0.5408 -0.9854 -0.3364
 2683SOL     OW19507   4.675   0.056   6.804 -0.3779  0.0389 -0.0436
 2683SOL    HW119508   0.008   4.703   6.789 -1.0987 -0.4602 -0.1658
 2683SOL    HW219509   4.647   0.046   6.895  2.6230  1.9312  1.1055
 2684SOL     OW19510   4.214   0.598  10.551  0.0012 -0.4072 -0.2675
 2684SOL    HW119511   4.136   0.601  10.605 -1.4471  1.7973 -2.4664
 2684SOL    HW219512   4.207   0.683  10.508 -0.9450 -1.0540 -1.4076
 2685SOL     OW19513   3.704   3.585   2.517  0.4454  0.0386 -0.3354
 2685SOL    HW119514   3.613   3.604   2.538 -0.1576 -1.2569 -1.7980
 2685SOL    HW219515   3.703   3.496   2.483 -0.0275 -0.7193  1.7021
 2686SOL     OW19516   3.177   0.693  14.951  0.6231  0.5880 -0.4711
 2686SOL    HW119517   3.219   0.705  15.037  1.2685  0.0221 -0.7053
 2686SOL    HW219518   3.244   0.654  14.895 -1.6243 -0.1890 -2.5831
 2687SOL     OW19519   4.644   1.848   4.942 -0.0307 -0.3367  0.1376
 2687SOL    HW119520   0.009   1.879   4.923 -0.1175 -0.0099  0.2742
 2687SOL    HW219521   4.590   1.883   4.872  1.1163  0.3062 -0.4261
 2688SOL     OW19522   3.702   0.415  13.621 -0.6122 -0.0756 -0.1181
 2688SOL    HW119523   3.774   0.372  13.575  1.0054  1.4187  1.0060
 2688SOL    HW219524   3.634   0.353  13.598  0.4636 -0.9065 -1.0218
 2689SOL     OW19525   4.579   1.558   2.048 -0.1746 -0.4646 -0.2838
 2689SOL    HW119526   4.489   1.560   2.082  0.5537 -0.7507  1.6694
 2689SOL    HW219527   4.586   1.463   2.043 -0.1984 -0.4426 -0.6894
 2690SOL     OW19528   2.156   4.441   3.152  0.1581  0.0619  0.9344
 2690SOL    HW119529   2.069   4.421   3.187 -0.5654 -2.9793 -2.5365
 2690SOL    HW219530   2.145   4.422   3.058 -1.8681  2.1519  0.7563
 2691SOL     OW19531   1.329   2.373   4.311  0.3727  0.1557 -0.4361
 2691SOL    HW119532   1.249   2.328   4.336  1.2758 -1.1683  0.0374
 2691SOL    HW219533   1.309   2.459   4.348 -1.9276 -1.4537  2.0149
 2692SOL     OW19534   4.581   1.905   2.122 -0.6383 -0.2517  0.5199
 2692SOL    HW119535   4.511   1.854   2.162  0.9589 -1.0210  2.3265
 2692SOL    HW219536   4.561   1.914   2.029 -1.5060  1.3841  0.8702
 2693SOL     OW19537   2.569   2.584   1.293  0.3231 -0.8353 -0.9946
 2693SOL    HW119538   2.523   2.502   1.279  1.0967 -1.3796 -0.3209
 2693SOL    HW219539   2.513   2.635   1.234  0.5439  0.8986  0.2823
 2694SOL     OW19540   2.388   1.678   3.428 -0.3462  0.0547  0.1782
 2694SOL    HW119541   2.317   1.718   3.379  0.6411  1.2146 -0.2828
 2694SOL    HW219542   2.356   1.592   3.456 -1.9625  0.2242 -1.1669
 2695SOL     OW19543   3.444   1.075  10.594 -0.2124 -0.3523 -0.3243
 2695SOL    HW119544   3.399   1.039  10.670 -0.1991  1.7092  0.6553
 2695SOL    HW219545   3.528   1.030  10.604 -0.6610 -1.0874  0.1999
 2696SOL     OW19546   1.973   3.153   3.248 -0.5353 -0.2088 -0.3723
 2696SOL    HW119547   2.040   3.153   3.179  0.7706 -1.7111  0.8992
 2696SOL    HW219548   2.000   3.075   3.297 -2.4317 -0.5364  0.1516
 2697SOL     OW19549   3.404   4.397   9.463  0.0856 -0.3793 -0.3198
 2697SOL    HW119550   3.345   4.329   9.431 -0.5328 -0.0008  0.0113
 2697SOL    HW219551   3.388   4.387   9.557 -1.0573 -0.8583 -0.5609
 2698SOL     OW19552   3.937   3.651  11.624 -1.2467  0.4363  0.2881
 2698SOL    HW119553   3.922   3.740  11.655 -2.2435 -0.3228  1.9743
 2698SOL    HW219554   3.890   3.603  11.692  2.7216 -1.0946  1.9400
 2699SOL     OW19555   2.113   2.231   8.130  0.0227  0.4343 -0.2626
 2699SOL    HW119556   2.042   2.176   8.096 -0.1595 -0.3289  1.3693
 2699SOL    HW219557   2.065   2.311   8.149  1.4733  0.8827  1.5588
 2700SOL     OW19558   1.543   3.042   5.290  0.1054  0.3872  0.1549
 2700SOL    HW119559   1.587   3.121   5.260  0.0383  0.0099 -0.9481
 2700SOL    HW219560   1.615   3.000   5.338 -0.2470  1.1301  1.3400
 2701SOL     OW19561   3.178   0.182   4.826  0.1478  0.1744  0.1503
 2701SOL    HW119562   3.098   0.226   4.798 -0.5313 -0.5126  1.0095
 2701SOL    HW219563   3.137   0.132   4.897 -0.2423  0.7679  0.3450
 2702SOL     OW19564   2.205   0.931   3.910  0.1209 -0.0526  0.8168
 2702SOL    HW119565   2.233   0.979   3.989 -2.0065  0.4688  1.2464
 2702SOL    HW219566   2.235   0.841   3.923  1.1651 -0.0638 -1.7245
 2703SOL     OW19567   2.857   3.659   9.273 -0.1642 -0.7426 -0.2712
 2703SOL    HW119568   2.899   3.717   9.336 -2.9772  0.9963  0.0044
 2703SOL    HW219569   2.766   3.689   9.272 -0.6602 -2.2750 -2.8047
 2704SOL     OW19570   0.443   3.095   8.741 -0.1736  0.2207 -0.2851
 2704SOL    HW119571   0.515   3.031   8.739 -1.3687 -1.1289 -0.1185
 2704SOL    HW219572   0.474   3.162   8.802 -0.6401 -1.8180  2.1943
 2705SOL     OW19573   1.797   4.100   1.382  0.0482 -0.3879  0.3667
 2705SOL    HW119574   1.747   4.172   1.420 -0.1104  0.4531 -1.4612
 2705SOL    HW219575   1.820   4.049   1.460 -1.6146 -1.7723 -0.0664
 2706SOL     OW19576   1.287   3.438  12.746  0.0266 -0.1790 -0.0699
 2706SOL    HW119577   1.202   3.394  12.742 -0.5092  0.5585  3.1969
 2706SOL    HW219578   1.264   3.515  12.695  2.1568 -0.1085 -0.9310
 2707SOL     OW19579   2.618   2.343  14.897 -0.6739  0.1252  0.0206
 2707SOL    HW119580   2.605   2.339  14.802  2.1465  0.1121 -0.3730
 2707SOL    HW219581   2.688   2.408  14.889 -0.7179  0.2954  1.0507
 2708SOL     OW19582   4.082   4.576   7.064 -0.6199  0.2791  0.3354
 2708SOL    HW119583   4.133   4.649   7.028  2.0871 -2.2921 -1.0426
 2708SOL    HW219584   4.025   4.564   6.989 -0.3890  0.1210  0.1871
 2709SOL     OW19585   3.196   3.000   8.619 -0.0089  0.0194  0.3335
 2709SOL    HW119586   3.213   2.959   8.704  0.8719 -1.0577 -0.3539
 2709SOL    HW219587   3.101   3.010   8.611 -0.0948 -0.6736  0.4904
 2710SOL     OW19588   3.175   1.111   2.917  0.3042  0.0869 -0.3653
 2710SOL    HW119589   3.129   1.189   2.885 -0.0739 -0.5213 -1.3232
 2710SOL    HW219590   3.142   1.050   2.851 -0.9528  0.2678  0.1099
 2711SOL     OW19591   3.605   0.324   7.573  0.2424 -0.0527 -0.5359
 2711SOL    HW119592   3.664   0.400   7.568 -0.1543  0.2950  0.1288
 2711SOL    HW219593   3.666   0.254   7.549  0.3499  0.3227 -1.3581
 2712SOL     OW19594   2.575   4.679   7.060 -0.2738 -0.4836  0.2666
 2712SOL    HW119595   2.612   0.037   7.095 -0.4149 -0.7532  1.0386
 2712SOL    HW219596   2.604   4.622   7.131  0.3651  0.4197  0.7421
 2713SOL     OW19597   4.673   1.152   2.342 -0.0234 -0.6187  0.2111
 2713SOL    HW119598   4.675   1.061   2.370 -2.4869 -0.6638  0.2907
 2713SOL    HW219599   4.659   1.144   2.248  1.8377 -1.2083 -0.0107
 2714SOL     OW19600   3.437   1.127   8.904 -0.0617  0.1337  0.3205
 2714SOL    HW119601   3.518   1.077   8.913 -0.8483 -1.5208 -1.7118
 2714SOL    HW219602   3.466   1.199   8.848 -1.9979  1.2058  0.6870
 2715SOL     OW19603   1.116   1.051  15.211 -0.3682 -0.0571  0.1969
 2715SOL    HW119604   1.106   1.038  15.117 -2.1088 -1.8482  0.6290
 2715SOL    HW219605   1.183   1.119  15.210  2.3936 -2.7569  1.6464
 2716SOL     OW19606   1.090   2.981   2.796 -0.0370 -0.1540 -0.4438
 2716SOL    HW119607   1.083   3.048   2.728  1.1233  0.9149  0.5116
 2716SOL    HW219608   1.028   2.912   2.770 -0.3812 -0.1197  0.2853
 2717SOL     OW19609   1.281   2.442   5.419  0.2385  0.1635  0.1562
 2717SOL    HW119610   1.328   2.525   5.420 -1.5668  1.1524  2.0374
 2717SOL    HW219611   1.296   2.412   5.330 -0.7774 -1.0541  0.3911
 2718SOL     OW19612   0.309   3.513   1.552  0.3878  0.2396 -0.7389
 2718SOL    HW119613   0.398   3.492   1.523  0.8450 -1.3340  1.8949
 2718SOL    HW219614   0.279   3.427   1.580 -0.4193  1.0482  0.8222
 2719SOL     OW19615   3.917   4.618  11.044  0.1239 -0.3580 -0.2071
 2719SOL    HW119616   3.847   4.684  11.045  0.3275 -0.1322 -3.3806
 2719SOL    HW219617   3.887   4.560  11.114  0.7916 -0.6534 -0.1642
 2720SOL     OW19618   0.250   3.866   7.048  0.2037 -0.1162 -0.3318
 2720SOL    HW119619   0.243   3.858   7.143  2.0968 -3.0047 -0.4631
 2720SOL    HW219620   0.167   3.840   7.009 -0.4161  1.3679 -0.0285
 2721SOL     OW19621   4.482   3.759  11.209  0.1943  0.3558  0.1416
 2721SOL    HW119622   4.485   3.703  11.287 -2.6348 -0.2900 -0.1965
 2721SOL    HW219623   4.574   3.783  11.203  0.4726 -0.4226  1.3259
 2722SOL     OW19624   0.820   3.724   5.090 -0.3820  0.1092 -0.3386
 2722SOL    HW119625   0.909   3.722   5.123  1.2734  0.8267 -4.8236
 2722SOL    HW219626   0.800   3.817   5.103 -1.1518 -0.3464  1.7298
 2723SOL     OW19627   2.282   0.165  10.535 -0.1450 -0.5541  0.3778
 2723SOL    HW119628   2.330   0.134  10.611 -1.2648 -1.9994  0.5100
 2723SOL    HW219629   2.198   0.199  10.567  0.5925  1.6018 -0.0131
 2724SOL     OW19630   0.141   1.991   6.827 -0.9632 -0.4106 -0.5416
 2724SOL    HW119631   0.057   2.004   6.784 -0.4794  0.2416 -1.2821
 2724SOL    HW219632   0.118   2.037   6.909  0.3152 -1.5599  0.4646
 2725SOL     OW19633   0.604   3.914   2.165 -0.2910 -0.4014 -0.4932
 2725SOL    HW119634   0.538   3.874   2.108 -1.7504 -0.2119  1.0524
 2725SOL    HW219635   0.680   3.932   2.110  1.2152 -0.9818  1.3965
 2726SOL     OW19636   2.145   2.369   9.342  0.3819  0.6407  0.3624
 2726SOL    HW119637   2.235   2.366   9.375  0.6418 -0.8628 -0.4709
 2726SOL    HW219638   2.164   2.423   9.265  2.2722 -0.9616 -0.3090
 2727SOL     OW19639   3.491   4.573   6.336  0.1331  0.8120  0.5750
 2727SOL    HW119640   3.450   4.643   6.286 -1.8583 -0.3812  0.5450
 2727SOL    HW219641   3.578   4.612   6.348  0.7889 -0.1047 -1.2642
 2728SOL     OW19642   1.032   2.275   2.091  0.5930  0.2560 -0.0700
 2728SOL    HW119643   1.050   2.183   2.075  1.1352  0.5837 -1.3494
 2728SOL    HW219644   1.040   2.272   2.187 -1.0059  1.0341  0.0968
 2729SOL     OW19645   1.320   0.389   3.844 -0.4857 -0.2504 -0.3912
 2729SOL    HW119646   1.408   0.392   3.805 -0.4286 -1.6802 -0.3800
 2729SOL    HW219647   1.273   0.428   3.770  0.4220  2.2005  0.3004
 2730SOL     OW19648   3.453   1.841   6.866 -0.0035 -0.8640 -0.3318
 2730SOL    HW119649   3.375   1.806   6.822  0.9752  0.2989 -2.9843
 2730SOL    HW219650   3.423   1.860   6.955  1.2012  0.2672 -0.1659
 2731SOL     OW19651   0.965   4.153  15.272 -0.2480 -0.5722 -0.5172
 2731SOL    HW119652   0.891   4.204  15.306  0.5733 -1.1233  2.1092
 2731SOL    HW219653   1.038   4.208  15.301  0.1160 -0.3968 -1.7600
 2732SOL     OW19654   4.203   4.517   6.640 -0.0415 -0.1653  0.1313
 2732SOL    HW119655   4.242   4.536   6.555  0.1983  1.3586  0.5900
 2732SOL    HW219656   4.134   4.452   6.623  1.4553 -1.5827 -0.4645
 2733SOL     OW19657   1.411   0.561   2.477  0.3566 -0.0128  0.2541
 2733SOL    HW119658   1.385   0.484   2.527  1.0373  1.7164  3.2267
 2733SOL    HW219659   1.332   0.597   2.436  0.3617 -1.2182 -0.8139
 2734SOL     OW19660   3.206   0.481   2.477 -0.1047 -0.0194  0.4036
 2734SOL    HW119661   3.139   0.539   2.440 -0.1995  0.1949  0.9126
 2734SOL    HW219662   3.158   0.398   2.478 -1.1042  0.5557  0.4051
 2735SOL     OW19663   2.828   3.549   3.473  0.5236 -0.4000  0.3842
 2735SOL    HW119664   2.862   3.502   3.549 -1.0719 -1.0274  0.7102
 2735SOL    HW219665   2.869   3.493   3.407 -0.6721  0.9273 -1.5024
 2736SOL     OW19666   1.782   3.997   8.754 -0.0261 -0.1874  0.7083
 2736SOL    HW119667   1.868   4.021   8.790  0.7613  0.8299 -1.8558
 2736SOL    HW219668   1.738   4.002   8.839  0.5637 -0.1575  1.0141
 2737SOL     OW19669   1.146   3.795   8.311 -0.2769 -0.4735  0.3229
 2737SOL    HW119670   1.075   3.784   8.373 -1.6525  1.9131 -0.8226
 2737SOL    HW219671   1.199   3.861   8.357 -4.1654  1.2138  2.3721
 2738SOL     OW19672   0.220   0.679   5.587  0.4032  0.4840  0.0394
 2738SOL    HW119673   0.276   0.697   5.511 -0.3045  1.2610 -0.2983
 2738SOL    HW219674   0.170   0.602   5.561  0.7188  1.6402 -3.9622
 2739SOL     OW19675   1.222   0.681   9.796  0.0596  0.1970 -0.2625
 2739SOL    HW119676   1.283   0.743   9.755  0.5464  1.3020  2.1063
 2739SOL    HW219677   1.174   0.651   9.719  0.9920 -1.0179 -0.3618
 2740SOL     OW19678   4.546   4.581   7.655  0.2738  0.0252 -0.2287
 2740SOL    HW119679   4.534   4.635   7.733  1.5924 -1.8660  1.2780
 2740SOL    HW219680   4.455   4.561   7.631  0.4210  0.6796 -1.3729
 2741SOL     OW19681   3.350   3.528   3.929 -0.4370  0.1237 -0.3267
 2741SOL    HW119682   3.313   3.567   4.008 -2.0674 -2.4853  0.1833
 2741SOL    HW219683   3.420   3.473   3.964 -3.0304 -2.2599  1.0431
 2742SOL     OW19684   1.610   0.698   4.130  0.1906 -0.6063 -0.4691
 2742SOL    HW119685   1.645   0.696   4.041  0.4010 -1.1308 -0.3752
 2742SOL    HW219686   1.522   0.731   4.114  0.3771  0.2799  0.3430
 2743SOL     OW19687   3.431   1.967  13.267  0.4996 -0.3051  0.2075
 2743SOL    HW119688   3.373   2.031  13.226  0.7237 -0.8345 -0.9244
 2743SOL    HW219689   3.442   1.898  13.202 -1.0603 -0.9338  0.6110
 2744SOL     OW19690   1.852   2.233  15.332 -0.4992  0.0984 -0.8334
 2744SOL    HW119691   1.776   2.290  15.321 -0.8346 -0.0397  0.6632
 2744SOL    HW219692   1.867   2.194  15.246 -0.5585  0.6827 -1.1091
 2745SOL     OW19693   0.604   4.396   6.149  0.4415  0.7286 -0.0253
 2745SOL    HW119694   0.544   4.363   6.216 -0.0827 -1.4039 -1.5293
 2745SOL    HW219695   0.571   4.346   6.074  0.8372  3.7234 -2.1926
 2746SOL     OW19696   1.729   0.385   6.165 -0.0154  0.0091  0.7200
 2746SOL    HW119697   1.724   0.290   6.181 -0.9091 -0.4063 -1.9766
 2746SOL    HW219698   1.823   0.396   6.156  0.2163 -0.7691  2.2003
 2747SOL     OW19699   2.563   2.767   7.990 -0.0169 -0.2212 -0.1463
 2747SOL    HW119700   2.478   2.726   7.970  0.3850 -1.8234  1.4202
 2747SOL    HW219701   2.594   2.764   7.900  1.2069 -0.4608  0.2914
 2748SOL     OW19702   2.827   0.707  14.333  0.0674 -0.3878  0.3380
 2748SOL    HW119703   2.732   0.719  14.340  0.3627  1.4972  1.0274
 2748SOL    HW219704   2.857   0.788  14.292 -0.1937  0.0016  0.9162
 2749SOL     OW19705   4.024   3.714   5.353  0.6523 -0.0042 -0.1510
 2749SOL    HW119706   4.067   3.630   5.371  0.6928  0.7387  3.2204
 2749SOL    HW219707   4.100   3.770   5.334 -0.7517  1.4266 -1.4928
 2750SOL     OW19708   0.702   3.109   4.851  0.3695 -0.2499  0.2454
 2750SOL    HW119709   0.685   3.048   4.922 -0.4086 -0.0372  0.2457
 2750SOL    HW219710   0.792   3.092   4.822  0.6032  0.4854  0.5349
 2751SOL     OW19711   1.794   3.804   9.464 -0.2920  0.0561  0.2801
 2751SOL    HW119712   1.878   3.765   9.438 -0.4003  0.2845 -0.4143
 2751SOL    HW219713   1.734   3.730   9.469  1.9312 -1.6978  1.0321
 2752SOL     OW19714   3.079   1.602   3.807  0.0792 -0.1912  0.1330
 2752SOL    HW119715   3.153   1.593   3.868 -0.0142  0.4978  0.3491
 2752SOL    HW219716   3.034   1.681   3.839  0.7116  0.0503  0.4451
 2753SOL     OW19717   3.647   3.466  15.064 -0.3680  0.3514  0.0059
 2753SOL    HW119718   3.704   3.390  15.058 -1.3527 -0.5774  2.5599
 2753SOL    HW219719   3.565   3.420  15.047  0.0405 -0.3974  0.0653
 2754SOL     OW19720   1.784   0.592   5.294 -0.2550 -0.1485  0.1643
 2754SOL    HW119721   1.839   0.515   5.301  0.6022  0.5578  1.1644
 2754SOL    HW219722   1.713   0.566   5.235 -0.4682  2.7905 -0.8661
 2755SOL     OW19723   0.522   4.264   1.348 -0.2495  0.4627  0.2433
 2755SOL    HW119724   0.456   4.217   1.297 -0.6604  1.2046  0.0937
 2755SOL    HW219725   0.575   4.297   1.276  0.4320  0.7466  0.8798
 2756SOL     OW19726   2.643   0.543   4.878 -0.9459  0.5727 -0.3490
 2756SOL    HW119727   2.695   0.604   4.827 -0.6373  0.2426 -0.4276
 2756SOL    HW219728   2.564   0.543   4.823  0.9948  0.8147 -3.0876
 2757SOL     OW19729   3.388   2.591  13.299  0.4398  0.2262 -0.5243
 2757SOL    HW119730   3.347   2.512  13.263  0.8609  0.1796 -0.8971
 2757SOL    HW219731   3.438   2.545  13.367  0.3719  1.3707  0.3120
 2758SOL     OW19732   4.280   1.362  12.008  0.4248 -0.0177 -0.6756
 2758SOL    HW119733   4.234   1.321  12.081 -0.2988  2.0453  0.0198
 2758SOL    HW219734   4.362   1.387  12.048  0.1722  0.6904 -0.6092
 2759SOL     OW19735   3.473   4.395  14.059 -0.5917  0.1192  0.1705
 2759SOL    HW119736   3.567   4.400  14.074 -0.5455 -1.1143  0.2885
 2759SOL    HW219737   3.452   4.318  14.111  1.3687 -1.4811 -1.4063
 2760SOL     OW19738   0.950   4.687  13.107 -0.4148 -0.5075  0.0796
 2760SOL    HW119739   0.997   4.654  13.184  1.1820  0.4767 -0.4816
 2760SOL    HW219740   0.985   0.053  13.106 -0.2381 -0.5749  0.3403
 2761SOL     OW19741   0.412   2.255   3.339 -0.3101  0.7332  0.1177
 2761SOL    HW119742   0.492   2.204   3.327 -0.3726  0.1232  2.2231
 2761SOL    HW219743   0.416   2.316   3.266 -1.1829  2.2851  1.3515
 2762SOL     OW19744   2.056   1.430   9.674  0.5097  0.4300  0.4404
 2762SOL    HW119745   1.989   1.366   9.650  0.5460  0.9421 -1.0242
 2762SOL    HW219746   2.094   1.438   9.587  2.3929 -1.8972  1.0470
 2763SOL     OW19747   1.256   3.611  17.154  0.2615 -0.9838  0.1193
 2763SOL    HW119748   1.350   3.627  17.163  0.0666  0.5781 -0.5254
 2763SOL    HW219749   1.252   3.524  17.192  1.4188 -0.8021  0.6634
 2764SOL     OW19750   0.490   0.249   0.979 -0.3891  0.4879 -0.0515
 2764SOL    HW119751   0.475   0.233   0.886  1.4996 -0.0242 -0.2752
 2764SOL    HW219752   0.449   0.178   1.028 -0.1542 -0.5467 -1.3564
 2765SOL     OW19753   0.193   0.467  14.931 -0.1658  0.6326 -0.0095
 2765SOL    HW119754   0.243   0.510  14.861  0.9557  0.6503  0.8018
 2765SOL    HW219755   0.234   0.482  15.016 -0.7835 -1.2649  0.6144
 2766SOL     OW19756   0.277   1.711   7.936 -0.0818 -0.0781  0.1629
 2766SOL    HW119757   0.259   1.790   7.884 -0.9533 -0.3815  0.0062
 2766SOL    HW219758   0.279   1.749   8.024  2.0419 -0.4024  0.2555
 2767SOL     OW19759   1.910   4.409   6.866  0.1527  0.0535  0.4668
 2767SOL    HW119760   2.003   4.427   6.858  0.6680 -2.4079  0.8231
 2767SOL    HW219761   1.887   4.466   6.939  0.9128  2.0727 -0.8672
 2768SOL     OW19762   3.538   0.603   5.043 -0.0463  0.4771 -1.7019
 2768SOL    HW119763   3.457   0.590   4.993 -1.0207  0.4219 -0.1293
 2768SOL    HW219764   3.565   0.687   5.007  0.5536  1.6855  1.6090
 2769SOL     OW19765   2.923   1.928   3.368  0.0974 -0.0148  0.0296
 2769SOL    HW119766   2.854   1.907   3.304 -1.2290  2.1785  0.7594
 2769SOL    HW219767   2.983   1.855   3.352 -0.3052 -0.1566 -0.8237
 2770SOL     OW19768   4.361   0.445  13.398 -0.0391 -0.0121  0.5745
 2770SOL    HW119769   4.330   0.360  13.428 -0.5837 -0.0763 -0.1976
 2770SOL    HW219770   4.408   0.475  13.477  1.3567  0.0219 -0.2613
 2771SOL     OW19771   2.036   2.077   5.388 -0.2574  0.7857 -0.0534
 2771SOL    HW119772   2.064   2.016   5.320 -1.4737 -0.0642  0.1968
 2771SOL    HW219773   2.090   2.152   5.368  1.0775 -0.5389 -1.3474
 2772SOL     OW19774   1.673   1.839   9.998  0.4324 -0.4797  0.1728
 2772SOL    HW119775   1.602   1.869   9.941  0.4703 -0.2704  0.2343
 2772SOL    HW219776   1.753   1.866   9.954 -0.5491 -0.1564 -1.4015
 2773SOL     OW19777   2.728   4.500  15.438  0.4038  0.0899 -0.0512
 2773SOL    HW119778   2.783   4.509  15.360  1.9374  0.7213  1.0926
 2773SOL    HW219779   2.777   4.554  15.500  1.1873 -0.9281  0.2113
 2774SOL     OW19780   0.977   2.184  12.389 -0.0786  0.2637 -0.0513
 2774SOL    HW119781   1.064   2.146  12.384  0.3752  1.3803 -0.5266
 2774SOL    HW219782   0.986   2.227  12.474 -0.5628 -0.3184  0.2973
 2775SOL     OW19783   2.010   4.467  11.879 -0.1583 -0.5001  0.0026
 2775SOL    HW119784   2.069   4.392  11.885  2.8399  1.8602  0.1372
 2775SOL    HW219785   2.035   4.502  11.794 -1.9818  0.0224 -0.3140
 2776SOL     OW19786   1.685   3.303   8.620  0.4718  0.0664  0.3885
 2776SOL    HW119787   1.647   3.299   8.532 -0.3714  0.8486  0.7209
 2776SOL    HW219788   1.670   3.396   8.639 -0.4068 -0.2557  1.2868
 2777SOL     OW19789   4.670   4.451   0.714 -0.9093 -0.0748  0.5852
 2777SOL    HW119790   4.680   4.405   0.630 -0.8882  0.3105  0.3746
 2777SOL    HW219791   0.032   4.495   0.715 -2.7682  3.5823 -0.0390
 2778SOL     OW19792   4.710   1.167  13.780 -0.5506  0.1755  0.2589
 2778SOL    HW119793   4.661   1.088  13.802 -0.4186 -0.7181 -2.6549
 2778SOL    HW219794   4.697   1.180  13.686  2.6942 -1.6725 -0.4246
 2779SOL     OW19795   4.544   2.774   8.401  0.2155  0.1576  0.5990
 2779SOL    HW119796   4.613   2.735   8.454  0.3848 -0.9395 -0.4167
 2779SOL    HW219797   4.504   2.820   8.474 -0.4790  0.7241 -0.1422
 2780SOL     OW19798   2.873   4.613  10.952 -0.1645  0.5410 -0.2886
 2780SOL    HW119799   2.873   4.638  11.044  1.3511 -0.2384 -0.0747
 2780SOL    HW219800   2.903   4.523  10.965 -0.9453  0.0508 -1.8521
 2781SOL     OW19801   4.487   2.295   7.657  0.5061 -0.1223  0.4288
 2781SOL    HW119802   4.429   2.339   7.719  1.7818 -0.8968  2.1745
 2781SOL    HW219803   4.430   2.249   7.595 -1.0089  2.1729  0.1325
 2782SOL     OW19804   1.601   1.821   4.687  0.5987  0.1072 -0.1799
 2782SOL    HW119805   1.515   1.831   4.646 -0.1531 -0.6200  1.1976
 2782SOL    HW219806   1.615   1.728   4.668  1.3793  0.0368  0.7221
 2783SOL     OW19807   2.153   0.544   7.623  0.3638 -0.6488  0.3190
 2783SOL    HW119808   2.189   0.632   7.613  0.8130 -0.8977 -0.2481
 2783SOL    HW219809   2.145   0.517   7.532 -1.2522  0.7793  0.0360
 2784SOL     OW19810   0.274   0.401  10.866  0.7469 -0.1381 -0.2788
 2784SOL    HW119811   0.274   0.489  10.905  2.1666 -1.2637  2.2141
 2784SOL    HW219812   0.367   0.380  10.864  0.2310 -2.2736 -1.4980
 2785SOL     OW19813   3.027   3.239  10.655 -0.0389 -0.5409  0.4555
 2785SOL    HW119814   2.963   3.307  10.678  0.8156 -0.7025  3.1930
 2785SOL    HW219815   3.027   3.200  10.742 -3.1060 -0.3096  0.5804
 2786SOL     OW19816   1.646   3.345   8.356  0.9446 -0.5418 -0.6149
 2786SOL    HW119817   1.657   3.439   8.366  1.3631 -0.5558 -0.9171
 2786SOL    HW219818   1.681   3.329   8.268 -0.0555  0.3184 -1.1791
 2787SOL     OW19819   4.348   0.437   4.648  0.1802 -0.2594  0.8632
 2787SOL    HW119820   4.413   0.485   4.699  1.3464  0.7767 -1.5788
 2787SOL    HW219821   4.409   0.381   4.599 -2.3620 -0.9633 -1.5331
 2788SOL     OW19822   4.369   1.534   3.978  0.1116  0.3541 -0.1690
 2788SOL    HW119823   4.306   1.599   4.011 -1.1861 -0.5635 -0.8176
 2788SOL    HW219824   4.320   1.457   4.009  0.0790 -0.0731 -1.2807
 2789SOL     OW19825   0.088   2.066  13.813 -0.0311  0.7529  0.4044
 2789SOL    HW119826   0.033   2.017  13.875  1.7071 -0.4306  1.0107
 2789SOL    HW219827   0.039   2.045  13.733  1.3293 -3.3358  0.6549
 2790SOL     OW19828   0.531   4.026  13.020  0.0958 -0.8259  0.2525
 2790SOL    HW119829   0.624   4.004  13.019 -0.0469 -1.3572 -1.1230
 2790SOL    HW219830   0.530   4.107  12.970 -0.7094  1.1182  3.3904
 2791SOL     OW19831   1.272   1.281   4.346 -0.1452 -0.3147  0.7426
 2791SOL    HW119832   1.229   1.324   4.420  1.4314  0.8094  1.0045
 2791SOL    HW219833   1.352   1.332   4.333 -1.1596  1.0261 -0.1263
 2792SOL     OW19834   2.396   2.708   4.289  0.6007 -0.5096  0.7560
 2792SOL    HW119835   2.399   2.645   4.361 -0.3848  0.0210  1.2695
 2792SOL    HW219836   2.309   2.695   4.251  1.5728  0.9299 -1.9538
 2793SOL     OW19837   4.604   1.674   1.794  0.0405  0.7375 -0.2222
 2793SOL    HW119838   4.621   1.657   1.886 -0.6635  0.2640 -0.1825
 2793SOL    HW219839   4.688   1.654   1.752  1.2036  1.0428  1.9724
 2794SOL     OW19840   4.638   1.848   7.779  0.5839  0.1539 -0.3272
 2794SOL    HW119841   4.662   1.906   7.851 -1.2983 -0.6116  0.9006
 2794SOL    HW219842   4.552   1.884   7.757  1.3958  1.9515 -0.5699
 2795SOL     OW19843   0.619   0.649   3.987  0.1227  0.0862  0.7265
 2795SOL    HW119844   0.650   0.670   4.075  0.4263  0.4111  0.5425
 2795SOL    HW219845   0.684   0.588   3.952 -1.6245 -0.6431 -1.2428
 2796SOL     OW19846   0.044   1.766  15.904  0.0319  0.0918 -0.0205
 2796SOL    HW119847   0.062   1.847  15.856 -0.7463 -2.0187 -3.8762
 2796SOL    HW219848   0.121   1.780  15.959  0.2024  0.2003 -0.2851
 2797SOL     OW19849   3.196   1.145   3.914 -0.0282  0.1222 -0.3522
 2797SOL    HW119850   3.180   1.068   3.860 -1.7593 -1.3374  2.2698
 2797SOL    HW219851   3.146   1.209   3.863  0.4397  0.0042 -0.9681
 2798SOL     OW19852   1.028   0.363   8.986 -0.4543  0.1776  0.3501
 2798SOL    HW119853   0.969   0.314   8.929  1.2857  0.7568 -1.9503
 2798SOL    HW219854   0.970   0.377   9.061  0.2224  1.6139  0.5968
 2799SOL     OW19855   4.066   2.484   3.289  0.5803  0.5185 -0.4664
 2799SOL    HW119856   4.038   2.451   3.375  1.1502 -1.8194 -1.1912
 2799SOL    HW219857   4.131   2.552   3.308 -0.4201  1.0482  1.1251
 2800SOL     OW19858   4.459   1.200  16.440  0.2197 -0.3762  0.0999
 2800SOL    HW119859   4.499   1.120  16.472  0.5119  0.4971  1.9577
 2800SOL    HW219860   4.475   1.194  16.346 -0.8714 -1.2503 -0.0308
 2801SOL     OW19861   3.369   3.247  14.734  0.3399  0.7191  0.5963
 2801SOL    HW119862   3.290   3.252  14.788 -0.8166 -1.5233 -0.8600
 2801SOL    HW219863   3.329   3.300  14.665 -2.0788 -1.4108  0.3812
 2802SOL     OW19864   0.622   1.115   6.457 -0.3768  0.0811  0.2161
 2802SOL    HW119865   0.690   1.117   6.524 -1.0275  1.9025  0.8045
 2802SOL    HW219866   0.656   1.052   6.393 -1.1814  0.3479 -0.4674
 2803SOL     OW19867   3.033   0.089   6.794  0.2185  0.2201  0.3707
 2803SOL    HW119868   3.123   0.068   6.770  0.5530  1.5209  0.4505
 2803SOL    HW219869   3.045   0.183   6.810  2.6346 -0.1780  0.9401
 2804SOL     OW19870   0.069   4.087   0.439 -0.7691  0.3102  0.0200
 2804SOL    HW119871   0.013   4.050   0.371 -2.8207 -2.5424  3.2535
 2804SOL    HW219872   0.138   4.024   0.418  0.5582  2.0245 -0.7638
 2805SOL     OW19873   1.759   2.471   7.936  0.3272 -0.4885 -0.0427
 2805SOL    HW119874   1.805   2.449   7.855  2.2454 -1.0460  1.1970
 2805SOL    HW219875   1.710   2.547   7.904 -1.8636 -1.4739  1.0164
 2806SOL     OW19876   1.625   0.531   5.944  0.0877 -0.3653  0.2858
 2806SOL    HW119877   1.668   0.617   5.940 -1.1291  0.3053  1.9377
 2806SOL    HW219878   1.699   0.476   5.971  0.4699  0.1387  0.2754
 2807SOL     OW19879   0.417   2.817  16.804 -0.0463 -0.1299 -0.1542
 2807SOL    HW119880   0.383   2.787  16.720 -3.2564  0.3444  0.9857
 2807SOL    HW219881   0.509   2.791  16.794  0.6858  3.0111 -1.4872
 2808SOL     OW19882   2.067   0.938  14.879  0.2865 -0.1718 -0.1353
 2808SOL    HW119883   2.053   0.984  14.962 -0.0195 -0.4503 -0.0327
 2808SOL    HW219884   2.086   1.016  14.827  1.1775  0.7318  1.5469
 2809SOL     OW19885   0.758   3.522   5.280  0.0090  0.3493  0.2633
 2809SOL    HW119886   0.840   3.474   5.271  0.0021  0.3984 -0.0818
 2809SOL    HW219887   0.768   3.588   5.211  0.7684 -0.3092 -0.2624
 2810SOL     OW19888   0.945   1.960   9.076  0.0479  0.2917  0.6507
 2810SOL    HW119889   0.973   1.872   9.099  2.1308  1.2211  1.6929
 2810SOL    HW219890   0.858   1.963   9.116  0.1375  2.4418  0.6797
 2811SOL     OW19891   1.647   4.505   4.202 -0.6032 -0.3700  0.0317
 2811SOL    HW119892   1.738   4.477   4.209 -0.6287 -1.0040 -2.1716
 2811SOL    HW219893   1.644   4.598   4.223  0.2920 -0.0864 -1.0605
 2812SOL     OW19894   3.984   3.084  10.550  0.3293 -0.5328 -0.3722
 2812SOL    HW119895   4.048   3.134  10.499  0.7323 -1.4159 -0.7200
 2812SOL    HW219896   3.995   3.129  10.634  0.1341  0.3217 -0.8046
 2813SOL     OW19897   2.188   3.477   5.972 -0.1164 -0.2001 -0.2257
 2813SOL    HW119898   2.118   3.514   5.918 -0.1796  1.4495  0.9874
 2813SOL    HW219899   2.163   3.386   5.958  0.3495 -0.2116 -1.0119
 2814SOL     OW19900   1.414   2.902   5.834 -0.1688 -0.0368 -0.6757
 2814SOL    HW119901   1.361   2.833   5.873 -1.0884 -0.0072 -1.8528
 2814SOL    HW219902   1.344   2.958   5.799 -1.3062 -0.5542  0.7964
 2815SOL     OW19903   4.708   4.434   0.285  0.2505 -0.1480  0.0623
 2815SOL    HW119904   0.013   4.519   0.321  0.0401  0.1212 -0.4046
 2815SOL    HW219905   4.660   4.461   0.207 -0.3418 -0.0693  0.4587
 2816SOL     OW19906   1.165   2.915   8.751 -0.0279 -0.2933 -1.2052
 2816SOL    HW119907   1.144   2.833   8.707  1.0142 -0.6642 -1.0164
 2816SOL    HW219908   1.206   2.891   8.835 -0.2336  1.8348 -0.5062
 2817SOL     OW19909   1.687   0.279   4.865 -0.0675 -0.5340  0.1727
 2817SOL    HW119910   1.779   0.257   4.851  0.2911  1.7821 -1.2373
 2817SOL    HW219911   1.654   0.191   4.879  1.7940 -1.2822 -0.2243
 2818SOL     OW19912   0.286   3.847   3.450  0.1813 -0.3265 -0.2967
 2818SOL    HW119913   0.286   3.787   3.375 -2.1059 -1.8261  0.9027
 2818SOL    HW219914   0.194   3.875   3.449  0.0192 -0.8877 -1.1543
 2819SOL     OW19915   1.403   4.373   2.556  0.2729  0.4266  0.5473
 2819SOL    HW119916   1.455   4.297   2.533  0.4914  1.0009 -0.7933
 2819SOL    HW219917   1.407   4.419   2.472  0.7520 -1.7428 -0.5899
 2820SOL     OW19918   1.547   1.903  12.432  0.2403  0.7517  0.3096
 2820SOL    HW119919   1.471   1.845  12.431 -0.5689  1.8067 -0.1014
 2820SOL    HW219920   1.559   1.933  12.342  0.3252 -2.5140 -0.7578
 2821SOL     OW19921   0.047   0.496  14.393 -0.1395  0.0050  0.1389
 2821SOL    HW119922   0.064   0.482  14.486 -0.0805  0.7861  0.2499
 2821SOL    HW219923   0.136   0.509  14.362 -0.4071  0.0775 -0.6118
 2822SOL     OW19924   1.877   1.810   9.132 -0.4366 -0.3197  0.4464
 2822SOL    HW119925   1.938   1.740   9.155  0.5401  0.3849  0.0060
 2822SOL    HW219926   1.852   1.776   9.046  1.6681  0.9533 -0.6664
 2823SOL     OW19927   3.442   1.401  15.471  0.4046  0.1149 -0.5671
 2823SOL    HW119928   3.419   1.478  15.522 -1.6327 -0.7615 -0.1552
 2823SOL    HW219929   3.468   1.343  15.543  1.3984  0.7238 -0.4436
 2824SOL     OW19930   0.521   1.349   6.981 -0.1880 -0.2435  0.1918
 2824SOL    HW119931   0.511   1.284   6.911 -0.3119  0.4166 -0.4026
 2824SOL    HW219932   0.443   1.400   6.958  2.0414  1.8634 -2.6416
 2825SOL     OW19933   2.489   1.312   5.530  1.1250  0.0959  0.3099
 2825SOL    HW119934   2.523   1.354   5.450 -0.2453  0.9992  0.2017
 2825SOL    HW219935   2.395   1.318   5.512  1.3652 -1.5228 -1.4709
 2826SOL     OW19936   2.533   1.680   3.104  0.4338  0.2272  0.2142
 2826SOL    HW119937   2.445   1.717   3.098  0.4489  0.1363 -0.6355
 2826SOL    HW219938   2.511   1.587   3.111  0.5589  0.2387  0.7099
 2827SOL     OW19939   2.518   2.289   9.073 -0.0091  0.0737 -0.2746
 2827SOL    HW119940   2.607   2.279   9.039  0.4682  1.6364  0.5085
 2827SOL    HW219941   2.501   2.209   9.122  0.9798 -0.3229 -0.5876
 2828SOL     OW19942   2.100   0.089   6.217  0.3828 -0.4412  0.1523
 2828SOL    HW119943   2.158   0.117   6.287  1.1554 -0.3070 -0.5397
 2828SOL    HW219944   2.016   0.069   6.258  0.4339 -0.8822  0.0385
 2829SOL     OW19945   0.590   0.838   3.804  0.0120  0.2465  0.1406
 2829SOL    HW119946   0.629   0.782   3.736 -0.1059  0.9296 -0.4991
 2829SOL    HW219947   0.595   0.780   3.879 -1.1182 -1.2418 -0.9417
 2830SOL     OW19948   1.848   1.688   4.057 -0.0172  1.0856  0.1259
 2830SOL    HW119949   1.889   1.615   4.011  0.7700  0.3395  2.0403
 2830SOL    HW219950   1.922   1.725   4.105  1.1183 -0.5665 -0.3358
 2831SOL     OW19951   1.839   1.288   9.637  0.0390 -0.3323  0.0828
 2831SOL    HW119952   1.756   1.315   9.677  0.9689  0.0288  1.7357
 2831SOL    HW219953   1.862   1.212   9.691 -0.8184 -0.0109  0.9057
 2832SOL     OW19954   1.965   2.426   9.531  0.1156 -0.4173  0.0504
 2832SOL    HW119955   2.016   2.410   9.452 -0.3531  2.0357 -0.7396
 2832SOL    HW219956   2.035   2.441   9.596  0.6983  1.3928 -1.0061
 2833SOL     OW19957   3.673   0.022  12.749 -0.6312 -0.1155 -0.0681
 2833SOL    HW119958   3.581   0.041  12.731 -1.1223 -0.8108  1.6805
 2833SOL    HW219959   3.663   4.662  12.796  0.1417 -0.5850 -0.7422
 2834SOL     OW19960   0.343   1.768   5.666 -0.7575  0.5625 -0.4297
 2834SOL    HW119961   0.292   1.781   5.587 -2.4341  0.7320  0.6732
 2834SOL    HW219962   0.331   1.673   5.669  0.5615  0.3620 -1.3899
 2835SOL     OW19963   1.054   2.380   2.748 -0.3137 -0.9485 -0.0687
 2835SOL    HW119964   1.045   2.329   2.828  0.6906 -1.1359 -0.0732
 2835SOL    HW219965   1.130   2.336   2.709 -0.4067 -0.9280 -0.2726
 2836SOL     OW19966   3.740   4.509   7.012  0.1333 -0.4172 -0.6828
 2836SOL    HW119967   3.688   4.549   7.082 -0.9008  1.3102 -2.4408
 2836SOL    HW219968   3.790   4.583   6.979 -0.6195  1.3408  2.1841
 2837SOL     OW19969   2.662   2.340  10.414 -0.0383 -0.5362 -0.4087
 2837SOL    HW119970   2.640   2.349  10.507 -0.7981  0.3215 -0.6819
 2837SOL    HW219971   2.710   2.257  10.419  1.7629  0.6488  2.0889
 2838SOL     OW19972   3.000   1.486   9.360  0.5801 -0.1430  0.3363
 2838SOL    HW119973   2.986   1.481   9.265 -1.8083  1.9705  0.5547
 2838SOL    HW219974   3.029   1.396   9.373 -0.1532 -0.3628  0.4612
 2839SOL     OW19975   3.545   4.412   4.825  0.4787 -0.0660 -0.2698
 2839SOL    HW119976   3.549   4.322   4.794  3.1611 -0.2447  0.5741
 2839SOL    HW219977   3.637   4.433   4.841  0.2775  1.5626 -1.1957
 2840SOL     OW19978   0.169   0.549   7.329  0.3630 -0.3929 -0.2758
 2840SOL    HW119979   0.172   0.548   7.233 -1.4821  3.0897 -0.3589
 2840SOL    HW219980   0.251   0.501   7.339  0.4858 -0.1058  0.0935
 2841SOL     OW19981   2.299   3.999   8.682 -0.5195 -0.3541  0.0559
 2841SOL    HW119982   2.370   4.031   8.626 -2.1179  0.4496 -1.5021
 2841SOL    HW219983   2.291   3.907   8.654  1.5283 -0.4971 -0.0968
 2842SOL     OW19984   0.644   2.219   8.766 -0.5046 -0.1487  0.2188
 2842SOL    HW119985   0.610   2.152   8.824  0.9152  0.4595  1.7421
 2842SOL    HW219986   0.575   2.221   8.700  0.6300 -0.0477 -0.9815
 2843SOL     OW19987   2.808   3.007   4.533  0.3269 -0.4692 -0.3712
 2843SOL    HW119988   2.824   2.947   4.460 -1.6773 -0.0653 -1.1197
 2843SOL    HW219989   2.713   3.013   4.536  0.2948 -0.6120 -1.0344
 2844SOL     OW19990   0.225   0.718   5.111 -0.0021 -0.6136 -0.7006
 2844SOL    HW119991   0.314   0.693   5.085 -0.3971 -0.9606 -1.7041
 2844SOL    HW219992   0.247   0.772   5.187 -0.8525 -1.2774  0.0173
 2845SOL     OW19993   3.109   0.089   4.468 -0.0444  0.4619 -0.0962
 2845SOL    HW119994   3.062   0.146   4.529  0.1646  1.0864 -0.5082
 2845SOL    HW219995   3.193   0.133   4.458  0.2802  0.1914  1.5558
 2846SOL     OW19996   1.985   2.624   5.166 -0.5869 -0.1690 -0.1315
 2846SOL    HW119997   1.931   2.697   5.134 -0.3500 -0.9711 -2.4070
 2846SOL    HW219998   2.056   2.682   5.194 -1.0577 -0.2438  1.2053
 2847SOL     OW19999   1.565   0.514   4.810 -0.8323  0.0326 -0.3778
 2847SOL    HW120000   1.478   0.497   4.846 -0.2879 -1.7434  0.0752
 2847SOL    HW220001   1.598   0.424   4.816  0.6570  0.5341 -1.1837
 2848SOL     OW20002   0.637   4.613   8.790  0.2694  0.5175 -0.2417
 2848SOL    HW120003   0.627   4.651   8.877  0.9629 -0.7726  0.3942
 2848SOL    HW220004   0.729   4.638   8.778 -0.0293  0.7595 -1.9414
 2849SOL     OW20005   3.389   3.043   4.715  0.4544  0.4528 -0.0117
 2849SOL    HW120006   3.342   2.960   4.708 -1.1081  1.6118 -3.2602
 2849SOL    HW220007   3.475   3.010   4.743 -0.5927 -2.6314 -0.4774
 2850SOL     OW20008   4.267   4.683   6.032 -0.3143  0.1088  0.1245
 2850SOL    HW120009   4.323   4.704   6.107  1.1919 -0.4234 -0.8500
 2850SOL    HW220010   4.333   4.660   5.966  0.7339  1.0337  0.8501
 2851SOL     OW20011   3.352   3.778   2.961  0.2442 -0.4939 -0.6830
 2851SOL    HW120012   3.439   3.760   2.924  0.4156  1.9606 -1.5439
 2851SOL    HW220013   3.307   3.707   2.915 -0.6398 -1.1333  1.2111
 2852SOL     OW20014   3.681   4.088   3.591  0.3424 -0.4545  0.3945
 2852SOL    HW120015   3.656   4.139   3.668  0.0830 -0.4020  0.2753
 2852SOL    HW220016   3.761   4.139   3.576 -1.1867  1.7763 -0.1871
 2853SOL     OW20017   1.685   1.765   7.124 -0.1578 -0.1026  0.2279
 2853SOL    HW120018   1.638   1.825   7.066 -2.2917 -2.3685 -0.3447
 2853SOL    HW220019   1.770   1.808   7.114  1.0429 -2.3278  0.9025
 2854SOL     OW20020   0.099   0.141  11.786 -0.5193  0.3641 -0.3869
 2854SOL    HW120021   0.103   0.204  11.715 -0.8723  1.6923  0.7679
 2854SOL    HW220022   0.017   0.098  11.762 -0.3798  0.3841 -0.8968
 2855SOL     OW20023   3.785   3.019   1.942  0.5052 -0.0774  0.4999
 2855SOL    HW120024   3.796   3.001   2.035  0.7163  0.9750  0.6685
 2855SOL    HW220025   3.690   3.026   1.931  0.2613 -0.4012  2.4650
 2856SOL     OW20026   1.070   4.051   1.838  0.3591  0.2801  0.2492
 2856SOL    HW120027   1.107   4.061   1.926 -0.5997  1.7883  0.4836
 2856SOL    HW220028   1.087   4.134   1.793 -0.4513  0.5379  0.4188
 2857SOL     OW20029   3.015   0.669  15.466  0.2369  0.0811  0.1396
 2857SOL    HW120030   3.079   0.641  15.531 -0.9233  1.7974  2.0255
 2857SOL    HW220031   3.043   0.608  15.397  0.1273  0.5024 -0.2749
 2858SOL     OW20032   0.583   1.583   3.383 -0.0408  0.3721  0.0203
 2858SOL    HW120033   0.620   1.670   3.394  0.2934  0.4062 -1.4326
 2858SOL    HW220034   0.627   1.532   3.452  0.6153 -0.6282 -1.1450
 2859SOL     OW20035   4.671   0.913   3.378  0.6495  0.1983 -0.1970
 2859SOL    HW120036   4.668   1.009   3.369  0.2100  0.4404  2.3477
 2859SOL    HW220037   0.018   0.905   3.313  0.3848  0.1402 -0.4701
 2860SOL     OW20038   3.776   4.569   6.043  0.4830  0.0412 -0.4249
 2860SOL    HW120039   3.827   4.649   6.032  0.6348  0.0374  0.2397
 2860SOL    HW220040   3.709   4.590   6.108  0.5454  0.9649 -0.6591
 2861SOL     OW20041   4.143   1.837   5.458 -0.0174  0.8283 -0.0172
 2861SOL    HW120042   4.223   1.806   5.416 -1.1598  0.2086 -1.7688
 2861SOL    HW220043   4.186   1.907   5.507 -1.3076  0.9712  0.9086
 2862SOL     OW20044   2.226   0.544   2.460 -0.1616 -0.1576 -0.4959
 2862SOL    HW120045   2.157   0.544   2.394 -1.4420 -1.5230  0.8692
 2862SOL    HW220046   2.189   0.564   2.546 -3.4361  0.6271 -2.0941
 2863SOL     OW20047   2.493   2.086   0.994  0.5484 -0.5312 -0.1842
 2863SOL    HW120048   2.421   2.149   0.986  0.4127 -0.5213  1.2078
 2863SOL    HW220049   2.550   2.134   1.054  1.1004  1.0675 -1.9908
 2864SOL     OW20050   3.540   2.443   4.238  0.0137 -0.5145  0.2746
 2864SOL    HW120051   3.560   2.459   4.146 -0.0809 -1.8011  0.0273
 2864SOL    HW220052   3.445   2.453   4.234  0.2408  1.9059  0.5748
 2865SOL     OW20053   1.967   0.882   3.133  0.1327 -0.2503  0.2898
 2865SOL    HW120054   1.911   0.883   3.055  0.7035  0.7984 -0.1175
 2865SOL    HW220055   1.920   0.818   3.185 -1.6174  0.1995 -0.7295
 2866SOL     OW20056   3.931   1.090   1.493 -0.3198 -0.0753  0.1937
 2866SOL    HW120057   3.968   1.113   1.579 -1.5030 -0.5271  0.8144
 2866SOL    HW220058   3.966   1.169   1.452  1.9619 -0.5093  1.2734
 2867SOL     OW20059   2.477   2.909   2.891  0.0014 -0.0988 -0.5327
 2867SOL    HW120060   2.537   2.867   2.829  0.0218 -1.7133  0.5725
 2867SOL    HW220061   2.468   2.999   2.860 -2.1009 -1.0062 -2.5223
 2868SOL     OW20062   3.513   1.685   0.119 -0.1490  0.2904 -0.6158
 2868SOL    HW120063   3.597   1.698   0.162 -0.8779  0.3467  0.7817
 2868SOL    HW220064   3.503   1.763   0.063  1.5043 -1.5817 -3.5055
 2869SOL     OW20065   2.438   1.297   4.010 -0.1323 -0.3504 -0.2882
 2869SOL    HW120066   2.492   1.218   4.018 -0.2431 -0.3749  0.2650
 2869SOL    HW220067   2.466   1.353   4.082  0.7717 -1.1069 -0.0519
 2870SOL     OW20068   0.505   3.600   1.906  0.8377  0.2399 -0.0314
 2870SOL    HW120069   0.545   3.516   1.931  1.4479  1.0611  1.7405
 2870SOL    HW220070   0.441   3.564   1.845  1.0123  0.7565 -0.5156
 2871SOL     OW20071   4.523   2.848  12.730  0.3093 -0.1620  0.1575
 2871SOL    HW120072   4.573   2.835  12.810 -1.8278 -1.8576  1.2192
 2871SOL    HW220073   4.578   2.805  12.665 -0.3228  0.6859 -0.9324
 2872SOL     OW20074   1.640   1.060  12.005  0.2523  0.2097 -0.2426
 2872SOL    HW120075   1.595   1.022  12.081  0.6410 -1.3137 -0.7706
 2872SOL    HW220076   1.565   1.058  11.946 -1.6807  1.1454  2.1636
 2873SOL     OW20077   3.099   1.273   0.483 -0.0623  0.3178  0.1633
 2873SOL    HW120078   3.096   1.343   0.418  4.4439  0.0062 -0.3715
 2873SOL    HW220079   3.072   1.321   0.561  0.4938  0.5393  0.2262
 2874SOL     OW20080   2.651   0.693   7.026 -0.2039 -0.6116  0.0255
 2874SOL    HW120081   2.641   0.632   7.099 -3.4936  3.3733  2.9587
 2874SOL    HW220082   2.657   0.778   7.070  1.7330 -1.5881  1.6557
 2875SOL     OW20083   1.595   3.075   8.339  0.2953  0.3960 -0.0706
 2875SOL    HW120084   1.615   3.157   8.293 -0.1434 -0.3947 -1.6666
 2875SOL    HW220085   1.531   3.110   8.401  0.9403 -1.4067  1.6299
 2876SOL     OW20086   4.527   2.049   3.345 -0.3120  0.3803  0.6764
 2876SOL    HW120087   4.539   2.015   3.256 -0.4429 -1.1340  1.2485
 2876SOL    HW220088   4.566   2.136   3.337  0.6907  0.2134  3.7160
 2877SOL     OW20089   0.188   3.843   2.257 -0.5666  0.1839 -0.5305
 2877SOL    HW120090   0.191   3.915   2.319 -1.1144 -0.7998  0.6393
 2877SOL    HW220091   0.264   3.856   2.200  0.1709 -1.5884  0.0649
 2878SOL     OW20092   2.070   2.754   0.554 -0.2544 -0.3275  0.6478
 2878SOL    HW120093   2.038   2.836   0.516  3.0686  0.9073  0.4306
 2878SOL    HW220094   2.114   2.769   0.637  1.6503  0.9949 -0.5861
 2879SOL     OW20095   0.642   3.245   3.128  0.1036 -0.1590 -0.2268
 2879SOL    HW120096   0.563   3.265   3.078 -0.2354  0.3363  0.4977
 2879SOL    HW220097   0.603   3.253   3.215  2.0074 -0.6032  0.6579
 2880SOL     OW20098   2.773   2.578   0.141 -0.2968 -0.0303  0.1014
 2880SOL    HW120099   2.803   2.663   0.109 -1.2723 -0.0149 -0.7754
 2880SOL    HW220100   2.686   2.574   0.101 -0.4668 -1.7383  0.6326
 2881SOL     OW20101   2.395   0.959   1.521  0.0950 -0.2905 -0.3195
 2881SOL    HW120102   2.349   0.943   1.603  1.4835  2.1311  0.9433
 2881SOL    HW220103   2.318   0.973   1.465  0.5023 -2.3200 -1.3761
 2882SOL     OW20104   0.800   3.233   3.637  0.2926  0.1894 -0.4965
 2882SOL    HW120105   0.757   3.231   3.722  0.7752  0.7296 -0.2418
 2882SOL    HW220106   0.886   3.212   3.675  0.6874 -0.3108 -1.6533
 2883SOL     OW20107   0.033   3.626  10.558 -0.0659  0.1962 -0.0180
 2883SOL    HW120108   0.073   3.573  10.489 -0.6147 -1.9155  1.2708
 2883SOL    HW220109   4.662   3.621  10.542 -0.0692 -0.9235  0.3217
 2884SOL     OW20110   2.322   4.278   4.923  0.8010  0.1089 -0.1500
 2884SOL    HW120111   2.273   4.359   4.909  0.3355 -0.5081 -2.1127
 2884SOL    HW220112   2.360   4.270   4.836 -1.6755 -3.1648 -0.9387
 2885SOL     OW20113   1.410   2.425   1.936 -0.3530  0.0026  0.2045
 2885SOL    HW120114   1.442   2.414   1.847 -0.5868 -0.5476  0.1868
 2885SOL    HW220115   1.315   2.433   1.929 -0.4547  0.4777  2.1250
 2886SOL     OW20116   2.119   2.048   7.820  0.0887  0.4124 -0.3214
 2886SOL    HW120117   2.189   2.052   7.885  1.3440  0.6386 -1.6866
 2886SOL    HW220118   2.154   2.112   7.758 -4.2023  3.5624  0.5054
 2887SOL     OW20119   0.351   1.266  14.739  0.2025 -0.4221  0.5543
 2887SOL    HW120120   0.432   1.289  14.694  0.0099  1.7427  1.2729
 2887SOL    HW220121   0.382   1.201  14.801  0.4050 -0.0466  0.8491
 2888SOL     OW20122   4.464   4.156   2.555 -0.2856  0.4636  0.6876
 2888SOL    HW120123   4.489   4.248   2.562  0.8428  0.0457  2.0441
 2888SOL    HW220124   4.538   4.120   2.604  0.4205 -0.6169 -1.1887
 2889SOL     OW20125   0.878   3.848   1.192 -0.1141 -0.3984  0.2095
 2889SOL    HW120126   0.858   3.773   1.248 -0.3060  0.3290  1.1194
 2889SOL    HW220127   0.943   3.809   1.134  0.9676 -2.1079  2.5827
 2890SOL     OW20128   2.267   2.865   7.003 -0.0040  0.3017  0.3040
 2890SOL    HW120129   2.175   2.873   6.977  0.4460 -0.1833 -1.4272
 2890SOL    HW220130   2.285   2.776   6.973  0.3660  0.6642 -0.5674
 2891SOL     OW20131   2.546   0.754   6.349 -0.0112 -1.0405  0.4970
 2891SOL    HW120132   2.545   0.665   6.385 -2.4642 -1.0086  0.5613
 2891SOL    HW220133   2.478   0.789   6.407 -0.8246  0.5869 -1.4482
 2892SOL     OW20134   2.322   2.936   5.859  0.0973 -0.0530 -0.1033
 2892SOL    HW120135   2.408   2.976   5.843  0.7074 -1.2772  0.1634
 2892SOL    HW220136   2.328   2.907   5.950  0.0401  0.7857  0.1672
 2893SOL     OW20137   1.281   4.382  10.382  0.7305  0.4306 -0.2862
 2893SOL    HW120138   1.317   4.426  10.305 -0.8622 -0.0379 -1.2839
 2893SOL    HW220139   1.188   4.402  10.382  1.0293  1.7833 -0.1172
 2894SOL     OW20140   3.616   4.555  12.930 -0.1630  0.4098 -0.3985
 2894SOL    HW120141   3.586   4.465  12.938 -2.3124  1.0306 -1.7404
 2894SOL    HW220142   3.590   4.596  13.012 -0.4511 -1.6595  0.5550
 2895SOL     OW20143   4.484   2.843   8.162 -0.4229  0.0757 -0.0500
 2895SOL    HW120144   4.492   2.856   8.256 -1.3910 -2.0509  0.3210
 2895SOL    HW220145   4.521   2.754   8.160 -1.0217 -0.1746  0.2075
 2896SOL     OW20146   1.819   2.156  16.008 -0.0793 -0.4911  0.4789
 2896SOL    HW120147   1.775   2.100  15.944  1.8394 -1.5355  0.0743
 2896SOL    HW220148   1.849   2.227  15.951 -0.6251 -1.0686 -0.5276
 2897SOL     OW20149   4.414   0.257  12.783  0.0409 -0.3795  0.4136
 2897SOL    HW120150   4.402   0.163  12.800  2.1625 -0.4869  1.3780
 2897SOL    HW220151   4.443   0.259  12.691 -1.1464  1.0766  0.0842
 2898SOL     OW20152   2.946   3.806   6.899 -0.3873  0.4254  0.1209
 2898SOL    HW120153   2.875   3.773   6.955 -0.7351 -0.9320 -1.1196
 2898SOL    HW220154   2.975   3.722   6.862  0.5875 -0.6960  3.4228
 2899SOL     OW20155   2.747   0.429  14.817  0.6622  0.1329  0.2710
 2899SOL    HW120156   2.715   0.476  14.894  2.3567  2.3410 -0.3579
 2899SOL    HW220157   2.834   0.471  14.814  0.5703  0.2051 -1.4562
 2900SOL     OW20158   2.077   0.390   8.448 -0.4639 -0.0535  0.2215
 2900SOL    HW120159   2.006   0.358   8.504 -1.0742 -0.0172 -0.5303
 2900SOL    HW220160   2.039   0.362   8.365  2.4626  1.3224 -1.5637
 2901SOL     OW20161   3.389   0.772   3.262  0.1100  0.4227 -0.2013
 2901SOL    HW120162   3.312   0.818   3.229 -0.9473 -2.0773 -1.2201
 2901SOL    HW220163   3.458   0.833   3.237  0.7574 -0.1867  0.0872
 2902SOL     OW20164   4.022   3.457   1.827 -0.0317  0.2256  0.4679
 2902SOL    HW120165   4.117   3.468   1.824 -0.2046  2.1120  2.2815
 2902SOL    HW220166   4.008   3.362   1.821  1.0409  0.0326  1.0668
 2903SOL     OW20167   3.852   0.442   7.718  0.2400  0.8960  0.0851
 2903SOL    HW120168   3.912   0.498   7.667  1.6200 -1.3762 -0.7626
 2903SOL    HW220169   3.787   0.508   7.744 -0.9685 -0.2473 -0.0272
 2904SOL     OW20170   3.415   2.308  14.352 -0.6229 -0.1774  0.0201
 2904SOL    HW120171   3.451   2.299  14.263  0.7578 -3.7244  0.9641
 2904SOL    HW220172   3.488   2.280  14.406 -1.0616  0.1206  0.7622
 2905SOL     OW20173   0.505   1.414  16.717  0.4468  0.1057 -0.4786
 2905SOL    HW120174   0.471   1.338  16.763 -2.2929  1.2998 -0.5297
 2905SOL    HW220175   0.430   1.452  16.671  1.2592  0.5408 -1.4591
 2906SOL     OW20176   4.705   1.775  14.540 -0.0060  0.3277 -0.3087
 2906SOL    HW120177   4.642   1.788  14.611  2.2542  0.1275  1.7203
 2906SOL    HW220178   0.056   1.737  14.587  0.3732 -0.0960 -1.2427
 2907SOL     OW20179   1.744   3.947   5.408  0.2220  0.8604 -0.2514
 2907SOL    HW120180   1.768   3.994   5.329 -0.4697  0.1973 -0.8535
 2907SOL    HW220181   1.658   3.911   5.386 -0.3802  1.6077  0.8613
 2908SOL     OW20182   3.992   2.888  11.722  0.1887  0.0675 -0.1981
 2908SOL    HW120183   4.060   2.919  11.662 -0.5383 -0.3755 -1.2620
 2908SOL    HW220184   3.913   2.942  11.709 -1.4388 -2.4999 -1.0155
 2909SOL     OW20185   2.703   3.864  17.102  0.2002  0.0581  0.1299
 2909SOL    HW120186   2.661   3.780  17.084 -1.7678  1.1138 -0.1323
 2909SOL    HW220187   2.742   3.872  17.015 -3.0995 -0.1594 -1.3498
 2910SOL     OW20188   1.284   2.174  12.019  0.6864 -0.2784  0.4203
 2910SOL    HW120189   1.277   2.079  12.027 -2.3251 -0.0636  0.4245
 2910SOL    HW220190   1.362   2.184  12.074  1.7986 -0.3032 -1.1704
 2911SOL     OW20191   2.995   4.534  16.723  0.5829 -0.5994  0.0610
 2911SOL    HW120192   2.967   4.623  16.703  2.2394 -0.6889 -2.6281
 2911SOL    HW220193   2.925   4.480  16.686  0.4645  0.4510 -1.2376
 2912SOL     OW20194   4.122   2.864  11.963 -0.1151 -0.9785 -0.3757
 2912SOL    HW120195   4.059   2.838  11.896  0.5234  0.6591 -1.6253
 2912SOL    HW220196   4.200   2.838  11.914  0.4113  0.3378 -0.2503
 2913SOL     OW20197   3.103   3.077   1.524 -0.1859  0.5605 -0.1233
 2913SOL    HW120198   3.017   3.083   1.565 -0.6739  0.3520 -1.1349
 2913SOL    HW220199   3.129   3.168   1.516  1.4615  0.0851 -0.2645
 2914SOL     OW20200   2.440   0.306   5.334 -0.4388 -0.8071 -0.3218
 2914SOL    HW120201   2.378   0.309   5.407  0.4362 -0.6038  0.4130
 2914SOL    HW220202   2.442   0.402   5.330  1.1875 -0.8845 -1.3682
 2915SOL     OW20203   2.392   4.385   7.042  0.0017 -0.1115  0.0712
 2915SOL    HW120204   2.416   4.470   7.005  0.4539  0.9623  2.8661
 2915SOL    HW220205   2.373   4.429   7.124 -1.7996 -0.8236  0.0423
 2916SOL     OW20206   4.345   1.467   2.580  0.3985  0.5230 -0.5788
 2916SOL    HW120207   4.387   1.428   2.503  0.2913  0.8566 -0.8044
 2916SOL    HW220208   4.420   1.518   2.611  0.7495 -1.0103  1.1253
 2917SOL     OW20209   3.980   0.739   6.226  0.6315  0.0453  0.3748
 2917SOL    HW120210   4.012   0.742   6.316  2.2931 -0.5016 -0.1953
 2917SOL    HW220211   4.040   0.799   6.182  1.8839 -1.5247 -0.0651
 2918SOL     OW20212   4.106   0.090   7.935  0.7953  0.1251 -0.1514
 2918SOL    HW120213   4.180   0.029   7.939 -0.7828 -1.9854 -2.7033
 2918SOL    HW220214   4.133   0.169   7.982  0.9705  0.5626 -1.0084
 2919SOL     OW20215   4.491   0.815  13.427  0.3218  0.3788 -0.1441
 2919SOL    HW120216   4.477   0.825  13.333  1.0765  2.6245 -0.0235
 2919SOL    HW220217   4.411   0.768  13.454 -0.7457  2.3334  0.1006
 2920SOL     OW20218   0.579   1.766  17.073  0.0273  0.3522 -0.1238
 2920SOL    HW120219   0.596   1.838  17.013  0.9118 -0.9488 -1.4489
 2920SOL    HW220220   0.486   1.744  17.064  0.7729 -3.0993  0.4036
 2921SOL     OW20221   0.806   3.082   7.358 -0.1911  0.3892 -0.1119
 2921SOL    HW120222   0.828   3.016   7.424  0.5571 -0.3636 -1.1164
 2921SOL    HW220223   0.723   3.114   7.393 -0.3779 -0.0433 -0.1590
 2922SOL     OW20224   1.667   0.522   0.960  0.7351  0.5479 -0.4251
 2922SOL    HW120225   1.612   0.557   0.891 -0.6518 -0.7318  0.0262
 2922SOL    HW220226   1.711   0.598   0.999 -1.7918  0.9450  1.6492
 2923SOL     OW20227   4.702   3.041   5.779 -0.1655  0.0323  0.0947
 2923SOL    HW120228   4.641   3.044   5.853  0.2690  0.6999  0.4245
 2923SOL    HW220229   4.643   3.002   5.715  1.0380 -0.6955 -0.5633
 2924SOL     OW20230   2.435   1.208  16.103  0.4019  0.2269  0.2352
 2924SOL    HW120231   2.391   1.144  16.159 -1.0619  2.8910  2.1255
 2924SOL    HW220232   2.433   1.166  16.016 -1.8139  1.7661 -0.4669
 2925SOL     OW20233   1.282   2.144   4.166  0.1432 -0.0584 -0.5407
 2925SOL    HW120234   1.283   2.090   4.246  0.0507 -1.3616 -1.4278
 2925SOL    HW220235   1.304   2.231   4.200 -1.2606 -0.4084  1.2639
 2926SOL     OW20236   2.218   4.118  17.189 -0.0558 -0.1772  0.3092
 2926SOL    HW120237   2.153   4.088  17.125  0.1245  2.3230 -1.0701
 2926SOL    HW220238   2.289   4.074  17.142 -0.1950  0.7358 -0.7522
 2927SOL     OW20239   2.035   0.185   7.118 -0.5358  0.4520 -0.4168
 2927SOL    HW120240   1.994   0.271   7.124 -0.0630  0.6855 -0.4650
 2927SOL    HW220241   1.988   0.138   7.186  1.7302  2.4253  2.5283
 2928SOL     OW20242   3.347   4.002   3.107 -0.3102  0.2942 -0.1733
 2928SOL    HW120243   3.355   3.932   3.042  0.2446 -1.1098  1.3903
 2928SOL    HW220244   3.349   4.077   3.048 -1.2702  0.9603  0.6482
 2929SOL     OW20245   1.160   2.279   7.693  0.1238  0.0113  0.4955
 2929SOL    HW120246   1.251   2.262   7.719  0.1375 -2.0437 -0.8300
 2929SOL    HW220247   1.165   2.373   7.679 -0.1045 -0.0205  0.2024
 2930SOL     OW20248   3.076   0.393   6.766  0.0678  0.0561  0.0066
 2930SOL    HW120249   2.989   0.421   6.739  0.3546 -0.5139 -1.5115
 2930SOL    HW220250   3.118   0.476   6.790 -1.4391  1.3808 -1.9368
 2931SOL     OW20251   0.546   0.671   2.035  0.3751 -0.3195 -0.3180
 2931SOL    HW120252   0.499   0.745   2.074 -0.2760 -1.2175  0.6156
 2931SOL    HW220253   0.483   0.620   1.985 -0.1882  2.8828 -2.8393
 2932SOL     OW20254   4.042   4.245  12.243 -0.4425 -0.1415 -0.1293
 2932SOL    HW120255   4.088   4.272  12.323  0.5866  0.9521 -1.0869
 2932SOL    HW220256   4.066   4.153  12.237  2.4090  0.4624  1.7462
 2933SOL     OW20257   4.224   4.601  10.230 -0.6684 -0.4815  0.5996
 2933SOL    HW120258   4.141   4.648  10.219 -0.5176 -0.8357 -1.9897
 2933SOL    HW220259   4.196   4.520  10.273  0.0624 -1.2076 -0.2935
 2934SOL     OW20260   1.983   3.310   2.165 -0.3122  0.4229 -0.0599
 2934SOL    HW120261   1.978   3.287   2.257 -3.3085  0.6668 -0.1471
 2934SOL    HW220262   2.054   3.371   2.180  0.4733 -0.2912 -0.8708
 2935SOL     OW20263   4.127   2.515   4.074  0.0600 -0.5171 -0.0234
 2935SOL    HW120264   4.092   2.598   4.104 -1.0178 -0.7624 -0.5991
 2935SOL    HW220265   4.220   2.538   4.079 -0.2097  0.7278 -0.8928
 2936SOL     OW20266   3.453   4.307   6.320 -0.3365  0.0131 -0.4719
 2936SOL    HW120267   3.537   4.302   6.276 -0.6653  1.4224 -1.2677
 2936SOL    HW220268   3.456   4.399   6.346  0.2558 -0.6324  1.7719
 2937SOL     OW20269   1.284   3.737   9.093 -0.9327  0.0805  0.2030
 2937SOL    HW120270   1.240   3.821   9.101  1.3827  1.2769  0.1593
 2937SOL    HW220271   1.259   3.685   9.170 -1.2822  0.9003  0.6413
 2938SOL     OW20272   2.068   3.909   6.283 -0.3735  0.0221 -0.0665
 2938SOL    HW120273   2.063   3.838   6.219 -1.6245 -0.3287  0.4307
 2938SOL    HW220274   1.979   3.945   6.279 -0.3405  0.2759  1.6670
 2939SOL     OW20275   1.384   3.146   8.565 -0.4972  0.7267 -0.0165
 2939SOL    HW120276   1.341   3.226   8.594 -1.8265  0.0906 -0.2044
 2939SOL    HW220277   1.316   3.079   8.571 -0.5952  0.9116  0.8574
 2940SOL     OW20278   0.740   1.666   6.136 -0.0721  0.0163 -0.1739
 2940SOL    HW120279   0.786   1.731   6.190  1.9113 -1.4021 -0.1722
 2940SOL    HW220280   0.798   1.591   6.149  0.5478  0.7574  1.4567
 2941SOL     OW20281   3.500   4.612   9.177  0.2002 -0.2322 -0.1509
 2941SOL    HW120282   3.425   4.596   9.234  0.8075  0.7803  0.9267
 2941SOL    HW220283   3.477   4.699   9.143 -0.1713 -0.1022  0.4384
 2942SOL     OW20284   2.904   1.936  15.298 -0.3819 -1.1447  0.0120
 2942SOL    HW120285   2.914   1.845  15.326  1.0234 -0.8067  0.6280
 2942SOL    HW220286   2.957   1.981  15.364 -1.2762  1.1550 -0.8534
 2943SOL     OW20287   1.084   2.243   3.272 -0.0784  0.1330  0.3011
 2943SOL    HW120288   1.053   2.154   3.253 -0.7731  0.5199 -0.3642
 2943SOL    HW220289   1.163   2.227   3.324  1.2474 -1.8540 -2.3238
 2944SOL     OW20290   3.528   2.503   8.365 -0.1695 -0.0887 -0.5083
 2944SOL    HW120291   3.614   2.485   8.402  0.4668  0.9116 -1.4971
 2944SOL    HW220292   3.542   2.457   8.282 -0.2785  0.7918 -1.0072
 2945SOL     OW20293   0.329   3.249  17.191  0.1918 -0.2239  0.3812
 2945SOL    HW120294   0.392   3.299  17.138  1.3620 -0.8542  1.1564
 2945SOL    HW220295   0.364   3.271  17.278 -2.6528  2.0201  0.9573
 2946SOL     OW20296   3.853   0.713  11.254  0.3828 -0.0562 -0.2998
 2946SOL    HW120297   3.808   0.654  11.194 -1.7744  1.9392 -0.6480
 2946SOL    HW220298   3.851   0.791  11.198 -3.4588  0.0359 -0.0264
 2947SOL     OW20299   1.657   1.517   5.488  0.3851 -0.2253  0.4223
 2947SOL    HW120300   1.677   1.471   5.569  1.2811 -0.9018 -0.1936
 2947SOL    HW220301   1.710   1.597   5.492  0.3424 -0.1810  0.1398
 2948SOL     OW20302   1.375   4.232   2.941  0.1264  0.3632  0.1860
 2948SOL    HW120303   1.373   4.322   2.909  0.5590  0.3396  0.0850
 2948SOL    HW220304   1.282   4.212   2.951 -0.3043  1.7997 -0.9887
 2949SOL     OW20305   4.264   0.122   4.283 -0.5111  0.4806 -0.1003
 2949SOL    HW120306   4.255   0.062   4.357  1.7632  0.5708  0.2478
 2949SOL    HW220307   4.352   0.156   4.300 -1.2091  2.2533 -0.0707
 2950SOL     OW20308   2.355   3.527   5.726  0.2631  0.1581  0.3446
 2950SOL    HW120309   2.278   3.584   5.717 -0.6936 -1.0514  0.8591
 2950SOL    HW220310   2.410   3.558   5.653 -1.7720 -0.1355 -1.3266
 2951SOL     OW20311   2.403   0.508   7.804 -0.1055  0.1579  0.2662
 2951SOL    HW120312   2.402   0.424   7.759  2.7497 -0.8226  2.0179
 2951SOL    HW220313   2.355   0.560   7.739  0.6677  0.2161 -0.2566
 2952SOL     OW20314   1.592   0.362   2.905 -0.0373 -0.1358 -0.0036
 2952SOL    HW120315   1.593   0.351   2.810  3.1303 -1.6269  0.1987
 2952SOL    HW220316   1.534   0.438   2.910  2.1905  1.5979 -0.0358
 2953SOL     OW20317   2.192   4.054  10.914 -0.0910 -0.1863 -0.5805
 2953SOL    HW120318   2.203   4.120  10.845 -0.7602  1.7783  1.1948
 2953SOL    HW220319   2.211   4.100  10.996 -1.3504 -0.3938 -0.1704
 2954SOL     OW20320   1.957   2.685   3.795  0.0304  0.0727 -0.5221
 2954SOL    HW120321   2.010   2.638   3.860  1.4776  1.5041 -0.6685
 2954SOL    HW220322   1.925   2.751   3.856  0.6757 -0.5725  0.5170
 2955SOL     OW20323   3.741   1.474   9.662  0.2940 -0.1742 -0.2653
 2955SOL    HW120324   3.685   1.412   9.708  0.5553  0.2850  0.6793
 2955SOL    HW220325   3.765   1.533   9.734  0.5184 -1.9742  1.1114
 2956SOL     OW20326   3.017   0.998   3.487 -0.1648  0.0350  0.0989
 2956SOL    HW120327   2.971   0.991   3.404  0.6160  4.3946 -0.6925
 2956SOL    HW220328   3.084   1.065   3.474 -0.4634  0.6234  1.6178
 2957SOL     OW20329   1.664   4.717   0.853 -0.3366  0.3681  0.0980
 2957SOL    HW120330   1.668   0.086   0.878  0.9147  0.5775 -0.8425
 2957SOL    HW220331   1.655   0.003   0.758  1.2628 -0.6376 -0.1562
 2958SOL     OW20332   1.584   1.425  16.878  0.0809  0.3793  0.0423
 2958SOL    HW120333   1.619   1.340  16.851  1.0375  0.4927  0.9312
 2958SOL    HW220334   1.502   1.430  16.829 -0.7719  1.8056  1.6064
 2959SOL     OW20335   4.520   2.607   8.792  0.5530  0.1616  0.5279
 2959SOL    HW120336   4.566   2.538   8.840 -1.1163 -1.2930  0.0456
 2959SOL    HW220337   4.584   2.632   8.726  0.5593 -1.3280 -0.0213
 2960SOL     OW20338   1.700   3.655   6.428 -0.3099 -0.4155 -0.3804
 2960SOL    HW120339   1.649   3.706   6.364 -0.6189  0.2044  0.3542
 2960SOL    HW220340   1.637   3.590   6.460 -0.5912  0.5562  1.0513
 2961SOL     OW20341   3.713   3.776  15.583 -0.1871 -0.1280  0.3409
 2961SOL    HW120342   3.795   3.751  15.626 -0.9106 -1.7627  0.7442
 2961SOL    HW220343   3.723   3.730  15.500  2.3300 -0.1846  0.6686
 2962SOL     OW20344   2.635   1.331  10.868  0.5592 -0.3849  0.0190
 2962SOL    HW120345   2.612   1.344  10.776 -0.8553 -0.8741  0.3083
 2962SOL    HW220346   2.572   1.394  10.902 -0.3353  0.0653 -2.4645
 2963SOL     OW20347   1.419   0.126  13.587 -0.2963 -0.0403  0.2909
 2963SOL    HW120348   1.370   0.173  13.654 -1.1738 -0.3889 -0.1089
 2963SOL    HW220349   1.439   0.041  13.627  0.3503  1.2560  2.7238
 2964SOL     OW20350   1.719   2.114   5.147  0.6025 -0.1390 -0.0503
 2964SOL    HW120351   1.653   2.100   5.079 -1.1949 -2.0413  2.1051
 2964SOL    HW220352   1.668   2.092   5.225  0.8815 -0.0282  0.1668
 2965SOL     OW20353   3.981   2.032  11.660 -0.3782 -0.3057 -0.1664
 2965SOL    HW120354   3.897   2.012  11.619 -1.9860  1.2772  2.3474
 2965SOL    HW220355   4.036   1.962  11.625 -1.2257 -0.4419 -1.2076
 2966SOL     OW20356   4.187   3.512   2.642 -0.7429  0.2868 -0.3439
 2966SOL    HW120357   4.219   3.489   2.555  0.2079  0.9201 -0.1621
 2966SOL    HW220358   4.120   3.445   2.659 -0.7203  0.4254  0.2802
 2967SOL     OW20359   4.297   3.811   9.684  1.1042 -0.2629  0.4339
 2967SOL    HW120360   4.265   3.802   9.774  3.0032 -2.7342  0.8798
 2967SOL    HW220361   4.327   3.721   9.672  1.8498  0.2174 -1.3751
 2968SOL     OW20362   0.925   3.707   5.480 -0.1332  0.3030  0.4929
 2968SOL    HW120363   0.832   3.690   5.472 -0.2214  1.5687 -1.1525
 2968SOL    HW220364   0.967   3.625   5.506 -0.4207 -0.0853 -0.2699
 2969SOL     OW20365   2.416   1.437  14.729 -0.3662 -0.1385 -0.4628
 2969SOL    HW120366   2.447   1.349  14.710 -4.4304 -1.9101  1.2274
 2969SOL    HW220367   2.493   1.486  14.760  0.3018 -0.6736 -1.2935
 2970SOL     OW20368   1.706   4.079   8.239  0.4819 -0.3454 -0.7707
 2970SOL    HW120369   1.759   4.018   8.189  1.4680 -2.0679  2.3767
 2970SOL    HW220370   1.734   4.068   8.330  1.6335 -1.2207 -1.2350
 2971SOL     OW20371   0.473   1.926   6.581 -0.0223 -0.3045  0.4158
 2971SOL    HW120372   0.383   1.900   6.563  0.4989 -2.3605  0.7549
 2971SOL    HW220373   0.512   1.903   6.497 -1.6768  0.7167 -0.6201
 2972SOL     OW20374   3.645   3.077  16.514  0.2884 -0.0374  0.0086
 2972SOL    HW120375   3.689   3.032  16.442 -0.5719 -0.1552 -0.4544
 2972SOL    HW220376   3.603   3.001  16.555 -0.3238  0.7655  0.8884
 2973SOL     OW20377   4.295   2.061  15.260 -0.2629 -0.0249  0.0787
 2973SOL    HW120378   4.235   2.007  15.311 -1.8944  0.0149 -1.8104
 2973SOL    HW220379   4.276   2.141  15.310  1.1802  0.1265  0.4067
 2974SOL     OW20380   0.995   4.388  13.741  0.2729 -0.8755  1.1113
 2974SOL    HW120381   0.944   4.307  13.740 -0.9828 -0.0259 -1.4880
 2974SOL    HW220382   1.006   4.391  13.836 -1.1190  1.7424  1.1656
 2975SOL     OW20383   2.363   0.321   8.217  0.5144  0.6910  0.3535
 2975SOL    HW120384   2.361   0.247   8.277  0.2715 -1.2343 -2.0246
 2975SOL    HW220385   2.347   0.387   8.285 -0.9081  1.4894 -0.7613
 2976SOL     OW20386   1.145   4.559   7.132  0.2454 -0.0663  0.2003
 2976SOL    HW120387   1.160   4.566   7.226 -0.1404  0.9662  0.1942
 2976SOL    HW220388   1.160   4.653   7.121  2.1114 -0.6630 -2.4422
 2977SOL     OW20389   3.786   0.486   0.607 -0.4787  0.1675 -0.0510
 2977SOL    HW120390   3.736   0.426   0.552 -1.1798 -0.5246  1.3454
 2977SOL    HW220391   3.878   0.460   0.602  0.4731  3.1431  1.5630
 2978SOL     OW20392   4.645   2.965  14.870  0.2356  0.0206  0.4710
 2978SOL    HW120393   4.555   2.991  14.848 -0.4252 -2.7105 -0.0894
 2978SOL    HW220394   4.695   3.020  14.810  1.3409 -0.1094  1.2903
 2979SOL     OW20395   1.022   3.908  12.133  1.0554  0.4567  0.0738
 2979SOL    HW120396   1.090   3.929  12.197  0.6176 -0.2249  0.7504
 2979SOL    HW220397   0.958   3.977  12.152 -1.7589 -1.9352 -0.8610
 2980SOL     OW20398   1.033   3.765   0.824 -0.7223  0.0087 -0.2539
 2980SOL    HW120399   1.026   3.772   0.919 -0.1692 -2.0814 -0.0534
 2980SOL    HW220400   0.949   3.805   0.804 -0.1751  1.3060  0.0500
 2981SOL     OW20401   3.048   2.033   4.105 -0.4013  0.0707  0.1920
 2981SOL    HW120402   2.973   2.041   4.046 -0.9802 -0.3712  0.8540
 2981SOL    HW220403   3.037   1.949   4.151  0.0449  0.0725  0.3030
 2982SOL     OW20404   4.085   1.636  16.969  0.1771  0.4669  0.6390
 2982SOL    HW120405   4.132   1.691  17.032  0.4425  2.7276 -1.5391
 2982SOL    HW220406   4.152   1.571  16.946  1.5477  2.0903  0.0220
 2983SOL     OW20407   1.104   1.563   6.967 -0.1461  0.2530  0.4222
 2983SOL    HW120408   1.057   1.647   6.974  0.1252  0.2639  2.0293
 2983SOL    HW220409   1.186   1.582   7.013  0.3994 -0.5016 -0.2473
 2984SOL     OW20410   3.093   4.132  13.464 -0.4719  0.3250 -0.1459
 2984SOL    HW120411   3.145   4.102  13.389 -0.7847 -2.2572  0.6462
 2984SOL    HW220412   3.012   4.083  13.446  1.0667 -1.4114 -2.4544
 2985SOL     OW20413   4.566   4.306  14.263 -1.0283  0.4782  0.2539
 2985SOL    HW120414   4.618   4.232  14.293  0.6947  0.9543 -1.5730
 2985SOL    HW220415   4.506   4.320  14.337  0.8500  1.0612  1.6546
 2986SOL     OW20416   4.063   3.785   7.637  0.0175 -0.1732  0.1348
 2986SOL    HW120417   4.063   3.866   7.689 -0.4981 -0.6826  0.9293
 2986SOL    HW220418   4.152   3.779   7.602  0.3503 -1.0539  1.1583
 2987SOL     OW20419   0.525   0.482  14.563 -0.6093 -0.0544  0.0639
 2987SOL    HW120420   0.606   0.534  14.555 -1.2909  0.9699 -0.2117
 2987SOL    HW220421   0.561   0.406  14.608 -1.9585  0.1216  1.4330
 2988SOL     OW20422   3.382   2.221  13.460 -0.0182 -0.7422  0.0579
 2988SOL    HW120423   3.323   2.225  13.384  0.1291 -0.4902 -0.0425
 2988SOL    HW220424   3.402   2.128  13.451 -1.1309 -0.6926 -3.1960
 2989SOL     OW20425   4.341   3.305  14.421 -0.8794  0.2819  0.3492
 2989SOL    HW120426   4.418   3.357  14.398  0.1674 -1.1769  0.4856
 2989SOL    HW220427   4.294   3.324  14.340  0.1854  2.3360  0.2212
 2990SOL     OW20428   1.105   0.265   0.624 -0.8468  0.2608  0.5563
 2990SOL    HW120429   1.040   0.332   0.601 -1.8376 -1.2542 -1.0252
 2990SOL    HW220430   1.061   0.228   0.700 -1.1970  3.2655  1.8050
 2991SOL     OW20431   2.985   4.564   1.051 -0.1665 -0.1824 -0.3754
 2991SOL    HW120432   3.066   4.565   1.102 -0.7565 -1.7317  0.6266
 2991SOL    HW220433   2.935   4.528   1.125 -0.1368 -0.1481 -0.3387
 2992SOL     OW20434   3.331   3.548  13.437 -0.0766 -0.2209 -0.0891
 2992SOL    HW120435   3.370   3.586  13.358  0.8550 -0.4172  0.2771
 2992SOL    HW220436   3.305   3.630  13.480  0.6901 -0.4173  0.7531
 2993SOL     OW20437   2.161   2.082  15.241  0.5045 -0.5396 -0.2389
 2993SOL    HW120438   2.066   2.085  15.254  0.8596 -0.1928  2.2123
 2993SOL    HW220439   2.179   2.150  15.176  0.0262  0.7724  0.9820
 2994SOL     OW20440   0.739   1.475   3.573 -0.1028 -0.0245 -0.1675
 2994SOL    HW120441   0.784   1.410   3.519  0.3467  1.7333 -1.9101
 2994SOL    HW220442   0.786   1.467   3.656 -2.1328 -0.5421  0.9507
 2995SOL     OW20443   0.964   2.769   4.643 -0.7456 -0.2873  0.1226
 2995SOL    HW120444   1.022   2.714   4.695  1.0425 -1.3707 -2.9723
 2995SOL    HW220445   0.900   2.706   4.610 -0.1401  0.5013 -2.6393
 2996SOL     OW20446   0.721   3.754  15.216  0.1497  0.1669  0.4027
 2996SOL    HW120447   0.773   3.833  15.230  2.1414 -0.9785 -0.5685
 2996SOL    HW220448   0.705   3.711  15.300 -0.6398  0.0053  0.1741
 2997SOL     OW20449   0.842   0.349   0.572 -0.0117 -0.0688  0.5913
 2997SOL    HW120450   0.821   0.379   0.660  1.1105 -2.2983  1.6196
 2997SOL    HW220451   0.754   0.339   0.535  0.0892  1.9385 -0.1474
 2998SOL     OW20452   1.583   2.185   6.817  0.8347 -0.4009 -0.0150
 2998SOL    HW120453   1.509   2.229   6.775  0.6617 -0.8339 -0.1605
 2998SOL    HW220454   1.639   2.258   6.844  0.9108 -0.4046 -0.1595
 2999SOL     OW20455   3.662   1.069   7.440 -0.0983  1.1233  0.0400
 2999SOL    HW120456   3.691   0.983   7.411 -0.5042  1.3067 -0.8896
 2999SOL    HW220457   3.753   1.100   7.444  0.3391 -0.3899  1.8777
 3000SOL     OW20458   1.040   3.845   0.009 -0.3052  0.0077  0.1008
 3000SOL    HW120459   1.131   3.855   0.037  0.1611  0.5163 -1.5810
 3000SOL    HW220460   1.040   3.796  17.622  1.6123 -0.9145  0.6528
 3001SOL     OW20461   3.486   2.346   6.139  0.3015  0.0015 -0.0838
 3001SOL    HW120462   3.403   2.338   6.186 -0.0993 -0.5981 -0.9014
 3001SOL    HW220463   3.463   2.419   6.081  0.1697 -2.1060 -2.6919
 3002SOL     OW20464   1.314   3.340   8.754  0.5573 -0.0846 -0.0810
 3002SOL    HW120465   1.291   3.424   8.794 -0.1161  0.1101 -0.8766
 3002SOL    HW220466   1.302   3.281   8.828  1.4413 -0.7969 -0.5014
 3003SOL     OW20467   3.795   0.596   6.108 -0.3519  0.0202 -0.3743
 3003SOL    HW120468   3.847   0.668   6.144 -0.7954  1.2049 -2.1320
 3003SOL    HW220469   3.818   0.520   6.162 -0.0555 -0.0211 -0.5571
 3004SOL     OW20470   2.011   0.226  10.593  0.1867  0.1608 -0.1806
 3004SOL    HW120471   1.942   0.230  10.658 -0.3381 -0.4461 -0.6976
 3004SOL    HW220472   1.982   0.159  10.531 -1.6956  0.4582  0.4006
 3005SOL     OW20473   1.698   2.912  17.517 -0.3350 -0.6671 -0.1683
 3005SOL    HW120474   1.717   2.936  17.607  0.2606  0.0320 -0.4782
 3005SOL    HW220475   1.610   2.949  17.505 -0.7894 -0.3189  4.3210
 3006SOL     OW20476   3.502   1.010   4.019  0.2132  0.2908  0.6866
 3006SOL    HW120477   3.409   1.027   4.033  0.4303  0.8852  1.4000
 3006SOL    HW220478   3.528   1.097   3.988 -0.2779 -0.0301 -0.6485
 3007SOL     OW20479   0.395   4.375  10.993  0.0865  0.3773  0.0773
 3007SOL    HW120480   0.309   4.387  10.953 -0.6540 -0.1968  1.4947
 3007SOL    HW220481   0.370   4.397  11.083  1.3992  0.5429  0.4065
 3008SOL     OW20482   2.024   0.394   6.186 -0.0419  0.3773 -0.6688
 3008SOL    HW120483   2.085   0.329   6.222  1.9838  1.9264 -1.3208
 3008SOL    HW220484   2.030   0.469   6.245  0.4992  0.0073 -0.2621
 3009SOL     OW20485   0.534   1.306   0.091 -0.2488  0.4793 -0.1534
 3009SOL    HW120486   0.579   1.360   0.026  1.2407 -1.5124 -0.7827
 3009SOL    HW220487   0.509   1.231   0.037 -0.2672 -1.1365  2.0974
 3010SOL     OW20488   1.236   0.632  10.782  0.5593 -0.0008  0.1411
 3010SOL    HW120489   1.175   0.638  10.709  1.0608 -1.2218 -0.3797
 3010SOL    HW220490   1.198   0.552  10.820  0.0517  0.3647  0.4066
 3011SOL     OW20491   1.801   4.110   7.720  0.0005  0.3218  0.2555
 3011SOL    HW120492   1.738   4.122   7.791  1.1786  1.1773  1.1492
 3011SOL    HW220493   1.860   4.185   7.715  0.1418  0.2013  0.1298
 3012SOL     OW20494   2.354   2.054   5.978 -0.2637 -0.2157 -0.4946
 3012SOL    HW120495   2.297   2.045   6.054 -0.6166 -1.3012 -0.8924
 3012SOL    HW220496   2.443   2.035   6.008 -0.7965 -1.8861  0.0136
 3013SOL     OW20497   2.251   0.241  12.390  0.4344 -0.1798  0.4335
 3013SOL    HW120498   2.266   0.316  12.333  0.4150  1.2733  2.3505
 3013SOL    HW220499   2.327   0.183  12.389  0.9693  0.5125  1.8523
 3014SOL     OW20500   3.168   0.641   0.956  0.1723  0.0987 -0.2798
 3014SOL    HW120501   3.181   0.594   0.874  0.4862 -1.3137  0.5711
 3014SOL    HW220502   3.091   0.599   0.994  0.1104 -0.2344 -0.7676
 3015SOL     OW20503   4.469   2.154  13.502 -0.3947  0.4639  0.0570
 3015SOL    HW120504   4.413   2.231  13.513  0.5650  1.3521 -1.3690
 3015SOL    HW220505   4.402   2.089  13.479 -0.6425  0.3563  1.0755
 3016SOL     OW20506   0.093   4.178   2.203 -0.4416  0.3000  0.4638
 3016SOL    HW120507   0.066   4.093   2.168  0.2464 -0.6771  2.3587
 3016SOL    HW220508   0.003   4.198   2.231 -0.6458 -1.5580  1.1242
 3017SOL     OW20509   2.951   3.505   2.788 -0.1065 -0.1381 -0.2192
 3017SOL    HW120510   2.891   3.571   2.754 -2.4790 -0.6248  3.0835
 3017SOL    HW220511   2.904   3.425   2.763 -1.6009  1.6158 -3.0486
 3018SOL     OW20512   4.126   3.392  11.802 -0.4705  0.4711  0.2069
 3018SOL    HW120513   4.107   3.299  11.816  0.6628  0.1519 -0.4346
 3018SOL    HW220514   4.040   3.424  11.831 -0.3107 -2.2434  3.6631
 3019SOL     OW20515   4.002   2.053   5.580  0.6363  0.1591  0.4118
 3019SOL    HW120516   4.019   1.976   5.526 -1.4720 -0.7428  1.0548
 3019SOL    HW220517   4.087   2.050   5.623  1.2384  0.7481 -0.7204
 3020SOL     OW20518   1.570   2.839   3.242 -0.7688  0.2810  0.1915
 3020SOL    HW120519   1.514   2.775   3.287  0.1836  1.0656  2.5005
 3020SOL    HW220520   1.539   2.924   3.271  1.4021  1.0903  0.1343
 3021SOL     OW20521   2.144   3.186   5.931  0.3183 -0.0952  0.5684
 3021SOL    HW120522   2.071   3.125   5.921 -0.3556  0.7431  0.4047
 3021SOL    HW220523   2.212   3.136   5.977  0.5517 -0.3464 -0.0451
 3022SOL     OW20524   4.463   4.606   0.459  0.2427  0.1724 -0.5656
 3022SOL    HW120525   4.459   4.618   0.554 -0.9062  1.7171 -0.8124
 3022SOL    HW220526   4.557   4.609   0.441  0.4712 -2.8892  0.1463
 3023SOL     OW20527   0.451   0.748   9.404 -0.5362  0.2691  0.2967
 3023SOL    HW120528   0.448   0.680   9.471 -0.4574 -0.2471 -0.2223
 3023SOL    HW220529   0.360   0.771   9.387 -0.2189  1.2297 -0.0664
 3024SOL     OW20530   3.790   3.006  16.281 -0.0475 -0.6755  0.0911
 3024SOL    HW120531   3.781   2.998  16.186  2.7064 -1.7352 -0.0673
 3024SOL    HW220532   3.843   3.084  16.294  0.5099 -1.4995  2.6828
 3025SOL     OW20533   0.090   2.955  17.175  1.1619  0.3177 -0.1681
 3025SOL    HW120534   0.036   2.889  17.219  2.4342 -1.1255 -0.7567
 3025SOL    HW220535   0.018   3.001  17.132  0.0846 -0.2520  1.0217
 3026SOL     OW20536   2.515   4.450   5.609 -0.7978 -1.2345  0.6019
 3026SOL    HW120537   2.607   4.449   5.637  0.1817 -2.6968 -2.6545
 3026SOL    HW220538   2.498   4.361   5.643  1.8873 -1.7439  0.6248
 3027SOL     OW20539   4.219   0.590   4.412 -0.1719 -0.1997  0.3020
 3027SOL    HW120540   4.201   0.563   4.502  1.2653  0.0305  0.6619
 3027SOL    HW220541   4.279   0.522   4.381 -1.1366 -1.7127  1.8081
 3028SOL     OW20542   4.362   1.887   3.468  0.5359  0.5146  0.0426
 3028SOL    HW120543   4.437   1.830   3.488 -0.6972 -0.6854  1.2266
 3028SOL    HW220544   4.403   1.967   3.436  0.9220 -0.4372 -1.8418
 3029SOL     OW20545   3.301   4.371  10.773  0.2436  0.2611 -0.6460
 3029SOL    HW120546   3.367   4.423  10.819  0.2408  0.8973 -1.3523
 3029SOL    HW220547   3.284   4.421  10.693  0.1776  0.3234 -0.5937
 3030SOL     OW20548   2.754   4.377   2.217  0.4218  0.0372  0.0685
 3030SOL    HW120549   2.718   4.465   2.208 -2.5460 -1.2320 -0.5556
 3030SOL    HW220550   2.720   4.328   2.141  0.4144  0.4934 -0.2249
 3031SOL     OW20551   0.842   2.177   2.997  0.1769  0.2459 -0.1271
 3031SOL    HW120552   0.861   2.085   3.017  1.4482  0.5358 -0.0648
 3031SOL    HW220553   0.930   2.206   2.976  0.7310 -0.5901  1.0615
 3032SOL     OW20554   1.925   4.282   8.080  0.3254  0.4859 -0.1524
 3032SOL    HW120555   1.976   4.264   8.001 -0.9118 -1.6319 -0.4813
 3032SOL    HW220556   1.984   4.236   8.139  0.6108  0.3531 -0.5421
 3033SOL     OW20557   0.353   1.289   2.229 -0.0396 -0.5334  0.3761
 3033SOL    HW120558   0.326   1.336   2.150 -2.5890  0.0532  1.5948
 3033SOL    HW220559   0.441   1.269   2.197 -0.4479 -2.2611  0.3474
 3034SOL     OW20560   4.312   3.561  16.256  0.5977  0.0872 -0.4182
 3034SOL    HW120561   4.327   3.598  16.169  1.7643 -2.1084 -1.1375
 3034SOL    HW220562   4.370   3.486  16.251 -1.0447 -1.2728  1.1391
 3035SOL     OW20563   3.138   2.696  17.585  0.4278 -0.6087 -0.7476
 3035SOL    HW120564   3.140   2.624  17.649  2.0882 -1.0673 -1.3218
 3035SOL    HW220565   3.181   2.772  17.626  0.1867  1.2510 -3.9465
 3036SOL     OW20566   1.990   2.355   2.781  0.0926  0.1708 -0.3383
 3036SOL    HW120567   2.043   2.305   2.720 -0.8960 -2.5894  1.0611
 3036SOL    HW220568   1.930   2.393   2.717  2.1015 -0.4822 -2.6216
 3037SOL     OW20569   2.353   3.674   5.462  0.4144 -0.0357  0.0755
 3037SOL    HW120570   2.377   3.734   5.391 -0.2002 -1.6506 -1.5171
 3037SOL    HW220571   2.274   3.711   5.501  0.3580 -1.3375  1.1815
 3038SOL     OW20572   4.396   0.846  11.176 -0.3064 -0.7987  0.5149
 3038SOL    HW120573   4.407   0.910  11.246  0.5306 -0.4355  0.0453
 3038SOL    HW220574   4.462   0.780  11.198  0.0829 -1.0708 -1.5571
 3039SOL     OW20575   4.226   2.843   6.662 -0.1380 -0.2322 -0.0043
 3039SOL    HW120576   4.181   2.769   6.702 -1.8152  1.7499  1.7963
 3039SOL    HW220577   4.276   2.865   6.740 -0.9595  1.5407  0.0362
 3040SOL     OW20578   1.643   2.189   7.233  0.8624  0.1289  0.1490
 3040SOL    HW120579   1.559   2.143   7.237 -0.3307  1.9667 -3.8035
 3040SOL    HW220580   1.608   2.265   7.186 -1.6062 -0.6781  0.7079
 3041SOL     OW20581   4.372   2.109  12.345  0.3047 -0.3279 -0.0798
 3041SOL    HW120582   4.377   2.181  12.283 -0.9795 -1.8202 -1.9033
 3041SOL    HW220583   4.320   2.035  12.312 -0.8694  0.4932 -0.0343
 3042SOL     OW20584   1.681   3.746   8.917  0.7926 -0.2919  0.3491
 3042SOL    HW120585   1.733   3.688   8.861 -0.6116 -1.6188  0.4081
 3042SOL    HW220586   1.754   3.790   8.960  0.5634  0.6776 -0.2495
 3043SOL     OW20587   4.067   2.315   5.567  0.1644  0.0750 -0.5772
 3043SOL    HW120588   4.040   2.224   5.557 -1.2683  0.2403  1.8098
 3043SOL    HW220589   4.093   2.337   5.478 -0.5667  0.1522 -0.7691
 3044SOL     OW20590   1.177   2.350   3.668  0.3539 -0.3449 -0.0833
 3044SOL    HW120591   1.175   2.376   3.576  0.0239 -1.1533 -0.3076
 3044SOL    HW220592   1.191   2.255   3.658  1.9511 -0.3421  2.0221
 3045SOL     OW20593   3.615   0.761   7.276 -0.1539 -0.3672  0.3466
 3045SOL    HW120594   3.550   0.715   7.329 -0.3614 -0.2158  0.2212
 3045SOL    HW220595   3.568   0.840   7.251  1.2758 -0.2919 -2.0993
 3046SOL     OW20596   1.280   2.072   4.634  0.5373 -0.5070 -0.1323
 3046SOL    HW120597   1.314   2.032   4.554  1.2127 -0.5190  0.1670
 3046SOL    HW220598   1.200   2.019   4.629  0.5330 -0.3324 -2.0421
 3047SOL     OW20599   1.238   1.044  14.602 -0.2591  0.1110  0.1404
 3047SOL    HW120600   1.147   1.021  14.583 -0.7004  1.6226  0.4242
 3047SOL    HW220601   1.278   1.040  14.515 -2.1627 -1.2410 -0.6729
 3048SOL     OW20602   0.305   1.742  17.302 -0.1225 -0.4855  0.2430
 3048SOL    HW120603   0.347   1.706  17.380  2.3634  1.3039 -0.2774
 3048SOL    HW220604   0.284   1.829  17.333  0.0246 -0.8794  1.4369
 3049SOL     OW20605   1.478   1.507  13.373  0.5870 -0.5112 -0.1025
 3049SOL    HW120606   1.554   1.565  13.377 -1.9868  2.9822 -1.3245
 3049SOL    HW220607   1.446   1.526  13.461 -0.4505  0.0589 -0.5886
 3050SOL     OW20608   2.087   0.052   8.394 -0.0199 -0.0107 -0.3501
 3050SOL    HW120609   2.007   0.044   8.447  0.2556 -2.2851 -0.2906
 3050SOL    HW220610   2.062   0.090   8.310  1.1086 -1.8802 -1.5197
 3051SOL     OW20611   2.268   1.626   6.938 -0.1700  0.2250  0.1084
 3051SOL    HW120612   2.274   1.669   6.853 -0.7702 -0.5595 -0.3381
 3051SOL    HW220613   2.269   1.695   7.004 -0.7127 -0.8713  1.2673
 3052SOL     OW20614   4.231   3.758   3.099  0.0391 -0.1600  0.2580
 3052SOL    HW120615   4.175   3.750   3.022 -0.1314 -2.7956  0.6423
 3052SOL    HW220616   4.267   3.671   3.118 -0.3904 -0.3191  0.3307
 3053SOL     OW20617   1.860   3.764  15.747  0.3337 -0.6601  0.0276
 3053SOL    HW120618   1.878   3.736  15.657  0.0450  3.8252 -1.4361
 3053SOL    HW220619   1.783   3.817  15.726 -0.4779 -1.6335  0.5016
 3054SOL     OW20620   1.280   0.472   8.365 -0.4439 -0.7270 -0.8695
 3054SOL    HW120621   1.255   0.380   8.376 -2.4942 -0.0877 -0.1905
 3054SOL    HW220622   1.366   0.461   8.323 -1.5144 -1.7769 -2.7513
 3055SOL     OW20623   2.811   3.532   6.679 -0.3861  0.4837 -0.1603
 3055SOL    HW120624   2.784   3.523   6.587 -0.3812  1.5465 -0.2732
 3055SOL    HW220625   2.733   3.571   6.719 -1.9109 -4.5982  1.7810
 3056SOL     OW20626   2.565   0.229  14.191  0.3268  0.0642 -0.2792
 3056SOL    HW120627   2.563   0.135  14.168  2.0477 -0.5823  2.2413
 3056SOL    HW220628   2.621   0.235  14.268  1.1245  0.1692 -0.8741
 3057SOL     OW20629   0.743   3.940   2.611  0.2715 -0.1802  0.2825
 3057SOL    HW120630   0.772   3.932   2.520 -0.4459  1.5012 -0.0920
 3057SOL    HW220631   0.681   3.867   2.614  1.2728 -0.9759  1.5192
 3058SOL     OW20632   1.415   0.529  14.148  0.1498  0.1690  0.4074
 3058SOL    HW120633   1.348   0.467  14.179  0.5279 -1.3488 -1.7974
 3058SOL    HW220634   1.360   0.593  14.104  1.6653  2.2889  1.6225
 3059SOL     OW20635   1.223   3.774   8.693 -0.0747 -0.0265 -0.0405
 3059SOL    HW120636   1.291   3.841   8.695 -0.8081  0.6240  3.1577
 3059SOL    HW220637   1.147   3.824   8.721 -0.9499 -0.7253 -1.1748
 3060SOL     OW20638   4.061   2.027  17.132  0.3863  0.0062 -0.1109
 3060SOL    HW120639   4.098   2.016  17.044  0.8586 -0.9679  0.2084
 3060SOL    HW220640   4.108   2.107  17.155 -2.1228  0.4086  3.5493
 3061SOL     OW20641   3.845   2.152  14.837  0.3218  0.4114 -0.2527
 3061SOL    HW120642   3.798   2.089  14.783 -1.6561  1.7660 -0.0920
 3061SOL    HW220643   3.924   2.101  14.858  0.8181  0.8501 -1.0916
 3062SOL     OW20644   3.302   2.392   6.760  0.0993 -0.0810 -0.5541
 3062SOL    HW120645   3.270   2.407   6.672 -0.9362 -0.3675 -0.2279
 3062SOL    HW220646   3.222   2.378   6.810  0.3282  2.0014  0.3869
 3063SOL     OW20647   0.333   3.009   8.510 -0.0172  0.2441 -0.0712
 3063SOL    HW120648   0.253   3.056   8.485 -0.4659 -1.5499 -1.9523
 3063SOL    HW220649   0.357   3.038   8.598 -1.6665  2.5753 -0.3918
 3064SOL     OW20650   2.617   0.912   0.690  0.0833 -0.0128  0.2723
 3064SOL    HW120651   2.657   0.886   0.773  0.3747  0.9692  0.4346
 3064SOL    HW220652   2.694   0.903   0.633  0.0816  0.8751  0.1309
 3065SOL     OW20653   2.202   2.171   6.429 -0.0616 -1.0267  0.2116
 3065SOL    HW120654   2.245   2.219   6.358  0.3387 -1.6569  0.0283
 3065SOL    HW220655   2.111   2.172   6.399 -0.6486  0.2983  2.0697
 3066SOL     OW20656   0.121   3.639   8.240  0.1388  0.0543 -0.1660
 3066SOL    HW120657   0.052   3.651   8.175 -0.1559  3.2341  0.7389
 3066SOL    HW220658   0.137   3.728   8.272  0.2255 -0.2448  0.6101
 3067SOL     OW20659   4.208   3.050  13.275  0.6027 -0.2113 -0.0268
 3067SOL    HW120660   4.164   2.993  13.338  1.0939  0.2865  0.7670
 3067SOL    HW220661   4.164   3.037  13.190 -1.5224 -0.6945  1.1470
 3068SOL     OW20662   1.407   2.676  16.726  0.3044 -0.0869  0.6827
 3068SOL    HW120663   1.409   2.696  16.819  0.3188 -0.3745  0.7432
 3068SOL    HW220664   1.492   2.634  16.714  0.4733  0.2669  0.6345
 3069SOL     OW20665   3.939   0.509   2.193 -0.0209  0.0297 -0.5603
 3069SOL    HW120666   3.894   0.468   2.119 -1.2037  0.4736 -0.0826
 3069SOL    HW220667   3.883   0.580   2.223  2.3609  1.2501  1.0285
 3070SOL     OW20668   2.892   1.842   5.175 -0.3135 -0.1024 -0.4902
 3070SOL    HW120669   2.813   1.831   5.122 -0.8628  2.3298 -0.1661
 3070SOL    HW220670   2.906   1.762   5.225 -0.5958 -0.5939 -1.1989
 3071SOL     OW20671   1.155   4.083   1.416  0.2671 -0.1381 -0.1528
 3071SOL    HW120672   1.207   4.120   1.346 -2.2700  0.4178 -1.7519
 3071SOL    HW220673   1.108   4.155   1.459 -1.3052  0.0452 -2.1535
 3072SOL     OW20674   1.521   0.381  11.585  0.2868 -0.3033 -0.6242
 3072SOL    HW120675   1.573   0.436  11.643  1.0926 -1.4552 -0.2623
 3072SOL    HW220676   1.463   0.442  11.539  1.0401  1.2701  0.5220
 3073SOL     OW20677   2.999   1.116  11.860 -0.0113 -0.2090  0.0318
 3073SOL    HW120678   2.927   1.180  11.862  0.4302  0.2086  2.3542
 3073SOL    HW220679   2.964   1.048  11.917 -0.3743  1.4636  1.7908
 3074SOL     OW20680   2.135   4.497   8.760  0.4172  0.4969 -0.5085
 3074SOL    HW120681   2.093   4.583   8.770 -0.0101  0.2040  0.1857
 3074SOL    HW220682   2.110   4.466   8.673  1.3462 -2.7572  0.3917
 3075SOL     OW20683   2.042   1.928   6.680 -0.0059 -0.3729  0.5672
 3075SOL    HW120684   1.971   1.982   6.646  0.5068 -0.3267 -0.4232
 3075SOL    HW220685   1.991   1.901   6.756  1.2735 -0.2806  1.4685
 3076SOL     OW20686   2.279   3.136   7.902 -0.2751 -0.3729 -0.5509
 3076SOL    HW120687   2.287   3.217   7.851  1.3254  0.4980  1.0983
 3076SOL    HW220688   2.335   3.075   7.853  1.0494 -0.1776  0.7241
 3077SOL     OW20689   1.797   3.365   9.062 -0.3434 -0.2900  0.2504
 3077SOL    HW120690   1.809   3.408   9.147 -0.2381 -1.9183  1.0775
 3077SOL    HW220691   1.718   3.407   9.028  0.7290  1.2158 -0.3473
 3078SOL     OW20692   0.487   4.191   3.598 -0.3662  0.0456  0.2234
 3078SOL    HW120693   0.410   4.147   3.562  1.8395 -2.0895 -1.7903
 3078SOL    HW220694   0.543   4.117   3.621  1.2714  1.6186  1.3996
 3079SOL     OW20695   3.939   4.306  11.039  0.4496  0.3479  0.4374
 3079SOL    HW120696   3.894   4.321  11.123  1.0803 -2.6952  1.2968
 3079SOL    HW220697   3.876   4.345  10.978  0.1605 -0.2853  0.3288
 3080SOL     OW20698   3.466   2.084   2.828  0.1984  0.3995  0.4111
 3080SOL    HW120699   3.562   2.088   2.831  0.2718 -1.9010  1.4065
 3080SOL    HW220700   3.442   2.100   2.919 -0.0138 -1.9082  0.7469
 3081SOL     OW20701   4.090   3.072  14.526 -0.0762  0.0412  0.6872
 3081SOL    HW120702   4.069   3.154  14.572  2.5382  0.1962  1.5725
 3081SOL    HW220703   4.101   3.106  14.437 -1.8693  1.0142  0.8350
 3082SOL     OW20704   0.303   0.213  17.447  0.2651  0.2136  0.0775
 3082SOL    HW120705   0.230   0.173  17.496  0.2471  0.1647  0.0102
 3082SOL    HW220706   0.377   0.187  17.503 -2.2650 -0.0460  3.3453
 3083SOL     OW20707   3.583   0.887   6.162  0.8733  0.1583  0.3465
 3083SOL    HW120708   3.494   0.922   6.158  0.4690 -0.7904  1.0077
 3083SOL    HW220709   3.579   0.857   6.252 -2.9527  0.7622  0.3525
 3084SOL     OW20710   1.033   2.240  11.318  0.2787 -0.4905 -0.0063
 3084SOL    HW120711   1.069   2.305  11.378  0.3479  1.4408 -2.1748
 3084SOL    HW220712   1.084   2.166  11.352 -1.7732 -2.2256 -0.7107
 3085SOL     OW20713   3.760   0.226  12.068  0.6456  0.6924 -0.5546
 3085SOL    HW120714   3.783   0.156  12.129 -0.7677  1.4589  0.8398
 3085SOL    HW220715   3.802   0.308  12.094  1.4721 -0.8312  2.8205
 3086SOL     OW20716   2.762   1.543  10.471 -0.2877  0.0488  0.2424
 3086SOL    HW120717   2.793   1.588  10.393  3.1649 -0.6722  1.2050
 3086SOL    HW220718   2.828   1.476  10.488  0.5128  1.3264  2.3039
 3087SOL     OW20719   0.151   2.111  16.161 -0.3458  0.3348 -0.1149
 3087SOL    HW120720   0.144   2.016  16.169  0.9790  0.1894 -0.7240
 3087SOL    HW220721   0.240   2.132  16.134 -0.6748 -0.1126 -1.5856
 3088SOL     OW20722   0.507   4.438   3.716  0.0479 -0.2121 -0.3236
 3088SOL    HW120723   0.427   4.452   3.767 -0.2522  0.8580 -1.0824
 3088SOL    HW220724   0.503   4.347   3.689  0.0155 -0.3680  0.2178
 3089SOL     OW20725   4.576   3.806  12.404  0.0170  0.6123 -0.0100
 3089SOL    HW120726   4.587   3.806  12.499  0.7774 -1.2201 -0.1130
 3089SOL    HW220727   4.652   3.856  12.372  0.4572 -1.4375 -2.1468
 3090SOL     OW20728   3.872   0.255   2.353 -0.2721  0.0825  0.3086
 3090SOL    HW120729   3.808   0.204   2.304  1.0058 -0.4021 -0.8633
 3090SOL    HW220730   3.882   0.326   2.289 -1.8038 -0.7473 -0.8416
 3091SOL     OW20731   4.322   0.361  17.667  0.6748 -0.1561  0.2850
 3091SOL    HW120732   4.338   0.378   0.065  0.3619  2.8619 -0.2143
 3091SOL    HW220733   4.257   0.291  17.680  0.7050 -0.8575 -3.2433
 3092SOL     OW20734   1.446   4.682   9.946 -0.6178 -0.1946 -0.7964
 3092SOL    HW120735   1.464   4.622   9.874  1.0274 -1.4125  0.6116
 3092SOL    HW220736   1.535   4.696   9.980 -1.2035 -1.6173  1.3055
 3093SOL     OW20737   3.118   3.550   1.580 -0.5611 -0.1469 -0.2855
 3093SOL    HW120738   3.046   3.602   1.615  0.1838  0.5717  0.1475
 3093SOL    HW220739   3.074   3.494   1.515 -0.9044  0.1065 -0.2683
 3094SOL     OW20740   2.599   2.360   3.054 -0.5598  0.0590  0.1880
 3094SOL    HW120741   2.577   2.309   3.132 -0.4479 -1.0379 -0.4880
 3094SOL    HW220742   2.517   2.405   3.034 -1.5584 -0.9809  1.9376
 3095SOL     OW20743   1.417   0.139   8.067 -0.2613 -0.0756 -0.1966
 3095SOL    HW120744   1.359   0.092   8.127 -1.5578 -1.4562 -2.4972
 3095SOL    HW220745   1.399   0.231   8.085 -0.8261 -0.4459  1.1123
 3096SOL     OW20746   3.134   1.888   7.457 -0.0521  0.5723 -0.1321
 3096SOL    HW120747   3.093   1.804   7.479  0.6544  0.8515  2.2021
 3096SOL    HW220748   3.115   1.938   7.536  1.8800  1.6063 -0.3198
 3097SOL     OW20749   0.212   1.145  14.998  0.1076 -0.0518  0.7090
 3097SOL    HW120750   0.191   1.238  15.002  1.9352  0.4082 -0.4598
 3097SOL    HW220751   0.302   1.145  14.966 -0.5193 -1.9984 -1.0630
 3098SOL     OW20752   0.173   0.135   5.991  0.0335  0.4070 -0.4303
 3098SOL    HW120753   0.141   0.169   5.907  0.8031  2.2792  0.0240
 3098SOL    HW220754   0.112   0.182   6.048 -0.7192  0.4452 -1.2552
 3099SOL     OW20755   3.138   2.352  14.440  0.0139 -0.6427 -0.2536
 3099SOL    HW120756   3.234   2.343  14.440 -0.2286 -3.1161 -0.2560
 3099SOL    HW220757   3.114   2.278  14.385  0.9453 -0.8631 -0.3717
 3100SOL     OW20758   2.715   1.892   7.412 -0.6110  0.2221  0.0780
 3100SOL    HW120759   2.629   1.931   7.395  0.3996  2.6748  0.5275
 3100SOL    HW220760   2.773   1.957   7.370 -1.5761  0.5457 -0.7631
 3101SOL     OW20761   1.992   3.158   0.152 -0.0590  0.0086  0.3149
 3101SOL    HW120762   1.985   3.227   0.218  1.0299  0.1449  0.2918
 3101SOL    HW220763   2.040   3.091   0.200  0.0875  0.7172  1.1669
 3102SOL     OW20764   3.095   4.210  14.112  0.0010  0.0808 -0.3780
 3102SOL    HW120765   3.053   4.167  14.187 -0.1078  0.3546 -0.2798
 3102SOL    HW220766   3.110   4.297  14.150 -1.7506 -0.6155  1.9381
 3103SOL     OW20767   3.187   0.311  17.483 -0.1429  0.0183 -0.6090
 3103SOL    HW120768   3.243   0.333  17.557 -0.3876 -2.8867  0.4238
 3103SOL    HW220769   3.233   0.229  17.463  0.4437  0.0662  0.5912
 3104SOL     OW20770   0.782   1.939   7.908 -0.0887  0.0674 -0.3600
 3104SOL    HW120771   0.707   1.950   7.967  0.0857  1.0264 -0.3139
 3104SOL    HW220772   0.855   1.987   7.948  0.5656 -0.8352 -0.4684
 3105SOL     OW20773   1.842   3.042   8.956  0.1645  0.8672 -0.3236
 3105SOL    HW120774   1.775   3.077   8.897 -1.6665  3.0321  3.0504
 3105SOL    HW220775   1.791   2.996   9.023 -0.5154  3.2108  0.7703
 3106SOL     OW20776   3.026   0.989  12.300 -0.1131  0.4390  0.1141
 3106SOL    HW120777   2.988   1.057  12.244 -0.5669 -0.0822 -0.2074
 3106SOL    HW220778   3.118   1.013  12.298  0.1928 -0.9580 -2.5544
 3107SOL     OW20779   3.937   0.505   0.940  0.1563  0.1445 -0.7228
 3107SOL    HW120780   3.999   0.524   0.869 -0.9507  0.4297 -1.6034
 3107SOL    HW220781   3.928   0.411   0.924 -2.1333  0.3402 -0.5969
 3108SOL     OW20782   2.122   3.662   5.662 -0.3883  0.1987  0.2149
 3108SOL    HW120783   2.066   3.591   5.694 -0.0270 -0.6791 -1.1088
 3108SOL    HW220784   2.062   3.716   5.611  0.8139  0.6641 -0.7019
 3109SOL     OW20785   3.591   2.757   7.234  0.3313  0.0214  0.0900
 3109SOL    HW120786   3.500   2.729   7.223 -0.1068  0.7251  2.0341
 3109SOL    HW220787   3.636   2.694   7.177 -0.2559 -0.9273  0.6831
 3110SOL     OW20788   0.253   1.670   6.314  0.0565  0.2539  0.2422
 3110SOL    HW120789   0.303   1.626   6.383 -0.4868  1.8719  1.6781
 3110SOL    HW220790   0.192   1.601   6.287  0.1712  0.8691 -1.5889
 3111SOL     OW20791   0.784   2.570   3.049  0.0186 -0.5933 -0.2925
 3111SOL    HW120792   0.852   2.633   3.075  0.1996 -0.4010 -1.2430
 3111SOL    HW220793   0.770   2.513   3.124  0.8170  0.2351  0.4938
 3112SOL     OW20794   4.224   3.909   5.259 -0.6660  0.4074 -0.0734
 3112SOL    HW120795   4.284   3.937   5.189  1.1629 -0.3249  1.1855
 3112SOL    HW220796   4.286   3.867   5.319 -2.9359  0.4797  2.2978
 3113SOL     OW20797   4.360   1.024   2.457 -0.3583 -0.1499  0.1688
 3113SOL    HW120798   4.415   1.082   2.510 -0.3011  0.8024 -0.9246
 3113SOL    HW220799   4.419   0.951   2.441 -1.4945 -0.8366 -0.8440
 3114SOL     OW20800   1.081   0.767   8.559  0.3481  0.6058 -1.0717
 3114SOL    HW120801   1.111   0.792   8.647  1.6702 -3.2942 -0.4349
 3114SOL    HW220802   1.026   0.691   8.574  1.6660 -0.2136 -0.4346
 3115SOL     OW20803   4.048   4.128  14.859  0.5472 -0.1888 -0.1646
 3115SOL    HW120804   4.123   4.139  14.800 -0.0652 -1.8932 -1.2770
 3115SOL    HW220805   4.006   4.049  14.827  0.0585 -0.3854  0.9778
 3116SOL     OW20806   0.666   1.157   4.342  0.3175  0.1554  0.2727
 3116SOL    HW120807   0.598   1.223   4.358 -0.7979 -0.1079 -3.2269
 3116SOL    HW220808   0.634   1.083   4.290 -0.4400  0.3616  0.4404
 3117SOL     OW20809   2.248   4.598  11.083  0.2689  0.1137  0.6281
 3117SOL    HW120810   2.177   4.556  11.034  0.2907 -1.4827  1.9559
 3117SOL    HW220811   2.254   4.686  11.046  4.0984 -0.7962 -0.9389
 3118SOL     OW20812   3.269   0.162   0.295 -0.5696  0.1393  0.2248
 3118SOL    HW120813   3.182   0.200   0.282  0.0635  0.9490 -1.6520
 3118SOL    HW220814   3.316   0.237   0.331 -0.9930  0.9517 -0.9164
 3119SOL     OW20815   4.182   2.939   6.155 -0.1712 -0.3763 -0.4107
 3119SOL    HW120816   4.223   2.965   6.073 -1.4144 -1.6396 -1.4327
 3119SOL    HW220817   4.104   2.891   6.127  0.4638 -1.6285 -0.0631
 3120SOL     OW20818   4.540   3.359  11.541  0.0559  0.2335  0.3327
 3120SOL    HW120819   4.455   3.371  11.583 -0.3820  0.1180 -0.5095
 3120SOL    HW220820   4.581   3.446  11.533 -2.9862  1.5564 -0.8348
 3121SOL     OW20821   1.472   0.762  14.813  0.3418  0.4262  0.7869
 3121SOL    HW120822   1.502   0.684  14.859  0.2432  0.7999  1.4916
 3121SOL    HW220823   1.480   0.734  14.722 -0.1347 -0.3471  0.9850
 3122SOL     OW20824   1.940   4.530   2.294 -0.0933 -0.1746  0.0554
 3122SOL    HW120825   1.994   4.584   2.236 -0.4023  1.3568  1.1942
 3122SOL    HW220826   1.894   4.600   2.342  0.0298 -0.4035  0.5063
 3123SOL     OW20827   1.027   4.359   2.390 -0.1120 -0.2148 -0.4134
 3123SOL    HW120828   1.077   4.296   2.441  2.6303  0.4802 -2.2518
 3123SOL    HW220829   0.942   4.315   2.398 -0.7611  0.9203 -1.0851
 3124SOL     OW20830   2.174   1.463  16.308 -0.3242  0.5504  0.1020
 3124SOL    HW120831   2.205   1.432  16.223  1.0961  1.5907  0.2299
 3124SOL    HW220832   2.250   1.457  16.365 -0.4534  1.1936  0.3454
 3125SOL     OW20833   0.753   4.382   7.705  0.0519  0.3753  0.6670
 3125SOL    HW120834   0.744   4.307   7.645 -2.7648 -0.4237  2.0681
 3125SOL    HW220835   0.712   4.351   7.786  0.7966 -2.6530 -0.0973
 3126SOL     OW20836   2.931   1.591   3.162 -0.0307  0.2235 -0.2766
 3126SOL    HW120837   2.908   1.676   3.124 -0.2774 -0.1111 -0.8683
 3126SOL    HW220838   2.870   1.534   3.116 -0.8525  1.5869 -0.8852
 3127SOL     OW20839   2.284   0.185   2.947  0.3801  0.0904  0.2441
 3127SOL    HW120840   2.327   0.247   2.888 -0.8944  1.2471  0.5439
 3127SOL    HW220841   2.330   0.105   2.921 -0.6213 -0.0158 -1.2214
 3128SOL     OW20842   0.967   4.474  15.238  0.6905  0.3138 -0.2125
 3128SOL    HW120843   0.952   4.471  15.333  1.1170  2.2830 -0.0904
 3128SOL    HW220844   1.022   4.552  15.234 -0.2380  1.0745  1.4391
 3129SOL     OW20845   4.227   4.548  16.554  0.4053 -0.2855 -0.4149
 3129SOL    HW120846   4.303   4.606  16.544 -1.7346  2.5266 -0.1624
 3129SOL    HW220847   4.191   4.541  16.466  1.1318 -0.2257 -0.7201
 3130SOL     OW20848   0.156   1.968   3.154  0.6352 -0.5362  0.2437
 3130SOL    HW120849   0.076   2.015   3.177  0.3012 -1.4433  0.9588
 3130SOL    HW220850   0.180   1.920   3.234 -0.9816 -0.8490  0.5483
 3131SOL     OW20851   3.658   0.768  10.803  0.0673 -0.3207  0.1254
 3131SOL    HW120852   3.650   0.835  10.735 -1.0993  0.5235  1.1049
 3131SOL    HW220853   3.709   0.811  10.871  3.1727 -3.2134 -0.3249
 3132SOL     OW20854   4.695   1.230   6.296 -0.0820 -0.3071  0.1511
 3132SOL    HW120855   4.720   1.244   6.387 -0.5887  0.1037  0.2282
 3132SOL    HW220856   0.010   1.142   6.288 -1.5713 -0.9026 -0.4734
 3133SOL     OW20857   2.450   1.403   3.084 -1.1924  0.2979  0.0361
 3133SOL    HW120858   2.381   1.431   3.024 -1.2084 -0.6181 -0.3801
 3133SOL    HW220859   2.392   1.346   3.135 -0.1873 -0.2377  0.5804
 3134SOL     OW20860   2.609   2.208   7.622 -0.1775 -0.1022 -0.1912
 3134SOL    HW120861   2.673   2.141   7.598 -1.3408 -0.4312 -2.3231
 3134SOL    HW220862   2.547   2.144   7.655  1.7774 -1.6108  0.5903
 3135SOL     OW20863   0.911   3.893   8.457  0.5791  0.0739 -0.3940
 3135SOL    HW120864   0.962   3.964   8.497 -0.4997  0.7528 -0.2345
 3135SOL    HW220865   0.864   3.861   8.534  1.5705 -1.5578 -0.4724
 3136SOL     OW20866   3.665   0.597   2.715 -0.0045 -0.0982  0.6444
 3136SOL    HW120867   3.707   0.542   2.649  0.4297  1.2335 -0.1870
 3136SOL    HW220868   3.578   0.602   2.676  1.5714 -0.6460 -2.8932
 3137SOL     OW20869   3.278   3.819   1.935  0.1185 -0.0230 -0.5043
 3137SOL    HW120870   3.263   3.726   1.950 -1.6357  0.4724  0.8105
 3137SOL    HW220871   3.193   3.856   1.914 -0.3890 -0.7196  0.3349
 3138SOL     OW20872   3.373   0.855   6.524 -0.3518 -0.2125 -0.4386
 3138SOL    HW120873   3.386   0.924   6.459 -0.7114  1.0304  0.7977
 3138SOL    HW220874   3.346   0.782   6.469  0.0789 -0.0014 -0.9418
 3139SOL     OW20875   1.909   0.318   8.260 -0.4847 -0.5941 -0.4971
 3139SOL    HW120876   1.920   0.245   8.198 -1.8236 -1.8830  0.7836
 3139SOL    HW220877   1.842   0.363   8.210  0.2937  0.9508 -0.1460
 3140SOL     OW20878   1.618   3.713  13.475  0.3021 -0.1792  0.0745
 3140SOL    HW120879   1.670   3.791  13.489 -1.4416  0.6928  1.7315
 3140SOL    HW220880   1.653   3.654  13.542  0.8735  0.4885  0.3514
 3141SOL     OW20881   3.965   2.984   8.234  0.1052 -0.0560  0.3102
 3141SOL    HW120882   4.026   3.057   8.222 -1.6136  1.0853 -1.5331
 3141SOL    HW220883   3.927   2.973   8.147  0.5908 -0.8120  0.1940
 3142SOL     OW20884   1.115   3.299   6.091 -0.6264  0.3269  0.0072
 3142SOL    HW120885   1.085   3.216   6.054  0.3616  0.1237 -0.3190
 3142SOL    HW220886   1.082   3.361   6.025 -0.3294  0.1993 -0.2579
 3143SOL     OW20887   2.181   3.868   7.934 -0.8171 -0.0324 -0.2999
 3143SOL    HW120888   2.234   3.934   7.978 -0.8116 -0.9969  1.1502
 3143SOL    HW220889   2.186   3.803   8.004 -0.8938  1.3500  0.9790
 3144SOL     OW20890   3.402   2.999   2.383  0.5971 -0.0002  0.2028
 3144SOL    HW120891   3.461   3.047   2.325 -0.0083 -1.0303 -1.2900
 3144SOL    HW220892   3.377   3.069   2.443  0.4859 -3.4358  4.1330
 3145SOL     OW20893   4.144   0.954  12.252  0.3249 -0.1891  0.2045
 3145SOL    HW120894   4.186   0.987  12.331 -0.7228  1.1348  0.2236
 3145SOL    HW220895   4.175   0.864  12.243 -0.5548 -0.5250  0.5274
 3146SOL     OW20896   1.606   4.722   8.269  0.2117 -0.0326 -0.3941
 3146SOL    HW120897   1.610   0.049   8.188 -1.2004  0.5073 -0.1316
 3146SOL    HW220898   1.659   4.656   8.225 -0.8915 -1.0585 -0.1975
 3147SOL     OW20899   4.390   4.665   2.854  0.0762  0.1512  0.7192
 3147SOL    HW120900   4.411   4.582   2.811 -0.1393  1.2095 -1.4215
 3147SOL    HW220901   4.306   4.683   2.813 -0.0892  0.3445  1.1457
 3148SOL     OW20902   4.099   1.111   8.643 -0.0082 -0.1502  0.0380
 3148SOL    HW120903   4.186   1.071   8.642 -0.4674 -1.2295  2.8553
 3148SOL    HW220904   4.089   1.161   8.563 -0.8879  0.0143  0.2565
 3149SOL     OW20905   0.849   0.480   3.968  0.0357  0.0205 -0.7938
 3149SOL    HW120906   0.898   0.418   4.022 -1.1020  1.5493  1.9588
 3149SOL    HW220907   0.828   0.431   3.888  2.2532 -3.5147  0.7615
 3150SOL     OW20908   3.945   1.638   5.359 -0.0784 -0.2361 -0.2924
 3150SOL    HW120909   4.013   1.619   5.294 -0.4928  0.0683 -0.8163
 3150SOL    HW220910   3.992   1.717   5.386 -0.9675  0.5813 -1.1526
 3151SOL     OW20911   3.572   2.352  12.317  0.0889  0.8684  0.2509
 3151SOL    HW120912   3.570   2.415  12.390 -0.5173  0.4346  0.6102
 3151SOL    HW220913   3.485   2.363  12.279 -0.1426  1.3871  0.9241
 3152SOL     OW20914   3.528   1.163  10.113  0.8028  0.0015  0.1371
 3152SOL    HW120915   3.607   1.164  10.167  0.2490  0.6558  0.9468
 3152SOL    HW220916   3.558   1.219  10.041 -2.3266  2.0837  0.4628
 3153SOL     OW20917   4.293   1.222   6.850  0.1949  0.0151  0.1096
 3153SOL    HW120918   4.243   1.281   6.794 -0.8319  1.0807  2.1378
 3153SOL    HW220919   4.223   1.174   6.895  0.7169  0.5797  1.5349
 3154SOL     OW20920   3.076   0.833   4.702  0.0143 -0.5455 -0.4021
 3154SOL    HW120921   3.112   0.892   4.768  1.4684 -0.2048 -1.5078
 3154SOL    HW220922   3.103   0.881   4.624  0.6399 -3.4717 -1.9858
 3155SOL     OW20923   0.790   1.525   2.836  0.0857 -1.2382 -0.1165
 3155SOL    HW120924   0.832   1.535   2.750 -0.2745 -2.3440 -0.4266
 3155SOL    HW220925   0.775   1.613   2.871  1.1276 -0.3757 -1.8261
 3156SOL     OW20926   4.583   4.702   4.137 -0.2964  0.2363 -0.4489
 3156SOL    HW120927   4.552   0.011   4.053 -1.7382  1.1450  0.4359
 3156SOL    HW220928   4.610   0.058   4.184  0.1134 -0.0106 -0.2721
 3157SOL     OW20929   1.288   2.430   6.454  0.2852 -0.1595 -0.5395
 3157SOL    HW120930   1.262   2.346   6.417  2.5796 -1.2763  0.3328
 3157SOL    HW220931   1.244   2.489   6.394 -0.1903  0.8870  0.8430
 3158SOL     OW20932   4.029   1.228   3.709  0.1663  0.1188  0.7418
 3158SOL    HW120933   3.963   1.189   3.766 -0.6675 -2.1812 -1.7908
 3158SOL    HW220934   4.052   1.303   3.764 -1.2216  0.5073  0.7905
 3159SOL     OW20935   2.110   4.359   5.713  0.0863 -0.6329 -0.2352
 3159SOL    HW120936   2.093   4.268   5.687 -0.8824 -0.8240  1.0768
 3159SOL    HW220937   2.205   4.364   5.697 -0.0423  2.7308  0.1063
 3160SOL     OW20938   3.269   1.676  10.820  0.6843 -0.1586 -0.3958
 3160SOL    HW120939   3.338   1.681  10.886 -0.8248 -1.3083  1.2621
 3160SOL    HW220940   3.221   1.593  10.828 -0.2034  0.5892  1.7888
 3161SOL     OW20941   4.532   2.341   9.902  0.3238 -0.6432  0.2109
 3161SOL    HW120942   4.520   2.249   9.882  0.9381 -1.1125  2.0145
 3161SOL    HW220943   4.602   2.365   9.841  1.5306  0.0047  1.8393
 3162SOL     OW20944   1.820   4.681   7.277  0.1844  0.7333 -0.1055
 3162SOL    HW120945   1.775   4.629   7.344  0.9280  0.9304  0.5557
 3162SOL    HW220946   1.862   0.026   7.329 -0.3466  0.0436  1.2424
 3163SOL     OW20947   1.192   1.389   3.289  0.6338  0.1144 -0.0985
 3163SOL    HW120948   1.200   1.394   3.385  1.2512 -0.4448 -0.1219
 3163SOL    HW220949   1.126   1.321   3.273 -0.3940  0.2839  3.3137
 3164SOL     OW20950   0.992   3.365   6.924 -0.0168 -0.3604 -0.4765
 3164SOL    HW120951   0.984   3.294   6.986 -2.0660 -0.5990 -1.0380
 3164SOL    HW220952   0.930   3.428   6.960  0.5198  0.9873 -1.8636
 3165SOL     OW20953   3.928   2.743   3.058 -0.2482  0.6096 -0.1148
 3165SOL    HW120954   3.932   2.838   3.049  1.2594  0.4546 -1.1368
 3165SOL    HW220955   3.969   2.731   3.143  0.9767 -1.8327 -1.0353
 3166SOL     OW20956   2.541   2.524  17.680  0.3778  0.1202 -0.5061
 3166SOL    HW120957   2.506   2.490  17.597  0.3575  0.4732 -0.6397
 3166SOL    HW220958   2.485   2.476   0.046  0.1639  1.9736  0.7559
 3167SOL     OW20959   2.260   1.067  16.860  0.5212 -0.1479 -0.5814
 3167SOL    HW120960   2.226   1.023  16.937 -0.6171 -0.1655 -1.1012
 3167SOL    HW220961   2.278   0.993  16.802 -0.0279  0.8714 -2.0459
 3168SOL     OW20962   3.954   0.582  10.699 -0.0639  0.5663  0.2491
 3168SOL    HW120963   3.948   0.499  10.746 -1.6243  0.7072  0.3125
 3168SOL    HW220964   3.872   0.580  10.649  0.2827 -0.9326 -0.2520
 3169SOL     OW20965   4.598   0.077   0.097 -0.0048 -0.0639 -0.1618
 3169SOL    HW120966   4.533   0.082   0.167 -0.3410 -0.6525 -0.4363
 3169SOL    HW220967   4.566   0.149   0.042 -1.5491 -0.2535  0.5064
 3170SOL     OW20968   1.346   1.649   1.329  0.7573  0.6247 -0.5492
 3170SOL    HW120969   1.356   1.725   1.386 -2.3764  0.1739  0.6116
 3170SOL    HW220970   1.259   1.616   1.353  1.0357 -0.8973 -1.6509
 3171SOL     OW20971   1.372   0.197  11.989  0.4057  0.8013  0.6170
 3171SOL    HW120972   1.458   0.166  12.018  0.2647  2.0448  2.3654
 3171SOL    HW220973   1.335   0.109  11.984  3.0833 -0.2180 -1.0755
 3172SOL     OW20974   0.751   1.715   6.690  0.1568  0.2469  0.1932
 3172SOL    HW120975   0.665   1.697   6.727  0.6458 -0.6112  0.9129
 3172SOL    HW220976   0.780   1.769   6.764  0.4677  1.4793 -0.8290
 3173SOL     OW20977   1.199   2.087   9.034 -0.4037 -0.8161  0.8551
 3173SOL    HW120978   1.131   2.025   9.011 -0.5185  0.3965 -2.0444
 3173SOL    HW220979   1.155   2.142   9.099  1.7990  2.9665 -0.8571
 3174SOL     OW20980   1.134   4.341  10.857 -0.7253 -0.0171  0.5333
 3174SOL    HW120981   1.093   4.428  10.856 -1.2423 -0.2575  0.5961
 3174SOL    HW220982   1.083   4.288  10.795 -2.4439  1.2908  0.8232
 3175SOL     OW20983   3.599   1.872  11.386  0.0697  0.5131 -0.2740
 3175SOL    HW120984   3.633   1.811  11.320  0.8649  0.7066 -0.0476
 3175SOL    HW220985   3.591   1.955  11.338 -3.1030 -0.9539 -2.2710
 3176SOL     OW20986   0.067   2.821  12.095  0.4127  0.4724 -0.3213
 3176SOL    HW120987   0.082   2.832  12.189  0.2215 -0.2064 -0.2068
 3176SOL    HW220988   0.082   2.727  12.081 -0.8546  0.0549  1.1054
 3177SOL     OW20989   0.334   3.426   6.544 -0.0945  0.1098  0.0844
 3177SOL    HW120990   0.328   3.433   6.449  0.5186  2.1341  0.2131
 3177SOL    HW220991   0.388   3.502   6.562  1.4087 -0.6382 -1.3129
 3178SOL     OW20992   0.255   3.642  14.439 -0.5327  0.0085 -0.2531
 3178SOL    HW120993   0.281   3.716  14.494  1.8999 -1.8380  1.1114
 3178SOL    HW220994   0.334   3.589  14.451  0.2574  1.5253  1.2342
 3179SOL     OW20995   0.261   4.437  15.066  0.4622 -0.1406 -0.1918
 3179SOL    HW120996   0.314   4.358  15.061 -1.7894 -1.5936 -0.8907
 3179SOL    HW220997   0.282   4.483  14.985 -1.0506  1.8223  0.4975
 3180SOL     OW20998   3.333   2.300   4.451 -0.1158 -0.1951 -0.4033
 3180SOL    HW120999   3.273   2.359   4.407 -0.2374  0.1419  0.2106
 3180SOL    HW221000   3.327   2.334   4.540 -0.9845 -0.9693 -0.1685
 3181SOL     OW21001   0.873   0.000   1.625 -0.6392 -0.1008 -0.1640
 3181SOL    HW121002   0.963   4.703   1.648 -0.3197 -0.8390 -2.0809
 3181SOL    HW221003   0.827   4.662   1.682 -0.5870 -0.2014 -0.2314
 3182SOL     OW21004   3.300   2.967   3.707  1.1046  0.2295 -0.2095
 3182SOL    HW121005   3.250   3.048   3.703  0.7890  0.0385 -0.1773
 3182SOL    HW221006   3.355   2.979   3.630  0.8497  0.9279 -0.2748
 3183SOL     OW21007   0.716   3.471  11.229  0.2027  0.0867  0.0126
 3183SOL    HW121008   0.704   3.559  11.194 -0.4327  0.5583  1.4006
 3183SOL    HW221009   0.747   3.510  11.311  1.5053  0.1738 -0.5209
 3184SOL     OW21010   3.838   3.455   4.076  0.6496 -0.2516  0.0219
 3184SOL    HW121011   3.929   3.452   4.046  0.4939 -0.9539 -0.3923
 3184SOL    HW221012   3.795   3.496   4.001 -1.6907 -0.0644  1.4738
 3185SOL     OW21013   0.091   3.065   8.785  0.7238  0.2424  0.1477
 3185SOL    HW121014   0.184   3.052   8.803  0.7968  0.1531 -0.3004
 3185SOL    HW221015   0.047   2.988   8.821 -1.3783  1.0759 -0.6530
 3186SOL     OW21016   4.071   0.499   4.644  0.4421  0.3467 -0.4707
 3186SOL    HW121017   4.165   0.501   4.665  0.2386  2.8029  0.2077
 3186SOL    HW221018   4.040   0.418   4.682 -0.8523  0.2594 -1.7104
 3187SOL     OW21019   1.493   1.180   7.094  0.1704 -0.4105 -0.0450
 3187SOL    HW121020   1.422   1.161   7.033 -2.1356  0.6353  2.2983
 3187SOL    HW221021   1.443   1.221   7.165  0.9974  0.4068  0.0718
 3188SOL     OW21022   3.464   3.563   0.206  0.1105  0.7406 -0.1542
 3188SOL    HW121023   3.473   3.621   0.282 -1.1769  1.2162 -0.3710
 3188SOL    HW221024   3.428   3.489   0.253 -0.0218  0.0200 -1.3959
 3189SOL     OW21025   0.795   3.913   2.362 -0.6436  0.1805  0.0641
 3189SOL    HW121026   0.871   3.938   2.309  0.2806 -0.4639  1.0815
 3189SOL    HW221027   0.726   3.920   2.297 -2.3248 -0.6800  1.7563
 3190SOL     OW21028   1.221   3.846   3.521  0.4456  0.2148 -0.5999
 3190SOL    HW121029   1.193   3.909   3.455  1.8562  1.1524 -0.3078
 3190SOL    HW221030   1.167   3.878   3.593 -0.4829 -1.1354 -0.6930
 3191SOL     OW21031   2.440   1.881   0.741 -0.6082 -0.7505 -0.4903
 3191SOL    HW121032   2.463   1.969   0.771 -0.9142 -1.0460  0.6017
 3191SOL    HW221033   2.357   1.899   0.696 -1.0934 -1.0352  0.2949
 3192SOL     OW21034   1.971   2.302  12.741  0.0432 -0.8235 -0.1077
 3192SOL    HW121035   1.903   2.369  12.753  0.9120 -0.1692  1.0940
 3192SOL    HW221036   2.029   2.332  12.811  0.8948  2.5472 -2.3058
 3193SOL     OW21037   1.967   2.868  15.909 -0.2947  0.0780  0.5012
 3193SOL    HW121038   1.962   2.952  15.862  2.2038 -0.5865 -0.9392
 3193SOL    HW221039   1.899   2.820  15.862  1.4708 -1.4332 -0.5124
 3194SOL     OW21040   0.951   2.189   6.305  0.2519 -0.4315 -0.2218
 3194SOL    HW121041   0.939   2.278   6.337 -2.1103 -1.0153  0.5885
 3194SOL    HW221042   0.961   2.203   6.211 -1.4650  2.2429  0.0013
 3195SOL     OW21043   4.403   4.132   5.439 -0.1238  0.1456 -1.1008
 3195SOL    HW121044   4.348   4.171   5.371  0.1079  1.7198 -0.3940
 3195SOL    HW221045   4.360   4.161   5.520  1.9335 -0.3898  0.1919
 3196SOL     OW21046   3.314   4.683   5.124  0.3605  0.2661  0.3570
 3196SOL    HW121047   3.373   4.664   5.197  0.3383  0.2037  0.3593
 3196SOL    HW221048   3.310   4.598   5.079 -1.4903  0.8328 -0.5543
 3197SOL     OW21049   3.980   1.419  10.562 -0.3594 -0.2204  0.6573
 3197SOL    HW121050   4.000   1.365  10.638 -0.0737  0.8824  1.3722
 3197SOL    HW221051   3.885   1.433  10.567 -0.3066  0.3153  0.1721
 3198SOL     OW21052   4.340   0.289   0.469  0.1126 -0.3047 -0.5270
 3198SOL    HW121053   4.385   0.317   0.549  3.7417  1.0916 -3.0710
 3198SOL    HW221054   4.305   0.205   0.498  0.1477 -0.5522 -1.1980
 3199SOL     OW21055   1.775   4.084   8.498 -0.8446  0.1308  0.0429
 3199SOL    HW121056   1.768   4.031   8.577  1.6397 -3.0749 -1.8996
 3199SOL    HW221057   1.770   4.173   8.533  0.2162 -0.1152  0.8112
 3200SOL     OW21058   4.022   0.543   2.591 -0.5818 -0.5589  0.3249
 3200SOL    HW121059   4.118   0.540   2.590 -0.4629  2.7391  2.0518
 3200SOL    HW221060   4.002   0.614   2.653 -2.0275 -0.3790 -0.3602
 3201SOL     OW21061   0.309   0.723   3.690  0.1095  0.1882  0.4386
 3201SOL    HW121062   0.385   0.665   3.693 -1.4276 -1.8660 -0.2073
 3201SOL    HW221063   0.288   0.736   3.783  0.2695 -0.0130  0.5046
 3202SOL     OW21064   3.713   3.442  17.252 -0.0225 -0.3121 -0.0734
 3202SOL    HW121065   3.675   3.413  17.170  2.1306 -1.4722 -0.6555
 3202SOL    HW221066   3.669   3.527  17.261  0.2608 -0.5244  3.6021
 3203SOL     OW21067   3.361   3.592  14.466 -0.0755  0.4788  0.1722
 3203SOL    HW121068   3.280   3.638  14.442 -0.1668 -1.1376 -2.5899
 3203SOL    HW221069   3.420   3.663  14.490 -1.6990  2.8040 -2.8010
 3204SOL     OW21070   2.749   4.255  13.568 -0.6372  0.3719  0.4033
 3204SOL    HW121071   2.785   4.214  13.490 -0.0124 -1.0037  1.4203
 3204SOL    HW221072   2.659   4.283  13.551 -1.3348 -0.5006  2.6946
 3205SOL     OW21073   2.558   3.568  11.892  0.4219  0.1739 -0.0149
 3205SOL    HW121074   2.598   3.482  11.882  1.2423  0.2032  3.0732
 3205SOL    HW221075   2.638   3.622  11.892  1.0553 -0.7787  0.9353
 3206SOL     OW21076   0.444   4.333   4.565  0.1565 -0.8335 -0.1937
 3206SOL    HW121077   0.489   4.417   4.573  0.8334 -1.2318  0.1543
 3206SOL    HW221078   0.491   4.299   4.488  0.4102  2.9790 -1.7351
 3207SOL     OW21079   0.050   2.444   2.684  0.2985 -0.3012  0.5441
 3207SOL    HW121080   4.685   2.454   2.648  0.4716  0.8471  0.4594
 3207SOL    HW221081   0.035   2.371   2.744 -1.0076 -0.2815  0.2395
 3208SOL     OW21082   3.198   2.786   4.017 -0.0627  0.5479 -0.0427
 3208SOL    HW121083   3.164   2.873   4.036  0.4536  0.4242  1.4782
 3208SOL    HW221084   3.125   2.723   4.019  0.6066 -0.1734  2.1805
 3209SOL     OW21085   3.143   2.855   5.616  0.3329 -0.4438 -0.0509
 3209SOL    HW121086   3.115   2.799   5.688  1.4494 -1.5246 -0.4672
 3209SOL    HW221087   3.233   2.869   5.644  0.5168  0.2385 -0.9819
 3210SOL     OW21088   1.106   4.278   0.728  0.1915 -0.0857 -1.0834
 3210SOL    HW121089   1.109   4.184   0.711 -0.9380 -0.2880 -0.1268
 3210SOL    HW221090   1.107   4.275   0.823  0.6707  0.0424 -1.0867
 3211SOL     OW21091   1.405   2.332   7.489 -0.2832 -0.0950  0.3050
 3211SOL    HW121092   1.321   2.300   7.521 -1.8597  3.7479  0.0171
 3211SOL    HW221093   1.451   2.284   7.558 -0.7482 -0.6082  0.2611
 3212SOL     OW21094   4.179   1.879  17.367  0.0671 -0.3742 -0.1602
 3212SOL    HW121095   4.226   1.817  17.311 -0.5754 -0.8090 -0.2090
 3212SOL    HW221096   4.123   1.926  17.304  2.0663 -0.7540 -2.2370
 3213SOL     OW21097   0.710   4.264  15.358 -0.7752  0.2151 -0.1509
 3213SOL    HW121098   0.687   4.356  15.341  1.5287  0.2663 -2.9473
 3213SOL    HW221099   0.632   4.243  15.410  0.0527 -2.8733 -0.1985
 3214SOL     OW21100   4.129   0.362   8.028  0.1751 -0.1777 -0.0658
 3214SOL    HW121101   4.130   0.445   7.981 -0.9739 -0.7442 -1.0846
 3214SOL    HW221102   4.035   0.348   8.041  0.1754 -0.3521 -0.2452
 3215SOL     OW21103   1.773   0.249   9.028 -0.2332  0.6126 -0.0579
 3215SOL    HW121104   1.793   0.163   8.993 -2.2416  0.1421 -0.0439
 3215SOL    HW221105   1.696   0.275   8.978 -0.4355 -0.0362 -0.0717
 3216SOL     OW21106   3.127   0.174   2.332 -0.2547  0.4563 -0.3984
 3216SOL    HW121107   3.100   0.122   2.408  1.5214  0.4134  0.2239
 3216SOL    HW221108   3.203   0.119   2.310  0.4570 -0.0359  3.1845
 3217SOL     OW21109   4.028   4.539   2.867  0.6149 -0.4764 -0.6835
 3217SOL    HW121110   3.967   4.502   2.930 -0.5415 -0.7367 -1.9690
 3217SOL    HW221111   4.111   4.494   2.883  0.1170 -0.4839  1.8799
 3218SOL     OW21112   1.250   2.290   2.594 -0.0112  0.6749  0.5615
 3218SOL    HW121113   1.253   2.339   2.512 -2.1333 -0.8309 -0.4113
 3218SOL    HW221114   1.292   2.207   2.574 -1.7653  0.3302 -1.7121
 3219SOL     OW21115   0.215   4.484   1.932 -0.4322 -0.6581 -0.2147
 3219SOL    HW121116   0.239   4.446   1.848 -0.7196 -2.8239  0.6770
 3219SOL    HW221117   0.274   4.434   1.988  1.0622  3.5714  1.9837
 3220SOL     OW21118   0.694   0.462   7.958  0.2591  0.0865 -0.3442
 3220SOL    HW121119   0.682   0.367   7.958 -1.0503  0.2410 -2.1423
 3220SOL    HW221120   0.777   0.463   7.909 -1.2084  1.2406 -2.8447
 3221SOL     OW21121   1.491   2.091   4.017 -0.1740 -0.3429 -0.2364
 3221SOL    HW121122   1.455   2.165   3.969 -2.8535 -1.5457 -0.0628
 3221SOL    HW221123   1.430   2.092   4.091  3.1385  1.0066  2.5232
 3222SOL     OW21124   3.702   4.227   8.729 -0.0201  0.3119 -0.1271
 3222SOL    HW121125   3.679   4.246   8.638  2.4011  1.8213 -0.4149
 3222SOL    HW221126   3.700   4.132   8.719  0.3845  0.3200 -0.2556
 3223SOL     OW21127   2.554   0.226  14.779  0.5559 -0.1183  0.2654
 3223SOL    HW121128   2.531   0.227  14.872 -0.4073 -1.0544  0.0319
 3223SOL    HW221129   2.629   0.285  14.774 -0.0556  0.4576 -1.8641
 3224SOL     OW21130   4.341   1.639   4.951 -0.3399 -0.5796  0.2949
 3224SOL    HW121131   4.380   1.557   4.920  0.3985 -0.6793  1.4954
 3224SOL    HW221132   4.417   1.671   5.000  0.6791 -2.8233  0.1835
 3225SOL     OW21133   3.104   3.843  12.562  0.1018 -0.1721 -0.1961
 3225SOL    HW121134   3.104   3.769  12.624 -1.0032 -1.6888 -2.0180
 3225SOL    HW221135   3.143   3.809  12.482 -0.3604 -1.4187  0.1065
 3226SOL     OW21136   2.929   4.209   8.711  0.2554 -0.0931  0.2450
 3226SOL    HW121137   2.904   4.126   8.670 -0.0565  0.7639 -1.2599
 3226SOL    HW221138   2.982   4.183   8.787  1.6594  1.4779 -0.2008
 3227SOL     OW21139   1.420   1.820  13.545 -0.2048 -0.2488  0.1279
 3227SOL    HW121140   1.437   1.887  13.610  1.0171  0.6629 -1.1177
 3227SOL    HW221141   1.330   1.797  13.567  0.8910 -4.3962  0.4257
 3228SOL     OW21142   1.930   2.693   9.302  0.1381  0.0625 -0.0276
 3228SOL    HW121143   1.930   2.617   9.244 -2.8195  0.1367 -0.1416
 3228SOL    HW221144   2.013   2.738   9.291  0.1070  0.2589  0.5837
 3229SOL     OW21145   3.207   0.795   9.613  0.3224 -0.1443  0.2816
 3229SOL    HW121146   3.268   0.822   9.682 -2.6986  0.7274  2.5963
 3229SOL    HW221147   3.250   0.714   9.587  0.9229  0.2983 -0.1034
 3230SOL     OW21148   3.275   1.516  17.379  0.6801 -0.3608 -0.2727
 3230SOL    HW121149   3.336   1.587  17.358  0.3255 -0.2482 -0.9359
 3230SOL    HW221150   3.187   1.549  17.360  1.0521  0.2308 -0.9872
 3231SOL     OW21151   4.148   3.661   6.352 -0.2291 -0.4491  0.1521
 3231SOL    HW121152   4.122   3.583   6.400  1.1102 -0.6512  0.5412
 3231SOL    HW221153   4.171   3.630   6.264  0.8473  0.2478  0.1816
 3232SOL     OW21154   0.993   2.458   2.491 -0.2506 -0.2233  0.2957
 3232SOL    HW121155   1.011   2.444   2.584 -0.8639  1.4756  0.6758
 3232SOL    HW221156   1.042   2.383   2.458  1.8797  0.8014  1.1709
 3233SOL     OW21157   3.245   1.121   3.334  0.4922 -0.5136 -0.4566
 3233SOL    HW121158   3.314   1.098   3.397 -1.3042 -0.2032  1.6171
 3233SOL    HW221159   3.289   1.197   3.298 -1.2278  0.8395  0.3052
 3234SOL     OW21160   1.117   4.619   6.178  0.5011 -0.1772 -0.1308
 3234SOL    HW121161   1.101   4.668   6.258 -1.5129 -2.1827  0.6944
 3234SOL    HW221162   1.164   4.691   6.137 -1.6781  1.4972  0.3471
 3235SOL     OW21163   1.941   3.447  16.450 -0.1091  0.1792  0.1043
 3235SOL    HW121164   1.896   3.528  16.471 -1.1142 -0.3393 -0.0363
 3235SOL    HW221165   1.915   3.445  16.358  0.1641 -0.8319  0.0454
 3236SOL     OW21166   3.913   3.380   8.303  0.2448  0.7496 -0.2799
 3236SOL    HW121167   3.963   3.383   8.221 -1.5530 -2.2375 -1.4913
 3236SOL    HW221168   3.880   3.290   8.311  0.8675  0.4454 -1.0642
 3237SOL     OW21169   1.206   3.297   8.305  0.2459 -0.1749  0.1300
 3237SOL    HW121170   1.274   3.355   8.341  0.2437  0.8664 -1.5726
 3237SOL    HW221171   1.145   3.364   8.278  1.9035  1.3478  0.1704
 3238SOL     OW21172   1.406   1.968   7.457 -0.3745  0.2708  0.5916
 3238SOL    HW121173   1.488   1.986   7.502 -0.0613 -1.5294  0.6987
 3238SOL    HW221174   1.352   1.940   7.531 -0.2872  1.1557  0.9980
 3239SOL     OW21175   4.415   3.887   5.055  0.3101  0.0961 -0.5071
 3239SOL    HW121176   4.407   3.794   5.074  1.5716  0.0453 -0.2042
 3239SOL    HW221177   4.491   3.873   4.999  1.1815  0.2926  0.6039
 3240SOL     OW21178   3.519   1.752   5.223  0.5632 -0.5990  0.4873
 3240SOL    HW121179   3.545   1.728   5.134 -0.7003  0.4805 -0.1633
 3240SOL    HW221180   3.607   1.743   5.260  0.8207  1.2480  0.3363
 3241SOL     OW21181   0.664   2.943   8.753 -0.1014  0.1002 -0.4711
 3241SOL    HW121182   0.643   2.959   8.845  2.1992  0.3842  0.0038
 3241SOL    HW221183   0.759   2.942   8.763 -0.1745 -1.1524  0.1735
 3242SOL     OW21184   3.892   0.615   1.644  0.3434  0.4529  0.4948
 3242SOL    HW121185   3.958   0.682   1.623 -1.3531  2.3582  1.2184
 3242SOL    HW221186   3.809   0.657   1.618 -0.0093 -1.1481 -0.9231
 3243SOL     OW21187   1.769   4.314   2.239  0.0026  0.0364 -0.0805
 3243SOL    HW121188   1.840   4.378   2.241  0.6632 -0.6324 -1.5878
 3243SOL    HW221189   1.759   4.304   2.144 -0.4332 -0.7188  0.0421
 3244SOL     OW21190   3.093   2.256   2.767 -0.0287  0.0143  0.0903
 3244SOL    HW121191   3.157   2.282   2.833 -0.5054 -0.3353  0.6956
 3244SOL    HW221192   3.069   2.167   2.793 -1.1690  0.6694  1.2926
 3245SOL     OW21193   0.228   3.001  11.040  0.5623  0.0415 -0.5393
 3245SOL    HW121194   0.244   3.030  11.129  2.6256 -0.0651 -0.8693
 3245SOL    HW221195   0.198   3.078  10.993  1.0225  0.3920 -0.2507
 3246SOL     OW21196   0.607   2.371   6.504  0.3457  0.1813  0.1100
 3246SOL    HW121197   0.634   2.336   6.589 -0.5127 -0.1046  0.2739
 3246SOL    HW221198   0.529   2.316   6.492  1.4225 -1.9937  2.7683
 3247SOL     OW21199   0.814   3.174   5.511 -0.1461  0.2083  0.3701
 3247SOL    HW121200   0.762   3.156   5.589  0.5871 -0.1758  0.7722
 3247SOL    HW221201   0.881   3.224   5.558  0.6150 -1.8678  1.4765
 3248SOL     OW21202   0.074   3.129  14.672  0.9981  0.0840 -0.3807
 3248SOL    HW121203   0.035   3.216  14.662 -0.5491 -0.7098 -1.1833
 3248SOL    HW221204   0.083   3.089  14.586  0.7213  0.5399 -0.6185
 3249SOL     OW21205   0.759   4.228   5.013 -0.2476 -0.2625 -0.1567
 3249SOL    HW121206   0.827   4.225   4.946 -2.3894  1.5317 -2.4419
 3249SOL    HW221207   0.686   4.237   4.951  1.8963 -2.2510 -2.9941
 3250SOL     OW21208   2.351   1.054   3.679 -0.2863  0.2787 -0.5851
 3250SOL    HW121209   2.299   1.039   3.758  2.7014  1.6638  1.6325
 3250SOL    HW221210   2.438   1.029   3.708 -1.2650 -2.1282  0.2531
 3251SOL     OW21211   3.026   0.235   8.189  0.1466 -0.7418 -0.3400
 3251SOL    HW121212   3.021   0.219   8.283 -0.7228  1.8953  0.0689
 3251SOL    HW221213   2.943   0.280   8.170  0.3391 -1.0971 -2.0309
 3252SOL     OW21214   1.810   4.169  11.183  0.0465 -0.3734 -0.3065
 3252SOL    HW121215   1.808   4.096  11.120 -0.2960 -1.1095  0.5487
 3252SOL    HW221216   1.884   4.215  11.145  0.6074 -0.7221  0.3491
 3253SOL     OW21217   4.460   2.826   9.198 -0.8563 -0.3040  0.7392
 3253SOL    HW121218   4.400   2.825   9.272 -1.9610  1.1887 -0.1270
 3253SOL    HW221219   4.487   2.734   9.202  1.6179  0.3575 -0.8980
 3254SOL     OW21220   2.462   0.694   9.587 -0.3409 -0.0250  0.1361
 3254SOL    HW121221   2.412   0.731   9.515 -1.2423 -0.2217  0.6592
 3254SOL    HW221222   2.552   0.697   9.554 -0.4496 -3.0615 -0.3992
 3255SOL     OW21223   3.270   0.489  13.195  0.2566  0.0666 -0.3058
 3255SOL    HW121224   3.349   0.464  13.244  0.9798  1.6701 -0.6612
 3255SOL    HW221225   3.276   0.431  13.119 -0.5191 -1.5831  0.9028
 3256SOL     OW21226   4.680   4.202   5.442 -0.5882  0.1916  0.0697
 3256SOL    HW121227   4.601   4.149   5.452 -0.6005  0.1677 -0.1592
 3256SOL    HW221228   4.653   4.237   5.357  1.6198  2.5354  0.3371
 3257SOL     OW21229   1.454   0.026   6.377  0.0799  0.2800  0.2567
 3257SOL    HW121230   1.541   0.052   6.346  0.6442  0.5702  2.1245
 3257SOL    HW221231   1.391   0.091   6.346  0.0587 -0.5072 -1.3626
 3258SOL     OW21232   0.693   4.379  12.267  0.3144 -0.3414 -0.3562
 3258SOL    HW121233   0.753   4.452  12.285 -0.4529  0.2201 -0.0946
 3258SOL    HW221234   0.713   4.329  12.346  1.8234  1.3062  0.2997
 3259SOL     OW21235   2.847   4.298  11.156 -0.1442 -0.1278 -0.0374
 3259SOL    HW121236   2.914   4.330  11.216 -1.2767  0.5682  0.8611
 3259SOL    HW221237   2.900   4.275  11.079  0.1401 -0.6408  0.3144
 3260SOL     OW21238   1.980   2.924   6.980 -0.3456 -0.4224  0.0907
 3260SOL    HW121239   1.911   2.918   7.046 -0.4628  0.4560  0.0530
 3260SOL    HW221240   1.920   2.931   6.906 -0.8659 -1.4928  0.4173
 3261SOL     OW21241   0.909   3.352   5.131 -0.5797 -0.4493 -0.1371
 3261SOL    HW121242   0.973   3.358   5.060 -0.6024  1.9488  0.0606
 3261SOL    HW221243   0.901   3.258   5.147 -3.3169 -0.2034 -0.0452
 3262SOL     OW21244   0.016   2.935   3.542 -0.0277  0.3904 -0.1399
 3262SOL    HW121245   0.060   2.999   3.598  0.7439  0.7568 -1.1792
 3262SOL    HW221246   0.061   2.856   3.572 -2.2453 -1.5922 -2.0805
 3263SOL     OW21247   2.709   0.268   5.337 -0.7881 -0.2752  0.7524
 3263SOL    HW121248   2.717   0.187   5.288  1.2048  0.9530 -0.9694
 3263SOL    HW221249   2.614   0.283   5.332 -0.5721  0.0781 -2.5001
 3264SOL     OW21250   3.060   3.344   4.385 -0.1013  0.0746 -0.1794
 3264SOL    HW121251   3.145   3.301   4.378  0.8926  2.1496 -0.8893
 3264SOL    HW221252   3.036   3.304   4.469 -0.3156 -0.3352 -0.4358
 3265SOL     OW21253   4.040   4.658  15.503 -0.1502  0.4199  0.3221
 3265SOL    HW121254   3.979   4.588  15.481  1.4662 -0.5145 -1.0943
 3265SOL    HW221255   4.122   4.609  15.512 -0.5651 -0.3123  0.1494
 3266SOL     OW21256   3.951   0.881   8.647  0.9765 -0.0027  0.1218
 3266SOL    HW121257   3.885   0.875   8.577  0.5790  2.2504  0.3225
 3266SOL    HW221258   3.984   0.970   8.643 -0.4646  0.6496  3.1124
 3267SOL     OW21259   3.616   2.293  11.018  0.2853 -0.6083  0.3108
 3267SOL    HW121260   3.610   2.344  10.936  1.3221  2.1115  1.9452
 3267SOL    HW221261   3.711   2.287  11.018  0.2517 -1.2500 -1.0792
 3268SOL     OW21262   2.726   2.977  12.703  0.2344 -0.1104 -0.8236
 3268SOL    HW121263   2.751   2.995  12.794 -0.7005 -1.2906 -0.3354
 3268SOL    HW221264   2.657   2.914  12.723  2.2109 -1.6326  1.1356
 3269SOL     OW21265   3.096   3.611   7.134  0.2223  0.1797 -0.6429
 3269SOL    HW121266   3.150   3.636   7.058 -1.7762  4.1639 -0.7576
 3269SOL    HW221267   3.158   3.549   7.172  0.8473  2.0635  1.3912
 3270SOL     OW21268   2.226   3.245   7.293 -0.3777 -0.4791 -0.1025
 3270SOL    HW121269   2.224   3.150   7.301 -0.7858 -0.6149 -1.7982
 3270SOL    HW221270   2.320   3.258   7.287 -0.6302  1.8087  0.6705
 3271SOL     OW21271   0.957   4.406  15.509 -0.1631  0.2190  0.9537
 3271SOL    HW121272   0.874   4.454  15.508 -0.6925 -0.7767 -1.4481
 3271SOL    HW221273   0.963   4.402  15.605 -4.2947 -0.8240  1.1585
 3272SOL     OW21274   2.529   4.128   0.125 -0.2072 -0.4927 -0.3172
 3272SOL    HW121275   2.614   4.169   0.110 -0.5782 -0.1167 -1.4158
 3272SOL    HW221276   2.533   4.135   0.220  1.5673 -0.4432 -0.4007
 3273SOL     OW21277   2.967   0.305   5.437  0.1521  0.0880 -0.2199
 3273SOL    HW121278   2.982   0.246   5.511  2.4194  1.0752  0.1185
 3273SOL    HW221279   2.878   0.278   5.412  0.3805 -1.6247  0.8440
 3274SOL     OW21280   4.441   1.498   1.642  0.5719  0.1002 -0.0479
 3274SOL    HW121281   4.491   1.563   1.690  1.5383 -0.9887  0.4255
 3274SOL    HW221282   4.420   1.553   1.566 -3.5195  0.1847  1.1474
 3275SOL     OW21283   4.677   1.863   3.484 -0.2330  0.0322 -0.5348
 3275SOL    HW121284   4.638   1.935   3.435 -1.4631  0.2742  0.8114
 3275SOL    HW221285   4.709   1.911   3.560 -0.7565  2.7249 -2.0344
 3276SOL     OW21286   1.622   1.654   7.672 -0.5323  0.2778 -0.2876
 3276SOL    HW121287   1.530   1.637   7.691  0.0738 -0.7660  1.7316
 3276SOL    HW221288   1.655   1.655   7.761 -0.7516 -0.3608 -0.1989
 3277SOL     OW21289   1.117   2.589   6.266 -0.1262 -1.2099  0.4694
 3277SOL    HW121290   1.097   2.680   6.287  0.9478 -1.2862  1.8321
 3277SOL    HW221291   1.162   2.598   6.182  3.0451  0.9784  2.3719
 3278SOL     OW21292   0.901   1.521   2.163  0.3187  0.4201  0.4384
 3278SOL    HW121293   0.821   1.557   2.203  0.4359 -1.2097  2.1742
 3278SOL    HW221294   0.914   1.436   2.207 -1.7104  1.2245  2.6206
 3279SOL     OW21295   1.584   1.963   1.869 -0.1874  0.0452 -0.4271
 3279SOL    HW121296   1.497   1.929   1.892  0.4028 -1.5576 -0.5740
 3279SOL    HW221297   1.576   2.055   1.893 -2.5027 -0.0356 -0.8965
 3280SOL     OW21298   3.022   1.555  17.350  0.4534 -0.0099 -0.2993
 3280SOL    HW121299   2.990   1.616  17.417  2.2620  0.4567  0.1470
 3280SOL    HW221300   2.950   1.492  17.351  1.3106 -1.0296 -2.1288
 3281SOL     OW21301   0.324   3.005  12.953 -0.0847  0.1298 -0.7694
 3281SOL    HW121302   0.279   3.082  12.916 -1.4287 -0.0361  0.5389
 3281SOL    HW221303   0.308   2.940  12.885 -1.8385  0.1938 -0.4260
 3282SOL     OW21304   3.115   4.520  12.042  0.0176 -0.5219 -0.5800
 3282SOL    HW121305   3.182   4.479  11.986 -1.7808 -3.6905 -0.4158
 3282SOL    HW221306   3.170   4.552  12.113  1.5390 -0.7843 -1.6317
 3283SOL     OW21307   3.053   1.730   2.398 -0.3717  0.7353 -0.4695
 3283SOL    HW121308   3.031   1.773   2.480  1.4832 -1.4353  1.1619
 3283SOL    HW221309   3.058   1.795   2.328  3.7291 -0.3041 -1.1545
 3284SOL     OW21310   2.721   3.206   6.794  0.2125  0.0181  0.2969
 3284SOL    HW121311   2.706   3.298   6.812  2.4682  0.3147  0.6068
 3284SOL    HW221312   2.812   3.211   6.767  0.4868  0.2165  1.2783
 3285SOL     OW21313   1.625   1.519   9.176  0.1258 -0.4769  0.8439
 3285SOL    HW121314   1.637   1.612   9.197 -0.2704  0.0471 -1.2034
 3285SOL    HW221315   1.711   1.479   9.166 -0.6522 -1.9454  0.0180
 3286SOL     OW21316   0.705   4.082  15.609  0.2040  0.3294 -0.6190
 3286SOL    HW121317   0.755   4.159  15.581 -0.0131  0.7404  0.1125
 3286SOL    HW221318   0.765   4.021  15.565  0.9313  0.2644  0.4616
 3287SOL     OW21319   4.065   1.740   0.580  0.0589 -0.4601  0.3218
 3287SOL    HW121320   4.036   1.765   0.492 -0.4742 -0.3250  0.5342
 3287SOL    HW221321   4.066   1.821   0.630  1.9399 -0.6833  0.6281
 3288SOL     OW21322   3.152   1.837   3.070  0.1740  0.2851  0.1322
 3288SOL    HW121323   3.237   1.792   3.075 -0.8223 -1.6752 -0.2959
 3288SOL    HW221324   3.180   1.925   3.092 -2.1027 -0.3483  5.6953
 3289SOL     OW21325   1.819   2.129  16.790 -0.3742  0.4421 -0.5470
 3289SOL    HW121326   1.878   2.054  16.783  1.0179  1.3253  2.0091
 3289SOL    HW221327   1.855   2.180  16.862 -2.1179 -1.4519  1.6254
 3290SOL     OW21328   2.587   3.208  12.920 -0.3371 -0.3994  0.1951
 3290SOL    HW121329   2.615   3.264  12.992 -0.6977  1.3602 -1.0340
 3290SOL    HW221330   2.596   3.265  12.844 -0.5229 -2.1469 -1.1541
 3291SOL     OW21331   2.241   0.532   2.976  0.1972 -0.0125  0.2610
 3291SOL    HW121332   2.318   0.502   3.023 -0.8426 -3.2343 -0.1344
 3291SOL    HW221333   2.255   0.482   2.896 -2.4287  1.2940 -1.0173
 3292SOL     OW21334   1.296   0.560   6.208  0.0324 -0.0295  0.4416
 3292SOL    HW121335   1.389   0.583   6.218 -0.0349  0.4104  0.0591
 3292SOL    HW221336   1.272   0.565   6.300 -0.5198 -3.1687  0.4816
 3293SOL     OW21337   3.462   3.256  16.528  0.2067 -0.0533 -0.2365
 3293SOL    HW121338   3.438   3.208  16.607  1.7303  0.2628  0.4162
 3293SOL    HW221339   3.545   3.212  16.510  0.7835  1.4155 -1.1289
 3294SOL     OW21340   3.736   3.773  11.843  0.2426  0.3686 -0.5194
 3294SOL    HW121341   3.643   3.752  11.845  0.3199  0.1384  1.3448
 3294SOL    HW221342   3.744   3.847  11.783 -1.4364  0.2715 -0.8578
 3295SOL     OW21343   4.133   3.335   6.083 -0.1401 -0.1657  0.2973
 3295SOL    HW121344   4.156   3.292   6.001  0.1600 -0.0833  0.3361
 3295SOL    HW221345   4.072   3.265   6.107  0.0597 -0.0308  1.2074
 3296SOL     OW21346   3.667   3.241   2.240 -0.4334 -0.4465 -0.4401
 3296SOL    HW121347   3.720   3.161   2.242 -0.7636 -0.6393  0.3172
 3296SOL    HW221348   3.727   3.291   2.184 -0.7658  0.4380 -0.0061
 3297SOL     OW21349   2.813   0.485  11.964  0.0543  0.3697  0.2022
 3297SOL    HW121350   2.730   0.454  11.926  0.7750 -0.4612 -0.6977
 3297SOL    HW221351   2.863   0.523  11.891  0.7255  0.6977  0.8387
 3298SOL     OW21352   4.634   3.498  15.491 -0.8346  0.9163  0.3010
 3298SOL    HW121353   4.615   3.504  15.584 -0.0387 -1.5465  0.6252
 3298SOL    HW221354   4.650   3.405  15.473 -2.5951  0.8122 -0.7449
 3299SOL     OW21355   2.753   2.450   2.190  0.1473  0.1586  0.0275
 3299SOL    HW121356   2.799   2.505   2.127  0.5462  1.8472  1.7900
 3299SOL    HW221357   2.797   2.463   2.274  0.2918  0.5882 -0.1135
 3300SOL     OW21358   1.510   4.390  13.822 -0.2957 -0.3997  0.1889
 3300SOL    HW121359   1.446   4.346  13.878  1.6531 -1.1029  1.8902
 3300SOL    HW221360   1.587   4.341  13.854  0.5489  0.7671 -0.0720
 3301SOL     OW21361   4.076   3.276   2.965  0.4297  0.3998 -0.1966
 3301SOL    HW121362   4.081   3.262   3.060  0.8897  3.3224  0.1913
 3301SOL    HW221363   4.169   3.271   2.944  1.0075  1.8080  2.1276
 3302SOL     OW21364   0.120   0.457   5.431 -0.0430 -0.2626 -0.1623
 3302SOL    HW121365   0.068   0.509   5.369  0.6820 -0.0921 -0.6266
 3302SOL    HW221366   0.048   0.422   5.484  2.1482 -1.4722  2.0020
 3303SOL     OW21367   3.182   3.635  10.095  1.1241  0.5099 -0.0468
 3303SOL    HW121368   3.114   3.568  10.098  0.9809  0.6422 -0.2938
 3303SOL    HW221369   3.268   3.596  10.109  0.8001 -0.2159 -0.0746
 3304SOL     OW21370   2.027   4.042   9.287  0.2157 -0.0867 -0.7572
 3304SOL    HW121371   2.096   4.054   9.353  1.4350  2.2108 -2.4171
 3304SOL    HW221372   2.078   3.996   9.220  0.8200  0.3177 -0.5825
 3305SOL     OW21373   1.561   0.596   6.211  0.1964  0.4812  0.1626
 3305SOL    HW121374   1.621   0.537   6.165  0.1087  0.4637  0.0715
 3305SOL    HW221375   1.624   0.665   6.232  1.2923 -0.4153 -0.1619
 3306SOL     OW21376   1.080   1.721   4.321  0.5009 -0.5297 -0.2001
 3306SOL    HW121377   0.999   1.754   4.283  1.5315 -0.8388 -2.6620
 3306SOL    HW221378   1.083   1.635   4.278 -0.3381 -0.6705  0.0158
 3307SOL     OW21379   0.045   3.444   5.240 -0.0953 -0.2839 -0.1024
 3307SOL    HW121380   4.707   3.478   5.175 -0.4559  1.7013  1.2753
 3307SOL    HW221381   4.712   3.382   5.286  0.0714 -1.4185 -1.4204
 3308SOL     OW21382   1.382   0.526   5.012  0.1873 -0.1558 -0.4975
 3308SOL    HW121383   1.300   0.567   5.041 -0.5991 -0.9349 -1.5808
 3308SOL    HW221384   1.376   0.446   5.064  2.1377 -0.5919 -0.9379
 3309SOL     OW21385   1.369   1.144   2.782 -0.1961 -0.5524 -0.2975
 3309SOL    HW121386   1.339   1.133   2.692  0.1110  0.8552 -0.5795
 3309SOL    HW221387   1.442   1.206   2.773 -0.1188 -0.6910 -0.6152
 3310SOL     OW21388   0.337   4.311   0.435  0.0300  0.3853 -0.1851
 3310SOL    HW121389   0.250   4.319   0.475  1.3370  0.7431  2.6412
 3310SOL    HW221390   0.381   4.385   0.479 -3.3880  3.0958 -1.3505
 3311SOL     OW21391   2.703   3.178   5.581  0.2562  0.0415  0.1052
 3311SOL    HW121392   2.798   3.190   5.585 -0.1395  3.0059  0.1908
 3311SOL    HW221393   2.667   3.263   5.557  1.3268 -0.2564 -2.4648
 3312SOL     OW21394   1.558   3.595   7.246 -0.5276  0.0057 -0.2345
 3312SOL    HW121395   1.650   3.578   7.263 -0.5678 -1.1616 -1.1958
 3312SOL    HW221396   1.564   3.679   7.200  0.3412  0.1610  0.1588
 3313SOL     OW21397   2.561   2.107   6.736 -0.0953 -0.0001 -0.3815
 3313SOL    HW121398   2.645   2.104   6.691 -0.1380  1.9372 -0.5907
 3313SOL    HW221399   2.489   2.078   6.680  0.2938  0.6717 -1.2238
 3314SOL     OW21400   2.646   0.061   4.987  0.3053  0.5491 -0.1845
 3314SOL    HW121401   2.654   0.148   5.025  0.1365  1.5544 -2.4531
 3314SOL    HW221402   2.688   0.022   5.064 -0.3546  0.5477  0.1691
 3315SOL     OW21403   1.355   3.495   8.522 -0.0796  0.0615  0.2748
 3315SOL    HW121404   1.425   3.560   8.516  0.6010 -0.4948  2.2689
 3315SOL    HW221405   1.393   3.436   8.586 -2.5461 -0.8815  0.8739
 3316SOL     OW21406   3.335   4.647   8.708 -0.2067 -0.0529 -0.5048
 3316SOL    HW121407   3.321   4.616   8.797  0.3750  2.8894  0.6051
 3316SOL    HW221408   3.430   4.634   8.699 -0.3474 -1.8700  0.6669
 3317SOL     OW21409   3.202   0.856   7.635  0.1869 -0.1076  0.2847
 3317SOL    HW121410   3.251   0.834   7.714 -0.7714 -1.1108  0.6010
 3317SOL    HW221411   3.117   0.822   7.664  0.5972 -0.8572  0.5920
 3318SOL     OW21412   4.632   2.447   6.914 -0.5857  0.4808 -0.5610
 3318SOL    HW121413   4.709   2.471   6.965  0.7693 -0.3988 -2.2044
 3318SOL    HW221414   4.672   2.415   6.833 -0.5979 -0.7597 -0.0666
 3319SOL     OW21415   1.495   2.707  10.003 -0.2122 -0.1970 -0.3395
 3319SOL    HW121416   1.473   2.800  10.015 -1.6829 -0.5698 -0.1609
 3319SOL    HW221417   1.493   2.660  10.086 -1.3548  1.1981  0.4295
 3320SOL     OW21418   2.622   4.658  10.925  0.5114 -0.7658 -0.3136
 3320SOL    HW121419   2.604   0.007  10.985 -1.5577 -0.3161 -1.5032
 3320SOL    HW221420   2.718   4.649  10.930  0.4599 -1.1473 -0.0718
 3321SOL     OW21421   1.777   1.489   5.827  0.2444  0.0154  0.4661
 3321SOL    HW121422   1.785   1.395   5.808  0.5340  0.1280  0.0330
 3321SOL    HW221423   1.862   1.522   5.798 -0.8867  2.0024 -0.5629
 3322SOL     OW21424   0.739   4.616   0.134  0.0329  0.1631  0.0249
 3322SOL    HW121425   0.770   4.701   0.102 -0.8291  0.5625  0.2460
 3322SOL    HW221426   0.805   4.561   0.092 -0.7920  0.7909 -2.0947
 3323SOL     OW21427   1.047   1.971   0.712  0.4330 -0.0172 -0.3278
 3323SOL    HW121428   1.094   1.994   0.793  1.5743 -0.9018 -0.7306
 3323SOL    HW221429   1.105   2.014   0.648  0.9908  0.2986  0.3847
 3324SOL     OW21430   2.034   3.364   8.012  0.3307  0.0046  0.2257
 3324SOL    HW121431   2.055   3.272   8.032  1.7575  1.2520  4.4950
 3324SOL    HW221432   2.090   3.383   7.937 -0.5438  0.9606 -0.1843
 3325SOL     OW21433   3.108   0.640   5.278  0.6684  0.2073 -0.6436
 3325SOL    HW121434   3.061   0.635   5.195 -0.4119 -0.7074  0.0057
 3325SOL    HW221435   3.160   0.719   5.267  0.0228  0.8187  0.7089
 3326SOL     OW21436   1.016   1.017   7.516  0.2496 -0.1993  0.1201
 3326SOL    HW121437   0.986   0.926   7.520 -0.6920  0.1874  1.8451
 3326SOL    HW221438   1.023   1.044   7.424 -1.3646 -1.9844 -0.5166
 3327SOL     OW21439   2.200   0.363   0.329 -0.0127  0.0806 -0.1556
 3327SOL    HW121440   2.116   0.332   0.364 -0.3658  2.1974  0.8435
 3327SOL    HW221441   2.158   0.393   0.248 -1.4809 -0.4284  0.4200
 3328SOL     OW21442   2.551   2.344   5.221 -0.1772 -0.2480 -0.7949
 3328SOL    HW121443   2.511   2.429   5.202  0.3695  0.3734  0.8711
 3328SOL    HW221444   2.589   2.351   5.308  1.2610  0.8158 -1.5267
 3329SOL     OW21445   3.568   0.816   8.250  0.0599 -0.6508 -0.0270
 3329SOL    HW121446   3.612   0.824   8.165 -0.0480  0.4218  0.0210
 3329SOL    HW221447   3.479   0.845   8.231 -0.3894 -1.3495  0.9967
 3330SOL     OW21448   3.960   2.639   6.192 -0.8083 -0.4825 -0.2617
 3330SOL    HW121449   3.898   2.707   6.169  0.5860  0.1831 -2.0111
 3330SOL    HW221450   3.896   2.568   6.185 -0.5190 -0.6665 -1.0001
 3331SOL     OW21451   3.432   2.035   7.480  0.2380  0.2418 -0.4391
 3331SOL    HW121452   3.459   1.945   7.499  0.1459 -0.0933 -1.9423
 3331SOL    HW221453   3.379   2.016   7.403  1.3714 -1.2673 -0.8650
 3332SOL     OW21454   2.990   1.874   6.043 -0.0184 -0.4253  0.1112
 3332SOL    HW121455   3.075   1.866   6.087  1.2335 -0.5646 -2.3381
 3332SOL    HW221456   3.011   1.834   5.959 -0.8375 -2.6828  0.9763
 3333SOL     OW21457   1.685   0.316   3.929  0.1582 -0.1226 -0.0075
 3333SOL    HW121458   1.779   0.299   3.928  0.7792  3.4449  0.4999
 3333SOL    HW221459   1.681   0.373   3.852  0.8524  0.2176  0.2149
 3334SOL     OW21460   0.009   2.321   6.682  0.0642  0.7295 -0.1965
 3334SOL    HW121461   4.688   2.389   6.632 -0.5832 -1.2862 -2.3847
 3334SOL    HW221462   0.047   2.273   6.608  3.8423  3.0584  0.2715
 3335SOL     OW21463   3.313   3.176   7.443 -0.1009  0.0772  0.0333
 3335SOL    HW121464   3.273   3.176   7.529  0.8061  1.5034  0.4617
 3335SOL    HW221465   3.305   3.083   7.424 -0.5874  0.6539 -2.5801
 3336SOL     OW21466   3.601   4.620   3.258 -0.0937  0.2925 -0.4742
 3336SOL    HW121467   3.581   4.692   3.197  0.2094  1.0348  0.3082
 3336SOL    HW221468   3.576   4.548   3.200  2.1782 -2.2601  1.7247
 3337SOL     OW21469   3.171   2.693   7.676  0.2978  0.6405 -0.1463
 3337SOL    HW121470   3.207   2.641   7.747 -2.8656  0.7457  1.5389
 3337SOL    HW221471   3.254   2.727   7.643  1.2925 -2.0146 -0.4244
 3338SOL     OW21472   1.418   2.265   5.611 -0.6027 -0.0567  0.0301
 3338SOL    HW121473   1.351   2.277   5.544 -0.4049  1.9748  0.2080
 3338SOL    HW221474   1.429   2.170   5.623 -1.7949 -0.5711 -2.9671
 3339SOL     OW21475   3.358   4.105  10.784  0.2856 -0.6707 -0.0928
 3339SOL    HW121476   3.449   4.102  10.813  0.8855  0.1928 -1.8725
 3339SOL    HW221477   3.343   4.199  10.789  0.4672 -0.6678  0.4125
 3340SOL     OW21478   2.304   1.270   4.307 -0.5211 -0.5587  0.3544
 3340SOL    HW121479   2.235   1.217   4.268  1.3236 -3.1969  0.6588
 3340SOL    HW221480   2.274   1.260   4.397  1.2334  1.7253  1.1857
 3341SOL     OW21481   3.089   1.763  17.178 -0.3332 -0.0837 -0.0704
 3341SOL    HW121482   3.060   1.685  17.225 -0.0645 -0.8353 -1.1621
 3341SOL    HW221483   3.176   1.753  17.140  0.8010  0.5078  2.3693
 3342SOL     OW21484   3.915   3.043   5.380  0.1143 -0.6582 -0.0275
 3342SOL    HW121485   3.840   3.079   5.333 -1.3868 -0.8539  2.2238
 3342SOL    HW221486   3.975   3.109   5.345 -0.8814  0.3552  0.2005
 3343SOL     OW21487   3.715   0.307   4.381 -0.8960  0.3096 -0.3435
 3343SOL    HW121488   3.786   0.371   4.380 -0.4666 -0.1490  0.8618
 3343SOL    HW221489   3.659   0.356   4.441 -0.8001 -2.4428  1.9642
 3344SOL     OW21490   0.848   1.047   8.237 -0.1686  0.0722 -0.3928
 3344SOL    HW121491   0.809   0.990   8.171 -0.7424 -0.6907  0.5893
 3344SOL    HW221492   0.925   0.998   8.266 -0.3567  0.7273  1.2320
 3345SOL     OW21493   4.704   3.952   7.174  0.9081  0.0708  0.3326
 3345SOL    HW121494   4.693   3.887   7.104  2.7248  0.8611 -0.6961
 3345SOL    HW221495   4.659   4.025   7.133 -0.5559 -0.7888  0.4193
 3346SOL     OW21496   1.099   2.988  15.445 -0.1971  0.3928  0.1377
 3346SOL    HW121497   1.065   3.071  15.412 -2.6433 -1.7840 -2.8091
 3346SOL    HW221498   1.124   3.020  15.532  0.0450  1.5564 -0.3629
 3347SOL     OW21499   0.952   0.089   6.324  0.4871 -0.3556 -0.2161
 3347SOL    HW121500   0.982   0.123   6.408 -1.4695 -0.6118  0.5846
 3347SOL    HW221501   0.859   0.074   6.339  0.7696 -1.3073  0.5905
 3348SOL     OW21502   0.427   0.823   8.586 -0.3556 -0.1548 -0.1269
 3348SOL    HW121503   0.389   0.750   8.635 -1.9101  1.9500  1.8244
 3348SOL    HW221504   0.520   0.802   8.586 -0.5901 -1.2603  2.8071
 3349SOL     OW21505   2.068   1.018  15.157  0.1764  0.0515  0.5015
 3349SOL    HW121506   2.154   0.976  15.168 -0.1470 -0.5467  0.7577
 3349SOL    HW221507   2.015   0.971  15.222 -1.8653 -2.2347 -2.8165
 3350SOL     OW21508   4.546   0.983   9.393  0.1486  0.0442 -0.2268
 3350SOL    HW121509   4.594   1.058   9.429 -2.0136  1.3123 -0.0224
 3350SOL    HW221510   4.492   0.941   9.460 -0.1741 -0.4145 -0.7728
 3351SOL     OW21511   2.804   1.100   3.692  0.3303  0.3469 -0.5122
 3351SOL    HW121512   2.882   1.056   3.658  1.1909  0.8655  0.7972
 3351SOL    HW221513   2.833   1.191   3.681  0.0601  0.7690  2.2169
 3352SOL     OW21514   3.185   1.078   5.307  0.1054  0.1171 -0.0814
 3352SOL    HW121515   3.116   1.096   5.243  0.8533  1.2238 -0.5755
 3352SOL    HW221516   3.168   1.136   5.381  1.9231  0.4904  0.0520
 3353SOL     OW21517   1.971   4.422   7.226  0.0345  0.0356 -0.3660
 3353SOL    HW121518   1.903   4.489   7.232  0.1702  0.1831 -0.4961
 3353SOL    HW221519   1.916   4.343   7.220  0.4371 -0.3639  1.1205
 3354SOL     OW21520   2.674   0.414   8.705  0.6770 -0.4114 -0.3378
 3354SOL    HW121521   2.755   0.407   8.757  2.5807  1.0836 -3.1076
 3354SOL    HW221522   2.604   0.421   8.770  1.2417  1.5829  0.0707
 3355SOL     OW21523   0.241   2.772   5.341  0.1269 -0.4719 -0.3895
 3355SOL    HW121524   0.183   2.714   5.291 -0.3091  0.5589 -1.0926
 3355SOL    HW221525   0.332   2.745   5.327  0.3259 -0.2714  0.5315
 3356SOL     OW21526   0.176   3.783  12.065 -0.3390  0.9095 -0.2519
 3356SOL    HW121527   0.269   3.773  12.088 -0.3877 -0.6434 -0.7149
 3356SOL    HW221528   0.165   3.878  12.065  1.8928  1.1710 -0.5818
 3357SOL     OW21529   3.936   4.416  12.604  0.0665 -0.1846 -0.7043
 3357SOL    HW121530   4.005   4.349  12.600  2.8208  2.7870 -2.5839
 3357SOL    HW221531   3.986   4.494  12.627 -0.5035  0.7835 -2.7592
 3358SOL     OW21532   4.392   2.634  16.246  0.5601 -0.6782 -0.3073
 3358SOL    HW121533   4.325   2.566  16.260 -2.0756  2.2442  1.4577
 3358SOL    HW221534   4.475   2.601  16.281  0.6026  0.8192  0.9976
 3359SOL     OW21535   4.342   1.419   9.188  0.5554  0.1537  0.1106
 3359SOL    HW121536   4.345   1.513   9.173 -0.4873 -0.1578 -1.9898
 3359SOL    HW221537   4.318   1.411   9.281  1.1895 -3.4804 -0.0425
 3360SOL     OW21538   1.447   0.280   6.174  0.4506 -0.1623 -0.0343
 3360SOL    HW121539   1.443   0.337   6.251 -0.7183  0.2963 -0.4279
 3360SOL    HW221540   1.537   0.295   6.145  0.4243  1.1225  0.5273
 3361SOL     OW21541   1.775   2.694   7.723 -0.2312 -0.0698 -0.2704
 3361SOL    HW121542   1.869   2.685   7.737  0.1207  2.7880 -0.6438
 3361SOL    HW221543   1.765   2.624   7.659 -0.3367 -0.3548  0.0599
 3362SOL     OW21544   0.218   3.458   7.415  0.1228 -0.4288 -0.2300
 3362SOL    HW121545   0.223   3.535   7.471 -0.2650  0.4652 -1.4154
 3362SOL    HW221546   0.127   3.442   7.388  0.2608  1.0952 -1.5727
 3363SOL     OW21547   3.211   0.957   8.931 -0.0621  0.4281  0.1633
 3363SOL    HW121548   3.287   0.998   8.888  0.8440 -0.3545  1.0188
 3363SOL    HW221549   3.170   1.034   8.969  1.6073 -0.9135  4.6192
 3364SOL     OW21550   4.070   1.931   6.873 -0.0133  0.1435  0.0188
 3364SOL    HW121551   4.069   1.838   6.851  0.1768  0.3311 -0.7664
 3364SOL    HW221552   4.091   1.958   6.784 -2.5127 -2.2943 -1.3271
 3365SOL     OW21553   2.647   4.323   7.957  0.4928 -0.3603  0.2395
 3365SOL    HW121554   2.712   4.282   8.015 -0.7636 -0.0272  1.8991
 3365SOL    HW221555   2.648   4.410   7.996  0.0381 -0.1456 -0.2448
 3366SOL     OW21556   0.280   0.545  15.437  0.0816  0.7168 -0.1501
 3366SOL    HW121557   0.217   0.559  15.507  0.5271 -1.4651  0.7035
 3366SOL    HW221558   0.250   0.612  15.376 -0.1450  0.2209 -0.5899
 3367SOL     OW21559   4.583   0.350   2.063  0.4534  0.1996 -0.0256
 3367SOL    HW121560   4.496   0.325   2.093  0.7571 -0.7648  0.0823
 3367SOL    HW221561   4.570   0.344   1.968 -0.8275  0.0181  0.1649
 3368SOL     OW21562   3.265   2.944   6.899 -0.4606  0.1248 -0.2678
 3368SOL    HW121563   3.289   2.982   6.815 -2.0162  2.8304  0.5050
 3368SOL    HW221564   3.178   2.911   6.877  0.1196 -1.5478 -0.0694
 3369SOL     OW21565   1.369   2.302   3.886  0.0571 -0.2992 -0.2987
 3369SOL    HW121566   1.282   2.293   3.847  0.0347 -2.1621  0.1869
 3369SOL    HW221567   1.423   2.303   3.806  0.1345  1.7790 -0.2066
 3370SOL     OW21568   3.994   3.310  14.618  0.5822  0.1917 -0.6299
 3370SOL    HW121569   3.902   3.319  14.643  0.5278 -1.9940 -0.0592
 3370SOL    HW221570   4.029   3.366  14.688 -0.3456 -2.5069  1.9984
 3371SOL     OW21571   3.507   2.308   3.735  0.5126 -0.0404  0.0006
 3371SOL    HW121572   3.507   2.313   3.639 -0.4502  0.9271  0.0519
 3371SOL    HW221573   3.498   2.214   3.750  2.7545  0.0738  2.0398
 3372SOL     OW21574   1.994   3.006   2.598  0.2350 -0.2300  0.5228
 3372SOL    HW121575   1.992   2.920   2.555  0.8084 -0.0784  0.1855
 3372SOL    HW221576   2.080   3.039   2.572 -1.5708  1.1044 -3.8646
 3373SOL     OW21577   0.542   2.823   5.252 -0.2737 -0.2499  0.6857
 3373SOL    HW121578   0.538   2.735   5.215  0.8610  0.3809 -0.9790
 3373SOL    HW221579   0.623   2.806   5.300 -0.9237 -0.8514  1.5595
 3374SOL     OW21580   2.090   1.036   7.983  0.0260 -0.0113  0.2715
 3374SOL    HW121581   2.131   0.950   7.984 -0.5074 -0.2996 -2.0124
 3374SOL    HW221582   2.160   1.089   7.945  0.9950 -1.8253 -0.4565
 3375SOL     OW21583   0.463   3.966   9.231  0.5004  0.0685  0.0619
 3375SOL    HW121584   0.480   3.921   9.314  0.8949  0.6631  0.3062
 3375SOL    HW221585   0.535   4.029   9.234 -0.2855  0.8659  1.8182
 3376SOL     OW21586   4.242   0.315  11.352  0.0259 -0.6744 -0.4619
 3376SOL    HW121587   4.252   0.239  11.409 -0.6965 -1.5086 -1.4708
 3376SOL    HW221588   4.301   0.303  11.278  0.9706  1.5859 -0.0920
 3377SOL     OW21589   4.387   0.113  15.416 -0.1609  0.4327 -0.1935
 3377SOL    HW121590   4.403   0.116  15.511 -1.0391  1.9335 -0.0905
 3377SOL    HW221591   4.393   0.018  15.408  2.6860  0.7118 -1.1603
 3378SOL     OW21592   2.194   0.106   4.774 -0.0618  0.0228 -0.2647
 3378SOL    HW121593   2.239   0.128   4.856  0.3019 -3.2080  0.3858
 3378SOL    HW221594   2.272   0.095   4.719 -0.4939 -0.3705 -0.8019
 3379SOL     OW21595   0.055   1.661   4.149 -0.3614 -0.5065 -0.0815
 3379SOL    HW121596   0.009   1.592   4.102 -3.3694 -0.2995  2.5749
 3379SOL    HW221597   0.041   1.726   4.080  0.8075  0.1772  0.3194
 3380SOL     OW21598   4.285   3.843  12.391 -0.3760 -0.4118  0.8064
 3380SOL    HW121599   4.380   3.835  12.389 -0.2828  1.2207 -1.3144
 3380SOL    HW221600   4.279   3.812  12.482 -0.9669 -0.7620  0.6508
 3381SOL     OW21601   4.329   4.590   6.385  0.1911  0.0398  0.2065
 3381SOL    HW121602   4.387   4.642   6.329  0.5160 -0.7104 -0.1620
 3381SOL    HW221603   4.356   4.502   6.358 -2.2733 -1.0301  1.3028
 3382SOL     OW21604   2.292   2.920  12.863  0.3135  0.3260 -0.4569
 3382SOL    HW121605   2.297   2.991  12.799 -0.0112 -0.9648 -1.9011
 3382SOL    HW221606   2.386   2.920  12.878  0.6037 -0.5566 -2.2519
 3383SOL     OW21607   2.789   0.644   1.538  0.1118  0.0325 -0.4209
 3383SOL    HW121608   2.873   0.645   1.492  1.3666 -0.6132  1.8383
 3383SOL    HW221609   2.817   0.685   1.621 -1.0098  1.0517 -0.5476
 3384SOL     OW21610   3.596   2.069   6.403  0.4616  0.2951  0.2749
 3384SOL    HW121611   3.596   2.158   6.438  0.0450 -1.1959  4.0459
 3384SOL    HW221612   3.529   2.023   6.455 -0.1953  0.8526 -0.0748
 3385SOL     OW21613   0.367   1.475   5.959 -0.0556  0.6282 -0.2794
 3385SOL    HW121614   0.314   1.510   5.888 -1.4699  0.1949  0.5707
 3385SOL    HW221615   0.313   1.407   5.999  0.6776  0.4276  0.3729
 3386SOL     OW21616   0.975   3.190  15.340 -0.1265 -0.0526  0.1806
 3386SOL    HW121617   0.893   3.214  15.297  0.5207  1.0910 -0.3982
 3386SOL    HW221618   0.997   3.277  15.372  0.9051 -0.5214  0.7576
 3387SOL     OW21619   1.850   2.079   8.985  0.6502 -0.2790  0.2537
 3387SOL    HW121620   1.820   2.078   8.895 -2.9235  1.7425  1.4077
 3387SOL    HW221621   1.770   2.038   9.019 -0.9227  0.1267 -3.0364
 3388SOL     OW21622   3.176   1.634   9.647  0.1031 -0.1188  0.5248
 3388SOL    HW121623   3.196   1.679   9.565  0.8095  2.7435  2.2628
 3388SOL    HW221624   3.167   1.542   9.623  0.4945 -0.8222  3.0376
 3389SOL     OW21625   4.136   0.987   6.912  0.2220  0.0783  0.2427
 3389SOL    HW121626   4.222   0.948   6.895  0.0115 -0.6985  0.9695
 3389SOL    HW221627   4.076   0.912   6.911  2.2943 -1.5611 -1.2115
 3390SOL     OW21628   3.312   4.525   4.887  0.2061 -0.4324 -0.0771
 3390SOL    HW121629   3.372   4.464   4.844 -0.9578 -1.3660 -0.3754
 3390SOL    HW221630   3.230   4.476   4.883 -0.6748  1.1992 -1.7337
 3391SOL     OW21631   3.721   3.424   7.653 -0.0377 -0.1902  0.5723
 3391SOL    HW121632   3.635   3.441   7.614 -0.1708 -2.2199  0.0129
 3391SOL    HW221633   3.769   3.505   7.634 -1.2080  0.5645  0.8584
 3392SOL     OW21634   2.821   3.899  14.392 -0.2296 -0.3887  0.1169
 3392SOL    HW121635   2.894   3.960  14.377  0.5988 -1.0622  1.5026
 3392SOL    HW221636   2.803   3.925  14.482  0.2024 -1.2236  0.4357
 3393SOL     OW21637   2.952   3.875   1.303 -0.1105 -0.0812 -0.0066
 3393SOL    HW121638   3.045   3.899   1.307  0.6481 -2.8193 -0.7729
 3393SOL    HW221639   2.919   3.932   1.233 -1.7304 -0.5428  0.3836
 3394SOL     OW21640   2.674   2.336   4.227 -0.0466  0.1407  0.8259
 3394SOL    HW121641   2.719   2.256   4.202 -3.3686 -1.1838 -1.0630
 3394SOL    HW221642   2.673   2.316   4.320 -0.6170  0.4636  0.8882
 3395SOL     OW21643   3.834   0.367   2.607 -0.5330  0.1302 -0.1277
 3395SOL    HW121644   3.914   0.419   2.599 -0.2238 -0.5668 -1.5697
 3395SOL    HW221645   3.825   0.335   2.517 -1.9610  1.7682 -0.5683
 3396SOL     OW21646   4.390   3.422   4.906 -0.5432  0.4669 -0.3635
 3396SOL    HW121647   4.403   3.327   4.914  1.4290  0.8437  1.0020
 3396SOL    HW221648   4.369   3.427   4.813 -0.8279  1.7387 -0.2300
 3397SOL     OW21649   0.879   0.273   8.774 -0.2560  0.1515  0.0819
 3397SOL    HW121650   0.912   0.293   8.686 -2.0112  0.7370 -0.4465
 3397SOL    HW221651   0.788   0.299   8.760 -1.2926 -3.1021  0.6229
 3398SOL     OW21652   2.409   2.402   9.708 -0.0066 -0.1746 -0.4321
 3398SOL    HW121653   2.353   2.327   9.727  0.9693 -0.8098 -0.0585
 3398SOL    HW221654   2.485   2.381   9.764  1.2105  2.5453 -1.0678
 3399SOL     OW21655   4.140   2.323  12.239 -0.3517 -0.0064 -0.4463
 3399SOL    HW121656   4.150   2.275  12.157  0.4646 -0.0019 -0.3454
 3399SOL    HW221657   4.063   2.281  12.279 -1.3906  2.6216  0.2743
 3400SOL     OW21658   1.142   2.416   0.925 -0.2923  0.3367  0.0218
 3400SOL    HW121659   1.165   2.420   1.017  1.3471 -1.3912 -0.3212
 3400SOL    HW221660   1.214   2.465   0.884  0.8692 -0.9463  0.5386
 3401SOL     OW21661   3.953   0.114   6.387 -0.2827 -0.0202  0.9251
 3401SOL    HW121662   3.923   0.161   6.465  1.9035 -1.1401  2.4242
 3401SOL    HW221663   3.936   0.190   6.330 -0.0428  0.8152  1.9636
 3402SOL     OW21664   3.314   1.644   2.398 -0.0437  0.5785  0.6646
 3402SOL    HW121665   3.289   1.587   2.325  1.1206  0.6256  0.2241
 3402SOL    HW221666   3.231   1.691   2.409 -0.3155  0.0398  0.8740
 3403SOL     OW21667   4.144   4.593   9.538 -0.1715  0.2826  0.2770
 3403SOL    HW121668   4.085   4.655   9.581  0.0228 -0.0478  1.0065
 3403SOL    HW221669   4.181   4.660   9.480 -2.1324  1.1624  0.0409
 3404SOL     OW21670   3.991   3.991   7.024 -0.2893  0.1909 -0.2797
 3404SOL    HW121671   4.042   3.932   6.969  0.7539  0.8283  0.0024
 3404SOL    HW221672   4.010   3.958   7.113  0.0226 -0.4332 -0.5760
 3405SOL     OW21673   1.857   2.044   3.166  0.2088 -0.0792  0.6089
 3405SOL    HW121674   1.864   2.102   3.091 -0.6210 -1.0914 -0.2574
 3405SOL    HW221675   1.883   2.111   3.229  2.2766 -0.9545  0.6851
 3406SOL     OW21676   2.792   1.103   8.987 -0.6924 -0.2775 -0.4195
 3406SOL    HW121677   2.829   1.141   9.067 -1.3525 -1.1399  0.2944
 3406SOL    HW221678   2.851   1.128   8.916 -0.6927  0.3867 -0.1881
 3407SOL     OW21679   2.617   4.084   7.783 -0.3647 -0.0156  0.6669
 3407SOL    HW121680   2.565   4.138   7.844 -1.5326  0.9775 -1.2205
 3407SOL    HW221681   2.589   4.109   7.695  2.2602 -1.1411 -0.4815
 3408SOL     OW21682   3.562   2.403   8.917  0.4166  0.1405 -0.3093
 3408SOL    HW121683   3.572   2.415   8.823  1.0612 -0.3518 -0.3062
 3408SOL    HW221684   3.648   2.425   8.955 -0.2726  2.2121  0.0395
 3409SOL     OW21685   2.732   3.313   9.581 -0.0631  0.3951  0.0603
 3409SOL    HW121686   2.791   3.389   9.581  0.0792  0.2841  0.1425
 3409SOL    HW221687   2.781   3.253   9.637  0.7132 -0.2816 -1.3374
 3410SOL     OW21688   1.518   4.181   5.988 -0.5852 -0.1706 -0.0167
 3410SOL    HW121689   1.521   4.276   5.997  1.1428 -0.3312  1.0519
 3410SOL    HW221690   1.435   4.165   5.944  0.3106 -1.6926 -1.1729
 3411SOL     OW21691   2.742   0.760   3.777  0.5216  0.4381  0.3613
 3411SOL    HW121692   2.818   0.818   3.787  0.8480 -0.1176  1.0819
 3411SOL    HW221693   2.780   0.682   3.738 -0.0669  0.4923 -0.3249
 3412SOL     OW21694   3.227   1.841   6.218 -0.0472 -0.1783  0.7721
 3412SOL    HW121695   3.268   1.899   6.283 -0.1477 -1.7386  2.2091
 3412SOL    HW221696   3.289   1.855   6.146  1.8463 -1.4304  2.1678
 3413SOL     OW21697   3.153   1.742   2.739  0.2091  0.4048  0.7205
 3413SOL    HW121698   3.071   1.696   2.758  1.3818 -2.3614 -0.9428
 3413SOL    HW221699   3.208   1.666   2.720 -1.8380 -1.0936  0.7971
 3414SOL     OW21700   2.070   2.691   3.547 -0.5949  0.2371 -0.3737
 3414SOL    HW121701   2.164   2.698   3.567 -0.5780 -1.5242  0.1068
 3414SOL    HW221702   2.031   2.690   3.634 -0.9469 -0.9890 -0.5522
 3415SOL     OW21703   0.135   1.506   7.247 -0.3563  0.4203 -0.0929
 3415SOL    HW121704   0.195   1.447   7.294 -0.3441 -1.8917 -3.0442
 3415SOL    HW221705   0.067   1.505   7.314 -0.9816  0.8641 -0.7222
 3416SOL     OW21706   4.680   3.731   1.487  0.0886 -0.3658  0.0822
 3416SOL    HW121707   4.649   3.665   1.550  1.5228 -1.3328 -0.2142
 3416SOL    HW221708   0.050   3.726   1.510  0.3448 -0.7891 -1.0170
 3417SOL     OW21709   1.765   1.308   5.352 -1.1398 -0.1758 -0.0637
 3417SOL    HW121710   1.687   1.254   5.363 -0.2211 -1.6682 -0.8317
 3417SOL    HW221711   1.742   1.381   5.409  0.8988 -0.3458  0.9686
 3418SOL     OW21712   3.345   0.174  13.108  0.1035 -0.0028  0.0614
 3418SOL    HW121713   3.420   0.221  13.146 -0.9807  0.5720  1.5258
 3418SOL    HW221714   3.328   0.239  13.040  4.2208  1.1999  0.1489
 3419SOL     OW21715   1.549   2.279   3.246 -0.2111  0.1923  0.1559
 3419SOL    HW121716   1.510   2.358   3.208 -2.1981 -0.9159 -0.1172
 3419SOL    HW221717   1.641   2.293   3.222 -0.7760  1.1800 -1.4819
 3420SOL     OW21718   4.540   2.557   9.677  0.4526 -0.1443 -0.7392
 3420SOL    HW121719   4.583   2.581   9.759  1.4482 -1.3499 -0.9056
 3420SOL    HW221720   4.607   2.496   9.646  1.6317  0.2497  1.0289
 3421SOL     OW21721   4.012   1.159   6.263 -0.7316 -0.0421 -0.0819
 3421SOL    HW121722   4.003   1.145   6.169 -1.9692 -2.1271  0.3411
 3421SOL    HW221723   4.099   1.196   6.278 -1.9097  2.2835  0.9129
 3422SOL     OW21724   1.079   0.102   8.417  0.2388 -0.3154 -0.4805
 3422SOL    HW121725   1.096   0.112   8.511  0.8551  2.6697 -0.9263
 3422SOL    HW221726   1.048   0.012   8.405  0.6987 -0.6654  0.9784
 3423SOL     OW21727   0.433   0.896  14.326 -0.4857  0.3392 -0.0145
 3423SOL    HW121728   0.402   0.932  14.409  1.2631  0.8791  0.3959
 3423SOL    HW221729   0.367   0.934  14.267  1.5770  1.7028 -1.4239
 3424SOL     OW21730   0.581   4.100   6.214 -0.4549  0.2923 -0.1057
 3424SOL    HW121731   0.619   4.044   6.146  0.4908 -0.0610  0.7155
 3424SOL    HW221732   0.634   4.177   6.194  1.4051 -1.1362 -0.7406
 3425SOL     OW21733   4.351   1.462   3.692  0.1971 -0.0803 -0.0087
 3425SOL    HW121734   4.353   1.483   3.786 -3.7570 -0.5248  0.1642
 3425SOL    HW221735   4.264   1.491   3.665 -0.3631 -0.0072  1.8586
 3426SOL     OW21736   1.415   1.533   5.369 -0.8367  0.4527  0.2498
 3426SOL    HW121737   1.491   1.529   5.427 -1.1000 -1.1767  0.4704
 3426SOL    HW221738   1.444   1.607   5.314 -0.2278  0.2361  0.2780
 3427SOL     OW21739   3.384   4.579  15.021  0.0822  0.3723 -0.3456
 3427SOL    HW121740   3.407   4.638  14.949 -1.2294 -0.3966 -1.3918
 3427SOL    HW221741   3.440   4.616  15.089  0.4225 -0.9200  0.0814
 3428SOL     OW21742   2.714   0.798   8.602 -0.0536 -0.2978 -0.2284
 3428SOL    HW121743   2.781   0.818   8.537 -0.6289  0.5090 -0.5730
 3428SOL    HW221744   2.750   0.830   8.684  0.3408  0.1891 -0.5942
 3429SOL     OW21745   2.154   0.652  15.330  0.0205  0.2577  0.2837
 3429SOL    HW121746   2.178   0.728  15.277  1.6194 -0.2582  0.2640
 3429SOL    HW221747   2.058   0.659  15.331 -0.0866 -1.1620  0.3720
 3430SOL     OW21748   4.008   1.769   7.577 -0.0194 -0.0785  0.2139
 3430SOL    HW121749   4.008   1.677   7.552 -0.9465 -0.4840  1.7073
 3430SOL    HW221750   3.945   1.773   7.649  0.3849  0.4883  0.5415
 3431SOL     OW21751   4.487   0.492   1.121  0.4962  0.1310  0.2462
 3431SOL    HW121752   4.413   0.436   1.097  1.2828 -1.8543  2.3927
 3431SOL    HW221753   4.446   0.567   1.163  1.8076  0.6693  0.5617
 3432SOL     OW21754   2.187   4.175  17.439 -0.4217 -0.0979 -0.1346
 3432SOL    HW121755   2.274   4.147  17.467 -0.4463  0.6513  0.6915
 3432SOL    HW221756   2.186   4.162  17.345 -0.8696 -0.7420 -0.0433
 3433SOL     OW21757   1.733   2.461  15.544 -0.4844 -0.7894  0.1073
 3433SOL    HW121758   1.714   2.448  15.451  2.8978  1.1149 -0.8336
 3433SOL    HW221759   1.716   2.555  15.556 -1.8133 -1.1182  0.8624
 3434SOL     OW21760   2.113   3.601  12.458  0.0755 -0.2471  0.3752
 3434SOL    HW121761   2.194   3.645  12.431  0.6282 -1.5484 -0.1303
 3434SOL    HW221762   2.095   3.548  12.379  2.2459  0.7339 -0.7991
 3435SOL     OW21763   1.608   0.346   2.608 -0.2735  0.0051 -0.1050
 3435SOL    HW121764   1.603   0.252   2.628  0.0560  0.4638  2.1694
 3435SOL    HW221765   1.597   0.354   2.513  0.0341 -1.6660 -0.2843
 3436SOL     OW21766   4.590   4.020   5.939 -0.2379  0.1277  0.0365
 3436SOL    HW121767   4.684   4.019   5.921 -0.2619  0.1743 -0.0938
 3436SOL    HW221768   4.552   4.062   5.861 -0.6459  0.2295  0.2913
 3437SOL     OW21769   2.690   2.397   5.495  0.0457 -0.2324 -0.2852
 3437SOL    HW121770   2.649   2.458   5.556 -1.0840 -1.0306 -0.2616
 3437SOL    HW221771   2.742   2.460   5.446  0.4219 -1.6828 -1.7429
 3438SOL     OW21772   0.947   0.079   9.993 -0.0749 -0.3487 -0.3792
 3438SOL    HW121773   0.881   0.050   9.930  2.4979 -2.9268 -1.8707
 3438SOL    HW221774   1.029   0.054   9.951 -0.4687 -1.5434 -0.4414
 3439SOL     OW21775   1.862   0.537   0.106  0.4686 -0.0864 -0.2659
 3439SOL    HW121776   1.817   0.456   0.128  1.3187 -0.4789  0.0566
 3439SOL    HW221777   1.933   0.492   0.059 -1.0008 -0.0348 -2.4862
 3440SOL     OW21778   3.561   3.526  11.006 -0.3399 -0.5197 -0.0517
 3440SOL    HW121779   3.480   3.572  11.027  0.3037  0.0478  1.1766
 3440SOL    HW221780   3.527   3.442  10.973 -1.5340 -0.3334  0.6748
 3441SOL     OW21781   4.029   2.696   7.219 -0.2061  0.6780 -0.1604
 3441SOL    HW121782   4.041   2.717   7.312  0.5045  1.2515 -0.3877
 3441SOL    HW221783   3.941   2.730   7.201  0.2831  0.2826 -3.2073
 3442SOL     OW21784   2.949   0.245   5.035 -0.6362 -0.6024 -0.0034
 3442SOL    HW121785   2.863   0.217   5.004  0.0431 -1.7759 -0.8834
 3442SOL    HW221786   2.946   0.220   5.127 -1.7543  0.4354  0.2312
 3443SOL     OW21787   0.081   1.507  15.996  0.0091  0.5391  0.0699
 3443SOL    HW121788   0.058   1.594  15.964  1.0546  0.6398 -0.3890
 3443SOL    HW221789   0.017   1.499  16.067 -1.1623 -0.8421 -1.1286
 3444SOL     OW21790   4.512   2.027   9.174 -0.0389  0.3036  0.7394
 3444SOL    HW121791   4.431   2.072   9.150  0.6332  1.3931  0.5314
 3444SOL    HW221792   4.573   2.099   9.187  0.4615  0.3035 -1.7094
 3445SOL     OW21793   3.896   4.381   3.889 -0.2816  0.3867  0.4352
 3445SOL    HW121794   3.830   4.422   3.833 -0.4339  2.5959  2.2535
 3445SOL    HW221795   3.955   4.344   3.823 -0.5377 -2.7742  2.0049
 3446SOL     OW21796   4.165   4.496   4.061  0.0723  0.2079 -0.0588
 3446SOL    HW121797   4.240   4.438   4.068  0.7829  0.7812 -3.3292
 3446SOL    HW221798   4.209   4.557   4.002 -0.1236 -2.0997 -2.5442
 3447SOL     OW21799   3.753   2.441  11.374 -0.1206 -0.1620 -0.6560
 3447SOL    HW121800   3.667   2.440  11.333 -0.6770  0.7870  0.4869
 3447SOL    HW221801   3.779   2.534  11.377  0.4478 -0.2645 -2.1558
 3448SOL     OW21802   4.692   1.758   6.131 -0.8460 -0.3129  0.2313
 3448SOL    HW121803   4.679   1.689   6.067  2.4839 -1.2447  0.5663
 3448SOL    HW221804   0.064   1.760   6.127 -0.8783 -2.6340 -1.6628
 3449SOL     OW21805   1.806   2.714  15.762 -0.2623  0.0970  0.0381
 3449SOL    HW121806   1.856   2.672  15.693 -1.8094  0.4243 -1.2808
 3449SOL    HW221807   1.741   2.748  15.700 -0.2830  0.3231  0.1823
 3450SOL     OW21808   2.866   1.635  13.000 -0.1357 -0.1929  0.0514
 3450SOL    HW121809   2.779   1.647  12.962  0.4650 -0.9057 -1.5801
 3450SOL    HW221810   2.860   1.712  13.056  1.2769  0.6115 -0.9034
 3451SOL     OW21811   3.544   1.340   8.307 -0.7913  0.1797 -0.3778
 3451SOL    HW121812   3.490   1.269   8.343  0.4154 -0.2463  0.6012
 3451SOL    HW221813   3.538   1.395   8.386  0.1136 -1.9957  1.2195
 3452SOL     OW21814   4.166   3.519   6.756  0.2230  0.3692 -0.0357
 3452SOL    HW121815   4.087   3.573   6.768 -0.2484 -0.3608  0.1055
 3452SOL    HW221816   4.128   3.434   6.777  0.8661  0.7467  2.6572
 3453SOL     OW21817   2.755   1.854  16.008 -0.1283  0.5075  0.2225
 3453SOL    HW121818   2.717   1.799  15.940 -0.3679 -0.0311  0.7879
 3453SOL    HW221819   2.849   1.838  16.000  0.0000  2.3897 -1.9662
 3454SOL     OW21820   0.494   3.623  15.333 -0.4681 -0.0224 -0.4936
 3454SOL    HW121821   0.471   3.653  15.421  0.5276 -0.4821 -0.0772
 3454SOL    HW221822   0.521   3.706  15.294  1.4959 -0.2870  0.3347
 3455SOL     OW21823   0.622   1.967  16.902  0.1086  0.4922  0.3118
 3455SOL    HW121824   0.662   1.979  16.816 -0.5047  0.6362  0.0494
 3455SOL    HW221825   0.637   2.052  16.943  2.1060  0.9688 -1.4034
 3456SOL     OW21826   1.773   2.114   9.865  0.5789 -0.1692  0.6856
 3456SOL    HW121827   1.744   2.195   9.908 -0.8326 -0.8894  1.0497
 3456SOL    HW221828   1.858   2.149   9.836  0.9535 -1.9446 -0.3141
 3457SOL     OW21829   1.428   3.852   7.728  0.4326  0.2403 -0.0660
 3457SOL    HW121830   1.381   3.795   7.789  1.3011 -0.1699  0.2229
 3457SOL    HW221831   1.514   3.813   7.742  0.5039  0.5949  0.5094
 3458SOL     OW21832   2.306   3.783   3.875  1.2541  0.0058 -0.0275
 3458SOL    HW121833   2.288   3.704   3.824 -0.8402  0.8767 -0.6535
 3458SOL    HW221834   2.243   3.773   3.946 -1.6292 -0.6283 -2.6856
 3459SOL     OW21835   1.759   1.106   7.932 -1.0282  0.0234  0.3893
 3459SOL    HW121836   1.755   1.192   7.973 -1.9107  1.1935 -2.1085
 3459SOL    HW221837   1.833   1.068   7.979 -0.1416  0.0232 -0.9986
 3460SOL     OW21838   0.692   0.499   7.354 -0.0827 -0.1527 -0.3140
 3460SOL    HW121839   0.636   0.537   7.287 -0.7237 -2.7103 -1.2050
 3460SOL    HW221840   0.660   0.546   7.431 -0.3050  0.6976 -0.9197
 3461SOL     OW21841   1.572   3.988  11.747  0.0233 -0.5618  0.0518
 3461SOL    HW121842   1.612   3.959  11.829  0.3489 -0.3406 -0.0309
 3461SOL    HW221843   1.504   3.920  11.739 -0.5260 -0.0864  0.6700
 3462SOL     OW21844   2.818   3.270  11.742  0.6492 -0.7626 -0.5158
 3462SOL    HW121845   2.812   3.199  11.806  2.9848  0.1537  0.7176
 3462SOL    HW221846   2.731   3.299  11.770  1.4508  0.9746  0.1721
 3463SOL     OW21847   2.646   0.162  17.453 -0.4868 -0.0045 -0.0803
 3463SOL    HW121848   2.693   0.219  17.514 -0.6831 -1.1161  1.1188
 3463SOL    HW221849   2.595   0.117  17.521 -0.4230 -1.6701 -1.1588
 3464SOL     OW21850   0.704   2.775   8.555  0.1653  0.1164  0.3604
 3464SOL    HW121851   0.674   2.841   8.618  0.8355 -0.4055  1.2417
 3464SOL    HW221852   0.796   2.801   8.550 -0.0398  0.3750 -1.6955
 3465SOL     OW21853   0.089   1.898  13.421 -0.0709  0.5055 -0.2050
 3465SOL    HW121854   0.024   1.869  13.356  0.1982 -2.5462  0.8892
 3465SOL    HW221855   0.040   1.920  13.500 -0.1466  0.4952 -0.2494
 3466SOL     OW21856   3.320   2.567   7.866 -0.3813 -0.3958 -0.3451
 3466SOL    HW121857   3.271   2.589   7.945  2.7908 -2.9830  2.3786
 3466SOL    HW221858   3.390   2.509   7.897  0.4912  1.1240  0.5288
 3467SOL     OW21859   2.398   1.000   5.448  0.0072  0.3203 -0.0903
 3467SOL    HW121860   2.464   1.035   5.508 -1.8310  1.2146  1.4252
 3467SOL    HW221861   2.327   1.001   5.513  0.1022  0.6221  0.0131
 3468SOL     OW21862   1.245   2.944  13.188 -0.5487  0.0785  0.7889
 3468SOL    HW121863   1.152   2.966  13.194 -0.6041 -0.0918  0.5920
 3468SOL    HW221864   1.244   2.905  13.100  1.6308  1.3105  0.2297
 3469SOL     OW21865   3.484   0.389   2.348  0.0640 -0.4294 -0.2609
 3469SOL    HW121866   3.411   0.426   2.397  0.8006  0.3124  0.2914
 3469SOL    HW221867   3.556   0.450   2.366 -1.8729  1.2247  1.9301
 3470SOL     OW21868   2.018   2.657  16.611  0.6123 -0.3913  0.0147
 3470SOL    HW121869   2.034   2.603  16.689 -0.8235  0.6981  1.0543
 3470SOL    HW221870   2.032   2.745  16.648 -0.5853 -0.8630  1.5871
 3471SOL     OW21871   1.811   3.048   2.842  0.4001 -0.1377  0.0453
 3471SOL    HW121872   1.877   3.020   2.905 -0.0668 -1.9924 -0.2785
 3471SOL    HW221873   1.857   3.057   2.758 -0.3571 -4.2563 -0.8133
 3472SOL     OW21874   1.075   2.214  14.848 -0.3607 -0.0645  0.2408
 3472SOL    HW121875   1.058   2.270  14.772  1.0516 -0.6799 -0.5341
 3472SOL    HW221876   1.059   2.128  14.810 -1.1547  1.2098 -2.3393
 3473SOL     OW21877   0.283   2.165   1.559  0.3211 -0.3023  0.3274
 3473SOL    HW121878   0.284   2.134   1.469 -0.3628  2.1704 -0.5304
 3473SOL    HW221879   0.241   2.251   1.548 -1.1021 -1.2402 -1.4785
 3474SOL     OW21880   1.212   4.676   4.140 -0.3197  0.4824 -0.5936
 3474SOL    HW121881   1.242   0.025   4.084 -0.5599 -0.3400 -1.7820
 3474SOL    HW221882   1.201   4.602   4.080 -5.3863  1.6694 -1.1559
 3475SOL     OW21883   1.492   4.439   8.322 -0.0041  0.4128  0.2752
 3475SOL    HW121884   1.521   4.530   8.326  1.1110  0.0089  1.2414
 3475SOL    HW221885   1.541   4.404   8.247 -1.0419  2.0991 -1.1992
 3476SOL     OW21886   1.438   2.195   9.009 -0.4883 -0.8374  0.2562
 3476SOL    HW121887   1.352   2.154   9.007 -1.0248  0.2992 -0.2168
 3476SOL    HW221888   1.492   2.121   8.981  0.6261 -0.7388  2.1288
 3477SOL     OW21889   1.652   4.155  15.381 -0.4199 -0.8255 -0.0084
 3477SOL    HW121890   1.717   4.085  15.371 -0.2853 -0.9507  1.7543
 3477SOL    HW221891   1.709   4.231  15.392 -0.5460 -0.5487 -1.3243
 3478SOL     OW21892   3.467   0.154   9.458 -0.1601  0.3082 -0.4933
 3478SOL    HW121893   3.492   0.073   9.503 -0.9086  0.4929  0.2544
 3478SOL    HW221894   3.381   0.130   9.421 -1.1837  1.3966  1.1964
 3479SOL     OW21895   3.947   0.255   7.521  0.3112 -0.5375  0.5741
 3479SOL    HW121896   3.886   0.281   7.590 -0.0003  0.0373  0.0833
 3479SOL    HW221897   3.962   0.334   7.469  0.7061  0.6997  2.5519
 3480SOL     OW21898   2.851   4.225   1.331  0.0783 -0.4796  0.3483
 3480SOL    HW121899   2.823   4.157   1.270  0.8211 -1.0924  0.6779
 3480SOL    HW221900   2.884   4.179   1.408 -0.4052 -0.7736  0.3782
 3481SOL     OW21901   1.473   2.016   5.083 -0.4624 -0.5435  0.0207
 3481SOL    HW121902   1.399   2.022   5.024 -0.6717  0.2743  0.3619
 3481SOL    HW221903   1.429   2.030   5.167 -0.3005  1.4664 -0.2398
 3482SOL     OW21904   2.599   2.074  12.529  0.8331 -0.1456 -0.5317
 3482SOL    HW121905   2.519   2.122  12.508  1.9821  1.0176 -2.2568
 3482SOL    HW221906   2.627   2.045  12.442  0.3918  0.0642 -0.7406
 3483SOL     OW21907   2.513   2.514   3.658  0.1782 -0.6221  0.2450
 3483SOL    HW121908   2.606   2.496   3.675  0.2932 -1.0663 -0.8096
 3483SOL    HW221909   2.516   2.512   3.562  0.4410 -0.1007  0.2461
 3484SOL     OW21910   3.561   4.141  17.341 -0.3814 -0.1440 -0.3189
 3484SOL    HW121911   3.519   4.098  17.416  1.3594 -2.2397 -0.5703
 3484SOL    HW221912   3.652   4.131  17.367 -0.1386 -0.3608 -1.2626
 3485SOL     OW21913   2.610   3.851   6.201 -0.6008  0.0694 -0.0129
 3485SOL    HW121914   2.679   3.907   6.166  0.4214 -1.0205  0.2516
 3485SOL    HW221915   2.527   3.899   6.195 -1.0319 -0.8427 -1.2728
 3486SOL     OW21916   4.153   3.383   7.468  0.3441 -0.1910 -0.2232
 3486SOL    HW121917   4.130   3.426   7.550 -1.2541  1.5352 -1.5674
 3486SOL    HW221918   4.063   3.353   7.454  0.9348 -1.5140 -1.2895
 3487SOL     OW21919   4.436   0.007   1.045  0.4257 -0.3699  0.1942
 3487SOL    HW121920   4.404   0.037   1.130 -0.0278  1.4678 -0.6322
 3487SOL    HW221921   4.379   0.055   0.985  0.1759 -0.3032  0.4854
 3488SOL     OW21922   2.166   4.631   7.342  0.1755 -0.5097 -0.4294
 3488SOL    HW121923   2.173   4.638   7.247 -0.7654 -0.2576 -0.4755
 3488SOL    HW221924   2.229   4.561   7.357  0.5496  0.0649  0.6344
 3489SOL     OW21925   2.175   2.098   8.612  0.2754 -0.0217 -0.3112
 3489SOL    HW121926   2.203   2.092   8.703 -1.7730 -1.4260  0.2478
 3489SOL    HW221927   2.253   2.069   8.565  0.0884 -0.5503 -0.3005
 3490SOL     OW21928   2.018   2.430  10.894 -0.1411  0.2213  0.0220
 3490SOL    HW121929   2.004   2.384  10.977  1.2460  0.0061  0.1247
 3490SOL    HW221930   1.934   2.474  10.876  0.2187  0.8393 -0.1422
 3491SOL     OW21931   1.870   0.838   3.493  0.7629  0.2780 -0.1317
 3491SOL    HW121932   1.782   0.849   3.458  1.2268 -1.2851 -1.8147
 3491SOL    HW221933   1.881   0.915   3.549 -1.2396 -0.3506  1.0891
 3492SOL     OW21934   3.362   1.481   5.739  0.3013  0.0129  0.1155
 3492SOL    HW121935   3.442   1.533   5.731  0.5805 -0.7540 -1.9612
 3492SOL    HW221936   3.341   1.507   5.829 -1.3200  1.7998 -0.7918
 3493SOL     OW21937   0.068   0.178  11.372  0.0667 -0.2660 -0.4277
 3493SOL    HW121938   0.129   0.140  11.436 -1.0207  0.0104  0.7682
 3493SOL    HW221939   4.710   0.136  11.400 -1.8757  1.5813 -3.3007
 3494SOL     OW21940   2.689   4.468   7.302  0.0540 -0.3390 -0.4513
 3494SOL    HW121941   2.726   4.429   7.382 -1.2577  0.1114  0.3638
 3494SOL    HW221942   2.760   4.445   7.241  0.7736 -2.3299  1.1268
 3495SOL     OW21943   1.275   2.105   2.138 -0.2783  0.0614 -0.0946
 3495SOL    HW121944   1.265   2.089   2.044 -1.0231  0.7762 -0.1333
 3495SOL    HW221945   1.311   2.023   2.172 -0.7389  0.8909  2.3556
 3496SOL     OW21946   1.106   2.334   1.677  0.7042  0.1342  0.1351
 3496SOL    HW121947   1.117   2.408   1.737 -0.1928  1.0586 -0.8073
 3496SOL    HW221948   1.049   2.273   1.724  1.6474 -0.2250  0.7967
 3497SOL     OW21949   3.831   4.326   3.535 -0.5052 -0.5963  0.3049
 3497SOL    HW121950   3.798   4.289   3.453  1.0106  1.2992 -1.1532
 3497SOL    HW221951   3.746   4.359   3.562 -1.1506 -0.6362 -1.6261
 3498SOL     OW21952   3.037   1.706   5.833  0.3089 -0.5001 -0.1529
 3498SOL    HW121953   3.081   1.783   5.797 -1.8213 -0.0844 -1.8912
 3498SOL    HW221954   3.012   1.659   5.753 -2.6568 -0.4542  0.7574
 3499SOL     OW21955   2.151   3.180  16.717  0.2401 -0.2939 -0.1329
 3499SOL    HW121956   2.186   3.259  16.678  0.6301  0.0622  0.9275
 3499SOL    HW221957   2.064   3.220  16.709  1.5918  2.7613  0.8126
 3500SOL     OW21958   0.822   3.347   7.526 -0.0776  0.1348 -0.4846
 3500SOL    HW121959   0.914   3.358   7.548  0.1165 -1.0257 -0.7323
 3500SOL    HW221960   0.821   3.273   7.466  1.2610  0.5792 -1.0519
 3501SOL     OW21961   3.599   0.369   2.937  0.3246  0.6299 -0.0605
 3501SOL    HW121962   3.689   0.404   2.942 -0.1845  2.5122 -3.6480
 3501SOL    HW221963   3.577   0.409   2.853  1.6534  2.1277  0.2997
 3502SOL     OW21964   2.839   2.435   7.718  0.2642  0.1372  0.2129
 3502SOL    HW121965   2.769   2.378   7.750 -1.3052  2.0949  0.2840
 3502SOL    HW221966   2.897   2.434   7.794  0.4299 -0.8966  0.0654
 3503SOL     OW21967   3.335   3.066   1.679 -0.2529  0.1558  0.7312
 3503SOL    HW121968   3.287   3.051   1.760 -0.4474  2.8450  1.1027
 3503SOL    HW221969   3.264   3.067   1.615  1.3429  1.3874 -1.0245
 3504SOL     OW21970   1.875   1.939  10.610 -0.0638 -0.3192 -0.3719
 3504SOL    HW121971   1.846   1.906  10.695  2.6285 -0.6108  0.4350
 3504SOL    HW221972   1.818   1.899  10.545 -0.4348 -2.0120  1.0087
 3505SOL     OW21973   0.674   3.416  17.246  0.1446  0.2815  0.7223
 3505SOL    HW121974   0.615   3.395  17.174  0.5051 -2.2188  1.1759
 3505SOL    HW221975   0.619   3.452  17.315  1.0911  0.9120  1.1468
 3506SOL     OW21976   2.186   2.793   4.597  0.2582  0.1812  0.2854
 3506SOL    HW121977   2.100   2.813   4.633 -0.0798  2.6708 -1.8826
 3506SOL    HW221978   2.242   2.856   4.644  0.8535 -0.8650  0.9715
 3507SOL     OW21979   3.694   1.817   5.461 -0.9227 -0.1680  0.4221
 3507SOL    HW121980   3.699   1.803   5.555  0.2747 -0.7620  0.2809
 3507SOL    HW221981   3.771   1.768   5.430 -1.2336 -0.7756  0.6051
 3508SOL     OW21982   0.576   0.411  12.840 -0.1609 -0.2910  0.5659
 3508SOL    HW121983   0.544   0.458  12.917 -5.3945 -2.5532 -0.2173
 3508SOL    HW221984   0.658   0.368  12.863  0.2141  0.0600 -0.1119
 3509SOL     OW21985   0.640   1.385   3.215 -0.4310 -0.3017  0.2576
 3509SOL    HW121986   0.725   1.393   3.259  0.0014  2.0323 -0.9441
 3509SOL    HW221987   0.602   1.464   3.254  1.9868  1.6034 -1.2005
 3510SOL     OW21988   4.334   1.760   2.136  0.5684 -0.2694  0.0813
 3510SOL    HW121989   4.285   1.786   2.058  0.1057 -0.4297  0.3216
 3510SOL    HW221990   4.270   1.760   2.207  0.3041  0.4685 -0.1525
 3511SOL     OW21991   0.364   3.270   3.267  0.2871 -0.0640 -0.0881
 3511SOL    HW121992   0.397   3.186   3.299  0.3743 -1.2409 -3.2374
 3511SOL    HW221993   0.272   3.247   3.252  0.3745 -1.2185  1.1045
 3512SOL     OW21994   2.115   4.389   9.438  0.7644 -0.4303 -0.1686
 3512SOL    HW121995   2.178   4.317   9.434  0.9675 -0.1973 -1.3075
 3512SOL    HW221996   2.170   4.466   9.425  0.0363 -0.2958 -2.4900
 3513SOL     OW21997   3.757   0.249   5.207  0.2326 -0.1153 -0.6566
 3513SOL    HW121998   3.701   0.189   5.256  2.2110 -0.8872  0.6175
 3513SOL    HW221999   3.846   0.237   5.240 -0.9733 -1.3788  2.1380
 3514SOL     OW22000   2.619   3.790   9.265  0.3660 -0.3955  0.7601
 3514SOL    HW122001   2.545   3.730   9.273  1.2435 -1.7031 -0.9817
 3514SOL    HW222002   2.604   3.823   9.176  2.4986 -0.6032  0.3443
 3515SOL     OW22003   4.357   0.724   0.601  0.0041 -0.6776  0.1087
 3515SOL    HW122004   4.313   0.742   0.518  0.7018  0.4791  0.0046
 3515SOL    HW222005   4.279   0.693   0.648 -1.9996 -1.0753 -3.4343
 3516SOL     OW22006   4.426   3.723   1.224 -0.3083  0.2253  0.0967
 3516SOL    HW122007   4.448   3.766   1.307 -1.3533  1.3391 -0.2058
 3516SOL    HW222008   4.508   3.683   1.194  0.0612  0.3660  0.9089
 3517SOL     OW22009   3.231   1.044  15.099  0.0475 -0.8222 -0.0420
 3517SOL    HW122010   3.204   1.025  15.009  0.9830  1.7090 -0.8528
 3517SOL    HW222011   3.144   1.036  15.137 -0.3468  2.2217 -0.3146
 3518SOL     OW22012   3.904   1.675   8.395  0.3830  0.2627  0.2734
 3518SOL    HW122013   3.874   1.676   8.486  2.6641  0.3545  1.0177
 3518SOL    HW222014   3.961   1.751   8.386  2.1153 -0.7608  2.4141
 3519SOL     OW22015   0.490   3.225   2.831 -0.0357  0.1481 -0.6323
 3519SOL    HW122016   0.479   3.178   2.748 -0.2396 -1.5406  0.3675
 3519SOL    HW222017   0.578   3.190   2.847 -0.6233 -0.7641  0.5527
 3520SOL     OW22018   2.516   0.133  11.099  0.4539 -0.2759  0.1414
 3520SOL    HW122019   2.536   0.226  11.110  2.5132 -1.0826  2.9129
 3520SOL    HW222020   2.503   0.102  11.188  0.5767  3.6515  1.5161
 3521SOL     OW22021   0.945   3.798  16.062 -0.4571  0.3916 -0.0841
 3521SOL    HW122022   0.937   3.863  16.132  0.2235  0.0537  0.3074
 3521SOL    HW222023   1.036   3.770  16.066 -0.4784  0.4044  0.5852
 3522SOL     OW22024   3.420   0.116   9.063 -0.5911  0.2682 -0.4661
 3522SOL    HW122025   3.340   0.087   9.019  0.5389  0.8251 -2.8960
 3522SOL    HW222026   3.440   0.199   9.018  0.3766  0.9929  1.3015
 3523SOL     OW22027   3.513   0.684   4.775 -0.1111  0.3828  0.0186
 3523SOL    HW122028   3.430   0.667   4.820 -0.0258  1.4805  0.5844
 3523SOL    HW222029   3.522   0.616   4.709 -0.2612  1.1761 -0.8302
 3524SOL     OW22030   4.303   3.850   6.481 -0.4620 -0.5878 -0.0883
 3524SOL    HW122031   4.381   3.822   6.434 -0.4024 -1.6220  0.6422
 3524SOL    HW222032   4.239   3.786   6.448 -1.9473 -0.6743  3.0158
 3525SOL     OW22033   0.676   0.755   8.524  0.2167 -0.6326 -0.3776
 3525SOL    HW122034   0.751   0.740   8.582 -1.6829  0.8738  2.4984
 3525SOL    HW222035   0.680   0.676   8.470 -0.8391  0.5544 -2.1655
 3526SOL     OW22036   3.445   0.610  10.907  0.6749 -0.3137  0.0479
 3526SOL    HW122037   3.393   0.639  10.832 -0.7497 -2.4401  0.2033
 3526SOL    HW222038   3.528   0.652  10.882  1.6069 -1.0228  1.9371
 3527SOL     OW22039   3.512   3.324  15.308 -0.1244 -0.0310  0.0169
 3527SOL    HW122040   3.501   3.305  15.215  0.7582 -0.4384 -0.0081
 3527SOL    HW222041   3.469   3.410  15.310  1.7375  0.9205 -0.7373
 3528SOL     OW22042   2.560   3.816   7.634  0.0628 -0.1983 -0.0126
 3528SOL    HW122043   2.465   3.818   7.648 -0.0439 -1.6620 -0.5591
 3528SOL    HW222044   2.575   3.906   7.605 -0.7101 -1.5511 -4.5399
 3529SOL     OW22045   3.279   3.860  14.696 -0.0657  0.2113 -0.4865
 3529SOL    HW122046   3.326   3.943  14.701 -1.4328  1.1100 -2.3201
 3529SOL    HW222047   3.231   3.869  14.613  0.4381 -0.6212 -0.8692
 3530SOL     OW22048   2.754   2.726  16.930  0.0809  0.9596 -0.4663
 3530SOL    HW122049   2.776   2.643  16.887 -0.4494  0.1827  0.7504
 3530SOL    HW222050   2.747   2.689  17.018 -1.3835  0.3087 -0.8459
 3531SOL     OW22051   3.887   0.804   7.591 -0.2364  0.2325  0.1216
 3531SOL    HW122052   3.946   0.879   7.595 -1.9165  1.6230 -1.4318
 3531SOL    HW222053   3.893   0.790   7.496 -0.0575 -0.5268  0.2438
 3532SOL     OW22054   0.901   4.326   9.247 -0.3754  0.0938 -0.3070
 3532SOL    HW122055   0.959   4.251   9.262  1.0486  1.0162 -1.2273
 3532SOL    HW222056   0.905   4.369   9.332  2.7364  0.6681 -0.7411
 3533SOL     OW22057   3.274   3.260   8.604  0.2040  0.2923  0.1430
 3533SOL    HW122058   3.241   3.297   8.686  0.5108  0.3026  0.2631
 3533SOL    HW222059   3.254   3.168   8.624 -0.6126  0.4947  0.2426
 3534SOL     OW22060   2.938   2.293  14.922 -0.0132 -0.3049  0.2569
 3534SOL    HW122061   2.979   2.368  14.966 -0.9168 -0.5569  1.5529
 3534SOL    HW222062   2.952   2.311  14.829 -0.5704  0.5217  0.3375
 3535SOL     OW22063   4.644   1.120   3.905  0.5033  0.5306  0.4099
 3535SOL    HW122064   4.700   1.176   3.960  2.2888  0.0275 -0.8910
 3535SOL    HW222065   4.651   1.039   3.955  1.6437  0.3919  0.0290
 3536SOL     OW22066   0.653   3.635   5.567 -1.0127  0.6332  0.0166
 3536SOL    HW122067   0.577   3.693   5.569 -0.6873  1.1188 -1.9721
 3536SOL    HW222068   0.655   3.601   5.477  2.4102  2.2870 -0.5532
 3537SOL     OW22069   1.863   3.659  15.089 -0.3119 -1.0517  0.9233
 3537SOL    HW122070   1.867   3.655  14.993  2.1193  3.1062  0.8238
 3537SOL    HW222071   1.784   3.609  15.110 -1.4997  1.9876  3.7983
 3538SOL     OW22072   2.889   2.803   0.003  0.1925 -0.1279 -0.3700
 3538SOL    HW122073   2.916   2.871  17.636  0.8905 -0.2126 -0.1585
 3538SOL    HW222074   2.975   2.765   0.018 -0.1698 -1.1587 -0.9580
 3539SOL     OW22075   1.203   3.956   2.575  0.0113 -0.2835 -0.1632
 3539SOL    HW122076   1.213   3.931   2.483 -1.5413  1.5172 -0.8186
 3539SOL    HW222077   1.290   3.931   2.606  0.2948  0.5087 -0.3345
 3540SOL     OW22078   2.630   0.938   1.350  0.2776  0.0116 -0.9338
 3540SOL    HW122079   2.684   1.008   1.386  0.2242  0.9373 -2.6363
 3540SOL    HW222080   2.557   0.944   1.412  2.3307  1.0170  1.3558
 3541SOL     OW22081   0.316   1.653   4.185  0.3296  0.0075  0.5598
 3541SOL    HW122082   0.222   1.666   4.171  0.4025 -0.9130 -0.7622
 3541SOL    HW222083   0.339   1.739   4.220 -0.1639  0.2382  0.3208
 3542SOL     OW22084   2.830   1.869  10.568  0.3648  0.1422 -0.2751
 3542SOL    HW122085   2.876   1.857  10.651  1.2699  0.9785 -0.6569
 3542SOL    HW222086   2.848   1.781  10.533  1.3157  0.8341 -1.5347
 3543SOL     OW22087   4.326   4.651  10.759 -0.0078 -0.2280 -0.2592
 3543SOL    HW122088   4.296   4.649  10.850  0.3024 -1.0452 -0.1818
 3543SOL    HW222089   4.377   0.008  10.773 -2.3756  1.2396  0.1201
 3544SOL     OW22090   3.887   2.981  11.398  0.1674 -0.7671  0.1806
 3544SOL    HW122091   3.874   3.042  11.326 -0.3621 -0.3386  0.6434
 3544SOL    HW222092   3.828   3.027  11.458  2.0522  1.4769  0.3383
 3545SOL     OW22093   1.239   0.964  13.771 -0.0118  0.4835 -0.1500
 3545SOL    HW122094   1.171   0.900  13.751  0.7795 -0.3979 -0.0468
 3545SOL    HW222095   1.199   1.050  13.761  0.3729  0.9341  2.2069
 3546SOL     OW22096   0.757   0.996   6.974 -0.5452 -0.1493 -0.1953
 3546SOL    HW122097   0.785   0.905   6.969  0.1525  0.0558 -0.0404
 3546SOL    HW222098   0.817   1.027   7.042  0.2804 -0.2734 -0.8601
 3547SOL     OW22099   2.595   3.517   0.971  0.1038  0.1946  0.0289
 3547SOL    HW122100   2.665   3.459   0.942 -0.6497  0.3955 -2.1939
 3547SOL    HW222101   2.564   3.536   0.883  2.1655 -2.1706 -1.1925
 3548SOL     OW22102   2.691   0.494  11.008 -0.1930 -0.1274 -0.0397
 3548SOL    HW122103   2.637   0.570  11.027  1.2577  0.3686  2.1134
 3548SOL    HW222104   2.773   0.537  11.033 -1.7973  2.3654  0.9027
 3549SOL     OW22105   1.202   0.161   1.889 -0.4933 -0.7849  0.5430
 3549SOL    HW122106   1.137   0.206   1.942  1.0893  0.4531  1.4256
 3549SOL    HW222107   1.144   0.104   1.838 -0.9262 -0.0297  0.2057
 3550SOL     OW22108   4.229   2.491   4.423  0.0681  0.1692 -0.1143
 3550SOL    HW122109   4.143   2.494   4.465  0.2855  1.0831  0.2854
 3550SOL    HW222110   4.227   2.573   4.373  0.4117 -0.1047 -0.5728
 3551SOL     OW22111   3.528   0.246   1.491 -0.0183  0.1869 -0.1907
 3551SOL    HW122112   3.496   0.239   1.401 -2.4139 -1.2597  0.7730
 3551SOL    HW222113   3.513   0.340   1.506  1.7384  0.8682 -2.8185
 3552SOL     OW22114   1.187   0.142  13.125  0.5471 -0.4359  0.0201
 3552SOL    HW122115   1.251   0.073  13.105  0.7279  0.7200 -3.3078
 3552SOL    HW222116   1.218   0.177  13.208  0.3450 -1.5303  0.5608
 3553SOL     OW22117   1.397   0.816   8.459  0.3497  0.4737  0.5002
 3553SOL    HW122118   1.408   0.745   8.397  0.6219  0.2713  0.7784
 3553SOL    HW222119   1.311   0.799   8.499 -0.0640  4.8112  1.4869
 3554SOL     OW22120   1.727   1.462   0.774 -0.2650 -0.5607 -0.0958
 3554SOL    HW122121   1.740   1.452   0.868 -0.6346  1.5637  0.1810
 3554SOL    HW222122   1.669   1.390   0.750 -1.2479  0.3960 -0.6502
 3555SOL     OW22123   4.306   4.669   3.861  0.2795 -0.7086  1.2589
 3555SOL    HW122124   4.271   0.005   3.794  0.3990 -1.0046  0.9341
 3555SOL    HW222125   4.393   4.702   3.881 -0.1207  0.7757  0.5738
 3556SOL     OW22126   4.122   3.963  12.222 -0.0029  0.0716 -0.1062
 3556SOL    HW122127   4.054   3.896  12.217  0.4976 -0.4244 -0.2775
 3556SOL    HW222128   4.175   3.915  12.285  0.0896 -0.4865 -0.6031
 3557SOL     OW22129   1.357   4.629   9.573 -0.0782  0.2018 -0.3744
 3557SOL    HW122130   1.279   4.580   9.598  0.3868  0.6901  2.0072
 3557SOL    HW222131   1.419   4.606   9.642  0.1200  0.7571 -0.3630
 3558SOL     OW22132   2.119   1.557   8.905 -0.3841 -0.7531  0.2339
 3558SOL    HW122133   2.065   1.579   8.981  0.3814 -0.3736  0.6592
 3558SOL    HW222134   2.176   1.493   8.946 -0.1713 -1.4418 -1.1238
 3559SOL     OW22135   3.669   0.550  11.109  0.2665 -0.0325 -0.7978
 3559SOL    HW122136   3.637   0.502  11.185  1.0423 -0.9224 -1.0300
 3559SOL    HW222137   3.594   0.597  11.072 -0.7733  0.1260  1.5658
 3560SOL     OW22138   1.588   2.466   6.482 -0.0999  0.4663 -0.0832
 3560SOL    HW122139   1.641   2.470   6.403  0.1188 -3.3645 -0.1317
 3560SOL    HW222140   1.498   2.483   6.454  0.2888  0.9263 -1.0428
 3561SOL     OW22141   4.445   0.972   3.233 -0.7192  0.2596 -0.3284
 3561SOL    HW122142   4.402   1.056   3.251  0.3381  0.3965  1.4574
 3561SOL    HW222143   4.484   0.954   3.318  2.9525  2.0457 -1.6107
 3562SOL     OW22144   4.320   1.797   8.550 -0.0807  0.1557 -0.2334
 3562SOL    HW122145   4.241   1.848   8.566 -1.6694 -3.3150  2.9478
 3562SOL    HW222146   4.353   1.784   8.639  0.4249 -0.3105 -0.4889
 3563SOL     OW22147   0.721   2.990   4.590  0.2436 -0.6367 -0.0111
 3563SOL    HW122148   0.667   2.990   4.669  1.1450  0.2948  0.6080
 3563SOL    HW222149   0.742   2.898   4.605 -0.9484 -0.6892  1.4069
 3564SOL     OW22150   2.413   4.457  16.351 -0.0143  0.4222  0.4624
 3564SOL    HW122151   2.382   4.500  16.272  2.3640  1.2495 -0.0216
 3564SOL    HW222152   2.484   4.518  16.370  2.3273 -2.0421 -0.4259
 3565SOL     OW22153   2.915   1.559  12.497  0.1189  0.0530  0.1074
 3565SOL    HW122154   2.965   1.641  12.488  1.4749 -0.4451  2.9909
 3565SOL    HW222155   2.827   1.595  12.487 -1.0024 -3.2582 -1.8343
 3566SOL     OW22156   4.548   0.324   7.523  0.6482  0.6218  0.3416
 3566SOL    HW122157   4.583   0.313   7.611  0.3317  1.0928  0.5259
 3566SOL    HW222158   4.495   0.245   7.523  0.3985  0.7887  0.7407
 3567SOL     OW22159   4.507   0.983   1.885  0.3595 -0.2373  0.1690
 3567SOL    HW122160   4.478   1.074   1.874 -1.2004 -0.9642 -1.5831
 3567SOL    HW222161   4.446   0.956   1.954  1.1655  0.6297  1.2263
 3568SOL     OW22162   2.842   1.227   4.705 -0.1840 -0.2352  0.1357
 3568SOL    HW122163   2.847   1.220   4.800 -0.2112 -2.8742 -0.0557
 3568SOL    HW222164   2.886   1.311   4.694 -0.0246 -0.3678 -0.2534
 3569SOL     OW22165   4.620   0.695  11.475  0.3670  0.2707 -0.3539
 3569SOL    HW122166   4.609   0.645  11.394  0.0805  2.8814 -1.9204
 3569SOL    HW222167   4.694   0.645  11.510  0.9297  1.1942 -0.2437
 3570SOL     OW22168   0.799   4.381   4.020  0.3065  0.6623  0.2190
 3570SOL    HW122169   0.743   4.331   3.959  3.4116 -1.7022 -0.7039
 3570SOL    HW222170   0.888   4.383   3.986  0.0976  2.0648 -0.2452
 3571SOL     OW22171   1.990   0.170  10.994  0.8463 -0.5243 -0.1058
 3571SOL    HW122172   1.944   0.208  10.920 -0.6924 -0.9818  0.6287
 3571SOL    HW222173   2.084   0.173  10.974  0.8711 -1.3647 -0.1296
 3572SOL     OW22174   0.642   0.111   0.502 -0.3437 -0.1964 -0.4728
 3572SOL    HW122175   0.692   0.038   0.539 -1.3979 -1.3816 -1.3675
 3572SOL    HW222176   0.681   0.137   0.419  0.4416  1.4177  0.4202
 3573SOL     OW22177   0.166   0.843   4.017  0.4484  0.2946 -0.3568
 3573SOL    HW122178   0.208   0.761   4.043 -0.9545 -1.0034 -2.2544
 3573SOL    HW222179   0.240   0.896   3.987  1.1693 -2.2365 -3.0597
 3574SOL     OW22180   0.811   2.062   1.608 -0.3558  0.0758  0.2172
 3574SOL    HW122181   0.843   2.097   1.692  0.3145 -0.3428  0.1338
 3574SOL    HW222182   0.718   2.045   1.628 -0.2685 -0.0960  0.4815
 3575SOL     OW22183   4.050   0.263   6.779  0.0543 -0.5397 -0.5369
 3575SOL    HW122184   4.059   0.340   6.835  0.8293  1.0097 -2.8243
 3575SOL    HW222185   4.103   0.198   6.825 -1.0803 -0.3283  1.0719
 3576SOL     OW22186   1.810   2.428  11.353 -0.4790 -0.1473  0.0559
 3576SOL    HW122187   1.721   2.410  11.323 -0.6351 -0.4538  0.7004
 3576SOL    HW222188   1.824   2.515  11.389  1.9831 -0.8165  0.7755
 3577SOL     OW22189   0.009   3.095   4.531  0.5784 -0.0728 -0.4605
 3577SOL    HW122190   4.648   3.138   4.549  1.8837  2.1704  0.4262
 3577SOL    HW222191   0.065   3.168   4.558  1.0175 -1.4656  2.4265
 3578SOL     OW22192   1.783   3.714   5.836  0.1550  0.2178 -0.4914
 3578SOL    HW122193   1.701   3.760   5.851  0.8278 -0.2417  4.6230
 3578SOL    HW222194   1.829   3.727   5.919 -0.2127 -2.4492  0.1494
 3579SOL     OW22195   3.923   2.383  14.961 -0.6710  0.9683 -0.6357
 3579SOL    HW122196   4.001   2.381  14.905 -0.0756  2.0652  0.1695
 3579SOL    HW222197   3.867   2.326  14.907  1.5770 -2.7184  0.9204
 3580SOL     OW22198   0.939   0.746   4.390  0.4261  0.5211  0.4190
 3580SOL    HW122199   0.995   0.675   4.357 -0.9170  0.1460 -1.0470
 3580SOL    HW222200   1.011   0.808   4.401  0.7527  0.5929 -1.9658
 3581SOL     OW22201   0.028   0.562   4.983 -0.1109  0.0505 -0.2533
 3581SOL    HW122202   0.074   0.553   4.900  0.0048  1.3571 -0.3280
 3581SOL    HW222203   0.090   0.625   5.019  1.3512 -1.1821 -0.6315
 3582SOL     OW22204   1.354   1.553   1.766  0.1084 -0.4877 -0.2333
 3582SOL    HW122205   1.394   1.548   1.853 -1.3179  0.6130  0.4574
 3582SOL    HW222206   1.299   1.474   1.764 -0.5100 -0.0627  0.2438
 3583SOL     OW22207   2.589   4.265  11.217  0.0051  0.3007 -0.2354
 3583SOL    HW122208   2.677   4.264  11.178 -0.7294 -0.8698 -1.8597
 3583SOL    HW222209   2.554   4.347  11.181 -2.2252 -0.0619  1.1295
 3584SOL     OW22210   0.940   0.381   6.462 -0.3206  0.1951 -0.7644
 3584SOL    HW122211   0.880   0.382   6.537 -0.1616  0.1832 -0.6369
 3584SOL    HW222212   0.893   0.408   6.383 -0.1055 -1.4275 -1.4417
 3585SOL     OW22213   3.951   0.420   9.459  0.3255  0.2911  0.8261
 3585SOL    HW122214   3.886   0.366   9.415  0.1310 -0.9377  2.6171
 3585SOL    HW222215   3.894   0.478   9.509  0.9501  0.0977  1.7862
 3586SOL     OW22216   0.064   3.750   2.999  0.6363 -0.6454 -0.0109
 3586SOL    HW122217   0.034   3.836   2.969 -2.1133 -2.0681 -1.3196
 3586SOL    HW222218   0.098   3.705   2.922 -0.0837  2.7667 -2.3221
 3587SOL     OW22219   3.968   0.995   8.328  0.6886 -0.2075  0.2869
 3587SOL    HW122220   3.973   1.075   8.380  0.3025  0.4267 -0.6651
 3587SOL    HW222221   3.894   0.946   8.363  1.0458 -0.5356  0.5882
 3588SOL     OW22222   0.980   1.991   8.563  0.3255  0.3862  0.5187
 3588SOL    HW122223   1.063   1.947   8.581 -0.3207 -1.6823 -1.6639
 3588SOL    HW222224   0.965   2.021   8.653 -1.2577 -1.8782  0.9926
 3589SOL     OW22225   0.384   0.019   6.151 -0.4535 -0.5977 -0.1386
 3589SOL    HW122226   0.329   0.090   6.118  0.9886 -0.4856 -2.3082
 3589SOL    HW222227   0.328   4.720   6.226 -0.7581 -1.2215 -0.5506
 3590SOL     OW22228   2.349   1.146   5.226 -0.1517  0.1231  0.5653
 3590SOL    HW122229   2.279   1.080   5.234 -0.4191  0.2657 -0.5768
 3590SOL    HW222230   2.411   1.113   5.291  0.1048 -1.2577 -0.3812
 3591SOL     OW22231   1.185   1.997   8.320 -0.7261  0.1695 -0.5031
 3591SOL    HW122232   1.131   2.006   8.399 -1.1833 -0.7928 -0.7049
 3591SOL    HW222233   1.200   2.087   8.292 -0.5626  0.2459 -0.1664
 3592SOL     OW22234   2.770   2.291   4.955  0.1335  0.3421  0.2691
 3592SOL    HW122235   2.689   2.278   5.004 -0.6198  0.8087 -0.8536
 3592SOL    HW222236   2.752   2.226   4.887 -0.7514  0.6059  0.2518
 3593SOL     OW22237   1.402   1.880   6.634 -0.0863  0.0134 -0.2147
 3593SOL    HW122238   1.375   1.901   6.724  1.4612  0.2163  0.1923
 3593SOL    HW222239   1.442   1.794   6.646 -1.3122 -0.7076 -1.2902
 3594SOL     OW22240   3.162   4.151  15.238  0.3601 -0.7082 -0.2652
 3594SOL    HW122241   3.103   4.166  15.312  0.8517  1.5230 -0.3041
 3594SOL    HW222242   3.201   4.238  15.224 -1.6648  0.2711  0.1805
 3595SOL     OW22243   1.959   1.678   8.153  0.6052  0.0022  0.0382
 3595SOL    HW122244   1.955   1.679   8.249 -1.8064 -2.4897 -0.0437
 3595SOL    HW222245   2.029   1.740   8.132  0.7259 -0.6145 -1.3849
 3596SOL     OW22246   2.923   4.458   3.146 -0.3779 -0.1631 -0.0599
 3596SOL    HW122247   2.830   4.461   3.167 -0.0291 -1.2395  1.6990
 3596SOL    HW222248   2.937   4.369   3.178  1.7989 -0.0852 -0.7600
 3597SOL     OW22249   4.470   1.317   6.172  0.6668  0.1596  0.0734
 3597SOL    HW122250   4.546   1.262   6.192 -0.0046 -0.5527  0.6788
 3597SOL    HW222251   4.499   1.398   6.213  1.2308 -0.6186  1.2359
 3598SOL     OW22252   0.460   4.648  10.180  0.0130 -0.6543 -0.5099
 3598SOL    HW122253   0.380   4.694  10.205  0.0857 -0.1479 -1.2060
 3598SOL    HW222254   0.520   4.663  10.253 -0.5612  3.2941 -0.8510
 3599SOL     OW22255   1.450   4.563  16.414 -0.2521  0.4665  0.3656
 3599SOL    HW122256   1.357   4.542  16.406 -0.0610 -0.4247  0.5083
 3599SOL    HW222257   1.484   4.554  16.325 -0.6138  1.4191  0.1219
 3600SOL     OW22258   0.904   2.095   8.819  0.1301 -0.2654  0.3376
 3600SOL    HW122259   0.922   2.075   8.910  1.3103 -1.3424 -0.1357
 3600SOL    HW222260   0.842   2.167   8.832  0.5898  0.2762 -0.4569
 3601SOL     OW22261   1.042   3.922  16.296 -0.6255 -0.4429 -0.7109
 3601SOL    HW122262   1.002   3.872  16.367  0.0309 -2.0633 -1.5100
 3601SOL    HW222263   1.117   3.963  16.339 -0.4868 -0.7098 -0.6991
 3602SOL     OW22264   0.054   0.090   5.096  0.1467  0.3535 -0.0760
 3602SOL    HW122265   0.027   0.014   5.044 -2.6574  0.9879  0.4199
 3602SOL    HW222266   0.073   0.150   5.024 -3.2260  0.2532 -1.0459
 3603SOL     OW22267   4.594   1.598   9.165 -0.0132 -0.4600 -0.0126
 3603SOL    HW122268   4.578   1.587   9.258 -1.0672 -0.1325 -0.1543
 3603SOL    HW222269   4.681   1.637   9.174 -0.3520  0.2447  0.2289
 3604SOL     OW22270   0.149   2.725   3.651 -0.4171 -0.3601  0.0002
 3604SOL    HW122271   0.083   2.655   3.648 -0.2662 -0.4988 -0.0465
 3604SOL    HW222272   0.220   2.666   3.675  0.1151  1.0423  1.8910
 3605SOL     OW22273   3.141   4.242   2.440 -0.0529  0.1080 -0.1409
 3605SOL    HW122274   3.120   4.169   2.382  3.5866  0.5694 -2.0453
 3605SOL    HW222275   3.053   4.264   2.471  0.0273 -0.3813  0.4269
 3606SOL     OW22276   1.586   1.993   8.861 -0.0517  0.4510 -0.6972
 3606SOL    HW122277   1.549   1.908   8.886 -1.0061  0.5630 -1.7406
 3606SOL    HW222278   1.566   1.981   8.768 -1.8090  0.3453 -0.3116
 3607SOL     OW22279   4.485   1.433  16.080 -0.6347 -0.2849 -0.2531
 3607SOL    HW122280   4.504   1.367  16.146 -0.1898 -0.6818 -0.7729
 3607SOL    HW222281   4.390   1.444  16.081 -0.5098  0.8631 -1.2057
 3608SOL     OW22282   1.235   2.287   8.421 -0.3017 -0.5363 -0.0077
 3608SOL    HW122283   1.281   2.368   8.441  1.0661 -1.5699  1.0497
 3608SOL    HW222284   1.232   2.252   8.510 -1.4042 -0.5729 -0.0647
 3609SOL     OW22285   3.081   2.944   6.164 -0.2621  0.0827 -0.4485
 3609SOL    HW122286   3.089   3.037   6.185  3.8787 -0.1168 -1.0362
 3609SOL    HW222287   3.165   2.918   6.127 -1.0922 -1.9749 -0.9125
 3610SOL     OW22288   0.775   0.679  12.981  0.1684  0.5540  0.6717
 3610SOL    HW122289   0.764   0.706  13.071 -0.1590  2.3681  0.0782
 3610SOL    HW222290   0.695   0.719  12.948 -0.5126 -1.9713 -0.7347
 3611SOL     OW22291   4.133   0.508  10.046 -0.1631 -0.3535 -0.5076
 3611SOL    HW122292   4.145   0.574  10.114  0.8268 -0.6142 -0.4199
 3611SOL    HW222293   4.135   0.570   9.973 -2.4188  1.5167  1.0200
 3612SOL     OW22294   4.380   3.029  14.854  0.2001 -0.4997  0.3700
 3612SOL    HW122295   4.352   3.059  14.768 -0.9109  0.0490  0.9220
 3612SOL    HW222296   4.307   2.972  14.878  0.4454 -0.3264  1.5300
 3613SOL     OW22297   3.933   0.042  13.430 -0.3000  0.0002  0.0215
 3613SOL    HW122298   3.930   0.040  13.334 -2.3722 -1.0551  0.1004
 3613SOL    HW222299   3.941   4.671  13.442  1.4247  0.0346 -0.8885
 3614SOL     OW22300   2.608   2.561   8.234  0.2095  0.5182  0.6882
 3614SOL    HW122301   2.598   2.557   8.329 -1.3946 -0.6526  0.4719
 3614SOL    HW222302   2.520   2.591   8.210 -0.4595 -2.9124 -1.1161
 3615SOL     OW22303   3.004   2.828  12.619 -0.7203  0.1001  0.3782
 3615SOL    HW122304   3.054   2.904  12.590  0.4152 -1.1057 -0.8786
 3615SOL    HW222305   3.020   2.825  12.713  0.0323 -0.3214  0.2361
 3616SOL     OW22306   1.290   3.956   4.357  0.1211 -0.2476  0.6821
 3616SOL    HW122307   1.293   4.018   4.430  3.6845  2.3847 -1.7048
 3616SOL    HW222308   1.279   4.024   4.291  0.0614 -1.3510 -0.4334
 3617SOL     OW22309   1.494   2.265   3.657 -0.3379  0.4199 -0.2226
 3617SOL    HW122310   1.506   2.339   3.597  0.5349 -0.4028 -1.0668
 3617SOL    HW222311   1.534   2.195   3.605 -0.3565  0.2719 -0.0342
 3618SOL     OW22312   2.188   2.831   9.248 -0.4329 -0.4389 -0.0968
 3618SOL    HW122313   2.281   2.854   9.250  0.0838 -2.4799 -1.0231
 3618SOL    HW222314   2.187   2.763   9.316  1.9375  1.7452  2.1086
 3619SOL     OW22315   2.487   2.350  17.468  0.4538  0.4633  0.7534
 3619SOL    HW122316   2.432   2.402  17.410  0.2844  0.1256  0.6099
 3619SOL    HW222317   2.435   2.270  17.473 -1.0320  1.2210 -2.4657
 3620SOL     OW22318   1.561   3.131  15.646 -0.2934  0.5625  0.4492
 3620SOL    HW122319   1.517   3.045  15.647 -1.0391  0.9499  1.2084
 3620SOL    HW222320   1.573   3.135  15.741  1.1186 -0.3373  0.3120
 3621SOL     OW22321   1.424   2.962  17.526 -0.8008 -0.0198  0.1717
 3621SOL    HW122322   1.393   2.940  17.438  0.4449  1.0162 -0.5393
 3621SOL    HW222323   1.432   2.884  17.581 -1.1386  0.6817  1.2179
 3622SOL     OW22324   4.677   0.631   1.913  0.2190  0.2309 -0.1649
 3622SOL    HW122325   0.006   0.561   1.874 -1.4014 -2.5588  2.6941
 3622SOL    HW222326   4.609   0.630   1.846 -1.7671  0.9233  1.8329
 3623SOL     OW22327   4.155   0.902   9.963 -0.9615 -0.0920 -0.1736
 3623SOL    HW122328   4.105   0.981   9.940 -0.2110 -0.3799 -2.8246
 3623SOL    HW222329   4.196   0.894   9.877  2.2365  0.9244  1.2501
 3624SOL     OW22330   4.348   1.927   4.969  0.2636  0.8529  0.9331
 3624SOL    HW122331   4.316   1.839   4.952  0.2746  1.2656 -1.3472
 3624SOL    HW222332   4.363   1.957   4.879 -0.1642 -2.5762 -0.2794
 3625SOL     OW22333   0.589   3.685  11.461 -0.2444  0.4174  0.3838
 3625SOL    HW122334   0.606   3.748  11.390 -0.0121  1.8421  1.6956
 3625SOL    HW222335   0.676   3.683  11.502 -0.3846 -1.4331  0.5567
 3626SOL     OW22336   4.131   4.335   6.301  0.1196 -0.4173 -0.1305
 3626SOL    HW122337   4.118   4.426   6.328 -0.5931 -1.2039  2.1025
 3626SOL    HW222338   4.204   4.345   6.240 -0.1619  0.8109 -0.2771
 3627SOL     OW22339   2.834   3.413   1.833 -0.1668 -0.1237 -0.0701
 3627SOL    HW122340   2.774   3.423   1.907 -0.5454 -0.5844 -0.3179
 3627SOL    HW222341   2.846   3.318   1.841 -1.5434 -0.3178 -0.3052
 3628SOL     OW22342   0.324   3.861   0.006 -0.2636 -0.3725  0.0952
 3628SOL    HW122343   0.365   3.850   0.091  1.4970  1.6958 -0.4831
 3628SOL    HW222344   0.322   3.956  17.690 -0.0044 -0.3327  0.4425
 3629SOL     OW22345   0.178   2.710   3.245  0.4472 -0.0425  0.2188
 3629SOL    HW122346   0.180   2.737   3.153  0.7177  0.0034  0.2370
 3629SOL    HW222347   0.129   2.628   3.248 -0.6624  0.5841 -0.8252
 3630SOL     OW22348   4.365   1.696   8.795 -0.0900  0.8179 -0.4005
 3630SOL    HW122349   4.420   1.752   8.851 -0.2582 -1.7151  2.2506
 3630SOL    HW222350   4.384   1.610   8.832 -2.6769  0.9306  1.1647
 3631SOL     OW22351   2.604   1.074   8.585 -0.3576  0.0807  0.8161
 3631SOL    HW122352   2.510   1.077   8.604 -0.7947  1.4903 -1.6126
 3631SOL    HW222353   2.616   0.979   8.581 -1.5609 -0.0494  0.1860
 3632SOL     OW22354   0.060   4.478  11.209 -0.5539  0.1662  1.0590
 3632SOL    HW122355   0.006   4.503  11.284 -2.0704  1.9941 -0.6237
 3632SOL    HW222356   0.144   4.518  11.229 -1.2245  1.7531  0.6752
 3633SOL     OW22357   0.885   3.482  11.967  0.4203 -0.7805 -0.0555
 3633SOL    HW122358   0.933   3.554  11.926 -3.3971  2.3593  0.9844
 3633SOL    HW222359   0.828   3.444  11.901 -0.9437 -0.1523  0.7669
 3634SOL     OW22360   1.334   0.161   4.010 -0.1684  0.0524 -0.3305
 3634SOL    HW122361   1.299   0.241   3.971  0.0931 -0.5492 -1.8029
 3634SOL    HW222362   1.371   0.123   3.930 -1.2742 -1.9003  0.0912
 3635SOL     OW22363   1.786   2.333   3.979  0.3192  0.2056  0.2667
 3635SOL    HW122364   1.787   2.237   3.980 -3.7423  0.1146 -1.8532
 3635SOL    HW222365   1.806   2.359   3.889 -0.9406 -0.3989 -0.1973
 3636SOL     OW22366   1.442   3.957   3.231  0.0765  0.2974 -0.3681
 3636SOL    HW122367   1.454   3.970   3.137 -0.2872  0.3957 -0.3974
 3636SOL    HW222368   1.360   3.910   3.242 -0.4537  1.2788 -0.1650
 3637SOL     OW22369   0.952   0.464   0.322 -0.2493  0.1778  0.0824
 3637SOL    HW122370   0.923   0.407   0.251 -0.0702  0.0215  0.1325
 3637SOL    HW222371   0.902   0.423   0.393  1.3732  0.1294  1.2161
 3638SOL     OW22372   3.871   0.495  13.951 -0.3451  0.7530 -0.4114
 3638SOL    HW122373   3.878   0.477  13.857  0.3197  0.4976 -0.3060
 3638SOL    HW222374   3.781   0.465  13.964 -0.1475  0.2137 -0.3137
 3639SOL     OW22375   2.077   4.293   5.349  0.3140 -0.6745  0.0959
 3639SOL    HW122376   2.148   4.229   5.354  0.9989  0.3050  3.2776
 3639SOL    HW222377   2.087   4.327   5.260 -1.8602  1.5152  0.6727
 3640SOL     OW22378   4.663   3.145   4.965  0.0385  0.2632 -0.0807
 3640SOL    HW122379   4.700   3.067   4.924  2.3311  1.5331 -0.4256
 3640SOL    HW222380   4.575   3.142   4.929 -0.4150 -2.0766  1.2364
 3641SOL     OW22381   2.374   0.880   8.997 -0.2158  0.3236  0.7800
 3641SOL    HW122382   2.364   0.872   8.902  0.8770  0.5778  0.6480
 3641SOL    HW222383   2.352   0.971   9.014 -0.6588  0.1805  0.9903
 3642SOL     OW22384   4.521   3.513   7.901 -0.6852 -0.0348 -0.4349
 3642SOL    HW122385   4.525   3.418   7.892 -0.2940 -0.4458  3.7972
 3642SOL    HW222386   4.473   3.537   7.822 -1.3417 -0.7243 -0.2474
 3643SOL     OW22387   4.669   0.915   7.513 -0.5332  0.3430 -0.0252
 3643SOL    HW122388   4.577   0.916   7.539 -0.8735 -3.9493 -0.9728
 3643SOL    HW222389   4.694   0.824   7.529  0.1352  0.0139 -2.9931
 3644SOL     OW22390   4.553   1.162   9.616  0.0452  0.1161  0.1205
 3644SOL    HW122391   4.581   1.246   9.653  0.0122 -0.0662  0.5594
 3644SOL    HW222392   4.460   1.180   9.606 -0.0525 -1.0071 -1.0349
 3645SOL     OW22393   3.486   1.755   7.483  0.4573 -0.6698  0.0161
 3645SOL    HW122394   3.434   1.681   7.452  1.4472 -1.2792 -0.2097
 3645SOL    HW222395   3.577   1.724   7.482  1.1290  1.2622  1.4351
 3646SOL     OW22396   0.109   1.804  16.190  0.0245  0.2587  0.1171
 3646SOL    HW122397   0.181   1.793  16.252  0.3212 -1.4300 -0.5224
 3646SOL    HW222398   0.033   1.759  16.226  1.6033 -1.5677  1.1491
 3647SOL     OW22399   4.162   0.993   4.087 -0.0779 -0.7725 -0.2552
 3647SOL    HW122400   4.229   0.957   4.029 -0.7576 -0.6495 -1.1148
 3647SOL    HW222401   4.161   0.919   4.147  2.7523 -0.3037  0.3552
 3648SOL     OW22402   2.996   3.242  13.321  0.4850  0.3691 -0.0558
 3648SOL    HW122403   3.042   3.267  13.241  0.6240 -0.7544 -0.3293
 3648SOL    HW222404   2.968   3.328  13.353 -0.7916  0.1715 -0.6554
 3649SOL     OW22405   4.687   3.042  16.194  0.7976  0.0623  0.2225
 3649SOL    HW122406   4.592   3.031  16.198  0.7845 -0.2031 -0.9611
 3649SOL    HW222407   4.698   3.095  16.115  2.7497  1.2211  1.2692
 3650SOL     OW22408   1.616   2.619   8.546  0.3411  0.0262 -0.0321
 3650SOL    HW122409   1.597   2.711   8.561  0.0043 -0.1182  0.4091
 3650SOL    HW222410   1.709   2.618   8.521  0.2860  1.2010 -0.2535
 3651SOL     OW22411   0.354   3.970   7.664 -0.2339  0.8637 -0.0651
 3651SOL    HW122412   0.408   4.001   7.591 -0.5673 -1.0771 -1.1359
 3651SOL    HW222413   0.381   3.878   7.664 -0.5630  0.7706  0.3130
 3652SOL     OW22414   0.544   1.466  15.890 -0.3774  0.7011  0.0328
 3652SOL    HW122415   0.471   1.432  15.941 -0.3113 -0.9703 -0.9867
 3652SOL    HW222416   0.507   1.478  15.802 -0.7015  1.7513  0.3108
 3653SOL     OW22417   0.391   1.605   6.583 -0.2607  0.1283  0.5124
 3653SOL    HW122418   0.441   1.609   6.665 -0.9375 -0.6238  0.9507
 3653SOL    HW222419   0.474   1.601   6.534 -0.4947 -0.8103  0.1972
 3654SOL     OW22420   1.739   1.496   6.518  0.2736 -0.6705  0.2529
 3654SOL    HW122421   1.663   1.439   6.530 -0.9133  0.4671 -1.6669
 3654SOL    HW222422   1.810   1.440   6.546  0.7751 -0.8442 -1.3545
 3655SOL     OW22423   0.306   0.447  15.164 -0.4925 -0.5737  0.2356
 3655SOL    HW122424   0.268   0.493  15.240  0.3683  1.9380 -0.8543
 3655SOL    HW222425   0.385   0.413  15.204  0.4171 -0.7299 -1.7119
 3656SOL     OW22426   3.151   1.528   4.866  0.2658 -0.2264  0.2886
 3656SOL    HW122427   3.115   1.614   4.891 -2.0488 -0.8671 -0.8071
 3656SOL    HW222428   3.195   1.497   4.945  0.0178  1.4267  1.0816
 3657SOL     OW22429   3.592   2.693   7.988  0.6132  0.3506  0.1525
 3657SOL    HW122430   3.617   2.785   7.979  0.4469  0.2964 -0.8432
 3657SOL    HW222431   3.514   2.704   8.043  0.4289  1.9925 -0.4400
 3658SOL     OW22432   0.094   1.828   2.893 -0.1582 -0.1494  0.5495
 3658SOL    HW122433   0.145   1.755   2.857  0.3469  0.2441  0.4799
 3658SOL    HW222434   0.128   1.838   2.982  3.2433  1.6418 -0.9617
 3659SOL     OW22435   2.316   3.671  13.928  0.7548  0.6069 -0.2503
 3659SOL    HW122436   2.324   3.655  14.022 -0.3827  0.5176 -0.1738
 3659SOL    HW222437   2.237   3.722  13.913  0.5433  0.0802 -0.9119
 3660SOL     OW22438   0.710   0.719   6.047  0.7417  0.3793 -0.3602
 3660SOL    HW122439   0.683   0.721   6.139  0.0142 -1.6762 -0.5188
 3660SOL    HW222440   0.717   0.812   6.026 -0.8955  0.1294 -1.9228
 3661SOL     OW22441   4.248   3.702   9.911 -0.6961 -0.4392  0.0546
 3661SOL    HW122442   4.198   3.722   9.990  0.0354 -1.2543  0.7289
 3661SOL    HW222443   4.286   3.615   9.921  1.5123  0.5999  0.9140
 3662SOL     OW22444   4.557   3.883   2.395  0.2370 -0.2736  0.2808
 3662SOL    HW122445   4.634   3.889   2.451  0.1007 -0.7962  0.5143
 3662SOL    HW222446   4.521   3.972   2.397 -0.2404 -0.5008  1.7461
 3663SOL     OW22447   0.024   4.197   5.749 -0.6238 -0.1883 -0.0281
 3663SOL    HW122448   0.028   4.289   5.726  0.4808 -0.9727 -3.0600
 3663SOL    HW222449   4.698   4.167   5.673 -0.7148 -0.3013  0.0750
 3664SOL     OW22450   3.259   2.480  12.528  0.0141  0.5154 -0.2393
 3664SOL    HW122451   3.329   2.519  12.476  0.9097 -1.0093 -0.1781
 3664SOL    HW222452   3.315   2.431  12.588 -1.3093  0.1375  0.6848
 3665SOL     OW22453   1.688   3.947   4.410  0.3401 -0.2632  0.1420
 3665SOL    HW122454   1.702   4.041   4.422 -0.9219  0.2071 -2.0731
 3665SOL    HW222455   1.672   3.922   4.501  0.5151 -0.0744  0.2242
 3666SOL     OW22456   3.250   1.243  10.494 -0.2217  0.2144 -0.1809
 3666SOL    HW122457   3.180   1.191  10.534  1.3386 -0.5499  1.5416
 3666SOL    HW222458   3.324   1.183  10.508  0.8503  1.5222 -0.2565
 3667SOL     OW22459   0.065   0.423  13.120  0.2937  0.3478 -0.2144
 3667SOL    HW122460   4.708   0.466  13.151  0.9948  1.0931  0.5908
 3667SOL    HW222461   0.043   0.424  13.027  2.1378 -1.0414 -0.6442
 3668SOL     OW22462   3.046   0.682  10.834 -0.4372  0.0194  0.8033
 3668SOL    HW122463   3.016   0.622  10.765 -0.2325  0.3577  0.4243
 3668SOL    HW222464   3.131   0.707  10.798 -0.3424 -1.0805  0.2611
 3669SOL     OW22465   1.946   4.329  15.685  0.9203  0.2068 -0.3273
 3669SOL    HW122466   1.969   4.240  15.657 -0.2409 -0.0165 -0.5732
 3669SOL    HW222467   2.021   4.342  15.742  1.6805  2.3269 -1.8220
 3670SOL     OW22468   2.493   4.269  12.734  0.5529 -0.0332  0.6838
 3670SOL    HW122469   2.565   4.313  12.688 -1.3352  0.3833 -1.8392
 3670SOL    HW222470   2.522   4.178  12.732 -0.1393 -0.2745  1.8093
 3671SOL     OW22471   0.969   0.817   3.118 -0.1348  0.1935 -0.1680
 3671SOL    HW122472   0.931   0.852   3.198 -2.9803 -1.2880 -0.8898
 3671SOL    HW222473   0.896   0.823   3.057 -0.0011 -0.1944 -0.3644
 3672SOL     OW22474   4.379   3.749   5.409 -0.1174  0.3189  0.9644
 3672SOL    HW122475   4.467   3.743   5.445  0.1906  1.3058  0.3668
 3672SOL    HW222476   4.335   3.763   5.492  0.2942  0.8619  1.0899
 3673SOL     OW22477   4.569   3.683   0.347 -0.3413 -0.2492 -0.6639
 3673SOL    HW122478   4.549   3.760   0.293 -0.2173 -0.5685 -1.1674
 3673SOL    HW222479   4.637   3.646   0.291  0.2908  1.5860 -1.1283
 3674SOL     OW22480   3.261   4.127   9.484  0.4135  0.1807  0.4377
 3674SOL    HW122481   3.257   4.045   9.533  2.5772 -0.9748 -1.3081
 3674SOL    HW222482   3.193   4.103   9.421  0.3139 -1.2507  1.0795
 3675SOL     OW22483   1.918   0.123   2.800 -0.5709 -0.1628  0.3393
 3675SOL    HW122484   1.910   0.031   2.778  0.0803 -0.2701  0.5494
 3675SOL    HW222485   1.881   0.162   2.721  1.1661 -1.1687 -0.9525
 3676SOL     OW22486   4.206   4.448   4.754 -0.2938 -0.3602 -0.3746
 3676SOL    HW122487   4.150   4.523   4.774 -0.1294 -0.3737  0.1496
 3676SOL    HW222488   4.264   4.433   4.829  0.4203  1.5253 -0.5696
 3677SOL     OW22489   0.313   4.169   5.757 -0.1084  0.0322 -0.4030
 3677SOL    HW122490   0.218   4.176   5.765  0.0539  1.7725 -0.0672
 3677SOL    HW222491   0.342   4.182   5.667 -0.8554  2.0859 -0.3487
 3678SOL     OW22492   2.068   0.769   6.539  0.0326 -0.1314 -0.5632
 3678SOL    HW122493   2.030   0.746   6.624  4.6087  2.7526  2.2209
 3678SOL    HW222494   2.058   0.864   6.540  0.2613 -0.1129  0.1897
 3679SOL     OW22495   1.320   0.703  13.985  0.0659 -0.5743 -0.4072
 3679SOL    HW122496   1.303   0.796  13.993 -1.5649 -0.6243 -3.4040
 3679SOL    HW222497   1.252   0.678  13.922 -1.0376  1.5261 -0.0285
 3680SOL     OW22498   1.600   0.722   8.023  0.1127  0.1552 -0.0104
 3680SOL    HW122499   1.534   0.709   7.954  1.2328 -1.5905 -0.7630
 3680SOL    HW222500   1.635   0.805   7.991  0.0978  0.2194  0.1415
 3681SOL     OW22501   1.648   2.378   4.285  0.0337 -0.2720 -0.5354
 3681SOL    HW122502   1.606   2.433   4.219 -1.4175 -1.8479 -0.9149
 3681SOL    HW222503   1.575   2.325   4.317 -0.0760  0.3429  0.2604
 3682SOL     OW22504   4.056   1.136  13.143 -0.6022  0.9492  0.1456
 3682SOL    HW122505   4.033   1.082  13.066 -0.1245 -0.0351  0.6960
 3682SOL    HW222506   4.120   1.085  13.193 -0.8946  1.8414  1.4028
 3683SOL     OW22507   4.657   2.058  10.550  0.4422 -0.0417 -0.2722
 3683SOL    HW122508   4.703   1.999  10.490 -2.1606 -1.2134 -1.1256
 3683SOL    HW222509   4.569   2.061  10.512  1.6253 -0.0198 -2.9995
 3684SOL     OW22510   0.255   4.630   6.540  0.3992 -0.2034  0.0324
 3684SOL    HW122511   0.322   4.681   6.585  1.1280 -1.6962  0.6434
 3684SOL    HW222512   0.205   4.602   6.616 -1.9715 -0.0351 -1.4613
 3685SOL     OW22513   2.697   0.023   7.876  0.0142  0.8079 -0.7560
 3685SOL    HW122514   2.630   0.074   7.922  0.5023  0.4098  0.3955
 3685SOL    HW222515   2.758   4.713   7.942 -2.2994  2.0890  2.0579
 3686SOL     OW22516   3.267   3.888   3.347 -0.5529 -0.2009 -0.3315
 3686SOL    HW122517   3.237   3.826   3.280  1.5567 -0.7893 -0.7217
 3686SOL    HW222518   3.327   3.940   3.294 -0.1256 -1.3441 -0.9742
 3687SOL     OW22519   4.604   1.412   3.557  0.2706 -0.4462  0.2995
 3687SOL    HW122520   4.643   1.339   3.605 -2.4852 -1.5629  0.8369
 3687SOL    HW222521   4.518   1.418   3.599 -0.0230  0.6044 -0.4454
 3688SOL     OW22522   1.372   4.280   3.952 -0.1330  0.2792  0.0951
 3688SOL    HW122523   1.397   4.192   3.924  0.0527  0.3801 -0.0566
 3688SOL    HW222524   1.401   4.291   4.043 -0.6322 -1.9258  0.5436
 3689SOL     OW22525   1.660   3.103  15.315 -0.3729  0.0089  0.2758
 3689SOL    HW122526   1.680   3.080  15.405  1.7760  1.6910  0.2390
 3689SOL    HW222527   1.568   3.130  15.326 -0.9311 -2.3387  1.2441
 3690SOL     OW22528   4.240   1.546  10.011 -0.3278  0.3471 -0.5483
 3690SOL    HW122529   4.155   1.578   9.981 -0.1901  2.8149  1.7054
 3690SOL    HW222530   4.270   1.495   9.936 -3.1698 -1.5994 -0.3293
 3691SOL     OW22531   0.668   0.672   0.165 -0.3654 -0.1799  0.1088
 3691SOL    HW122532   0.615   0.751   0.170 -0.0282 -0.0013  0.7547
 3691SOL    HW222533   0.602   0.603   0.153 -0.5400 -0.2761  1.6699
 3692SOL     OW22534   1.947   0.568  16.535  0.3049  0.7366  0.2173
 3692SOL    HW122535   1.986   0.549  16.450 -1.2133  0.3011 -0.3797
 3692SOL    HW222536   1.896   0.488  16.548 -1.0267  1.0739 -2.8413
 3693SOL     OW22537   2.982   3.517   0.593  0.2014 -0.2990  0.6432
 3693SOL    HW122538   2.917   3.556   0.533  0.5360 -0.9261 -0.1300
 3693SOL    HW222539   3.050   3.584   0.581  0.0173 -0.8410 -3.5842
 3694SOL     OW22540   1.611   1.253   5.648  0.2960 -0.2954 -0.2062
 3694SOL    HW122541   1.704   1.243   5.668  0.8324  3.1976 -0.9607
 3694SOL    HW222542   1.588   1.160   5.639  1.9976 -0.7429  0.0253
 3695SOL     OW22543   2.888   0.117   3.098 -0.2417 -0.0519  0.2463
 3695SOL    HW122544   2.940   0.050   3.053 -0.7323 -0.1153 -0.2337
 3695SOL    HW222545   2.945   0.186   3.065 -0.3558  0.3832  0.9489
 3696SOL     OW22546   0.242   3.563  13.857 -0.1321 -0.6324 -0.2511
 3696SOL    HW122547   0.152   3.595  13.852 -0.0911 -0.6526 -1.0901
 3696SOL    HW222548   0.279   3.597  13.776  1.3714 -0.6464  0.4321
 3697SOL     OW22549   3.913   1.484   4.125  0.4543 -0.2317 -0.1807
 3697SOL    HW122550   3.822   1.487   4.156  0.3515  0.9317 -0.5727
 3697SOL    HW222551   3.954   1.531   4.197 -0.6475  1.9792 -1.0035
 3698SOL     OW22552   3.773   2.597  10.565  0.8100  0.3674 -0.4955
 3698SOL    HW122553   3.848   2.567  10.617  0.8554  3.4997  1.2651
 3698SOL    HW222554   3.779   2.690  10.589 -0.5705 -0.1898  2.0645
 3699SOL     OW22555   3.966   3.252  10.757  0.0247  0.5036 -0.0675
 3699SOL    HW122556   4.000   3.320  10.816  1.5322  1.3297 -1.8963
 3699SOL    HW222557   3.906   3.308  10.708 -1.4318 -0.7001  0.3380
 3700SOL     OW22558   3.813   3.663   3.410 -0.3240  0.0099  0.4548
 3700SOL    HW122559   3.818   3.636   3.502 -2.1187 -2.3896 -0.1281
 3700SOL    HW222560   3.900   3.703   3.405  0.1110 -0.9415  0.4043
 3701SOL     OW22561   1.288   0.366   5.536  0.0887  0.0520  0.2701
 3701SOL    HW122562   1.227   0.388   5.466 -2.6201 -1.1014  2.2666
 3701SOL    HW222563   1.253   0.424   5.603 -1.5487  0.6113 -1.0496
 3702SOL     OW22564   3.994   1.206   4.602  0.3394 -0.0455 -0.4299
 3702SOL    HW122565   3.913   1.252   4.582 -0.4413 -2.2219 -2.1734
 3702SOL    HW222566   4.009   1.140   4.535  0.1194 -1.1834  0.6355
 3703SOL     OW22567   3.886   3.011  12.823 -0.3029  0.3180  0.5898
 3703SOL    HW122568   3.831   3.086  12.804  0.9400 -0.0698 -4.4471
 3703SOL    HW222569   3.859   2.976  12.908  0.7070 -1.3392  0.2349
 3704SOL     OW22570   2.922   0.018   8.048  0.4146  0.8997 -0.1014
 3704SOL    HW122571   3.017   0.007   8.054  0.1380  0.2908  3.0834
 3704SOL    HW222572   2.910   0.080   8.119 -0.2589 -0.1941  0.7331
 3705SOL     OW22573   0.535   2.119   1.653 -0.2363  0.7691  0.3860
 3705SOL    HW122574   0.439   2.122   1.642 -0.3586 -0.4730  1.2130
 3705SOL    HW222575   0.566   2.206   1.628 -0.7500  0.8184 -0.0979
 3706SOL     OW22576   3.418   1.373  12.319  0.6192  0.1604  0.3914
 3706SOL    HW122577   3.406   1.416  12.234 -0.3503 -2.6773 -0.8994
 3706SOL    HW222578   3.467   1.296  12.292  0.8971  0.0781  1.1458
 3707SOL     OW22579   4.106   1.582   7.907  0.4675  0.3993  0.1059
 3707SOL    HW122580   4.014   1.556   7.911  0.9299 -1.0806  1.4804
 3707SOL    HW222581   4.103   1.615   7.997 -1.3619 -1.5839  0.7906
 3708SOL     OW22582   4.051   1.084   4.844 -0.1918 -0.4732  0.0407
 3708SOL    HW122583   4.020   1.156   4.789 -0.1185 -0.4592  0.0175
 3708SOL    HW222584   4.014   1.018   4.787 -1.2885  0.1244  0.0651
 3709SOL     OW22585   2.494   2.452   7.798  0.4010 -0.1789  0.1748
 3709SOL    HW122586   2.531   2.364   7.796  0.2115 -0.2303 -0.7412
 3709SOL    HW222587   2.529   2.492   7.878 -0.1853 -0.8241  0.7593
 3710SOL     OW22588   3.537   3.379   0.852 -0.1623  0.2647  0.2516
 3710SOL    HW122589   3.468   3.444   0.867  0.3532  1.3682 -2.1498
 3710SOL    HW222590   3.581   3.404   0.770  1.3253 -0.3493  0.8653
 3711SOL     OW22591   0.557   4.414  13.980  0.5282  0.5468 -0.0459
 3711SOL    HW122592   0.582   4.445  14.067  0.7767 -0.3673  0.2080
 3711SOL    HW222593   0.481   4.361  14.005  1.6323 -0.5289  1.0895
 3712SOL     OW22594   1.497   3.904   6.684 -0.5642 -0.3951 -0.3205
 3712SOL    HW122595   1.547   3.840   6.736 -0.2410 -0.4784 -0.7402
 3712SOL    HW222596   1.559   3.975   6.676 -2.2189  1.0040 -0.7088
 3713SOL     OW22597   2.106   4.132  12.392 -0.3770 -0.0822 -0.0107
 3713SOL    HW122598   2.196   4.113  12.420 -0.5316 -0.4000  0.2706
 3713SOL    HW222599   2.114   4.227  12.402 -4.0643  0.3313 -1.1015
 3714SOL     OW22600   4.648   4.054  17.379  0.4702 -0.1568 -0.1981
 3714SOL    HW122601   4.577   3.992  17.396  1.8393 -1.7608 -0.3487
 3714SOL    HW222602   4.669   4.045  17.286  1.1858  1.8382 -0.2271
 3715SOL     OW22603   4.672   4.563  10.769 -0.0187  0.2331  0.0049
 3715SOL    HW122604   4.718   4.510  10.834  0.5931  0.3985 -0.2920
 3715SOL    HW222605   4.643   4.633  10.828 -0.5829  0.8048 -0.9414
 3716SOL     OW22606   1.523   4.091   1.614 -0.0410 -0.3966 -0.5174
 3716SOL    HW122607   1.453   4.034   1.583 -1.0528  0.6045 -0.0472
 3716SOL    HW222608   1.540   4.157   1.546 -2.1432  0.9216  0.2546
 3717SOL     OW22609   4.688   0.273  10.928 -0.1701 -0.5154  0.0617
 3717SOL    HW122610   4.705   0.313  11.014 -0.5584  1.5036 -0.7979
 3717SOL    HW222611   0.025   0.326  10.874  0.2982 -0.9054  0.2008
 3718SOL     OW22612   0.825   3.558   8.499  0.1515  0.4419  0.6921
 3718SOL    HW122613   0.808   3.634   8.556 -1.9504  0.8771 -0.4959
 3718SOL    HW222614   0.918   3.547   8.516  0.1924 -0.8210 -0.3340
 3719SOL     OW22615   0.732   3.986   2.965  0.6148  0.6589  0.3372
 3719SOL    HW122616   0.792   3.927   2.919  2.4304  1.7701  1.2704
 3719SOL    HW222617   0.676   3.920   3.005 -1.2011  1.0034 -1.6354
 3720SOL     OW22618   2.085   3.095   6.301 -0.2643  0.4434  0.4651
 3720SOL    HW122619   2.006   3.147   6.288 -0.1635  0.8213  1.3326
 3720SOL    HW222620   2.144   3.162   6.266  0.3773 -0.4142 -0.1022
 3721SOL     OW22621   2.336   2.331   6.253 -0.7109 -0.1907  0.6735
 3721SOL    HW122622   2.388   2.348   6.175 -1.6948  1.1281  0.3163
 3721SOL    HW222623   2.246   2.353   6.229 -0.4934  2.1837  2.1469
 3722SOL     OW22624   3.121   0.656   7.378  0.4739 -0.3958  0.3410
 3722SOL    HW122625   3.057   0.718   7.413  1.3903  1.1636 -0.7719
 3722SOL    HW222626   3.069   0.576   7.384  0.5919 -0.4227  1.0158
 3723SOL     OW22627   4.529   0.271   3.078 -0.1495 -0.1279  0.2369
 3723SOL    HW122628   4.457   0.333   3.067  1.5027  1.8195  0.2882
 3723SOL    HW222629   4.579   0.289   2.998 -1.1146  0.1778 -0.2906
 3724SOL     OW22630   3.844   1.480   8.618 -0.0365 -0.8114 -0.3508
 3724SOL    HW122631   3.809   1.569   8.620 -0.7021 -1.0463 -1.2625
 3724SOL    HW222632   3.904   1.489   8.691 -0.3077 -1.8560  0.0046
 3725SOL     OW22633   1.471   3.418   7.027  0.1920 -0.1081  0.5074
 3725SOL    HW122634   1.429   3.420   7.113 -1.6297 -1.7553 -0.3549
 3725SOL    HW222635   1.409   3.364   6.978 -0.5551  1.1818  0.0153
 3726SOL     OW22636   1.254   0.781   5.419  0.2103 -0.0126 -0.1525
 3726SOL    HW122637   1.237   0.739   5.335  0.9548 -0.2814 -0.1610
 3726SOL    HW222638   1.180   0.738   5.463  0.5837 -1.7463 -1.2188
 3727SOL     OW22639   2.983   1.998   2.793  0.2457 -0.2642  0.4888
 3727SOL    HW122640   2.923   1.926   2.773 -2.8465  2.7834 -1.2242
 3727SOL    HW222641   3.065   1.950   2.784  0.6163  0.0470  2.2722
 3728SOL     OW22642   4.279   3.773  16.420  0.4719 -0.4585  0.5801
 3728SOL    HW122643   4.217   3.714  16.463 -0.0121 -1.9574 -2.1392
 3728SOL    HW222644   4.297   3.715  16.345 -1.5325 -0.5292  0.1506
 3729SOL     OW22645   2.495   1.642   2.731 -0.8231 -0.0572  0.1304
 3729SOL    HW122646   2.557   1.603   2.793 -0.7722 -0.5643 -0.2370
 3729SOL    HW222647   2.427   1.682   2.784 -1.2960  2.0630 -2.0844
 3730SOL     OW22648   0.223   2.252   8.324  0.1496  0.3445 -1.2598
 3730SOL    HW122649   0.264   2.338   8.334 -1.8265  0.9246  1.8102
 3730SOL    HW222650   0.176   2.242   8.407  1.0189  2.0260 -0.5652
 3731SOL     OW22651   2.268   1.350   2.293  0.4742 -0.3525  0.4505
 3731SOL    HW122652   2.322   1.379   2.219  1.2289 -1.6402  0.4912
 3731SOL    HW222653   2.339   1.320   2.350  0.7541 -1.0702 -0.2720
 3732SOL     OW22654   0.239   0.867  17.671 -0.7711 -0.4678 -0.6506
 3732SOL    HW122655   0.280   0.802  17.614 -2.7263  0.2359 -2.8760
 3732SOL    HW222656   0.169   0.902  17.616  1.5776  1.1032 -2.5961
 3733SOL     OW22657   0.833   0.609   9.228 -0.2858 -0.1288 -0.2755
 3733SOL    HW122658   0.884   0.541   9.274 -2.5460 -0.9595  0.9828
 3733SOL    HW222659   0.813   0.565   9.146 -0.9938  1.5893 -1.0061
 3734SOL     OW22660   3.575   3.008   9.444  0.4732 -0.0008 -0.8521
 3734SOL    HW122661   3.559   3.018   9.351 -1.8015 -1.2492 -0.5842
 3734SOL    HW222662   3.500   3.058   9.476  0.2062 -0.3054 -1.0005
 3735SOL     OW22663   0.628   2.922   8.317 -0.2923  0.1006 -0.1160
 3735SOL    HW122664   0.536   2.898   8.328 -0.0189 -1.2037 -0.6946
 3735SOL    HW222665   0.668   2.840   8.348 -2.8129 -1.6018 -1.3305
 3736SOL     OW22666   1.595   0.203   3.173  0.0164 -0.0604  0.1656
 3736SOL    HW122667   1.558   0.120   3.141 -0.1805  0.8501 -1.9988
 3736SOL    HW222668   1.605   0.250   3.090  2.1475  1.4643  1.2973
 3737SOL     OW22669   3.440   0.491   1.076 -0.6614 -0.5346  0.0036
 3737SOL    HW122670   3.450   0.555   1.006 -0.5896 -1.0043 -0.4153
 3737SOL    HW222671   3.357   0.515   1.117 -0.5541  0.2001 -0.2048
 3738SOL     OW22672   1.060   0.960   5.909 -0.1173  0.0070  0.4468
 3738SOL    HW122673   1.077   0.955   5.815 -0.8155 -1.2839  0.3964
 3738SOL    HW222674   1.108   0.887   5.947  0.2381  0.4544  0.8531
 3739SOL     OW22675   0.435   1.498   7.590 -0.1184 -0.5462  0.3806
 3739SOL    HW122676   0.428   1.590   7.565  0.1460 -0.3999  0.8539
 3739SOL    HW222677   0.521   1.475   7.554 -0.7018 -2.1695  0.0062
 3740SOL     OW22678   3.263   2.492   4.147  0.2189 -0.4104  0.4262
 3740SOL    HW122679   3.189   2.529   4.098  1.2259 -1.1212 -1.6391
 3740SOL    HW222680   3.322   2.506   4.073 -0.2350 -1.7429 -0.1910
 3741SOL     OW22681   1.912   2.397  13.969 -0.3615  0.0433 -0.6228
 3741SOL    HW122682   1.822   2.377  13.947 -0.9364 -0.3712  2.1583
 3741SOL    HW222683   1.947   2.342  13.899  3.2684  0.9908  0.4458
 3742SOL     OW22684   4.174   3.929   8.169  0.3305 -0.2532 -0.3173
 3742SOL    HW122685   4.140   3.902   8.255 -0.6022  0.7588 -0.3671
 3742SOL    HW222686   4.097   3.960   8.122  0.5909  0.3152 -0.3714
 3743SOL     OW22687   3.168   0.961   9.380 -0.2937  0.3414  0.5260
 3743SOL    HW122688   3.190   0.911   9.458 -0.3869 -1.2186 -0.4475
 3743SOL    HW222689   3.156   0.890   9.317  0.3254  1.3500 -0.7318
 3744SOL     OW22690   0.304   3.638   0.907 -0.3976  0.0616  0.2490
 3744SOL    HW122691   0.312   3.676   0.819  1.2906  2.0444  1.2595
 3744SOL    HW222692   0.209   3.630   0.914 -0.2110 -1.1993  1.3014
 3745SOL     OW22693   1.506   0.986  13.757  0.5070 -0.6295  0.0265
 3745SOL    HW122694   1.500   1.047  13.684  1.2746  0.2392  0.6843
 3745SOL    HW222695   1.412   0.974  13.775 -0.0173  4.2886  0.5968
 3746SOL     OW22696   2.460   0.456   2.539 -0.0442 -0.0291 -0.2195
 3746SOL    HW122697   2.474   0.369   2.501  0.9547  0.0870 -0.1244
 3746SOL    HW222698   2.375   0.474   2.499 -0.0184  1.5378  0.4406
 3747SOL     OW22699   1.438   1.758   4.309  0.1159  0.1368 -0.0726
 3747SOL    HW122700   1.443   1.670   4.347 -0.4802 -0.4689 -1.3956
 3747SOL    HW222701   1.366   1.736   4.250  1.2466 -0.4456 -1.2544
 3748SOL     OW22702   3.910   1.659   2.676 -0.2928 -0.1064  0.7893
 3748SOL    HW122703   3.841   1.609   2.634  0.4964 -0.5907  0.0525
 3748SOL    HW222704   3.975   1.601   2.717  0.0064  0.9845  1.8491
 3749SOL     OW22705   1.060   3.041   3.929 -0.2312  0.4071 -0.0413
 3749SOL    HW122706   0.996   3.110   3.944  1.0527  1.3591  0.9978
 3749SOL    HW222707   1.110   3.059   4.008  0.0680  0.3427 -0.2183
 3750SOL     OW22708   0.047   0.530   5.994  0.2464 -0.2136  0.1027
 3750SOL    HW122709   4.722   0.602   6.034 -0.9177 -1.3500  0.7345
 3750SOL    HW222710   0.058   0.472   6.069  0.1158  0.2896  0.5120
 3751SOL     OW22711   3.501   2.070   4.790  0.2080  0.0273  0.6027
 3751SOL    HW122712   3.583   2.094   4.746 -0.9157 -2.4689 -2.8896
 3751SOL    HW222713   3.472   2.144   4.843  0.7014 -0.4547  1.5488
 3752SOL     OW22714   3.446   1.561   9.257  0.0947 -0.4478 -0.2338
 3752SOL    HW122715   3.415   1.592   9.172 -1.0838 -0.0787  0.3267
 3752SOL    HW222716   3.530   1.523   9.231 -0.5336 -1.7003 -0.4291
 3753SOL     OW22717   1.999   0.581  13.756  0.1514 -0.2775 -0.1907
 3753SOL    HW122718   2.048   0.534  13.824 -1.5281  1.2791  2.0809
 3753SOL    HW222719   2.049   0.544  13.683 -2.6451 -1.4834 -1.4563
 3754SOL     OW22720   1.380   4.394   7.187  0.3188 -0.3902  0.0615
 3754SOL    HW122721   1.328   4.395   7.107 -1.4925  2.6176  1.2963
 3754SOL    HW222722   1.318   4.362   7.253  2.5764 -1.2374  1.8140
 3755SOL     OW22723   1.673   3.619   2.738  0.5964 -0.1735  0.1157
 3755SOL    HW122724   1.668   3.542   2.682  0.8474 -1.3696  1.7320
 3755SOL    HW222725   1.583   3.629   2.770  1.3474  2.4683  1.3900
 3756SOL     OW22726   0.923   2.311   4.965 -0.1553 -0.0528 -0.3919
 3756SOL    HW122727   0.933   2.333   4.872 -0.8312 -0.5293 -0.5789
 3756SOL    HW222728   0.996   2.353   5.010 -0.9622  0.4828  0.4198
 3757SOL     OW22729   4.630   1.978  13.619  0.1033 -0.6985  0.0753
 3757SOL    HW122730   4.554   2.034  13.601  0.9502  0.4161 -0.0433
 3757SOL    HW222731   4.596   1.895  13.653  0.0115 -1.8692 -2.7935
 3758SOL     OW22732   2.026   3.697  16.005  0.4582  0.0487 -0.0170
 3758SOL    HW122733   2.079   3.749  16.065 -0.0931  0.4040  0.1619
 3758SOL    HW222734   2.001   3.763  15.941 -0.9693 -0.0279  0.4709
 3759SOL     OW22735   4.551   1.912   3.099  0.0008 -1.2516 -0.3381
 3759SOL    HW122736   4.516   1.979   3.039  0.6452 -0.1029  0.5552
 3759SOL    HW222737   4.532   1.833   3.049  0.7960 -1.4976 -0.2483
 3760SOL     OW22738   3.829   4.430   6.456 -0.5615 -0.3986 -0.0932
 3760SOL    HW122739   3.915   4.465   6.433  0.2487 -2.1066  0.3064
 3760SOL    HW222740   3.808   4.384   6.374  1.3752 -1.2965 -0.0900
 3761SOL     OW22741   3.392   0.402   0.400 -0.0461  0.3897 -0.3092
 3761SOL    HW122742   3.401   0.478   0.458  0.5803 -0.7724  1.1114
 3761SOL    HW222743   3.482   0.369   0.395  0.6060  1.6951  2.4315
 3762SOL     OW22744   3.932   1.767   9.431  0.0516 -0.2103  0.5984
 3762SOL    HW122745   3.890   1.702   9.376 -0.7661  1.5914 -0.9058
 3762SOL    HW222746   3.898   1.845   9.387  0.0531  0.1554  1.2344
 3763SOL     OW22747   1.970   2.338   6.619 -0.6622  0.4154 -0.0261
 3763SOL    HW122748   1.885   2.365   6.655 -0.1698 -0.4365  1.7542
 3763SOL    HW222749   1.938   2.291   6.542  0.9166 -1.2621  0.3465
 3764SOL     OW22750   0.056   0.636   2.842 -0.3000  0.5042 -0.2142
 3764SOL    HW122751   0.091   0.721   2.814  0.2813  0.5666  0.7376
 3764SOL    HW222752   0.013   0.620   2.758  0.9203 -0.9226 -0.5508
 3765SOL     OW22753   0.169   2.488   9.952 -0.7757 -0.0646 -0.0474
 3765SOL    HW122754   0.247   2.432   9.947 -1.1691 -0.4518 -1.8875
 3765SOL    HW222755   0.116   2.435   9.893 -0.4167 -0.9091  0.3790
 3766SOL     OW22756   3.684   3.596   3.900 -0.1916  0.3449 -0.2318
 3766SOL    HW122757   3.644   3.551   3.826  1.5011 -0.5274 -0.6313
 3766SOL    HW222758   3.720   3.679   3.869 -3.2862  0.2021 -4.1516
 3767SOL     OW22759   4.402   4.329   6.295  0.4520 -0.4187  0.2937
 3767SOL    HW122760   4.408   4.259   6.360 -0.8015 -2.5152 -1.8322
 3767SOL    HW222761   4.444   4.293   6.217  1.0601  0.9656 -0.0205
 3768SOL     OW22762   4.653   1.562  14.846  0.2958 -0.0770  0.4626
 3768SOL    HW122763   4.649   1.506  14.923 -0.8556 -0.0358  0.4348
 3768SOL    HW222764   4.603   1.511  14.782  1.5833 -0.7488  0.0023
 3769SOL     OW22765   2.082   4.158  11.446 -0.5367 -0.6054 -0.2793
 3769SOL    HW122766   2.062   4.213  11.370 -2.5847 -1.9997 -0.7567
 3769SOL    HW222767   2.066   4.073  11.406  1.9088 -0.8683 -0.6857
 3770SOL     OW22768   4.673   4.291   4.704  0.3472 -0.3911 -0.3113
 3770SOL    HW122769   0.023   4.328   4.655  0.3291 -3.5872 -2.7297
 3770SOL    HW222770   0.004   4.240   4.765 -1.2202 -1.2704  0.3508
 3771SOL     OW22771   1.756   3.593   4.620 -0.5283 -0.7761  0.9935
 3771SOL    HW122772   1.775   3.600   4.527  0.5697 -2.5832  1.0814
 3771SOL    HW222773   1.842   3.612   4.659 -0.3328 -2.7354  1.5175
 3772SOL     OW22774   0.126   1.545   1.760 -0.3507  0.1536  0.0981
 3772SOL    HW122775   0.086   1.522   1.676 -1.5597  0.1776  0.6644
 3772SOL    HW222776   0.164   1.632   1.744  0.5675 -0.0458  1.1743
 3773SOL     OW22777   0.297   2.947   3.893 -0.3200  0.0833  0.0359
 3773SOL    HW122778   0.366   2.928   3.957 -0.9304  1.1563  1.0107
 3773SOL    HW222779   0.317   3.038   3.868  0.1034 -0.2214 -0.7619
 3774SOL     OW22780   4.143   4.413   2.575  0.3942  0.1535  0.2705
 3774SOL    HW122781   4.114   4.462   2.652  3.3638 -0.2739  1.6834
 3774SOL    HW222782   4.056   4.378   2.558 -0.3860  1.9954  0.4327
 3775SOL     OW22783   2.274   3.963   6.894 -0.1636  0.5335 -0.6310
 3775SOL    HW122784   2.233   3.919   6.820  0.4694 -2.0564  0.5403
 3775SOL    HW222785   2.274   4.054   6.866 -2.1097  0.7132 -0.0217
 3776SOL     OW22786   1.552   4.613   5.553 -0.0483  0.2405 -0.4412
 3776SOL    HW122787   1.486   4.679   5.576 -0.6597 -0.4832 -0.1422
 3776SOL    HW222788   1.611   4.624   5.628  1.6102 -3.2523 -1.2573
 3777SOL     OW22789   0.587   3.596   6.068 -0.0546 -0.0683  0.0077
 3777SOL    HW122790   0.552   3.548   6.142 -2.6115  0.9875 -0.5176
 3777SOL    HW222791   0.558   3.538   5.997 -0.2258 -2.0424  1.6897
 3778SOL     OW22792   1.285   4.286   5.373  0.6239  0.0166 -0.2759
 3778SOL    HW122793   1.210   4.342   5.355 -0.1743 -0.0746  2.7651
 3778SOL    HW222794   1.361   4.344   5.363 -1.1810  2.2861 -1.0152
 3779SOL     OW22795   3.060   3.987   3.871 -0.4500 -0.5332 -0.3200
 3779SOL    HW122796   3.126   4.057   3.872  0.2748 -1.2429  0.7378
 3779SOL    HW222797   3.049   3.984   3.776 -0.7026  1.3992 -0.3669
 3780SOL     OW22798   4.067   4.032   7.424  0.2510 -0.8768 -0.5978
 3780SOL    HW122799   4.085   3.951   7.377  2.5033 -0.6631 -0.0794
 3780SOL    HW222800   4.104   4.009   7.509  2.0191  1.5798 -0.7184
 3781SOL     OW22801   2.104   2.543   2.954 -0.0261  0.5521  0.3086
 3781SOL    HW122802   2.080   2.479   2.887  1.0171  1.3438 -0.8233
 3781SOL    HW222803   2.020   2.568   2.993 -1.1116  0.4764 -2.0081
 3782SOL     OW22804   0.816   1.068   1.223  0.1811  0.1874 -0.1606
 3782SOL    HW122805   0.880   1.136   1.247  0.0474  0.7858 -1.4717
 3782SOL    HW222806   0.821   1.072   1.127  0.3079 -0.1311 -0.1654
 3783SOL     OW22807   3.319   1.061   4.540 -0.4540  0.3725 -0.0502
 3783SOL    HW122808   3.292   0.972   4.516  1.8419 -0.4005  0.2085
 3783SOL    HW222809   3.231   1.092   4.520  0.7350  2.1551 -2.4696
 3784SOL     OW22810   3.804   1.834  11.611 -0.1882 -1.1149 -0.4309
 3784SOL    HW122811   3.794   1.818  11.705 -1.5427 -0.6744 -0.4958
 3784SOL    HW222812   3.718   1.853  11.573 -0.7302  1.1980  1.9282
 3785SOL     OW22813   1.795   3.552   5.540  0.0515 -0.1726 -0.1098
 3785SOL    HW122814   1.820   3.524   5.628 -1.6340 -1.1911  0.0506
 3785SOL    HW222815   1.872   3.529   5.488  2.3684  1.6744  2.4651
 3786SOL     OW22816   3.830   2.388   2.673  0.1663  0.5491  0.5264
 3786SOL    HW122817   3.807   2.453   2.739  1.7793  1.2557  0.4087
 3786SOL    HW222818   3.744   2.346   2.665  0.8044 -0.7616  0.4520
 3787SOL     OW22819   3.780   1.073   8.051  0.1138  0.1576  0.4753
 3787SOL    HW122820   3.758   0.981   8.063 -1.6013  0.7825  2.0612
 3787SOL    HW222821   3.786   1.104   8.142  1.3777  0.7968  0.1792
 3788SOL     OW22822   2.172   4.307   2.025 -1.1409 -0.3520 -0.1520
 3788SOL    HW122823   2.183   4.214   2.047 -2.7579 -0.6415 -0.5637
 3788SOL    HW222824   2.255   4.343   2.057 -1.9427  0.6742  0.7622
 3789SOL     OW22825   4.572   2.853   4.622 -0.3928 -0.3520  0.0961
 3789SOL    HW122826   4.554   2.947   4.615 -1.0192 -0.3129  2.2756
 3789SOL    HW222827   4.489   2.808   4.638 -1.3700  0.8796 -1.5716
 3790SOL     OW22828   3.197   2.440   6.515  0.5367  0.0674 -0.2270
 3790SOL    HW122829   3.115   2.397   6.538  1.7878 -2.4371 -0.3970
 3790SOL    HW222830   3.227   2.391   6.438  3.0117  2.1008 -0.5850
 3791SOL     OW22831   1.175   2.359   6.818 -0.1942 -0.4604  0.5671
 3791SOL    HW122832   1.099   2.310   6.849  0.3108 -0.5948  1.6121
 3791SOL    HW222833   1.137   2.431   6.769 -2.1566 -1.0040  1.2668
 3792SOL     OW22834   1.688   1.007   6.602  0.3052 -0.3459  0.1623
 3792SOL    HW122835   1.599   0.985   6.629  0.8424 -0.5270  1.7693
 3792SOL    HW222836   1.701   0.943   6.532  2.8459 -0.0423  0.3704
 3793SOL     OW22837   0.907   3.283   3.988  0.0867  0.3735  0.1967
 3793SOL    HW122838   0.918   3.351   4.054  0.5908 -2.1419  2.7001
 3793SOL    HW222839   0.812   3.276   3.982  0.0338  2.4897 -1.3669
 3794SOL     OW22840   1.472   2.925   9.777 -0.4106 -0.3895  0.1707
 3794SOL    HW122841   1.560   2.889   9.773  0.9436  2.7859  1.5848
 3794SOL    HW222842   1.419   2.847   9.795 -0.8554 -0.4140 -1.2264
 3795SOL     OW22843   3.203   3.517  12.551  0.1090  0.0781 -0.1446
 3795SOL    HW122844   3.122   3.484  12.512  0.5432 -2.1219  0.7672
 3795SOL    HW222845   3.167   3.560  12.628 -1.2474 -0.7012 -0.3422
 3796SOL     OW22846   3.090   3.612  13.272  0.4185 -0.0104  0.3699
 3796SOL    HW122847   3.089   3.707  13.270 -0.1710 -0.0353 -0.3546
 3796SOL    HW222848   3.150   3.592  13.345  1.2080 -0.1110 -0.3047
 3797SOL     OW22849   0.822   4.048  10.088  0.0251 -0.2831  0.2748
 3797SOL    HW122850   0.739   4.091  10.107 -0.7616 -0.8121 -1.9161
 3797SOL    HW222851   0.830   3.987  10.160 -2.2352  0.4927  1.1726
 3798SOL     OW22852   3.015   4.017   2.311  0.6147  0.5781  0.1005
 3798SOL    HW122853   2.964   4.031   2.231 -0.7403  1.7907  1.1728
 3798SOL    HW222854   3.093   3.975   2.275 -0.2323  0.3122 -1.4320
 3799SOL     OW22855   4.655   2.941   5.408  0.0706  0.1403  0.2753
 3799SOL    HW122856   4.611   2.942   5.323 -1.3046 -0.6778  0.9916
 3799SOL    HW222857   0.023   2.967   5.390  0.3303  0.1064  1.5538
 3800SOL     OW22858   0.480   3.581   4.861  0.0077 -0.8648 -0.0304
 3800SOL    HW122859   0.471   3.562   4.954 -2.4244  0.9443  0.1128
 3800SOL    HW222860   0.556   3.534   4.829  1.9194  0.1817  2.9939
 3801SOL     OW22861   0.210   2.635   2.769 -0.3088 -0.3549  0.2207
 3801SOL    HW122862   0.284   2.632   2.709 -0.4212 -1.9049  0.1614
 3801SOL    HW222863   0.157   2.570   2.722 -0.0828 -0.3088 -0.0913
 3802SOL     OW22864   1.356   1.718  12.405  1.0915 -0.6666  0.4487
 3802SOL    HW122865   1.405   1.661  12.346  0.7250  0.2258 -0.7012
 3802SOL    HW222866   1.275   1.668  12.411  0.1649  0.8549  0.6670
 3803SOL     OW22867   1.852   3.271  16.889 -0.0561 -0.1920 -0.4333
 3803SOL    HW122868   1.882   3.196  16.941  0.0226  0.2853  0.2131
 3803SOL    HW222869   1.792   3.235  16.825 -0.2634 -2.5860  1.0913
 3804SOL     OW22870   1.547   0.022   8.543 -0.3728 -0.2821  0.2547
 3804SOL    HW122871   1.601   4.668   8.559  2.6461  2.0034  1.0660
 3804SOL    HW222872   1.565   0.040   8.451  0.1148 -0.6441  0.2793
 3805SOL     OW22873   3.239   1.486   2.163  0.5744  0.1269 -0.0495
 3805SOL    HW122874   3.237   1.390   2.173 -0.1163  0.2397  0.8418
 3805SOL    HW222875   3.225   1.490   2.068 -2.7011 -1.2533  0.3864
 3806SOL     OW22876   0.771   1.067   5.767  0.9302  0.9941  0.2560
 3806SOL    HW122877   0.712   1.110   5.705 -0.7416  2.1880  2.6979
 3806SOL    HW222878   0.702   1.012   5.804  1.6491 -0.9343 -1.2346
 3807SOL     OW22879   2.242   1.073   5.704 -0.1210  0.3528  0.4339
 3807SOL    HW122880   2.203   0.989   5.728  0.8099 -0.8261 -2.2498
 3807SOL    HW222881   2.325   1.082   5.752 -0.3787 -0.8275  1.1040
 3808SOL     OW22882   4.146   1.920   3.615 -0.3148  0.7297  0.0812
 3808SOL    HW122883   4.179   2.009   3.630  1.9001 -0.2169  0.8615
 3808SOL    HW222884   4.214   1.894   3.553  1.5393  2.7753  1.2644
 3809SOL     OW22885   3.412   2.751   9.367  0.0746 -0.4206  0.5518
 3809SOL    HW122886   3.499   2.742   9.405  1.2889 -0.2604 -2.2107
 3809SOL    HW222887   3.395   2.657   9.354 -1.2162 -0.2854  1.2616
 3810SOL     OW22888   3.916   3.345   6.815 -0.6230  0.0414  0.6273
 3810SOL    HW122889   3.849   3.361   6.748  1.4454  1.9978 -0.9637
 3810SOL    HW222890   3.972   3.291   6.760 -0.4887  1.6653 -0.8139
 3811SOL     OW22891   2.986   1.921  12.585  0.1195 -0.1284  0.0137
 3811SOL    HW122892   2.996   1.838  12.538  0.5358  0.7545 -1.4481
 3811SOL    HW222893   3.028   1.974  12.517  2.8961 -1.6289  0.5801
 3812SOL     OW22894   0.020   4.366   2.809  0.2593 -0.1122 -0.2720
 3812SOL    HW122895   4.716   4.298   2.747  0.9200  0.3754 -1.0861
 3812SOL    HW222896   0.116   4.363   2.801  0.2382 -2.8087  0.3662
 3813SOL     OW22897   2.385   4.416   5.327 -0.4066 -0.1190  0.1782
 3813SOL    HW122898   2.430   4.398   5.410  1.4065 -0.7505 -0.9319
 3813SOL    HW222899   2.402   4.510   5.324 -0.1013 -0.1839 -0.1816
 3814SOL     OW22900   3.913   4.677   3.631  0.4081  0.0326 -0.3446
 3814SOL    HW122901   3.825   4.675   3.668  2.1282 -3.2964  3.5989
 3814SOL    HW222902   3.898   4.678   3.537 -2.3283  1.5474  0.1118
 3815SOL     OW22903   2.439   3.677   0.164  0.3079 -0.5865  0.7108
 3815SOL    HW122904   2.364   3.736   0.178  0.9139  0.6032 -1.1206
 3815SOL    HW222905   2.391   3.595   0.171 -0.4141 -0.2824 -0.7353
 3816SOL     OW22906   0.217   3.565   2.516 -0.0467  0.2148  0.2870
 3816SOL    HW122907   0.235   3.557   2.423 -1.9067 -0.5970  0.0106
 3816SOL    HW222908   0.232   3.477   2.549 -0.1455  0.2050  0.3061
 3817SOL     OW22909   3.849   3.097   6.581 -0.2735  0.0576 -0.0457
 3817SOL    HW122910   3.782   3.076   6.646  0.9676  2.1428  1.8959
 3817SOL    HW222911   3.827   3.186   6.554  1.1790  0.9353  1.7074
 3818SOL     OW22912   0.752   3.876   0.892 -0.0388 -0.0357 -0.2293
 3818SOL    HW122913   0.756   3.963   0.933  0.1642  0.0825 -0.4958
 3818SOL    HW222914   0.695   3.831   0.953 -1.0779  1.1938 -0.2857
 3819SOL     OW22915   2.888   4.146  17.572  0.2050  1.2062 -0.3027
 3819SOL    HW122916   2.828   4.104  17.509  1.2659 -0.4885 -0.2057
 3819SOL    HW222917   2.911   4.228  17.529  1.1824 -0.7240 -3.4680
 3820SOL     OW22918   0.083   2.580   5.213 -0.3164 -0.0989 -0.3787
 3820SOL    HW122919   0.031   2.534   5.278  0.1832  2.8026  2.0570
 3820SOL    HW222920   0.153   2.516   5.199 -0.3163 -0.2026  0.0919
 3821SOL     OW22921   3.779   2.308   7.056  0.5705 -0.2991 -0.6841
 3821SOL    HW122922   3.767   2.258   7.137 -0.3897  0.7545 -0.1769
 3821SOL    HW222923   3.845   2.262   7.005  1.3178  0.5693 -0.4950
 3822SOL     OW22924   1.792   2.622   9.549  0.0413  0.4577 -0.2146
 3822SOL    HW122925   1.845   2.543   9.553 -0.2420  0.1852 -1.9877
 3822SOL    HW222926   1.831   2.653   9.468 -0.8403  1.3493 -0.3052
 3823SOL     OW22927   0.223   3.110   3.543 -0.0099 -0.2297  0.1546
 3823SOL    HW122928   0.297   3.060   3.510  0.5596  0.3676  0.5246
 3823SOL    HW222929   0.179   3.112   3.458  2.5758  1.2564 -1.1268
 3824SOL     OW22930   4.566   3.890  11.515 -0.1191 -0.0616  0.2273
 3824SOL    HW122931   4.546   3.978  11.483 -0.0526  0.0897  0.5962
 3824SOL    HW222932   4.657   3.900  11.544  0.8841 -2.7155 -2.1303
 3825SOL     OW22933   4.346   4.094   9.838  0.2121 -0.0821 -0.3050
 3825SOL    HW122934   4.351   4.030   9.910  2.5338  1.2412  0.6934
 3825SOL    HW222935   4.267   4.144   9.860  1.4954  1.6742  0.2864
 3826SOL     OW22936   0.864   4.365  17.674 -0.4277 -1.0460  0.1933
 3826SOL    HW122937   0.897   4.290   0.029  1.2613 -0.7417 -0.4557
 3826SOL    HW222938   0.830   4.305  17.607  4.7657 -2.4401 -1.2284
 3827SOL     OW22939   2.227   4.535   6.507 -0.2027  0.3903 -0.3813
 3827SOL    HW122940   2.160   4.507   6.444 -1.3950  3.2577 -0.3953
 3827SOL    HW222941   2.297   4.562   6.448 -0.9365  1.3830 -0.8121
 3828SOL     OW22942   3.014   0.703  14.560 -0.0880  0.1748  0.9302
 3828SOL    HW122943   2.982   0.743  14.641 -1.4486  2.2551 -0.6307
 3828SOL    HW222944   2.948   0.742  14.503  1.8487  1.6981 -0.2324
 3829SOL     OW22945   2.389   3.759   3.216  0.6393  0.9573 -0.0466
 3829SOL    HW122946   2.440   3.835   3.247  1.3847  1.3179 -2.1776
 3829SOL    HW222947   2.433   3.686   3.260  1.5484  2.2899  1.2705
 3830SOL     OW22948   3.263   4.465  14.321  0.3715  0.4871  0.1875
 3830SOL    HW122949   3.288   4.537  14.379 -1.0882  1.2618 -0.1481
 3830SOL    HW222950   3.313   4.489  14.243  1.5142 -1.2506  0.3866
 3831SOL     OW22951   0.174   0.135   1.912 -0.4086 -0.4288 -0.2616
 3831SOL    HW122952   0.269   0.138   1.907 -0.3189 -1.5603  0.7464
 3831SOL    HW222953   0.159   0.050   1.870 -1.4454  0.2200 -1.2106
 3832SOL     OW22954   1.773   1.813   9.634  0.4072 -0.2276  0.0341
 3832SOL    HW122955   1.829   1.890   9.643  3.2846 -2.0243 -2.1116
 3832SOL    HW222956   1.824   1.756   9.576 -1.9664 -2.6937  0.3581
 3833SOL     OW22957   4.025   3.821   3.322  0.1911 -0.2967 -0.0885
 3833SOL    HW122958   4.046   3.770   3.243 -1.5264  0.3913 -0.9977
 3833SOL    HW222959   4.106   3.853   3.361 -1.4254  1.1173  2.0849
 3834SOL     OW22960   1.038   4.039   9.325  0.3332 -0.0533  0.1548
 3834SOL    HW122961   1.060   3.989   9.404  1.2864  0.6863  0.3484
 3834SOL    HW222962   0.943   4.023   9.324  0.3735 -0.2793 -0.1180
 3835SOL     OW22963   2.195   0.842   2.946 -0.0866  0.0366  0.5022
 3835SOL    HW122964   2.171   0.756   2.980  2.0251 -1.1086 -0.9386
 3835SOL    HW222965   2.176   0.901   3.018  0.8756 -2.1159  2.5212
 3836SOL     OW22966   2.549   2.231  16.559 -0.1242  0.1295  0.0784
 3836SOL    HW122967   2.594   2.237  16.643  2.3822 -2.7440 -1.0631
 3836SOL    HW222968   2.494   2.157  16.587  1.4496 -1.2800 -0.5137
 3837SOL     OW22969   1.183   2.042   0.959 -0.0594  0.3689  0.4705
 3837SOL    HW122970   1.215   1.963   1.002 -0.1299  0.6115  0.9721
 3837SOL    HW222971   1.135   2.076   1.034  1.0580 -3.9709  3.1824
 3838SOL     OW22972   2.955   1.571   8.295  0.5503 -0.2041  0.2861
 3838SOL    HW122973   2.900   1.492   8.299  0.6009 -0.4083 -2.7177
 3838SOL    HW222974   2.970   1.580   8.201  0.6047 -0.1404  0.3012
 3839SOL     OW22975   0.104   2.482   3.035 -0.7893 -0.3314 -0.1681
 3839SOL    HW122976   0.178   2.442   2.989  0.2442  1.0750  0.2544
 3839SOL    HW222977   0.082   2.564   2.991  0.1877  0.2670  0.4504
 3840SOL     OW22978   0.866   3.948   7.456 -0.7500 -0.3849  0.5017
 3840SOL    HW122979   0.923   3.914   7.387  1.4073  0.5237  1.8604
 3840SOL    HW222980   0.934   4.002   7.496 -3.0095  1.4752  1.8375
 3841SOL     OW22981   0.445   2.988   9.377 -0.2433  0.3845 -0.8077
 3841SOL    HW122982   0.386   2.914   9.391  1.0360 -0.4603  0.1894
 3841SOL    HW222983   0.497   2.988   9.458 -1.8553  0.9465  0.2240
 3842SOL     OW22984   2.141   0.182  16.372  0.4247 -0.2930  0.4462
 3842SOL    HW122985   2.103   0.098  16.346 -2.4128  1.1633 -0.1294
 3842SOL    HW222986   2.120   0.187  16.466 -0.3846  1.3695  0.1819
 3843SOL     OW22987   2.422   3.147   9.291 -0.1514  0.2481 -0.0441
 3843SOL    HW122988   2.497   3.088   9.284 -0.7810 -0.4472 -0.8559
 3843SOL    HW222989   2.461   3.223   9.335  0.2679 -1.0550  1.8354
 3844SOL     OW22990   1.922   1.319   2.740 -0.1361 -0.3555  0.4929
 3844SOL    HW122991   1.930   1.247   2.677 -1.1865  2.3974 -2.7939
 3844SOL    HW222992   1.935   1.395   2.684 -1.3603 -1.1262 -0.8209
 3845SOL     OW22993   2.956   3.326   6.407  0.2152 -0.1207 -0.2924
 3845SOL    HW122994   2.943   3.232   6.418  0.2224  0.0282  1.0440
 3845SOL    HW222995   2.875   3.360   6.444  1.1402  0.3888  1.2644
 3846SOL     OW22996   0.226   3.750   5.161  0.4153  0.0885  0.1678
 3846SOL    HW122997   0.233   3.665   5.205 -1.1100  0.1128  0.4700
 3846SOL    HW222998   0.213   3.724   5.070  2.1875  0.8793 -0.3153
 3847SOL     OW22999   3.176   3.486   5.218  0.5190  0.1184  0.0083
 3847SOL    HW123000   3.258   3.437   5.223 -0.1741 -0.9921  0.5739
 3847SOL    HW223001   3.136   3.426   5.155  0.6538  1.5112 -1.3929
 3848SOL     OW23002   2.149   1.598   6.392  0.1482 -0.4051 -0.5474
 3848SOL    HW123003   2.101   1.568   6.315  0.4726 -3.0982  0.3116
 3848SOL    HW223004   2.149   1.694   6.386  0.7670 -0.3978 -0.3328
 3849SOL     OW23005   3.685   0.984   5.563 -0.1806  0.9645  0.1760
 3849SOL    HW123006   3.744   0.982   5.487 -1.8830 -0.2851 -1.1219
 3849SOL    HW223007   3.692   1.073   5.598  0.9449  1.0318 -0.2099
 3850SOL     OW23008   1.625   4.446  13.566  0.1593  0.1909  0.0966
 3850SOL    HW123009   1.573   4.514  13.523  1.0779 -0.0553 -1.4326
 3850SOL    HW223010   1.574   4.422  13.643 -0.4966 -1.5279 -0.8707
 3851SOL     OW23011   2.216   0.590   8.281 -0.3847  0.0382  0.0566
 3851SOL    HW123012   2.184   0.676   8.307 -0.5330 -0.1421  0.4651
 3851SOL    HW223013   2.172   0.531   8.343  1.0845 -1.0923  0.0590
 3852SOL     OW23014   0.396   4.389   0.006 -0.0704 -0.1429  0.2379
 3852SOL    HW123015   0.446   4.468  17.681 -0.2771  0.1036  0.7147
 3852SOL    HW223016   0.323   4.419  17.645 -0.1187 -0.0153  0.3713
 3853SOL     OW23017   1.678   0.497   8.460  0.4520  0.2958 -0.6531
 3853SOL    HW123018   1.746   0.432   8.477 -1.4451 -1.9165 -1.6182
 3853SOL    HW223019   1.660   0.483   8.367  4.4481 -0.9815 -1.2293
 3854SOL     OW23020   4.315   3.286  14.127 -0.0645 -0.9887  0.0551
 3854SOL    HW123021   4.396   3.289  14.075  0.3849  0.1440  0.8072
 3854SOL    HW223022   4.261   3.213  14.097 -0.8685 -1.6848  3.1508
 3855SOL     OW23023   3.111   3.622   6.175 -0.0186 -0.9933  0.0820
 3855SOL    HW123024   3.045   3.555   6.158 -1.4352  0.4528 -0.1026
 3855SOL    HW223025   3.170   3.615   6.100  1.0323  0.0155  0.7993
 3856SOL     OW23026   3.739   4.533   9.082 -0.3056  0.6112 -0.3371
 3856SOL    HW123027   3.653   4.567   9.107 -0.4519  0.1789 -0.2624
 3856SOL    HW223028   3.706   4.477   9.012  1.0724 -0.8346  0.1864
 3857SOL     OW23029   3.851   3.142   2.617 -0.2674 -0.4786 -0.5616
 3857SOL    HW123030   3.821   3.082   2.686  1.6115 -1.1343 -0.3300
 3857SOL    HW223031   3.767   3.176   2.586  0.1616  0.5879 -0.5326
 3858SOL     OW23032   0.716   3.541   1.135  0.3251 -0.2889  0.3331
 3858SOL    HW123033   0.740   3.585   1.216 -2.7652  0.9032  0.5884
 3858SOL    HW223034   0.792   3.484   1.122  0.7031  0.0374  1.1641
 3859SOL     OW23035   3.520   4.003   6.058 -0.4689 -0.1843 -0.0280
 3859SOL    HW123036   3.540   4.051   6.138  2.3240 -0.8018 -0.3664
 3859SOL    HW223037   3.478   3.925   6.095 -1.4841  0.5874  0.4588
 3860SOL     OW23038   2.744   3.633   7.059 -0.1040 -0.4669  0.9126
 3860SOL    HW123039   2.807   3.562   7.049 -0.1570 -0.6105  1.5763
 3860SOL    HW223040   2.700   3.610   7.141 -1.5715 -3.6663 -0.7728
 3861SOL     OW23041   2.366   2.867  16.528 -0.0551 -0.2097  0.4401
 3861SOL    HW123042   2.455   2.841  16.505 -0.0379  0.4879 -0.3012
 3861SOL    HW223043   2.355   2.824  16.613 -0.7896 -1.3865 -0.2576
 3862SOL     OW23044   2.077   4.270   3.479  0.6574  0.4777  0.1508
 3862SOL    HW123045   2.024   4.290   3.556 -0.1769  0.3010 -0.3728
 3862SOL    HW223046   2.162   4.298   3.512  0.8288 -1.1007  1.0476
 3863SOL     OW23047   0.465   0.051   7.905 -0.5623 -0.2715 -0.0297
 3863SOL    HW123048   0.458   4.683   7.878 -0.7525 -0.1000 -0.5659
 3863SOL    HW223049   0.448   0.093   7.820 -0.2749 -0.8721 -0.3853
 3864SOL     OW23050   0.742   3.233   8.667  0.4378  0.3894 -0.4729
 3864SOL    HW123051   0.730   3.297   8.737 -2.0389 -0.2805 -0.2700
 3864SOL    HW223052   0.807   3.175   8.706  1.2555  1.7093  0.1214
 3865SOL     OW23053   3.857   1.843   3.438  0.2404 -0.1566 -0.2973
 3865SOL    HW123054   3.865   1.749   3.424  1.3577  0.1011 -1.4507
 3865SOL    HW223055   3.945   1.866   3.468  0.3656  0.0594 -0.8219
 3866SOL     OW23056   3.391   2.747   4.252 -0.0870  0.4855  0.6084
 3866SOL    HW123057   3.334   2.797   4.310 -0.3478  0.3576  0.4623
 3866SOL    HW223058   3.334   2.718   4.181  1.3111  1.4397 -0.9110
 3867SOL     OW23059   2.152   4.567  11.378 -1.2056 -0.1913  0.4720
 3867SOL    HW123060   2.224   4.548  11.438  1.0785 -0.1972 -2.2928
 3867SOL    HW223061   2.182   4.639  11.323  0.3034 -0.0754  1.4402
 3868SOL     OW23062   2.200   0.701   5.406 -0.3643 -0.2050  0.2622
 3868SOL    HW123063   2.139   0.742   5.345  0.6418  0.3793 -0.3542
 3868SOL    HW223064   2.285   0.721   5.368 -1.1660  0.5622 -1.1490
 3869SOL     OW23065   3.299   1.772   9.895  0.5796 -0.0918  0.1534
 3869SOL    HW123066   3.293   1.856   9.940  1.5670 -1.0840  2.1658
 3869SOL    HW223067   3.216   1.732   9.920 -0.3978  1.7774 -0.1009
 3870SOL     OW23068   0.641   1.625   5.117  0.1434 -0.0556 -0.4970
 3870SOL    HW123069   0.616   1.688   5.185 -2.1983 -2.3522  0.7430
 3870SOL    HW223070   0.703   1.572   5.168 -0.9912 -0.6643  0.2437
 3871SOL     OW23071   2.807   4.542   4.656  0.2178  0.1601 -0.0094
 3871SOL    HW123072   2.898   4.556   4.680 -1.0110  1.6007  3.8823
 3871SOL    HW223073   2.795   4.464   4.710  2.0295 -1.3208 -1.7737
 3872SOL     OW23074   2.877   0.279   2.290 -0.1241  0.4015  0.3476
 3872SOL    HW123075   2.971   0.261   2.286 -0.0568  0.7474  0.3495
 3872SOL    HW223076   2.870   0.361   2.241 -0.3217  1.4545  2.1549
 3873SOL     OW23077   0.359   1.060   8.723  1.2361 -0.2449 -0.2881
 3873SOL    HW123078   0.395   0.973   8.737  0.2179 -0.3436  1.6466
 3873SOL    HW223079   0.375   1.063   8.628  0.6716  1.0779 -0.3393
 3874SOL     OW23080   3.945   0.234   2.910 -0.2326  0.5980  0.2052
 3874SOL    HW123081   3.907   0.321   2.908 -1.5002  0.0908  2.1572
 3874SOL    HW223082   4.025   0.251   2.860 -0.6264  1.6848 -0.0482
 3875SOL     OW23083   0.133   1.297  11.630  0.1253 -0.2063 -0.3209
 3875SOL    HW123084   0.132   1.306  11.535 -0.3551 -1.1683 -0.4107
 3875SOL    HW223085   0.191   1.221  11.635  0.2527 -0.2204 -1.8000
 3876SOL     OW23086   1.840   3.331  11.147  0.6200  0.0751 -0.3392
 3876SOL    HW123087   1.800   3.306  11.064  1.4091  1.3032 -1.0929
 3876SOL    HW223088   1.792   3.412  11.160  1.6494  0.3442  1.7773
 3877SOL     OW23089   4.002   3.097   0.528  0.5069  0.4558  0.6396
 3877SOL    HW123090   3.924   3.062   0.571 -0.4558  1.0996 -0.5704
 3877SOL    HW223091   4.046   3.015   0.505 -0.4965  0.0312  0.2599
 3878SOL     OW23092   4.223   1.704  16.067 -0.6075 -0.0024  0.5240
 3878SOL    HW123093   4.301   1.738  16.022 -1.7620  0.2294 -1.2869
 3878SOL    HW223094   4.203   1.768  16.134 -2.1297  0.0113  0.0458
 3879SOL     OW23095   3.799   2.395   3.230 -0.4280  0.1928  0.2414
 3879SOL    HW123096   3.870   2.453   3.258  0.0171 -1.2401  2.0694
 3879SOL    HW223097   3.734   2.428   3.292 -0.2694 -0.2423  0.6315
 3880SOL     OW23098   0.945   2.413   4.037  0.3030 -0.3028 -0.1945
 3880SOL    HW123099   0.872   2.468   4.010 -1.4372 -1.5704  2.0074
 3880SOL    HW223100   1.009   2.453   3.978 -1.9989 -0.8979 -3.1011
 3881SOL     OW23101   0.121   2.226   4.277 -0.2875 -0.9908 -0.2673
 3881SOL    HW123102   0.108   2.131   4.279  1.3939 -1.2029  1.1739
 3881SOL    HW223103   0.202   2.238   4.327  0.9437 -1.1366 -2.2171
 3882SOL     OW23104   0.562   4.171  10.067  0.0040  0.3479 -0.4554
 3882SOL    HW123105   0.498   4.242  10.065  0.8301  1.1027  0.0550
 3882SOL    HW223106   0.591   4.174  10.158  1.1860  0.6884 -0.8330
 3883SOL     OW23107   2.366   2.356   0.144 -0.0262 -0.6472  0.6279
 3883SOL    HW123108   2.368   2.266   0.113 -1.1285  0.3352 -2.2269
 3883SOL    HW223109   2.319   2.344   0.227  0.8662 -0.0076  1.2209
 3884SOL     OW23110   4.205   1.526  16.410  0.2456 -0.2125  0.0922
 3884SOL    HW123111   4.157   1.606  16.433  2.3557  0.8771  0.6860
 3884SOL    HW223112   4.134   1.466  16.432  0.3615 -0.2526  0.3551
 3885SOL     OW23113   3.762   4.448   5.340  0.0958 -0.1853 -0.5734
 3885SOL    HW123114   3.818   4.370   5.338 -3.4033 -2.7096  0.8708
 3885SOL    HW223115   3.817   4.509   5.390 -0.9821  2.5544 -2.7387
 3886SOL     OW23116   4.220   1.602   0.903 -0.0404 -0.1078  0.9850
 3886SOL    HW123117   4.162   1.678   0.905  0.0027 -0.0306 -0.8118
 3886SOL    HW223118   4.292   1.639   0.851 -1.1382  0.4290 -0.1646
 3887SOL     OW23119   3.291   1.237   6.084  0.1299  0.1388  0.6896
 3887SOL    HW123120   3.279   1.284   6.167 -1.4252  1.7308 -0.4247
 3887SOL    HW223121   3.267   1.306   6.022 -0.7855  0.5613  1.5082
 3888SOL     OW23122   3.205   3.397  14.588 -0.3141  0.5107 -0.1597
 3888SOL    HW123123   3.127   3.438  14.625  1.0548  1.7697  1.2923
 3888SOL    HW223124   3.242   3.482  14.565  1.6543 -0.8544 -2.0642
 3889SOL     OW23125   1.157   4.221   2.593  0.9637 -0.2491 -0.5505
 3889SOL    HW123126   1.245   4.252   2.568  1.6205 -0.2623  1.7289
 3889SOL    HW223127   1.164   4.127   2.576 -2.6485 -0.8359  1.3044
 3890SOL     OW23128   3.783   0.413   1.329  0.1800  0.2654  0.0692
 3890SOL    HW123129   3.830   0.484   1.285  0.8519 -1.2992 -1.7486
 3890SOL    HW223130   3.705   0.456   1.365 -0.6674 -1.3714  0.2079
 3891SOL     OW23131   2.219   1.825   0.119 -0.8026 -0.2727  0.3672
 3891SOL    HW123132   2.191   1.855   0.205  0.7006  0.8498  0.4669
 3891SOL    HW223133   2.152   1.867   0.064 -0.2511 -0.1760 -0.2389
 3892SOL     OW23134   1.082   2.330  11.914 -0.9273  0.8265  0.0160
 3892SOL    HW123135   1.164   2.282  11.925 -1.5402  0.0218  1.0705
 3892SOL    HW223136   1.052   2.338  12.005 -1.1563  2.6143 -0.2165
 3893SOL     OW23137   3.391   2.120   6.621 -0.1192  0.0895 -1.2066
 3893SOL    HW123138   3.351   2.136   6.707  2.6617  1.4457 -0.1781
 3893SOL    HW223139   3.447   2.198   6.620  3.5610 -2.5751 -0.4675
 3894SOL     OW23140   1.765   4.040   9.328 -0.0291 -0.0479  0.1739
 3894SOL    HW123141   1.859   4.042   9.314 -0.1644 -0.7726 -0.8504
 3894SOL    HW223142   1.776   3.968   9.390 -0.1494 -0.2835 -0.0808
 3895SOL     OW23143   4.326   1.402   5.513  0.4295  0.0972 -0.0725
 3895SOL    HW123144   4.309   1.356   5.595  0.5171 -0.1584 -0.1965
 3895SOL    HW223145   4.414   1.438   5.525 -0.4580  2.1016  0.2657
 3896SOL     OW23146   3.108   1.707   3.350 -0.0067  0.0262 -0.1745
 3896SOL    HW123147   3.043   1.665   3.294 -1.1318 -0.8012  1.7695
 3896SOL    HW223148   3.193   1.695   3.306  0.2472  2.1881 -0.2892
 3897SOL     OW23149   2.269   1.889  12.749 -0.3353 -0.2981 -0.6942
 3897SOL    HW123150   2.183   1.930  12.746  0.4104  1.3034  0.1403
 3897SOL    HW223151   2.279   1.908  12.655 -2.4919 -3.0189 -1.4638
 3898SOL     OW23152   2.324   3.344   3.842 -0.1440  0.2713 -0.1793
 3898SOL    HW123153   2.335   3.280   3.772  0.3280  1.6732 -1.3756
 3898SOL    HW223154   2.252   3.403   3.820 -1.3261 -1.1186 -0.0280
 3899SOL     OW23155   0.658   1.216   7.428  0.3211 -0.1786 -0.6069
 3899SOL    HW123156   0.727   1.266   7.472 -0.4083  0.2630  0.0306
 3899SOL    HW223157   0.633   1.278   7.360  0.0353  0.0434 -0.2994
 3900SOL     OW23158   2.195   1.993   1.545 -0.4600 -0.2553  0.4533
 3900SOL    HW123159   2.187   2.077   1.499 -0.2714 -1.4845 -1.8541
 3900SOL    HW223160   2.116   1.951   1.512 -0.1309 -0.8762  0.4510
 3901SOL     OW23161   0.632   4.399  11.187  0.0739 -0.3244  0.5019
 3901SOL    HW123162   0.602   4.482  11.149  4.1110  0.4934 -0.9216
 3901SOL    HW223163   0.727   4.399  11.170  0.1142 -0.8517  0.7223
 3902SOL     OW23164   4.386   2.554  10.325 -0.5948 -0.0135 -0.1919
 3902SOL    HW123165   4.462   2.504  10.355 -1.4096  0.3512  2.4464
 3902SOL    HW223166   4.392   2.539  10.230 -3.8621 -1.2792 -0.1824
 3903SOL     OW23167   4.678   1.960  14.033  0.1775  0.2053  0.1707
 3903SOL    HW123168   4.611   2.018  14.069  0.6335  0.2310  0.9593
 3903SOL    HW223169   4.662   1.885  14.090 -2.1369  1.7763  1.5993
 3904SOL     OW23170   4.224   2.475  12.734 -0.7926  0.2225  0.9112
 3904SOL    HW123171   4.232   2.522  12.651  2.2151 -0.8118  0.6438
 3904SOL    HW223172   4.266   2.531  12.799 -0.6034 -0.9431  1.7776
 3905SOL     OW23173   0.344   1.140   4.136  0.2986 -0.3601  1.1605
 3905SOL    HW123174   0.375   1.224   4.103 -0.7946 -0.8931 -1.2445
 3905SOL    HW223175   0.385   1.085   4.069 -1.7477 -1.0625  0.4672
 3906SOL     OW23176   4.702   0.751  16.823 -0.0470  0.0831  0.4720
 3906SOL    HW123177   0.044   0.815  16.852  0.3159 -0.3153  0.5545
 3906SOL    HW223178   0.020   0.669  16.796 -1.3666 -1.3984  2.9198
 3907SOL     OW23179   3.533   3.076  14.602  0.7935 -0.5124 -0.6716
 3907SOL    HW123180   3.469   3.108  14.666 -0.5003  0.5568 -2.4874
 3907SOL    HW223181   3.500   3.135  14.535 -2.2222 -0.7344  0.6086
 3908SOL     OW23182   4.116   0.319   4.195 -0.1572 -0.2701 -0.0718
 3908SOL    HW123183   4.100   0.264   4.117  0.0319 -1.4182  0.6984
 3908SOL    HW223184   4.170   0.252   4.237  0.9001  1.1240  0.7708
 3909SOL     OW23185   3.525   3.061  11.885  0.6117 -0.3154  0.4700
 3909SOL    HW123186   3.492   3.096  11.802 -0.4221 -1.0416  0.5750
 3909SOL    HW223187   3.450   3.011  11.915  0.7072  0.2167  1.5886
 3910SOL     OW23188   2.714   1.971   2.138 -0.5149  0.1748  0.7351
 3910SOL    HW123189   2.750   2.020   2.212 -2.0805  0.0546  1.5766
 3910SOL    HW223190   2.795   1.949   2.092 -1.3037 -1.6187  0.2089
 3911SOL     OW23191   0.481   0.801  15.329 -0.1554  0.0251 -0.3455
 3911SOL    HW123192   0.493   0.711  15.299 -1.3581  0.0009 -0.7494
 3911SOL    HW223193   0.387   0.808  15.343 -0.4406 -1.3706 -1.5750
 3912SOL     OW23194   3.597   1.896   3.354 -0.7491 -0.3070 -0.1782
 3912SOL    HW123195   3.688   1.873   3.373 -0.3918 -0.8912 -2.5738
 3912SOL    HW223196   3.554   1.882   3.438  0.4981  1.4410  0.7517
 3913SOL     OW23197   1.615   1.438   3.020  0.1979 -0.5860 -0.6401
 3913SOL    HW123198   1.597   1.531   3.036 -0.5384 -0.0072 -4.6907
 3913SOL    HW223199   1.627   1.404   3.108  0.1776 -1.7037 -1.0725
 3914SOL     OW23200   2.808   0.236   3.661 -0.3871 -0.0993 -0.2037
 3914SOL    HW123201   2.770   0.239   3.574 -0.6626  1.0931 -0.0536
 3914SOL    HW223202   2.900   0.239   3.635 -0.2528  0.4961  0.3295
 3915SOL     OW23203   4.297   0.878  14.983  0.5956  0.6421 -0.4054
 3915SOL    HW123204   4.372   0.825  15.009  1.9570  2.6005 -0.3212
 3915SOL    HW223205   4.344   0.939  14.925  0.6173 -0.5580 -1.6490
 3916SOL     OW23206   4.639   2.759  13.363 -0.2653 -0.1110  0.3071
 3916SOL    HW123207   4.678   2.771  13.449 -2.3615 -0.8461  1.3836
 3916SOL    HW223208   4.582   2.836  13.368 -0.6985 -0.3155 -1.1736
 3917SOL     OW23209   0.664   3.776   6.359  0.7850 -0.2849  0.5561
 3917SOL    HW123210   0.734   3.820   6.407  1.1074  1.5695 -1.6209
 3917SOL    HW223211   0.682   3.799   6.268  2.3463 -0.7126  0.7551
 3918SOL     OW23212   0.734   0.231   5.321  0.2195 -0.9573  0.7120
 3918SOL    HW123213   0.804   0.199   5.264  0.7170  0.3715  0.5860
 3918SOL    HW223214   0.656   0.197   5.276  1.4253 -0.9021 -1.3983
 3919SOL     OW23215   2.205   1.880   3.325 -0.2681 -0.1673  0.0461
 3919SOL    HW123216   2.232   1.883   3.234  0.5439 -0.3438  0.2792
 3919SOL    HW223217   2.110   1.878   3.310 -0.2473 -0.8896  0.0107
 3920SOL     OW23218   0.994   2.935   3.706 -0.0482 -0.8599  0.2311
 3920SOL    HW123219   1.034   2.994   3.642 -3.6648  1.4282  0.0531
 3920SOL    HW223220   1.027   2.959   3.793 -1.7075  2.0404  0.0472
 3921SOL     OW23221   4.263   3.720   4.239  0.0966  0.0142  0.5315
 3921SOL    HW123222   4.192   3.782   4.223 -0.7215 -0.7560  1.1814
 3921SOL    HW223223   4.217   3.640   4.265  1.4892 -2.1688 -3.6605
 3922SOL     OW23224   0.315   3.060   4.306 -0.3293  0.2741 -0.3717
 3922SOL    HW123225   0.353   2.998   4.369 -0.2822 -1.9514 -2.6034
 3922SOL    HW223226   0.341   3.140   4.351  0.2803 -0.3557  0.3958
 3923SOL     OW23227   2.082   2.258  17.650  0.6850 -0.2594 -0.1930
 3923SOL    HW123228   2.103   2.350  17.640 -1.5304  0.3760  0.9742
 3923SOL    HW223229   2.152   2.222  17.595  0.4514  0.0019 -0.6541
 3924SOL     OW23230   2.794   0.313   3.405  0.2118  0.4056 -0.1199
 3924SOL    HW123231   2.889   0.318   3.410  0.1803  1.1162 -0.2100
 3924SOL    HW223232   2.782   0.220   3.389 -0.3532  0.7413 -1.6872
 3925SOL     OW23233   1.290   4.032  10.477 -0.6197 -0.3543 -0.4888
 3925SOL    HW123234   1.384   4.047  10.482 -0.1099 -3.1550 -1.3530
 3925SOL    HW223235   1.291   3.941  10.509  2.9916 -0.3939 -0.7415
 3926SOL     OW23236   3.492   3.789  10.779  0.4781  0.0501  0.1149
 3926SOL    HW123237   3.546   3.762  10.854  0.6153  0.8277  0.2981
 3926SOL    HW223238   3.412   3.818  10.823 -0.3367 -1.6056 -0.2955
 3927SOL     OW23239   0.087   3.176   3.286 -0.1715 -0.0938  0.2179
 3927SOL    HW123240   0.095   3.119   3.210 -0.0366  1.2092 -0.7584
 3927SOL    HW223241   0.000   3.211   3.267 -1.2067 -3.2544 -0.8964
 3928SOL     OW23242   2.402   4.003   6.497  0.2760 -0.0025 -0.4604
 3928SOL    HW123243   2.463   3.999   6.571  1.6591  0.7102 -1.5679
 3928SOL    HW223244   2.360   4.087   6.515 -0.5046 -0.7211  1.1268
 3929SOL     OW23245   0.677   4.068   8.526  0.4493 -0.2372 -0.1426
 3929SOL    HW123246   0.753   4.068   8.468  1.8463  0.2374  1.6767
 3929SOL    HW223247   0.637   4.154   8.514  3.1159  1.3324  2.1131
 3930SOL     OW23248   1.322   4.381   4.656 -0.6618 -0.4489  0.6954
 3930SOL    HW123249   1.250   4.425   4.701  0.0794  0.7369  0.7103
 3930SOL    HW223250   1.393   4.379   4.720 -0.0226 -1.7724 -0.0581
 3931SOL     OW23251   1.129   0.451   3.158  0.2808  0.0405 -0.1057
 3931SOL    HW123252   1.117   0.378   3.097 -0.1147 -0.2539  0.3196
 3931SOL    HW223253   1.203   0.427   3.213  0.3342 -0.6032 -0.4576
 3932SOL     OW23254   0.008   3.610   2.284  0.4025 -0.3663 -0.6983
 3932SOL    HW123255   0.067   3.684   2.268  1.6774 -1.1504  0.3199
 3932SOL    HW223256   4.714   3.616   2.378 -0.2960 -0.9292 -0.7894
 3933SOL     OW23257   4.325   3.758   3.976 -0.0820 -0.1115 -0.1515
 3933SOL    HW123258   4.420   3.757   3.977 -0.1087 -0.2393  2.0038
 3933SOL    HW223259   4.306   3.718   4.061  1.5092 -0.5724 -0.0248
 3934SOL     OW23260   1.842   2.551   4.864  0.0183  0.2470  0.2109
 3934SOL    HW123261   1.865   2.458   4.857  2.3820  0.9318 -1.1859
 3934SOL    HW223262   1.931   2.586   4.866  0.5971 -1.1924 -0.0039
 3935SOL     OW23263   2.492   3.181   1.298 -0.2762  0.3035 -0.2470
 3935SOL    HW123264   2.564   3.134   1.340  0.4381  0.1553 -1.6627
 3935SOL    HW223265   2.532   3.266   1.281  2.4271 -1.3817 -2.4006
 3936SOL     OW23266   1.556   3.781  15.387 -0.1140  0.0387 -0.9094
 3936SOL    HW123267   1.600   3.718  15.329  0.1760  0.2318 -0.8994
 3936SOL    HW223268   1.537   3.720  15.459 -0.6141 -1.1784 -2.0664
 3937SOL     OW23269   4.034   2.248  15.171 -0.1249  0.2727  0.1315
 3937SOL    HW123270   4.113   2.287  15.208  0.6928 -1.5598  0.3141
 3937SOL    HW223271   3.997   2.321  15.120 -0.0780  1.3914  1.7049
 3938SOL     OW23272   1.590   0.110  14.575 -0.0247 -0.4162  0.1865
 3938SOL    HW123273   1.616   0.196  14.607 -0.8370  0.2820 -1.0229
 3938SOL    HW223274   1.500   0.129  14.548 -0.6684 -0.6866  2.1200
 3939SOL     OW23275   1.772   4.566   7.853  0.0995 -0.0102 -0.7285
 3939SOL    HW123276   1.703   4.561   7.787 -1.9242 -0.5842  1.4296
 3939SOL    HW223277   1.819   4.642   7.820  0.8997 -0.3637 -0.4048
 3940SOL     OW23278   3.596   4.397   7.871 -0.4462  0.2285  0.1091
 3940SOL    HW123279   3.610   4.492   7.862 -0.5403  0.2609  0.3177
 3940SOL    HW223280   3.654   4.368   7.800  0.4701 -0.3072  1.0734
 3941SOL     OW23281   1.809   0.260   4.252  0.2816  0.8799  0.0679
 3941SOL    HW123282   1.722   0.227   4.227 -0.1193  2.4209 -0.5238
 3941SOL    HW223283   1.804   0.354   4.240 -1.0443  0.6870 -0.9468
 3942SOL     OW23284   1.259   2.080   5.275 -0.8223  0.5796  0.3137
 3942SOL    HW123285   1.164   2.089   5.261 -1.0335 -0.0085  1.3375
 3942SOL    HW223286   1.267   2.078   5.371  0.1293  0.2057  0.2196
 3943SOL     OW23287   2.893   3.955   7.261  0.2759 -0.4841 -0.3057
 3943SOL    HW123288   2.832   3.964   7.188 -0.6894  0.2322  0.5861
 3943SOL    HW223289   2.854   3.892   7.321 -0.5293 -0.4423 -0.7839
 3944SOL     OW23290   0.895   2.255   7.499 -0.6219  0.1720  0.4020
 3944SOL    HW123291   0.844   2.333   7.521 -0.2016  0.0064  1.9647
 3944SOL    HW223292   0.987   2.276   7.515 -0.3109 -1.5250  0.7881
 3945SOL     OW23293   2.710   1.385   6.257 -0.3926 -0.3457 -0.5211
 3945SOL    HW123294   2.691   1.440   6.333  0.4246 -0.4371 -0.2477
 3945SOL    HW223295   2.787   1.428   6.218  0.2874 -1.5657 -0.5308
 3946SOL     OW23296   4.717   2.591   7.414  0.2642 -0.2609  0.5674
 3946SOL    HW123297   0.067   2.611   7.356 -0.6846  1.2180 -0.1354
 3946SOL    HW223298   4.663   2.537   7.355 -2.4144  1.0116  1.8657
 3947SOL     OW23299   3.286   2.712   6.553  0.1022 -0.1579  0.5078
 3947SOL    HW123300   3.258   2.621   6.564 -0.0551 -0.1386  0.2751
 3947SOL    HW223301   3.218   2.743   6.493  1.0212  1.4694  0.3019
 3948SOL     OW23302   0.162   3.676   1.917  0.2560  0.4074  0.0786
 3948SOL    HW123303   0.169   3.581   1.914 -0.9971  0.2741  1.4398
 3948SOL    HW223304   0.071   3.678   1.947  0.6450 -0.0150  1.2865
 3949SOL     OW23305   0.350   1.742  16.280 -0.0613  0.1386 -0.0510
 3949SOL    HW123306   0.396   1.751  16.363  0.7256  1.2651 -0.6171
 3949SOL    HW223307   0.377   1.653  16.255  1.6745  0.8031 -0.5573
 3950SOL     OW23308   1.940   3.557   9.231  0.1221 -0.2578 -0.3943
 3950SOL    HW123309   1.955   3.647   9.261 -0.3471  0.2057 -1.5473
 3950SOL    HW223310   1.983   3.497   9.291 -1.0301  0.8072  1.4945
 3951SOL     OW23311   4.670   3.754   6.568 -0.1196 -0.0774  0.1901
 3951SOL    HW123312   4.705   3.680   6.518 -1.0343 -1.9650  2.3051
 3951SOL    HW223313   0.023   3.790   6.612 -1.6164  1.0911  1.8362
 3952SOL     OW23314   2.995   2.871  13.615 -0.3854 -0.1139 -0.4444
 3952SOL    HW123315   3.025   2.841  13.701 -0.1737 -0.4605 -0.6356
 3952SOL    HW223316   3.020   2.963  13.615  1.6928 -0.6673 -1.9530
 3953SOL     OW23317   3.864   4.022   1.927  0.2481 -0.0621 -0.5006
 3953SOL    HW123318   3.900   4.100   1.885 -0.9708  0.8545  0.1739
 3953SOL    HW223319   3.939   3.963   1.938 -1.6682 -2.5705 -0.6802
 3954SOL     OW23320   4.116   1.905   6.594 -0.2691  0.4408  0.4192
 3954SOL    HW123321   4.123   1.818   6.554  0.0197 -0.0744  1.5887
 3954SOL    HW223322   4.026   1.922   6.567  0.5407  2.4016 -1.0156
 3955SOL     OW23323   4.292   3.136   8.046 -0.1857 -0.0242 -0.1191
 3955SOL    HW123324   4.336   3.123   7.962 -1.6318 -0.7279 -0.7703
 3955SOL    HW223325   4.308   3.055   8.094 -0.0579 -0.2136 -0.4814
 3956SOL     OW23326   1.890   3.605   7.955 -0.1249  0.6387  0.8754
 3956SOL    HW123327   1.951   3.631   7.885 -1.2980  1.7613  0.2709
 3956SOL    HW223328   1.926   3.519   7.975  2.1123  0.8449 -2.2446
 3957SOL     OW23329   2.154   0.428  15.480 -0.1020 -0.1701 -0.0694
 3957SOL    HW123330   2.165   0.511  15.433 -2.4649 -0.1736 -0.6111
 3957SOL    HW223331   2.074   0.391  15.443  0.8847 -0.6268 -1.7359
 3958SOL     OW23332   1.244   1.938   5.550  0.2456 -0.1710  0.3578
 3958SOL    HW123333   1.183   1.874   5.587 -1.1023  0.7400 -0.3125
 3958SOL    HW223334   1.325   1.889   5.537 -0.2776 -0.9543  0.0521
 3959SOL     OW23335   1.390   0.231   8.464 -0.0589 -0.3979 -0.0137
 3959SOL    HW123336   1.462   0.169   8.476 -1.6372 -1.8352  1.9066
 3959SOL    HW223337   1.318   0.179   8.499  1.4012 -1.3708  1.5344
 3960SOL     OW23338   1.401   0.006   3.793 -0.1009 -0.7982  0.4876
 3960SOL    HW123339   1.482   4.693   3.828  1.0893  0.2307 -1.1611
 3960SOL    HW223340   1.383   4.678   3.714 -0.8993  0.5914 -0.2351
 3961SOL     OW23341   2.584   2.893   5.516  0.1001  0.2584  0.8362
 3961SOL    HW123342   2.625   2.980   5.522  0.2574  0.2883 -0.5222
 3961SOL    HW223343   2.607   2.852   5.599  1.4318  1.7671  1.2224
 3962SOL     OW23344   3.838   0.865  11.040 -0.2708 -0.1472  0.4102
 3962SOL    HW123345   3.798   0.952  11.035 -1.3463 -0.5589  1.6406
 3962SOL    HW223346   3.931   0.886  11.049 -0.4650  0.5776  0.7341
 3963SOL     OW23347   2.709   1.171   6.034  0.4923 -0.4312  0.6193
 3963SOL    HW123348   2.682   1.250   6.082  0.8030  0.5299 -0.8007
 3963SOL    HW223349   2.783   1.211   5.988 -1.0049 -0.5799 -1.9151
 3964SOL     OW23350   3.959   1.365   6.470 -0.2908  0.2437 -0.5504
 3964SOL    HW123351   3.967   1.320   6.386  2.8121  0.9771 -0.6587
 3964SOL    HW223352   4.016   1.303   6.516 -1.6145  0.6619  1.6595
 3965SOL     OW23353   3.309   3.187   3.322 -0.1369  0.3601 -0.1005
 3965SOL    HW123354   3.252   3.114   3.300  1.3905 -0.2231 -2.1137
 3965SOL    HW223355   3.370   3.191   3.248 -0.5935  0.3501 -0.4747
 3966SOL     OW23356   3.762   1.949   7.444  0.4360  0.4727  0.1500
 3966SOL    HW123357   3.826   1.938   7.373  0.3749 -1.1055  0.3497
 3966SOL    HW223358   3.738   1.858   7.459  2.1279 -0.2637 -1.5357
 3967SOL     OW23359   3.006   0.580  13.159 -0.0235  0.3281 -0.8545
 3967SOL    HW123360   3.014   0.663  13.206  0.0492 -0.5328  0.6341
 3967SOL    HW223361   3.097   0.554  13.147  0.2218 -0.1787  2.1327
 3968SOL     OW23362   3.720   0.158   9.108 -0.3375 -0.7157  0.0622
 3968SOL    HW123363   3.683   0.202   9.032 -1.7564 -1.5722  0.2551
 3968SOL    HW223364   3.662   0.082   9.109 -0.6044 -0.5275 -1.5083
 3969SOL     OW23365   3.619   3.736   2.837 -0.1880  0.6025 -0.2540
 3969SOL    HW123366   3.674   3.807   2.803  0.5907 -0.0781 -0.4363
 3969SOL    HW223367   3.674   3.721   2.914 -0.0076  0.3650 -0.4273
 3970SOL     OW23368   1.920   0.010   6.393  0.3580 -0.0063 -0.4391
 3970SOL    HW123369   1.930   4.639   6.406 -0.1155  0.3402  2.6082
 3970SOL    HW223370   1.973   0.041   6.467  0.9845 -0.0689 -0.8622
 3971SOL     OW23371   1.261   1.605   6.540  0.2262 -0.2702  0.0806
 3971SOL    HW123372   1.233   1.639   6.625 -3.0186 -2.2714 -0.1508
 3971SOL    HW223373   1.188   1.546   6.520 -1.5949  2.4593 -1.3131
 3972SOL     OW23374   4.695   2.704  11.749 -0.6995  0.0795  0.2744
 3972SOL    HW123375   4.621   2.714  11.809 -0.8579  0.4617  0.0138
 3972SOL    HW223376   4.681   2.613  11.724 -0.9929  0.4264 -0.8347
 3973SOL     OW23377   1.898   2.549  14.189 -0.1039  0.6554 -0.1649
 3973SOL    HW123378   1.887   2.488  14.116 -2.3648 -0.0029  0.7087
 3973SOL    HW223379   1.838   2.512  14.254 -0.3158 -0.5002 -1.0284
 3974SOL     OW23380   1.173   1.506   3.047 -0.4913  0.2929  0.2348
 3974SOL    HW123381   1.192   1.584   3.098 -1.3565  0.4126  0.3693
 3974SOL    HW223382   1.219   1.437   3.095 -0.4343 -0.0282 -0.2820
 3975SOL     OW23383   0.439   1.627  15.112  0.3196  0.1094  0.1066
 3975SOL    HW123384   0.476   1.640  15.200  2.0741  0.1525 -0.6394
 3975SOL    HW223385   0.350   1.662  15.117 -0.5437 -1.9088 -0.9267
 3976SOL     OW23386   4.009   3.630  11.983  0.3635  0.0072 -0.1558
 3976SOL    HW123387   4.069   3.689  11.939 -0.2353  1.1871  0.6158
 3976SOL    HW223388   3.921   3.667  11.974  0.7047  0.5461 -1.2497
 3977SOL     OW23389   1.212   3.495  11.947 -0.1580 -0.0196 -0.6325
 3977SOL    HW123390   1.290   3.442  11.935 -0.8807 -1.5326  1.3312
 3977SOL    HW223391   1.189   3.477  12.038  0.8660 -0.7946 -0.5231
 3978SOL     OW23392   2.961   2.011  17.226  0.0246 -0.3900 -0.1083
 3978SOL    HW123393   2.983   1.919  17.243  1.1119 -0.9096 -4.2054
 3978SOL    HW223394   2.958   2.050  17.313 -0.2647  0.9396 -0.7141
 3979SOL     OW23395   2.990   0.975   2.740 -0.0080 -0.1108 -0.4285
 3979SOL    HW123396   2.896   0.986   2.723 -0.3838 -3.3416 -0.3315
 3979SOL    HW223397   3.022   0.926   2.664  3.7041  1.6297  0.0073
 3980SOL     OW23398   1.200   3.879   6.596 -0.2998  0.5229 -0.0695
 3980SOL    HW123399   1.206   3.954   6.655  0.7131  1.5324 -1.4398
 3980SOL    HW223400   1.287   3.838   6.601 -0.7122 -0.4231 -0.5810
 3981SOL     OW23401   2.236   1.707  12.971 -0.3671 -0.3749  0.3683
 3981SOL    HW123402   2.249   1.784  12.916 -0.0843 -1.5910 -1.2736
 3981SOL    HW223403   2.280   1.736  13.051 -1.1088  1.1987  0.1828
 3982SOL     OW23404   1.826   2.926   9.442 -0.0035 -0.1250 -0.4095
 3982SOL    HW123405   1.867   2.840   9.452  2.6732  1.3716  1.5436
 3982SOL    HW223406   1.885   2.979   9.495  0.3974 -0.1335 -0.8482
 3983SOL     OW23407   0.264   2.614   5.819  0.3208  0.3691  0.2051
 3983SOL    HW123408   0.274   2.626   5.914  1.5587 -1.6039  0.3160
 3983SOL    HW223409   0.327   2.542   5.810  0.2230  0.0833  1.7016
 3984SOL     OW23410   0.757   2.979   3.893 -0.1155  0.4648 -0.1267
 3984SOL    HW123411   0.742   3.073   3.903  1.5579  0.8552 -1.3087
 3984SOL    HW223412   0.839   2.975   3.845  0.2886  0.8664  0.5374
 3985SOL     OW23413   2.590   0.709   1.761  0.2015 -0.5542  0.1923
 3985SOL    HW123414   2.496   0.731   1.760  0.1389 -0.5674  3.3898
 3985SOL    HW223415   2.607   0.663   1.679 -1.7530  0.0241 -0.5519
 3986SOL     OW23416   2.526   1.119   4.338 -0.1269  0.2158 -0.0428
 3986SOL    HW123417   2.531   1.097   4.245  0.7846  1.6033 -0.3207
 3986SOL    HW223418   2.439   1.157   4.335 -0.9094 -1.4968  1.0609
 3987SOL     OW23419   1.296   3.700   5.190  0.3332  0.2770  0.2286
 3987SOL    HW123420   1.332   3.730   5.107  0.3821  0.4241  0.3023
 3987SOL    HW223421   1.208   3.686   5.157  0.4233 -0.3906  0.2729
 3988SOL     OW23422   1.577   0.757   3.398  0.3352 -0.2052 -0.2303
 3988SOL    HW123423   1.610   0.679   3.442  0.6033 -0.2910 -0.5761
 3988SOL    HW223424   1.593   0.734   3.306 -3.5727 -2.1157 -0.4166
 3989SOL     OW23425   0.498   3.254  15.343 -0.1206  0.0517 -0.1445
 3989SOL    HW123426   0.534   3.174  15.303 -1.3628 -0.6803  0.2015
 3989SOL    HW223427   0.535   3.322  15.287  0.7570 -0.9503 -0.7883
 3990SOL     OW23428   4.386   3.481  12.529 -0.2670 -0.3890  0.3454
 3990SOL    HW123429   4.382   3.523  12.443 -1.5056 -3.0303 -0.8755
 3990SOL    HW223430   4.387   3.556  12.589  2.8583 -0.7049  0.6779
 3991SOL     OW23431   2.985   0.627  14.124 -0.0344  0.1771 -0.1239
 3991SOL    HW123432   2.916   0.655  14.185 -1.4838 -0.0460 -1.6690
 3991SOL    HW223433   3.032   0.568  14.181 -0.3030 -0.3704 -0.4688
 3992SOL     OW23434   3.667   2.373  11.635 -0.0974  0.4872  0.3114
 3992SOL    HW123435   3.736   2.425  11.677  0.3765 -0.5377  0.8138
 3992SOL    HW223436   3.696   2.366  11.544 -0.5658  0.0567  0.1964
 3993SOL     OW23437   1.356   4.682   3.396 -0.5385  0.5259 -0.4732
 3993SOL    HW123438   1.436   4.676   3.449 -2.1683 -0.1473  1.8955
 3993SOL    HW223439   1.387   4.659   3.308 -0.5398 -0.1408 -0.3028
 3994SOL     OW23440   2.399   2.998   3.295 -0.2928  0.4212 -0.5326
 3994SOL    HW123441   2.330   3.063   3.297  0.6752  1.3620  1.8211
 3994SOL    HW223442   2.453   3.039   3.227  1.9171 -0.0762  0.8860
 3995SOL     OW23443   3.657   4.156   8.178  0.5827  0.1313 -0.3672
 3995SOL    HW123444   3.586   4.178   8.239  0.0690 -1.7150 -0.2971
 3995SOL    HW223445   3.741   4.185   8.214  0.1794  2.0138 -0.9843
 3996SOL     OW23446   4.082   1.460  13.700 -0.0512 -0.4315 -0.0952
 3996SOL    HW123447   3.990   1.447  13.723 -0.1711  1.5327  0.5178
 3996SOL    HW223448   4.069   1.508  13.619 -3.7454 -1.2158  0.0495
 3997SOL     OW23449   0.275   0.060   1.015 -0.6093  0.0283  0.1031
 3997SOL    HW123450   0.215   0.020   1.078  0.8990 -0.7267  1.0348
 3997SOL    HW223451   0.246   0.152   1.020 -1.3790 -0.1887 -0.3349
 3998SOL     OW23452   3.882   1.533   0.484  1.0374 -0.1251 -0.2735
 3998SOL    HW123453   3.828   1.566   0.555  1.4277 -2.7798  1.2712
 3998SOL    HW223454   3.947   1.603   0.492 -0.0719  0.8679 -0.0567
 3999SOL     OW23455   2.173   2.562   9.740  0.1877  0.6991  0.6844
 3999SOL    HW123456   2.252   2.520   9.774 -0.0946  0.9031  1.5890
 3999SOL    HW223457   2.122   2.599   9.813  0.7857  2.1889  0.3598
 4000SOL     OW23458   1.091   3.595   8.539  0.0923 -0.4834 -0.1355
 4000SOL    HW123459   1.112   3.671   8.594 -0.3819  0.8923 -1.8569
 4000SOL    HW223460   1.181   3.569   8.522  0.0297 -0.5752 -0.3224
 4001SOL     OW23461   4.497   1.242  11.829  0.2430 -0.0205  0.2435
 4001SOL    HW123462   4.421   1.189  11.855  1.0910 -0.8469  1.0349
 4001SOL    HW223463   4.444   1.321  11.832 -0.6852 -0.6697  1.1863
 4002SOL     OW23464   4.067   3.917   6.228  0.0043 -0.3832  0.6057
 4002SOL    HW123465   4.099   3.830   6.254  2.4096  0.3501  0.0839
 4002SOL    HW223466   4.133   3.952   6.170 -1.1001 -0.0997 -0.4674
 4003SOL     OW23467   1.211   0.523  13.547 -0.2384  0.0367 -0.1597
 4003SOL    HW123468   1.232   0.606  13.503 -1.3771 -0.0089 -0.8001
 4003SOL    HW223469   1.117   0.509  13.533 -0.1860 -0.5111  0.0309
 4004SOL     OW23470   4.609   2.818  17.292 -0.0717  0.1115  0.1094
 4004SOL    HW123471   4.618   2.898  17.344  0.3347  0.3619 -0.3590
 4004SOL    HW223472   4.563   2.765  17.358  0.7590  2.5948  2.6617
 4005SOL     OW23473   0.400   1.362   1.498 -0.7241 -0.2173 -0.4586
 4005SOL    HW123474   0.461   1.294   1.469 -1.5386 -1.1854  0.1249
 4005SOL    HW223475   0.456   1.438   1.513  0.0441 -0.6004 -1.3920
 4006SOL     OW23476   2.221   2.489   4.981 -0.8324  0.4388  0.0621
 4006SOL    HW123477   2.159   2.503   5.052 -2.0344  0.4432 -0.9988
 4006SOL    HW223478   2.206   2.572   4.935  0.2124  1.5703  1.7538
 4007SOL     OW23479   2.680   3.740   8.612  0.0413  0.2723 -0.0545
 4007SOL    HW123480   2.755   3.683   8.597 -1.2153 -1.6020  0.7627
 4007SOL    HW223481   2.608   3.706   8.558  0.4018 -1.6991  0.7166
 4008SOL     OW23482   3.838   2.912   5.024  0.5346  0.3340  1.0270
 4008SOL    HW123483   3.868   2.821   5.020 -1.3630 -0.1650 -1.5293
 4008SOL    HW223484   3.920   2.959   5.011 -0.4280  1.7367 -0.0612
 4009SOL     OW23485   1.344   0.287  13.330 -0.3570 -0.4541  0.3296
 4009SOL    HW123486   1.338   0.325  13.417 -0.5062  1.7403 -0.6379
 4009SOL    HW223487   1.401   0.346  13.281 -0.3903 -2.3213 -1.9497
 4010SOL     OW23488   1.514   1.326   1.962  0.1924 -0.2286 -0.2813
 4010SOL    HW123489   1.570   1.338   1.885  1.3857 -2.0021  0.3166
 4010SOL    HW223490   1.492   1.417   1.981  0.2652 -0.0392 -1.1126
 4011SOL     OW23491   0.350   4.445  11.251  0.0706  0.2133  0.6436
 4011SOL    HW123492   0.438   4.471  11.279 -0.7901  1.8364  1.8218
 4011SOL    HW223493   0.344   4.365  11.302 -0.8646 -0.7428 -0.9815
 4012SOL     OW23494   2.651   2.647   7.079 -0.0102  0.0794 -0.3908
 4012SOL    HW123495   2.600   2.568   7.057  0.2996 -0.2551  0.0994
 4012SOL    HW223496   2.587   2.718   7.075 -1.2534 -0.8995  1.9809
 4013SOL     OW23497   0.371   4.466   5.257  0.1555 -0.1929 -0.1739
 4013SOL    HW123498   0.275   4.471   5.257  0.2423  1.1347  2.0798
 4013SOL    HW223499   0.368   4.371   5.267 -1.3042 -0.3176 -1.6829
 4014SOL     OW23500   2.562   4.479   6.072 -0.3643  0.1430 -0.5499
 4014SOL    HW123501   2.510   4.440   6.003 -1.5977 -1.6668  1.4076
 4014SOL    HW223502   2.552   4.410   6.139 -1.4447  1.6941  0.8736
 4015SOL     OW23503   0.610   2.843  16.440  0.0493 -0.6899  0.7267
 4015SOL    HW123504   0.565   2.871  16.360  2.5468  0.7248 -0.2064
 4015SOL    HW223505   0.700   2.875  16.433  0.4621 -2.3514 -1.5245
 4016SOL     OW23506   0.317   2.565   4.091 -0.3305 -0.2711  0.0672
 4016SOL    HW123507   0.260   2.641   4.077  0.8028  0.5734  0.0009
 4016SOL    HW223508   0.363   2.590   4.172 -0.1594 -3.2137  0.8532
 4017SOL     OW23509   1.030   3.865   7.240 -0.0084  0.1685  0.0324
 4017SOL    HW123510   1.079   3.930   7.190  0.9387 -0.8709 -0.3898
 4017SOL    HW223511   1.070   3.785   7.205  1.5869  0.6053  0.8523
 4018SOL     OW23512   0.257   3.482   8.583 -0.1875  0.4257 -0.2164
 4018SOL    HW123513   0.351   3.468   8.595 -0.3327  1.5745  2.3595
 4018SOL    HW223514   0.263   3.457   8.491  2.9820  2.1765 -0.4930
 4019SOL     OW23515   4.280   0.540   9.721 -0.4303  0.6358  0.1976
 4019SOL    HW123516   4.296   0.478   9.792  2.0565  0.4660 -0.5121
 4019SOL    HW223517   4.254   0.483   9.649  0.8470 -0.4923  0.6304
 4020SOL     OW23518   1.879   0.545   5.729 -0.1426  0.5339 -0.1788
 4020SOL    HW123519   1.957   0.493   5.712  0.9787  1.8606  0.9251
 4020SOL    HW223520   1.897   0.573   5.818  1.1165 -0.7528 -0.0341
 4021SOL     OW23521   3.832   4.400   6.725 -0.3119 -0.6902  0.4545
 4021SOL    HW123522   3.797   4.337   6.788 -1.1161 -2.2944 -1.5892
 4021SOL    HW223523   3.794   4.377   6.640  0.6423 -2.3354  0.4771
 4022SOL     OW23524   0.503   2.755   7.459  0.2112 -0.2200 -0.4063
 4022SOL    HW123525   0.434   2.794   7.512  0.5593  1.2294 -1.0004
 4022SOL    HW223526   0.486   2.661   7.461 -0.4414 -0.0041  3.7665
 4023SOL     OW23527   3.407   2.343   4.937 -0.5045 -0.2095  1.1172
 4023SOL    HW123528   3.344   2.375   5.001  0.0656 -2.6811  2.8902
 4023SOL    HW223529   3.486   2.321   4.986  0.2803 -0.0259 -0.0649
 4024SOL     OW23530   0.896   1.490   3.120  0.3385 -0.5564 -0.1791
 4024SOL    HW123531   0.841   1.486   3.042  0.4779 -0.3932 -0.2857
 4024SOL    HW223532   0.986   1.483   3.088  0.1975  0.6357 -0.8486
 4025SOL     OW23533   3.676   2.347  16.928  0.1863 -0.6661 -0.0028
 4025SOL    HW123534   3.667   2.266  16.879  1.1405 -1.1015  0.5504
 4025SOL    HW223535   3.583   2.369  16.941  0.0338 -2.6771  2.2164
 4026SOL     OW23536   4.101   1.355   0.508  0.1097  0.1573  0.4828
 4026SOL    HW123537   4.092   1.304   0.588 -2.7991  2.2452  1.5056
 4026SOL    HW223538   4.022   1.410   0.512 -1.2889 -1.8485  0.6919
 4027SOL     OW23539   3.271   4.253   6.051 -0.0680 -0.4734  0.5615
 4027SOL    HW123540   3.319   4.330   6.022  2.6170 -2.7820 -1.1091
 4027SOL    HW223541   3.325   4.223   6.124 -0.0890  1.8613  1.5172
 4028SOL     OW23542   4.217   1.176  16.161  0.9626  0.1082  0.0828
 4028SOL    HW123543   4.202   1.174  16.067 -1.4712  0.3469  0.4789
 4028SOL    HW223544   4.204   1.268  16.184  0.3039 -0.0497  0.3277
 4029SOL     OW23545   0.598   1.852   2.431 -0.0618  0.4768  0.5101
 4029SOL    HW123546   0.547   1.847   2.351 -0.7137  0.8125  0.9057
 4029SOL    HW223547   0.669   1.791   2.414 -1.5170 -1.0173 -0.1929
 4030SOL     OW23548   0.565   3.794   9.438 -0.0382  0.0635 -0.0663
 4030SOL    HW123549   0.514   3.769   9.515 -1.7889  0.6494 -1.0360
 4030SOL    HW223550   0.553   3.717   9.381 -2.5321 -0.6706  1.4604
 4031SOL     OW23551   3.314   0.008   6.520  0.5903 -0.1200  0.0824
 4031SOL    HW123552   3.349   4.670   6.455  0.4119 -0.2634  0.1213
 4031SOL    HW223553   3.233   0.037   6.479 -0.4358 -1.5185  1.1302
 4032SOL     OW23554   1.202   1.853   3.800 -0.3927  0.7880  0.2222
 4032SOL    HW123555   1.188   1.775   3.747 -3.0628  0.2255  1.7333
 4032SOL    HW223556   1.112   1.875   3.825 -0.4054  0.3111  0.5849
 4033SOL     OW23557   4.305   4.321   0.717  0.7132  0.1058  0.3368
 4033SOL    HW123558   4.390   4.312   0.759 -0.0947  3.4520  2.7495
 4033SOL    HW223559   4.246   4.288   0.785  0.0372 -1.6564 -1.0905
 4034SOL     OW23560   0.514   0.990   7.388  0.5274  0.3772 -0.0345
 4034SOL    HW123561   0.455   0.981   7.463 -0.4471 -1.7412 -1.0506
 4034SOL    HW223562   0.573   1.061   7.413  1.2627 -0.1031 -0.4138
 4035SOL     OW23563   1.083   1.576   8.278 -0.3553  0.1258 -0.2147
 4035SOL    HW123564   1.164   1.541   8.315 -1.7717 -1.9177  0.9574
 4035SOL    HW223565   1.046   1.495   8.242 -2.9033  1.1143  0.1600
 4036SOL     OW23566   2.930   3.197   2.016  0.2943 -0.4615 -0.1687
 4036SOL    HW123567   2.922   3.150   1.934 -1.6480  0.1052 -0.2937
 4036SOL    HW223568   2.963   3.125   2.069  0.0552 -0.7451 -0.4101
 4037SOL     OW23569   0.211   1.788   7.260  0.1832 -0.3402 -0.2539
 4037SOL    HW123570   0.186   1.697   7.248  2.4871 -0.9901 -0.0080
 4037SOL    HW223571   0.261   1.779   7.341  0.0633 -1.4321 -0.3060
 4038SOL     OW23572   2.304   0.799   3.542  0.1614 -0.3192  0.3074
 4038SOL    HW123573   2.280   0.865   3.606 -0.9770 -0.2569 -0.1913
 4038SOL    HW223574   2.398   0.778   3.549  0.3482  0.5646  0.4042
 4039SOL     OW23575   3.497   1.333  10.833  0.1009 -0.3079  0.4484
 4039SOL    HW123576   3.405   1.309  10.846  0.4879 -1.4601  1.1272
 4039SOL    HW223577   3.546   1.280  10.895  1.6151 -0.1159 -0.5944
 4040SOL     OW23578   4.139   2.286  10.101  0.1490 -0.2433 -0.2017
 4040SOL    HW123579   4.055   2.250  10.131  0.9538 -0.2316  2.0483
 4040SOL    HW223580   4.203   2.255  10.165 -2.2721 -3.7384  0.5452
 4041SOL     OW23581   4.134   0.895   0.838  0.3487  0.2244  0.5171
 4041SOL    HW123582   4.212   0.944   0.813 -1.6425  2.9698 -0.3379
 4041SOL    HW223583   4.066   0.954   0.807  0.7051  0.5025  0.2645
 4042SOL     OW23584   1.111   3.825  15.297 -0.1752  0.2141  0.2014
 4042SOL    HW123585   1.157   3.799  15.376  0.1336  1.5369  0.4614
 4042SOL    HW223586   1.188   3.823  15.240 -0.0839 -0.4795  0.3486
 4043SOL     OW23587   0.986   0.102   5.762 -0.3475 -0.0767 -0.3234
 4043SOL    HW123588   1.056   0.163   5.786 -0.0770 -0.7815  0.6890
 4043SOL    HW223589   0.913   0.146   5.805 -0.0895 -0.0685  0.1052
 4044SOL     OW23590   1.588   3.923   5.138 -0.3623 -0.4924  0.0358
 4044SOL    HW123591   1.534   3.924   5.217  0.3136 -2.0717  0.5297
 4044SOL    HW223592   1.546   3.858   5.082 -1.0466 -1.2774  1.4655
 4045SOL     OW23593   0.990   0.969   7.144 -0.1311 -0.5149 -0.3140
 4045SOL    HW123594   0.926   0.933   7.205  0.2772 -1.2657 -0.3312
 4045SOL    HW223595   1.067   0.917   7.165  0.1807  0.4910  1.0591
 4046SOL     OW23596   4.644   3.226   6.811  0.2545 -0.7046  0.4495
 4046SOL    HW123597   4.709   3.258   6.748  0.4682  0.8733  1.4670
 4046SOL    HW223598   4.629   3.138   6.778 -0.1850 -0.8819  1.1278
 4047SOL     OW23599   0.354   1.067   7.705 -0.3384 -0.2003  0.1128
 4047SOL    HW123600   0.393   0.986   7.736 -0.1618  0.9282  2.8420
 4047SOL    HW223601   0.366   1.116   7.786 -3.4110  2.4784 -1.0368
 4048SOL     OW23602   3.050   3.330   9.603 -0.1993  0.2002  0.5491
 4048SOL    HW123603   2.997   3.407   9.624  0.6215  0.4092  1.8305
 4048SOL    HW223604   3.102   3.307   9.680  1.0364 -2.4830 -1.0886
 4049SOL     OW23605   4.635   3.550   9.573  0.1377 -0.5695 -0.3561
 4049SOL    HW123606   4.672   3.592   9.650 -2.1972  1.1099 -0.1533
 4049SOL    HW223607   4.542   3.543   9.596  0.0120  2.2407 -0.0511
 4050SOL     OW23608   1.131   1.628   6.209 -0.3120  0.3396 -0.5282
 4050SOL    HW123609   1.163   1.555   6.156 -1.4634  0.7153 -1.7177
 4050SOL    HW223610   1.086   1.593   6.286 -3.2800  1.8264 -1.5964
 4051SOL     OW23611   2.127   1.989  17.362 -0.0519  0.3924  0.0362
 4051SOL    HW123612   2.073   2.008  17.285 -2.1902 -2.2121  0.8978
 4051SOL    HW223613   2.163   1.908  17.328  0.4130  0.5624  0.1226
 4052SOL     OW23614   2.261   2.282   7.756 -0.2553 -0.9273 -0.2669
 4052SOL    HW123615   2.289   2.357   7.807  2.3744 -3.1885  1.6068
 4052SOL    HW223616   2.245   2.327   7.673  1.0976 -0.6925 -0.3958
 4053SOL     OW23617   1.483   4.413   1.649 -0.1599 -0.4528  0.1280
 4053SOL    HW123618   1.489   4.362   1.730  0.3669 -1.8559 -0.7821
 4053SOL    HW223619   1.409   4.473   1.654 -1.0535 -1.2414 -3.3777
 4054SOL     OW23620   1.702   4.178   6.942 -0.0548  0.1059  0.1160
 4054SOL    HW123621   1.663   4.266   6.937 -0.3568 -0.1802 -2.6311
 4054SOL    HW223622   1.684   4.152   6.851  1.0703  1.3068 -0.4406
 4055SOL     OW23623   0.808   1.168  12.196  0.1060 -0.4824 -0.1294
 4055SOL    HW123624   0.826   1.121  12.115  0.4798 -2.7362  1.2668
 4055SOL    HW223625   0.847   1.111  12.262 -0.8262 -0.4397  0.4610
 4056SOL     OW23626   3.979   0.751   8.166  0.1764 -0.1269  0.4621
 4056SOL    HW123627   3.997   0.842   8.189  1.9783 -0.2669 -0.3673
 4056SOL    HW223628   4.065   0.723   8.135  0.2964 -0.7222  1.3402
 4057SOL     OW23629   1.453   0.347   0.990  0.7005  0.4691 -0.2378
 4057SOL    HW123630   1.527   0.405   1.007  0.5096  0.3180  1.1511
 4057SOL    HW223631   1.489   0.278   1.045  1.0647  1.3705  0.6483
 4058SOL     OW23632   1.936   0.834   4.620 -0.4023 -0.1186  0.1649
 4058SOL    HW123633   1.893   0.773   4.679 -0.5108  0.4204  0.6419
 4058SOL    HW223634   1.900   0.801   4.537 -0.7929  0.7815 -0.0272
 4059SOL     OW23635   3.954   3.661   7.312 -0.1947  0.0650  0.3640
 4059SOL    HW123636   3.945   3.627   7.223 -1.7480 -0.4248  0.7140
 4059SOL    HW223637   4.022   3.727   7.297  0.0957 -0.5001 -0.8487
 4060SOL     OW23638   2.670   1.073   5.563  0.2760 -0.1812 -0.0849
 4060SOL    HW123639   2.642   1.162   5.586  0.7218  0.0104 -0.2649
 4060SOL    HW223640   2.727   1.082   5.486 -1.2659 -1.5742 -1.3855
 4061SOL     OW23641   2.716   4.442   6.839  0.0923 -0.2247 -0.0766
 4061SOL    HW123642   2.784   4.495   6.881  0.5581  0.9467 -2.3254
 4061SOL    HW223643   2.740   4.354   6.870  2.1987  1.6119  3.5077
 4062SOL     OW23644   2.606   1.769  11.214  1.0015 -0.2762 -0.3753
 4062SOL    HW123645   2.612   1.678  11.243  0.3729 -0.8907 -2.1928
 4062SOL    HW223646   2.683   1.809  11.254  0.6956  0.1893 -0.2536
 4063SOL     OW23647   4.047   1.426   3.894 -0.2781  0.0166  0.4037
 4063SOL    HW123648   4.122   1.393   3.943  0.3094 -1.1739 -1.3159
 4063SOL    HW223649   3.994   1.452   3.970  0.0046  1.0788  0.2307
 4064SOL     OW23650   0.637   0.290   2.400  0.3928  0.0598  0.8830
 4064SOL    HW123651   0.585   0.238   2.338  0.3557  0.2123  0.7846
 4064SOL    HW223652   0.564   0.345   2.427 -0.9068 -2.4868  2.5189
 4065SOL     OW23653   3.378   0.603   8.160 -0.2419  1.1109  0.2788
 4065SOL    HW123654   3.283   0.600   8.177  0.1861  1.5082  2.6921
 4065SOL    HW223655   3.413   0.608   8.249 -1.6274  1.0503  0.8336
 4066SOL     OW23656   0.600   3.952   3.636 -1.1199  0.0916  0.3364
 4066SOL    HW123657   0.572   3.897   3.709  1.3235 -1.6427 -0.0461
 4066SOL    HW223658   0.696   3.956   3.636 -1.1323  0.5698  1.1238
 4067SOL     OW23659   3.498   2.863   3.159 -0.4180 -0.1123 -0.3371
 4067SOL    HW123660   3.512   2.800   3.089 -0.1039  0.1309 -0.4944
 4067SOL    HW223661   3.481   2.813   3.239 -2.1502  1.2378  0.1623
 4068SOL     OW23662   2.031   2.855  16.397 -0.2081 -0.3630  0.1601
 4068SOL    HW123663   1.976   2.872  16.474  0.6521  0.5448  0.5806
 4068SOL    HW223664   2.085   2.934  16.398  0.7244 -0.9751 -1.9684
 4069SOL     OW23665   1.746   1.824   1.699 -0.6548 -0.4912  0.4365
 4069SOL    HW123666   1.679   1.759   1.679 -1.8472  1.4856 -2.0989
 4069SOL    HW223667   1.688   1.878   1.752  0.5200 -0.1456  1.3667
 4070SOL     OW23668   1.331   3.904   1.528  0.0500  0.1848  0.5953
 4070SOL    HW123669   1.340   3.858   1.444  2.0008 -1.4028  1.6583
 4070SOL    HW223670   1.262   3.966   1.506  0.6664  1.0303  1.0611
 4071SOL     OW23671   3.379   4.613   4.469 -0.0881 -0.3258  0.2018
 4071SOL    HW123672   3.441   4.651   4.530 -0.1917  0.7481 -0.3726
 4071SOL    HW223673   3.369   4.683   4.404 -0.2507 -1.7253 -1.2932
 4072SOL     OW23674   3.031   0.012  10.473 -0.2922 -0.5901 -0.3156
 4072SOL    HW123675   2.998   4.719  10.385  0.3314  2.2392 -1.0782
 4072SOL    HW223676   3.074   4.653  10.499 -0.7268 -0.7063  0.0455
 4073SOL     OW23677   1.015   1.294   0.726  0.2388 -0.1994 -0.3093
 4073SOL    HW123678   1.015   1.307   0.631  0.3808 -0.2306 -0.3143
 4073SOL    HW223679   0.933   1.335   0.755  0.2637  0.1053 -0.6674
 4074SOL     OW23680   0.027   4.127  10.892 -0.0989  0.4035 -0.3219
 4074SOL    HW123681   0.010   4.183  10.816 -3.3116 -0.0317  0.0821
 4074SOL    HW223682   4.680   4.063  10.889 -0.5279  0.8767 -0.4729
 4075SOL     OW23683   1.880   4.420  12.892 -0.1394 -0.6242 -0.0499
 4075SOL    HW123684   1.909   4.347  12.946 -2.9464 -3.3011 -2.1497
 4075SOL    HW223685   1.923   4.489  12.942  0.1364  0.3362 -1.6188
 4076SOL     OW23686   4.227   1.947  16.189 -0.2615 -1.0002  0.2699
 4076SOL    HW123687   4.190   2.030  16.220 -0.2864 -0.3287 -1.6005
 4076SOL    HW223688   4.139   1.911  16.192 -0.1603 -1.1903  0.9861
 4077SOL     OW23689   3.116   4.584  10.016  0.0965 -0.9221 -0.2222
 4077SOL    HW123690   3.162   4.500  10.015  1.7396 -0.0118 -0.4887
 4077SOL    HW223691   3.060   4.579  10.093  1.0006 -1.0934  0.4149
 4078SOL     OW23692   4.433   4.157  16.018 -0.3462 -0.3955 -0.2310
 4078SOL    HW123693   4.444   4.222  15.949  1.4401 -0.5584 -0.1071
 4078SOL    HW223694   4.495   4.180  16.087 -0.4263 -0.3708 -0.1669
 4079SOL     OW23695   4.054   3.045   7.735  0.8180  0.6692 -0.4069
 4079SOL    HW123696   4.007   3.028   7.653  0.5233  1.9678 -0.5088
 4079SOL    HW223697   3.995   3.115   7.764  1.3418  0.0189  2.2283
 4080SOL     OW23698   1.158   1.413   5.313  0.5295 -0.4028  0.0837
 4080SOL    HW123699   1.183   1.327   5.278 -2.6667 -0.8568 -1.0769
 4080SOL    HW223700   1.242   1.459   5.318 -0.0006  0.4116  1.3334
 4081SOL     OW23701   2.342   1.929  10.173 -0.6160 -0.1887 -0.2088
 4081SOL    HW123702   2.376   1.870  10.105 -1.7877 -1.9911  0.7747
 4081SOL    HW223703   2.247   1.915  10.172 -0.8137  1.1750 -0.9104
 4082SOL     OW23704   3.582   2.842   4.919  0.9899 -0.1110  0.2596
 4082SOL    HW123705   3.665   2.877   4.951  0.9695  0.2763 -0.1077
 4082SOL    HW223706   3.604   2.843   4.826 -0.3993 -0.6256 -0.0847
 4083SOL     OW23707   3.356   2.077   3.363  0.6269 -0.0719 -0.3263
 4083SOL    HW123708   3.366   2.047   3.272  0.0977 -3.0174  0.5812
 4083SOL    HW223709   3.278   2.132   3.354  0.8456  0.5913  2.0407
 4084SOL     OW23710   2.345   4.663   5.722 -0.4984 -0.0054  0.9545
 4084SOL    HW123711   2.368   4.575   5.690 -0.1770 -0.0956  1.4349
 4084SOL    HW223712   2.370   4.671   5.814  2.1306 -2.3721  0.4627
 4085SOL     OW23713   0.134   0.276  17.665 -0.5124 -0.1355 -0.0928
 4085SOL    HW123714   0.085   0.210   0.020  1.5723 -2.3119 -0.9543
 4085SOL    HW223715   0.099   0.363  17.684 -1.3208 -0.6782  0.9153
 4086SOL     OW23716   3.408   0.051  14.804  0.3876 -0.3666 -0.3953
 4086SOL    HW123717   3.435   0.125  14.748  0.6305 -1.4212 -1.6695
 4086SOL    HW223718   3.317   0.071  14.825  0.7113  2.0764 -1.2163
 4087SOL     OW23719   2.520   2.691   7.586  0.8100 -0.2362 -0.4803
 4087SOL    HW123720   2.569   2.740   7.521  0.2896  0.2979 -0.4763
 4087SOL    HW223721   2.583   2.643   7.639  0.7001 -0.2598 -0.3716
 4088SOL     OW23722   0.379   2.912   8.184 -0.5170  0.2388  0.1768
 4088SOL    HW123723   0.289   2.919   8.154 -0.6318  0.5022  0.5798
 4088SOL    HW223724   0.392   2.997   8.227  1.0469 -0.2310  0.6370
 4089SOL     OW23725   1.812   2.330  17.220 -0.0550 -0.5488  0.7814
 4089SOL    HW123726   1.873   2.332  17.294  1.8303 -0.5071 -0.7811
 4089SOL    HW223727   1.794   2.236  17.221  2.1917 -0.9710 -0.1741
 4090SOL     OW23728   2.621   0.179  12.644 -1.0573  0.5176  0.5091
 4090SOL    HW123729   2.552   0.225  12.596  0.2069  2.0660  0.1286
 4090SOL    HW223730   2.638   0.234  12.720 -0.0545  1.9574 -0.7405
 4091SOL     OW23731   4.197   3.836   6.922  0.4065 -0.2041 -0.2747
 4091SOL    HW123732   4.273   3.844   6.864  1.3895  0.1375  1.0562
 4091SOL    HW223733   4.143   3.765   6.887 -0.6381 -0.0537  1.0682
 4092SOL     OW23734   3.736   0.264   9.367  0.8223 -0.1743  0.5077
 4092SOL    HW123735   3.750   0.228   9.279 -1.0483 -0.3118  0.2731
 4092SOL    HW223736   3.660   0.210   9.388  0.0089  0.8251  0.1018
 4093SOL     OW23737   1.048   4.379  11.632  0.5136 -0.2399  0.5951
 4093SOL    HW123738   0.991   4.429  11.691 -0.3240 -1.2087  0.6071
 4093SOL    HW223739   1.127   4.432  11.625 -0.7199  1.6770  1.1213
 4094SOL     OW23740   3.187   0.096   9.714 -0.3275 -0.7390 -0.1258
 4094SOL    HW123741   3.093   0.104   9.698  0.0925  1.7244 -1.3724
 4094SOL    HW223742   3.222   0.185   9.704  0.3679 -0.6461  3.2835
 4095SOL     OW23743   2.566   3.063   5.801  0.3180 -0.2773  0.2871
 4095SOL    HW123744   2.592   3.147   5.840  0.2368  0.1739 -0.6408
 4095SOL    HW223745   2.608   3.083   5.718 -1.8520  0.0225 -0.7274
 4096SOL     OW23746   1.741   1.701  11.349  0.0901 -0.5776 -0.4444
 4096SOL    HW123747   1.754   1.787  11.391 -0.0889 -0.4875 -0.5736
 4096SOL    HW223748   1.821   1.654  11.372 -0.6863 -1.1011  1.1839
 4097SOL     OW23749   0.775   3.917   7.120  0.1069  0.1355  0.4224
 4097SOL    HW123750   0.858   3.909   7.165 -1.8167 -4.0287  3.2119
 4097SOL    HW223751   0.715   3.894   7.191  0.2475  0.2956  0.5905
 4098SOL     OW23752   1.775   1.079   6.841  0.4496 -0.0865  0.1950
 4098SOL    HW123753   1.748   1.076   6.749  1.4777 -1.7251 -0.0480
 4098SOL    HW223754   1.734   1.164   6.857  0.9653  0.1972  0.0109
 4099SOL     OW23755   2.265   0.117  10.967  0.6632 -0.3022  0.2018
 4099SOL    HW123756   2.330   0.175  11.007  0.4388  0.9025 -1.1914
 4099SOL    HW223757   2.308   0.103  10.883  0.8440 -0.9852  0.4094
 4100SOL     OW23758   4.223   4.241   3.119  0.2005 -0.0301  0.2726
 4100SOL    HW123759   4.271   4.168   3.080  0.2977  0.4370 -0.4922
 4100SOL    HW223760   4.142   4.207   3.158  1.4833  0.6944  3.5895
 4101SOL     OW23761   3.374   1.686   3.227  0.5936 -0.0123  0.2293
 4101SOL    HW123762   3.407   1.702   3.139 -1.5547 -1.4560 -0.8386
 4101SOL    HW223763   3.448   1.723   3.275  1.0044 -0.2176 -0.2456
 4102SOL     OW23764   4.665   0.035   1.301  0.1542 -0.5636 -0.3378
 4102SOL    HW123765   0.009   4.714   1.249 -1.6271 -0.7333 -2.4915
 4102SOL    HW223766   4.665   4.695   1.374 -1.8088  2.0212  1.8819
 4103SOL     OW23767   4.125   0.863  16.028  0.5278 -0.0170  0.0537
 4103SOL    HW123768   4.206   0.894  16.067 -0.0608  1.6085 -0.0310
 4103SOL    HW223769   4.110   0.949  15.989 -0.0753 -0.1974 -0.1127
 4104SOL     OW23770   1.652   0.962   6.138  0.3243  0.5948 -0.3179
 4104SOL    HW123771   1.638   0.936   6.048 -0.3930  0.5987 -0.2076
 4104SOL    HW223772   1.707   0.894   6.177  0.8307  0.5525 -1.1184
 4105SOL     OW23773   4.383   1.859   4.348 -0.0036  0.2110 -0.6478
 4105SOL    HW123774   4.410   1.778   4.391 -1.7194 -0.9482 -1.7666
 4105SOL    HW223775   4.445   1.908   4.402  0.5780 -1.5913  0.2843
 4106SOL     OW23776   3.512   2.113   9.465 -0.0190 -0.1387 -0.0361
 4106SOL    HW123777   3.473   2.063   9.537 -2.1434  0.5407 -0.7299
 4106SOL    HW223778   3.481   2.202   9.484  1.8691  0.3217  0.9347
 4107SOL     OW23779   4.081   1.473  14.949  0.5339 -0.0682 -0.0261
 4107SOL    HW123780   4.103   1.432  14.866  1.4255  0.4017 -0.0188
 4107SOL    HW223781   4.091   1.397  15.007  0.9804  0.3391  0.4366
 4108SOL     OW23782   2.299   3.876   7.690  0.0290 -0.5974 -0.2885
 4108SOL    HW123783   2.254   3.957   7.669 -0.5663 -0.7518  0.3899
 4108SOL    HW223784   2.241   3.849   7.761  0.8160 -2.3118 -0.2906
 4109SOL     OW23785   0.950   2.899   8.505  0.6291 -0.5469  0.0581
 4109SOL    HW123786   0.993   2.985   8.498  0.0237 -0.4076 -1.8126
 4109SOL    HW223787   1.010   2.836   8.465  1.5688  1.0583 -1.0884
 4110SOL     OW23788   1.901   1.659   3.500  0.0961 -0.0667 -0.3730
 4110SOL    HW123789   1.964   1.689   3.565  2.7192 -0.5886 -2.6746
 4110SOL    HW223790   1.907   1.565   3.514  2.9015  0.1248 -0.3437
 4111SOL     OW23791   1.100   3.071   7.054  0.1736 -0.6123  0.3242
 4111SOL    HW123792   1.099   2.993   7.110 -0.7785 -0.1013  1.0188
 4111SOL    HW223793   1.011   3.105   7.060  0.9386  1.5404 -0.3620
 4112SOL     OW23794   0.817   3.754  10.884  0.8790  0.3603 -0.8384
 4112SOL    HW123795   0.853   3.791  10.964 -0.4291 -0.1020 -0.0421
 4112SOL    HW223796   0.753   3.691  10.918 -0.3475  1.5117 -1.0054
 4113SOL     OW23797   4.658   0.454   1.566  0.6424  0.4547 -0.5272
 4113SOL    HW123798   4.574   0.412   1.586  0.7065  0.4384 -0.3016
 4113SOL    HW223799   4.640   0.489   1.479  0.4358  0.7219 -0.3749
 4114SOL     OW23800   3.485   4.102   5.037 -0.4474 -0.3475  0.2720
 4114SOL    HW123801   3.461   4.186   5.074 -2.1280 -0.1175 -1.3076
 4114SOL    HW223802   3.561   4.125   4.982  0.4297  2.4595  2.6849
 4115SOL     OW23803   3.137   2.377   0.331 -0.4158 -0.4030  0.5540
 4115SOL    HW123804   3.194   2.441   0.373  0.6636  0.3160 -1.9846
 4115SOL    HW223805   3.176   2.293   0.355  0.7825  0.6529  2.2715
 4116SOL     OW23806   4.670   2.591   7.897 -0.2818  0.8441  0.2945
 4116SOL    HW123807   0.017   2.653   7.916  1.4247 -0.8828 -0.3687
 4116SOL    HW223808   4.627   2.641   7.827  1.2376  0.7517 -0.7143
 4117SOL     OW23809   1.681   0.621   7.205 -0.8857 -0.6067 -0.4746
 4117SOL    HW123810   1.605   0.604   7.149 -0.2854 -4.7128 -0.0108
 4117SOL    HW223811   1.649   0.597   7.292  0.0980  1.5911  0.5064
 4118SOL     OW23812   4.532   0.061  11.509 -0.4141  0.3411  0.9891
 4118SOL    HW123813   4.446   0.096  11.486 -0.1833  0.6075  0.5364
 4118SOL    HW223814   4.530   0.059  11.605  0.5471 -1.2705  0.9794
 4119SOL     OW23815   3.147   1.981   0.901 -0.0935  0.3214 -0.1127
 4119SOL    HW123816   3.129   2.075   0.909  0.1087  0.2377  1.2962
 4119SOL    HW223817   3.183   1.940   0.979  1.8916  0.6471 -0.8741
 4120SOL     OW23818   0.166   4.597   6.822  0.5170  0.5524  0.1902
 4120SOL    HW123819   0.236   4.610   6.887  1.1189 -3.2834  0.3093
 4120SOL    HW223820   0.106   4.544   6.875 -1.1208  2.5884  0.3796
 4121SOL     OW23821   4.182   2.229   4.372  0.3562 -0.3143 -0.2065
 4121SOL    HW123822   4.117   2.236   4.302 -0.9900  0.7433  1.1519
 4121SOL    HW223823   4.189   2.323   4.388  0.1333 -0.4188  0.5268
 4122SOL     OW23824   0.060   4.318   3.365 -0.3903  0.1114  0.0627
 4122SOL    HW123825   4.719   4.341   3.298  2.4554 -0.6322 -2.8887
 4122SOL    HW223826   4.722   4.276   3.426  1.5875 -1.6671  0.8172
 4123SOL     OW23827   1.233   4.086   4.117  0.0634 -0.1268 -0.1214
 4123SOL    HW123828   1.147   4.044   4.117 -1.2706  2.5758 -0.6139
 4123SOL    HW223829   1.214   4.164   4.064  2.3440  0.4408 -0.0865
 4124SOL     OW23830   2.173   1.224   6.243  0.1380 -0.3651 -0.1922
 4124SOL    HW123831   2.262   1.226   6.208 -1.0442  0.3690 -3.1797
 4124SOL    HW223832   2.122   1.286   6.191  0.2693 -0.7152 -0.7381
 4125SOL     OW23833   0.739   0.810  15.848  0.2211  0.2584  0.0333
 4125SOL    HW123834   0.764   0.800  15.940  1.8579  1.1652 -0.3046
 4125SOL    HW223835   0.826   0.838  15.819  0.4885  0.2213  0.8128
 4126SOL     OW23836   3.600   3.866  10.505  0.1378  0.2216  0.0972
 4126SOL    HW123837   3.554   3.890  10.585 -1.4990 -0.6051 -0.5996
 4126SOL    HW223838   3.535   3.866  10.435 -1.1511  0.4729  1.3066
 4127SOL     OW23839   2.228   4.652   5.997  0.8966 -0.0152  0.0585
 4127SOL    HW123840   2.197   4.659   6.087 -0.6100  0.7794 -0.5274
 4127SOL    HW223841   2.172   4.584   5.960 -0.4042  0.0291  1.9831
 4128SOL     OW23842   1.346   1.246   5.505  0.1016 -0.1521 -0.0211
 4128SOL    HW123843   1.397   1.178   5.462 -1.5702 -1.3266 -0.1436
 4128SOL    HW223844   1.389   1.328   5.479 -3.7096  1.3440 -1.6377
 4129SOL     OW23845   0.352   2.179   3.817 -0.1752  0.0034 -0.1686
 4129SOL    HW123846   0.403   2.260   3.812 -2.2010  1.2706  0.1137
 4129SOL    HW223847   0.302   2.197   3.896  0.6643 -0.1117  0.3968
 4130SOL     OW23848   2.363   1.169  13.935 -0.6538  0.2446 -0.5913
 4130SOL    HW123849   2.416   1.097  13.901  2.2685  1.8568  0.5722
 4130SOL    HW223850   2.421   1.245  13.937  1.1980 -1.1155 -3.4398
 4131SOL     OW23851   3.489   2.038   8.825  0.0901 -0.1752 -0.4749
 4131SOL    HW123852   3.570   2.029   8.774  0.9945  2.6887  0.4803
 4131SOL    HW223853   3.437   1.968   8.785 -0.4470  1.1440 -2.0963
 4132SOL     OW23854   1.145   1.051   8.720 -0.4736  0.2174 -0.4087
 4132SOL    HW123855   1.199   1.077   8.795  0.7735 -1.1166 -0.8511
 4132SOL    HW223856   1.146   0.957   8.736  1.7618  0.2411 -0.4291
 4133SOL     OW23857   3.299   2.014   2.607  0.2390  0.4605  0.1025
 4133SOL    HW123858   3.350   2.053   2.678  0.1362  1.9656 -0.6536
 4133SOL    HW223859   3.309   1.921   2.626  0.1788  0.2720 -0.7668
 4134SOL     OW23860   2.045   3.957  15.807  0.3744 -0.1049 -0.4993
 4134SOL    HW123861   2.055   4.034  15.751 -0.2281  0.3827  0.0569
 4134SOL    HW223862   1.982   3.898  15.766  0.2793 -0.6154  0.3847
 4135SOL     OW23863   2.716   0.446   7.483  0.0845 -0.6442 -0.0027
 4135SOL    HW123864   2.676   0.530   7.506 -0.7499 -0.4179 -2.1960
 4135SOL    HW223865   2.699   0.393   7.561 -1.9036 -1.6666 -1.1069
 4136SOL     OW23866   1.845   3.489   5.025  0.4260 -0.1946 -0.1181
 4136SOL    HW123867   1.848   3.559   5.090  1.4948  1.1345 -1.6007
 4136SOL    HW223868   1.755   3.458   5.039  0.6591  0.2757  2.5131
 4137SOL     OW23869   2.466   1.698   2.062 -0.8582  0.0150  0.3744
 4137SOL    HW123870   2.541   1.714   2.004  0.2982 -2.0221  1.2770
 4137SOL    HW223871   2.422   1.638   2.002 -0.0833 -0.4003  0.2155
 4138SOL     OW23872   3.651   3.381   5.438 -0.0584 -0.4300 -0.0037
 4138SOL    HW123873   3.574   3.333   5.467 -1.2850 -0.2820 -2.9396
 4138SOL    HW223874   3.616   3.402   5.351  3.0031 -1.3603 -1.4821
 4139SOL     OW23875   1.151   3.278   7.480  0.1813 -0.0813 -0.3843
 4139SOL    HW123876   1.206   3.200   7.467  0.2824 -0.0676 -0.0412
 4139SOL    HW223877   1.203   3.340   7.531 -2.8273  1.7978  0.3848
 4140SOL     OW23878   2.643   3.960   3.220  0.4907  0.5406  0.0029
 4140SOL    HW123879   2.725   3.921   3.249  0.7768  0.4774 -0.8986
 4140SOL    HW223880   2.642   3.926   3.131 -2.9488 -2.7091  1.2804
 4141SOL     OW23881   4.481   0.860   0.969  0.4949  0.0940 -0.0276
 4141SOL    HW123882   4.411   0.823   1.022  1.2791 -1.4501 -0.0927
 4141SOL    HW223883   4.488   0.953   0.991  1.7954  0.7023 -2.9672
 4142SOL     OW23884   1.394   4.058   4.738  0.1052 -0.1882 -0.0573
 4142SOL    HW123885   1.410   3.974   4.694 -0.2746 -0.0706 -0.4196
 4142SOL    HW223886   1.336   4.093   4.670  0.8990  1.8864  0.3619
 4143SOL     OW23887   0.944   1.045   4.095 -0.0287 -0.0018  0.2466
 4143SOL    HW123888   0.932   0.952   4.117 -0.7422  0.3555  1.3482
 4143SOL    HW223889   0.861   1.062   4.050  0.6231 -1.4829 -1.5091
 4144SOL     OW23890   4.445   2.222   4.728 -0.3058 -0.5390  0.5396
 4144SOL    HW123891   4.525   2.209   4.779  0.8696 -0.2184 -1.2275
 4144SOL    HW223892   4.391   2.267   4.793 -1.4107 -1.5435  0.3119
 4145SOL     OW23893   3.723   4.381   4.430 -0.1686  0.2406  0.0412
 4145SOL    HW123894   3.694   4.296   4.397 -1.3198 -0.4315  2.7819
 4145SOL    HW223895   3.802   4.347   4.472 -0.1007 -0.1841 -0.4290
 4146SOL     OW23896   4.256   3.129   3.131 -0.0707 -0.5139  0.0535
 4146SOL    HW123897   4.318   3.100   3.064  0.8725  2.4009 -0.3253
 4146SOL    HW223898   4.240   3.050   3.183  0.2117 -0.8818 -0.4128
 4147SOL     OW23899   3.524   1.232  15.671  0.2587 -0.1891 -0.4454
 4147SOL    HW123900   3.484   1.281  15.743 -0.4887 -1.2097 -0.1633
 4147SOL    HW223901   3.584   1.180  15.725  1.2023  1.6805  0.3082
 4148SOL     OW23902   3.004   3.133  16.360  0.4209 -0.4808  0.1309
 4148SOL    HW123903   3.002   3.216  16.314 -0.9024  0.5852  2.0967
 4148SOL    HW223904   2.916   3.110  16.391 -0.6623  2.6698 -0.6515
 4149SOL     OW23905   2.525   3.382   8.088 -0.0901 -0.3241 -0.8811
 4149SOL    HW123906   2.535   3.324   8.012  0.5736 -0.9567 -0.3117
 4149SOL    HW223907   2.609   3.378   8.133  0.1463  1.2396 -1.1603
 4150SOL     OW23908   0.703   1.846   4.431 -0.2296  0.2765  0.5581
 4150SOL    HW123909   0.722   1.764   4.384 -2.3354 -0.4559  1.0166
 4150SOL    HW223910   0.689   1.816   4.521  1.4023  1.8058  1.3208
 4151SOL     OW23911   3.452   4.199   8.906  0.1544  0.2249  0.3723
 4151SOL    HW123912   3.398   4.239   8.974  0.3476  0.4036  0.4215
 4151SOL    HW223913   3.525   4.261   8.898  0.5379 -0.3589 -0.6512
 4152SOL     OW23914   1.172   3.953   2.945 -0.2308  0.0147  0.0158
 4152SOL    HW123915   1.133   4.041   2.942 -0.8020 -0.2587 -0.6068
 4152SOL    HW223916   1.130   3.900   2.878 -2.1630 -1.0848  2.0584
 4153SOL     OW23917   3.090   0.547   8.298  0.5471  0.1857  0.1928
 4153SOL    HW123918   3.053   0.635   8.294 -0.2304 -0.0309  3.2788
 4153SOL    HW223919   3.011   0.495   8.282 -0.3386  1.8818 -0.8994
 4154SOL     OW23920   0.866   0.777   7.509  0.3442 -0.7417  0.0961
 4154SOL    HW123921   0.781   0.740   7.532 -0.4094 -0.2277 -1.8852
 4154SOL    HW223922   0.915   0.765   7.591 -0.9034  0.2778  0.9920
 4155SOL     OW23923   3.200   2.191   8.075  0.2394 -0.3161 -0.3868
 4155SOL    HW123924   3.199   2.106   8.032 -4.0416  0.7861 -2.4437
 4155SOL    HW223925   3.290   2.218   8.055 -0.0012 -0.4037 -1.5350
 4156SOL     OW23926   2.978   2.325   8.994  0.1764  0.3033 -0.3368
 4156SOL    HW123927   3.033   2.360   8.923 -1.1413  1.0594 -0.9834
 4156SOL    HW223928   2.921   2.398   9.018 -0.0514 -0.0862  0.3010
 4157SOL     OW23929   1.644   2.175  11.406  0.5469 -0.5247  0.2448
 4157SOL    HW123930   1.592   2.249  11.375  2.2888  1.2077  1.4592
 4157SOL    HW223931   1.577   2.131  11.458 -0.3810 -1.4247 -1.7400
 4158SOL     OW23932   1.867   4.723   3.541  0.1154  0.2979 -0.4210
 4158SOL    HW123933   1.902   0.086   3.564 -0.2887 -0.0067  1.3883
 4158SOL    HW223934   1.927   4.662   3.583  0.1887  0.0271 -0.9190
 4159SOL     OW23935   0.907   4.452   5.758  0.0359 -0.4017  0.2357
 4159SOL    HW123936   0.871   4.518   5.817  1.7687  0.1643  0.6702
 4159SOL    HW223937   0.995   4.488   5.743  0.2314 -0.9873 -0.0075
 4160SOL     OW23938   0.814   4.302   5.266  0.3815 -0.2002  0.2820
 4160SOL    HW123939   0.737   4.357   5.283  0.5635 -0.2964  1.4203
 4160SOL    HW223940   0.787   4.268   5.181 -0.5753  2.6748 -0.5704
 4161SOL     OW23941   0.372   2.564   9.102  0.3756 -0.5344  0.6289
 4161SOL    HW123942   0.410   2.589   9.186  0.9714  3.7141 -0.9268
 4161SOL    HW223943   0.386   2.469   9.098  0.2075 -0.4915 -0.8630
 4162SOL     OW23944   2.017   1.685   4.640  0.2773  0.1090 -0.2120
 4162SOL    HW123945   2.000   1.591   4.640 -1.8486  0.4847 -1.5201
 4162SOL    HW223946   2.043   1.694   4.731  0.2799  0.4956 -0.2496
 4163SOL     OW23947   4.014   4.337  14.207  0.4089  0.9462  0.0656
 4163SOL    HW123948   4.010   4.426  14.242  1.6772  0.0625  2.4676
 4163SOL    HW223949   4.093   4.301  14.247  1.2947 -0.2264 -2.8040
 4164SOL     OW23950   0.719   4.034   0.263  0.5249  0.4172  0.2155
 4164SOL    HW123951   0.800   4.064   0.222  0.6884 -0.5877 -0.2039
 4164SOL    HW223952   0.742   4.062   0.351  1.8746  0.3598 -0.1118
 4165SOL     OW23953   2.904   1.190   8.763  0.6909  0.1692 -0.0198
 4165SOL    HW123954   2.999   1.183   8.775  0.6246  0.6442  0.8484
 4165SOL    HW223955   2.885   1.168   8.672  1.1447  1.2620 -0.3768
 4166SOL     OW23956   4.325   2.510   8.511  0.3221  0.2356  0.1564
 4166SOL    HW123957   4.410   2.474   8.537  0.5654  0.7638  0.0775
 4166SOL    HW223958   4.351   2.594   8.474  1.3001  0.8302  2.2042
 4167SOL     OW23959   0.126   4.418  10.939  0.1142  0.0466 -0.6737
 4167SOL    HW123960   0.104   4.466  11.019 -0.2754 -0.7371 -0.3202
 4167SOL    HW223961   0.121   4.327  10.966 -1.6608  0.8369  1.6687
 4168SOL     OW23962   2.737   0.470  16.096  0.0735 -0.1037 -0.3748
 4168SOL    HW123963   2.712   0.555  16.131 -0.0920 -1.1064  1.9601
 4168SOL    HW223964   2.695   0.405  16.153  0.7721 -0.7445 -0.5839
 4169SOL     OW23965   4.154   2.521   5.765  0.2870  0.2895  0.5772
 4169SOL    HW123966   4.127   2.449   5.708  0.5751  1.8130 -1.4908
 4169SOL    HW223967   4.229   2.487   5.814  1.2309  0.4267 -0.7482
 4170SOL     OW23968   1.935   3.009   5.879 -0.1191 -0.7268 -0.0010
 4170SOL    HW123969   1.875   2.973   5.814 -0.6573 -2.7401  1.5906
 4170SOL    HW223970   1.883   3.000   5.959 -0.1029 -1.3400 -0.0531
 4171SOL     OW23971   3.563   1.931   0.014  0.4673  0.1843  0.1477
 4171SOL    HW123972   3.489   1.985  17.680  1.4089  1.0522 -0.6655
 4171SOL    HW223973   3.594   1.922  17.619  1.3940  0.6591  0.4204
 4172SOL     OW23974   0.801   4.679   2.660 -0.0438 -0.3516 -0.1940
 4172SOL    HW123975   0.717   4.633   2.654  0.2021 -0.7790 -0.3788
 4172SOL    HW223976   0.862   4.606   2.655  0.3680  0.2744 -4.3893
 4173SOL     OW23977   1.678   0.968   2.622 -0.2064 -0.0535  0.2070
 4173SOL    HW123978   1.606   0.972   2.684  0.3366 -1.4463  0.9376
 4173SOL    HW223979   1.668   0.873   2.614 -1.7375  0.0694  0.6772
 4174SOL     OW23980   1.426   1.942   9.316  0.6713 -0.1021 -0.2620
 4174SOL    HW123981   1.445   2.035   9.327 -1.3185 -0.1488  3.6618
 4174SOL    HW223982   1.509   1.895   9.326  1.4412  1.4634  0.7421
 4175SOL     OW23983   1.139   2.486   1.913  0.1288 -0.3498  0.6342
 4175SOL    HW123984   1.106   2.437   1.988 -0.9428  0.5178  0.7366
 4175SOL    HW223985   1.071   2.553   1.905 -0.5074 -0.8217  2.2696
 4176SOL     OW23986   3.399   1.393   6.664  0.6873  0.9040 -0.1163
 4176SOL    HW123987   3.469   1.342   6.622 -0.7031 -1.3063  0.2949
 4176SOL    HW223988   3.431   1.425   6.749  1.6247  1.7532 -0.7827
 4177SOL     OW23989   4.676   4.031   6.781  0.5069 -0.1942 -0.1395
 4177SOL    HW123990   4.714   4.030   6.693 -0.5736 -3.1791 -0.5630
 4177SOL    HW223991   4.582   4.045   6.771  0.5738  0.4036  0.0629
 4178SOL     OW23992   2.833   3.550  17.037  0.2127  0.5604  0.6785
 4178SOL    HW123993   2.744   3.523  17.059  0.6224 -0.6613  0.7862
 4178SOL    HW223994   2.872   3.572  17.122  1.7451  1.0660 -0.1527
 4179SOL     OW23995   1.379   4.420   3.669 -0.1803  0.1193 -0.3043
 4179SOL    HW123996   1.381   4.377   3.755 -1.4219  3.5320  1.4457
 4179SOL    HW223997   1.447   4.368   3.626 -0.0610 -0.3810  0.4852
 4180SOL     OW23998   0.224   3.803  13.300 -0.1099 -0.5398 -0.3185
 4180SOL    HW123999   0.207   3.860  13.225 -0.2045 -1.9795 -1.3925
 4180SOL    HW224000   0.246   3.725  13.249 -0.2545 -0.7030 -0.1336
 4181SOL     OW24001   2.914   4.600   6.898  0.0900 -0.2504 -0.0477
 4181SOL    HW124002   2.944   4.679   6.853  0.6764 -0.5905 -0.2528
 4181SOL    HW224003   2.958   4.603   6.984  0.6901 -0.3765 -0.3479
 4182SOL     OW24004   1.907   3.703   6.576 -0.0139  0.0123  0.9099
 4182SOL    HW124005   1.845   3.675   6.508  0.0436  1.5929  0.2217
 4182SOL    HW224006   1.856   3.692   6.656 -1.2211  0.5283  0.2104
 4183SOL     OW24007   2.305   2.479   5.630 -0.0269 -0.1466 -0.3059
 4183SOL    HW124008   2.288   2.523   5.713  1.6469  1.4709 -0.8085
 4183SOL    HW224009   2.328   2.392   5.662  1.2256 -0.3889 -1.8619
 4184SOL     OW24010   0.595   3.035   2.195 -0.3312 -0.0953 -0.1045
 4184SOL    HW124011   0.679   3.036   2.148  0.7342 -0.3880  1.7945
 4184SOL    HW224012   0.528   3.069   2.136 -1.3196  0.5844  1.4304
 4185SOL     OW24013   4.413   0.010   3.427  0.3745  0.2300 -0.2043
 4185SOL    HW124014   4.486   4.700   3.374  0.9197  0.1406  0.6127
 4185SOL    HW224015   4.403   4.655   3.482  3.0547  0.8044  1.1085
 4186SOL     OW24016   2.139   4.084   4.631  0.1666 -0.2437  0.3671
 4186SOL    HW124017   2.087   4.015   4.672 -1.2776  1.0400  0.7035
 4186SOL    HW224018   2.085   4.158   4.658 -0.4223 -0.4589 -0.2384
 4187SOL     OW24019   1.817   3.147   1.642  0.0178  0.1703 -0.1411
 4187SOL    HW124020   1.876   3.214   1.609 -0.0557  1.9705  3.3198
 4187SOL    HW224021   1.864   3.104   1.713  0.0472  1.6720  0.7516
 4188SOL     OW24022   3.398   1.660  14.474 -0.0921 -0.1289  0.7520
 4188SOL    HW124023   3.429   1.671  14.564 -0.4892 -1.3634  1.0371
 4188SOL    HW224024   3.428   1.745  14.440  0.0967  0.5334  2.6034
 4189SOL     OW24025   0.932   2.037  10.381  0.2546 -0.2383  0.1839
 4189SOL    HW124026   0.839   2.041  10.361  0.2092  0.6986  0.5884
 4189SOL    HW224027   0.955   2.112  10.436  1.3728 -1.5862  1.5716
 4190SOL     OW24028   2.461   3.562   9.218  0.4958  0.3573 -0.2618
 4190SOL    HW124029   2.371   3.537   9.239  0.7871 -0.0678  0.4778
 4190SOL    HW224030   2.505   3.504   9.280 -1.0943 -0.4066  0.1504
 4191SOL     OW24031   1.206   2.691   5.148  0.3196 -0.1361  0.7566
 4191SOL    HW124032   1.274   2.758   5.139 -1.7570  1.9323  0.3408
 4191SOL    HW224033   1.163   2.729   5.224 -1.2515  0.9996 -0.7033
 4192SOL     OW24034   3.136   1.359  12.178 -0.2754 -0.4644 -0.2166
 4192SOL    HW124035   3.042   1.342  12.171 -0.6486  1.8335 -1.0111
 4192SOL    HW224036   3.169   1.270  12.173  1.4059  0.1723 -0.5317
 4193SOL     OW24037   2.862   2.075  12.269 -0.6152 -0.2548 -0.1643
 4193SOL    HW124038   2.790   2.138  12.270 -2.1825 -2.0560 -1.4811
 4193SOL    HW224039   2.815   1.995  12.247  0.7529 -0.6524 -1.6121
 4194SOL     OW24040   0.827   4.178  13.697 -0.1368 -0.3812 -0.7799
 4194SOL    HW124041   0.869   4.092  13.693 -0.4835 -0.6841  2.0444
 4194SOL    HW224042   0.769   4.166  13.622 -0.3272  2.1147 -1.0390
 4195SOL     OW24043   0.536   4.661  11.186  0.7436 -0.2131  0.0769
 4195SOL    HW124044   0.467   4.720  11.158  1.1170  0.1430 -0.0953
 4195SOL    HW224045   0.597   4.706  11.244 -0.3231  1.8864 -0.4614
 4196SOL     OW24046   2.909   2.106   8.357  0.1841 -0.6112 -0.6939
 4196SOL    HW124047   2.930   2.043   8.288  2.0960  1.0188 -1.5961
 4196SOL    HW224048   2.831   2.149   8.322 -0.4292  0.9244  2.5618
 4197SOL     OW24049   3.562   4.387   3.521  0.0328 -0.3977  0.1262
 4197SOL    HW124050   3.477   4.427   3.539 -0.9132 -2.3250 -0.0153
 4197SOL    HW224051   3.541   4.376   3.428 -1.0099 -1.8492  0.5373
 4198SOL     OW24052   0.985   2.943   7.806  0.3712  0.7801 -0.3383
 4198SOL    HW124053   1.079   2.927   7.799 -0.0784 -0.8582 -2.5422
 4198SOL    HW224054   0.967   2.867   7.860  2.3839  0.4208 -0.1754
 4199SOL     OW24055   0.089   4.289   6.853 -0.2014 -0.1046 -0.5712
 4199SOL    HW124056   0.038   4.225   6.803  1.2995 -0.2417 -1.8985
 4199SOL    HW224057   0.020   4.355   6.858 -2.7731 -2.8418  1.1255
 4200SOL     OW24058   3.984   1.954   4.734 -0.3953 -0.3617 -0.3541
 4200SOL    HW124059   4.055   2.018   4.728  0.1320 -0.6843  2.3624
 4200SOL    HW224060   3.984   1.940   4.829 -2.8925 -0.1855 -0.3078
 4201SOL     OW24061   4.437   4.162   7.578 -0.1100  0.7030  0.1372
 4201SOL    HW124062   4.451   4.142   7.486  1.1250 -2.8825  1.1111
 4201SOL    HW224063   4.443   4.075   7.616 -2.1473  0.0203 -1.1036
 4202SOL     OW24064   2.640   3.069   1.852  0.3370  0.2538 -0.5087
 4202SOL    HW124065   2.592   3.123   1.915  0.6555  4.0811 -3.6161
 4202SOL    HW224066   2.591   2.986   1.855  0.5477  0.1353 -0.3297
 4203SOL     OW24067   1.154   4.292   1.740  0.1108  0.3073  0.1244
 4203SOL    HW124068   1.103   4.301   1.659  0.4412  2.1465  0.1300
 4203SOL    HW224069   1.191   4.379   1.752 -0.8334  0.7713 -0.2463
 4204SOL     OW24070   0.228   2.298   4.034  0.3638  0.9994 -0.0884
 4204SOL    HW124071   0.180   2.270   4.112  1.4516 -0.7143 -0.0216
 4204SOL    HW224072   0.277   2.368   4.077 -2.2163  2.0414  1.1139
 4205SOL     OW24073   2.746   0.215  14.374 -0.2860 -0.0692 -0.1832
 4205SOL    HW124074   2.796   0.234  14.453  0.9533 -1.7782 -0.5525
 4205SOL    HW224075   2.817   0.174  14.325 -1.1149 -1.1234 -0.4934
 4206SOL     OW24076   1.419   1.699   2.254  0.0933  0.3650  0.3713
 4206SOL    HW124077   1.405   1.790   2.281  1.9886  1.1076 -1.1170
 4206SOL    HW224078   1.331   1.669   2.232  0.4639 -0.7061  0.3444
 4207SOL     OW24079   4.378   2.283   9.149  0.4473  0.3316 -0.2226
 4207SOL    HW124080   4.462   2.305   9.110 -0.2186  1.1641 -1.1951
 4207SOL    HW224081   4.348   2.359   9.199 -1.4177  0.3986 -1.4249
 4208SOL     OW24082   0.392   0.385   7.364  0.2044 -0.7246  0.2267
 4208SOL    HW124083   0.444   0.368   7.443  1.1759 -2.2387 -0.7405
 4208SOL    HW224084   0.432   0.318   7.309  0.4386  1.3577 -2.1765
 4209SOL     OW24085   1.222   4.437   1.999  0.1331 -0.1878  0.2981
 4209SOL    HW124086   1.292   4.502   2.010 -0.7320  0.9314 -0.8668
 4209SOL    HW224087   1.151   4.487   1.959 -0.0440  0.5185  1.4993
 4210SOL     OW24088   2.768   1.685   9.002  0.2542  0.0649  0.5022
 4210SOL    HW124089   2.702   1.683   9.072 -1.0758 -2.0436 -0.8024
 4210SOL    HW224090   2.725   1.638   8.931  1.1445 -0.6921  0.4704
 4211SOL     OW24091   3.750   1.205  17.072 -0.6730  0.0309 -0.0091
 4211SOL    HW124092   3.809   1.273  17.105 -2.3831  0.5729  1.9632
 4211SOL    HW224093   3.707   1.177  17.153 -2.8047  2.6509 -0.2599
 4212SOL     OW24094   0.409   4.143  12.813 -0.0373 -0.0209  0.0672
 4212SOL    HW124095   0.427   4.120  12.722  2.1580 -0.2420  0.5500
 4212SOL    HW224096   0.339   4.205  12.791  0.0595 -0.4427 -1.4281
 4213SOL     OW24097   2.926   4.109  15.444 -0.8464 -0.0663  0.0568
 4213SOL    HW124098   2.864   4.069  15.382 -1.3550  0.4482  0.2317
 4213SOL    HW224099   2.957   4.029  15.486 -0.9848 -0.3404 -0.3590
 4214SOL     OW24100   2.218   1.336   5.902 -0.3135  0.1345  0.4428
 4214SOL    HW124101   2.142   1.282   5.924 -0.6549  0.6887  0.6151
 4214SOL    HW224102   2.289   1.275   5.879 -0.5890 -0.3010  0.7367
 4215SOL     OW24103   0.379   2.277   6.789  0.3631 -0.3443 -0.5069
 4215SOL    HW124104   0.468   2.305   6.768  1.4190 -3.7428 -0.6027
 4215SOL    HW224105   0.367   2.214   6.718 -0.8115  1.3817 -1.8639
 4216SOL     OW24106   3.015   3.589   8.029 -0.2549  0.0328  0.4316
 4216SOL    HW124107   3.100   3.624   7.999 -0.6027  0.7369  0.2574
 4216SOL    HW224108   2.969   3.579   7.946 -1.0070 -1.5134  1.0336
 4217SOL     OW24109   0.865   4.032   4.357 -0.2933 -0.2536  0.0980
 4217SOL    HW124110   0.904   4.022   4.270 -1.0551 -2.6319  0.0485
 4217SOL    HW224111   0.832   3.945   4.376  1.7651 -0.7589  1.3649
 4218SOL     OW24112   2.639   0.244   1.162  0.0154 -0.0021 -0.3556
 4218SOL    HW124113   2.603   0.221   1.247 -2.0391  1.8119 -0.7213
 4218SOL    HW224114   2.628   0.339   1.163 -1.1821 -0.1345 -0.8118
 4219SOL     OW24115   2.811   0.816   7.595 -0.2580  0.0679 -0.5608
 4219SOL    HW124116   2.724   0.779   7.581 -1.0489  2.0773 -1.0480
 4219SOL    HW224117   2.858   0.748   7.642 -1.5610  0.0086  0.6385
 4220SOL     OW24118   1.467   4.470   2.319  0.3094 -0.1194 -0.0830
 4220SOL    HW124119   1.465   4.458   2.224 -0.2294  0.8362 -0.1988
 4220SOL    HW224120   1.379   4.507   2.327  0.3113 -0.1407  0.0317
 4221SOL     OW24121   0.428   3.205   6.177  0.5191  0.2375 -0.4077
 4221SOL    HW124122   0.440   3.156   6.258  1.3321 -0.8201 -1.1745
 4221SOL    HW224123   0.472   3.154   6.109 -1.9072 -0.2859 -1.5923
 4222SOL     OW24124   2.215   3.104   8.684  0.0024  0.0984  0.7073
 4222SOL    HW124125   2.298   3.084   8.727  0.4815 -0.8953 -0.6920
 4222SOL    HW224126   2.259   3.129   8.602 -1.0835  0.2007  0.1479
 4223SOL     OW24127   4.613   3.321   6.129 -0.2309  0.1891  0.4753
 4223SOL    HW124128   4.563   3.332   6.210 -2.0239  0.3489 -0.6801
 4223SOL    HW224129   4.585   3.235   6.098 -0.8107  1.2181 -1.7971
 4224SOL     OW24130   0.920   1.875   2.237 -0.1404 -0.2034  0.1083
 4224SOL    HW124131   0.895   1.788   2.267 -0.0592 -0.9517 -2.0278
 4224SOL    HW224132   0.835   1.918   2.250  1.4525  2.8946  0.2701
 4225SOL     OW24133   1.724   0.312  17.595 -0.2995 -0.7301 -0.3803
 4225SOL    HW124134   1.699   0.226  17.629  1.5502 -0.3587  1.8739
 4225SOL    HW224135   1.809   0.297  17.554 -0.8610 -1.8586 -1.1514
 4226SOL     OW24136   3.690   1.460  17.254 -0.3403  0.5052 -0.7422
 4226SOL    HW124137   3.772   1.486  17.214  0.6042  0.5835  1.2517
 4226SOL    HW224138   3.715   1.461  17.347  1.2444 -2.1880 -1.1290
 4227SOL     OW24139   1.663   4.161   8.930 -0.4611 -0.2450 -0.2497
 4227SOL    HW124140   1.568   4.156   8.935 -0.3828  0.2489  2.0775
 4227SOL    HW224141   1.683   4.189   9.020 -0.7591  1.7209 -0.8002
 4228SOL     OW24142   1.375   1.788   8.260 -0.3232  0.4352 -0.6681
 4228SOL    HW124143   1.377   1.759   8.351  0.9541 -1.9301 -1.4534
 4228SOL    HW224144   1.323   1.869   8.255 -1.4114 -0.0511  2.9920
 4229SOL     OW24145   3.744   3.962  10.180 -0.3374 -0.2088  0.5131
 4229SOL    HW124146   3.823   3.946  10.232 -0.1906 -0.5769  0.1783
 4229SOL    HW224147   3.756   4.048  10.142  0.0311 -1.6522 -2.6549
 4230SOL     OW24148   4.106   0.068   0.330 -0.4783  0.8873  0.6993
 4230SOL    HW124149   4.135   0.088   0.419  3.0545  1.0761 -0.5165
 4230SOL    HW224150   4.024   0.022   0.347 -0.9681  2.0312  1.4126
 4231SOL     OW24151   2.790   4.209  14.318 -0.2143  0.4714  0.4451
 4231SOL    HW124152   2.866   4.150  14.317 -1.5545 -1.2716  1.6090
 4231SOL    HW224153   2.827   4.289  14.282 -0.1372  0.4914  0.5677
 4232SOL     OW24154   1.798   1.633  11.083 -0.3344 -0.2496 -0.2853
 4232SOL    HW124155   1.764   1.653  11.170  0.6821  1.3127 -0.2447
 4232SOL    HW224156   1.844   1.553  11.109  1.8261  1.7959  2.1313
 4233SOL     OW24157   1.408   1.410   7.860 -0.4791 -0.6818  0.4994
 4233SOL    HW124158   1.393   1.493   7.904  2.2569 -0.0262  0.1899
 4233SOL    HW224159   1.352   1.428   7.784  0.3412 -0.6972 -0.1008
 4234SOL     OW24160   3.868   0.344   8.041 -0.0504  0.6513 -0.0521
 4234SOL    HW124161   3.798   0.395   8.082 -0.0370  1.5030 -1.0909
 4234SOL    HW224162   3.857   0.370   7.949 -1.1737 -0.9295 -0.3628
 4235SOL     OW24163   0.398   4.464   0.699 -0.2012 -0.6755  0.3645
 4235SOL    HW124164   0.486   4.500   0.707 -1.1750  1.7646  0.1328
 4235SOL    HW224165   0.404   4.376   0.735 -0.3844  0.1687  2.4712
 4236SOL     OW24166   3.855   1.724   8.930 -0.2843  0.6829 -0.0174
 4236SOL    HW124167   3.905   1.791   8.883  1.6285 -1.2366 -0.7072
 4236SOL    HW224168   3.896   1.650   8.886 -1.7165 -1.0780  1.5838
 4237SOL     OW24169   1.204   4.153  14.382  0.3874  0.1950 -0.1828
 4237SOL    HW124170   1.202   4.225  14.318 -1.7738 -0.0839 -0.4466
 4237SOL    HW224171   1.296   4.134  14.397  0.2317  0.5363  1.1980
 4238SOL     OW24172   2.042   0.107   6.619  0.5188 -0.6859  0.3059
 4238SOL    HW124173   2.060   0.188   6.667 -2.4981 -0.3387  0.8220
 4238SOL    HW224174   2.102   0.040   6.653 -1.4343 -1.7751  1.6262
 4239SOL     OW24175   2.068   1.366   7.869 -0.1676 -1.0575  0.3204
 4239SOL    HW124176   2.107   1.377   7.956  2.3486  0.3959 -1.0084
 4239SOL    HW224177   2.036   1.454   7.849 -1.2524 -1.6198 -0.4373
 4240SOL     OW24178   4.285   2.272   9.774 -0.5007  0.1217 -0.0049
 4240SOL    HW124179   4.196   2.241   9.789 -1.1652  2.3639  0.6453
 4240SOL    HW224180   4.304   2.318   9.855  5.2653 -0.5270 -0.9498
 4241SOL     OW24181   0.564   2.446   0.614 -0.3511 -0.0107 -0.2126
 4241SOL    HW124182   0.497   2.515   0.618 -0.4586 -0.1153 -0.2247
 4241SOL    HW224183   0.588   2.448   0.707 -2.1681 -0.1989  0.2690
 4242SOL     OW24184   3.591   3.020   8.336 -0.0396  0.1570  0.5560
 4242SOL    HW124185   3.673   3.065   8.359 -0.6643  1.5901 -0.0486
 4242SOL    HW224186   3.545   3.102   8.319  1.0233  0.2574 -1.7849
 4243SOL     OW24187   1.337   3.924   0.029  0.0199  1.0303  0.4111
 4243SOL    HW124188   1.342   3.856  17.656  1.9000 -1.2765  2.8406
 4243SOL    HW224189   1.399   3.992   0.002  2.0924 -0.9596  0.1107
 4244SOL     OW24190   3.739   3.161  16.799 -0.1010 -0.0263 -0.4882
 4244SOL    HW124191   3.741   3.172  16.704 -0.6337  1.1330 -0.3691
 4244SOL    HW224192   3.680   3.087  16.791  0.1967 -0.2768 -0.3613
 4245SOL     OW24193   1.447   1.305   9.215 -0.2907  0.4861 -0.6731
 4245SOL    HW124194   1.391   1.353   9.275  0.1355 -0.2919  0.3527
 4245SOL    HW224195   1.524   1.360   9.203  1.9645 -2.4553  0.3743
 4246SOL     OW24196   2.420   2.655   1.958  0.4096  0.1663  0.0361
 4246SOL    HW124197   2.412   2.565   1.928 -0.8346  0.0836  0.6087
 4246SOL    HW224198   2.328   2.682   1.969  0.8303  1.7911 -0.3225
 4247SOL     OW24199   4.238   0.632   0.899 -0.8505  0.2653 -0.2018
 4247SOL    HW124200   4.189   0.708   0.867 -0.1995  2.0729  3.0866
 4247SOL    HW224201   4.248   0.651   0.993 -0.7889 -1.8946  0.2325
 4248SOL     OW24202   0.453   0.024   5.800  0.5331 -0.1073  0.2066
 4248SOL    HW124203   0.376   0.010   5.855 -0.4006 -2.6132 -1.7394
 4248SOL    HW224204   0.416   0.091   5.744  2.5380  0.3427 -0.5802
 4249SOL     OW24205   0.510   0.193   7.233  0.4049 -0.5104  0.3612
 4249SOL    HW124206   0.593   0.148   7.216  0.3409 -0.7781  0.7518
 4249SOL    HW224207   0.465   0.130   7.290  0.4569 -1.8191 -1.0520
 4250SOL     OW24208   0.788   1.108   0.893  0.3285  0.5851  0.5004
 4250SOL    HW124209   0.744   1.026   0.916  1.1895  0.0476  0.2329
 4250SOL    HW224210   0.755   1.118   0.804 -0.7760 -1.4764  0.6950
 4251SOL     OW24211   3.186   2.392   3.244  0.3658  0.2200  0.3630
 4251SOL    HW124212   3.266   2.355   3.281  0.5655  1.1394  0.8367
 4251SOL    HW224213   3.123   2.349   3.301 -0.5957  1.1606  0.0119
 4252SOL     OW24214   3.446   4.276   3.268 -0.0636  0.1761  0.0088
 4252SOL    HW124215   3.386   4.309   3.335  0.1651 -0.9441  0.7638
 4252SOL    HW224216   3.477   4.190   3.297 -1.2329 -1.1576 -2.6662
 4253SOL     OW24217   4.611   2.711   7.667 -0.4499 -0.2363  0.0269
 4253SOL    HW124218   4.625   2.662   7.587  1.2722  0.2189  0.0525
 4253SOL    HW224219   4.656   2.793   7.646  1.6196 -1.8898 -1.9398
 4254SOL     OW24220   2.640   1.678   7.294 -0.1994  0.7280  0.6282
 4254SOL    HW124221   2.554   1.681   7.336 -0.2968  3.1672  0.2212
 4254SOL    HW224222   2.680   1.758   7.327 -0.2005  1.1963 -0.5216
 4255SOL     OW24223   0.278   0.487   7.787  0.4106 -0.0862 -0.3351
 4255SOL    HW124224   0.257   0.562   7.732  1.1474 -0.4146 -1.0579
 4255SOL    HW224225   0.196   0.481   7.837  0.5373 -0.4758 -0.1727
 4256SOL     OW24226   3.902   2.292   5.991  0.3868  0.1291 -0.2209
 4256SOL    HW124227   3.819   2.286   5.945  0.5003  0.0669 -0.4159
 4256SOL    HW224228   3.922   2.383   5.971  2.1016 -0.3932 -0.9018
 4257SOL     OW24229   1.365   3.747   1.029  0.9380  0.0354 -0.2600
 4257SOL    HW124230   1.390   3.655   1.042  2.9888  0.5628 -0.5040
 4257SOL    HW224231   1.447   3.795   1.023  0.9758 -0.4757 -3.7653
 4258SOL     OW24232   1.503   4.007   9.289  0.3091  0.2147  0.2197
 4258SOL    HW124233   1.520   3.927   9.239  2.6570 -1.4244  3.6439
 4258SOL    HW224234   1.593   4.021   9.318  0.2524 -0.9685  1.0030
 4259SOL     OW24235   2.755   1.694  10.225  0.5158  0.0423  0.1308
 4259SOL    HW124236   2.764   1.700  10.130 -0.1475 -1.0649  0.0009
 4259SOL    HW224237   2.731   1.786  10.237 -1.4629 -0.3476 -0.8374
 4260SOL     OW24238   2.080   2.383   5.200 -0.1998 -0.1297  0.6997
 4260SOL    HW124239   2.044   2.471   5.186 -0.5049  0.2560  3.9221
 4260SOL    HW224240   2.079   2.377   5.295 -0.1778  2.5984  0.8883
 4261SOL     OW24241   0.498   3.861   6.711  0.2724  0.4967 -0.1415
 4261SOL    HW124242   0.487   3.956   6.712 -0.3967  0.4706 -3.5760
 4261SOL    HW224243   0.552   3.849   6.789  0.0675 -1.1261 -0.2543
 4262SOL     OW24244   3.162   4.003   2.719  0.3469  0.1351 -0.1184
 4262SOL    HW124245   3.106   3.993   2.642 -1.0355  0.4655  0.8426
 4262SOL    HW224246   3.110   3.956   2.784 -0.2054  0.4133 -0.3541
 4263SOL     OW24247   4.372   3.752  12.676 -0.5067  0.0004  0.0479
 4263SOL    HW124248   4.454   3.800  12.690 -0.8667  0.7387 -0.3766
 4263SOL    HW224249   4.347   3.723  12.764 -0.2386 -4.4622 -1.3555
 4264SOL     OW24250   3.264   2.467   5.701 -0.6282  0.6630  0.1878
 4264SOL    HW124251   3.338   2.407   5.713 -0.0498  0.5688 -3.7014
 4264SOL    HW224252   3.285   2.496   5.612 -1.1938 -0.4362 -0.3081
 4265SOL     OW24253   0.218   2.500   6.791 -0.6147  0.0285 -0.5651
 4265SOL    HW124254   0.268   2.422   6.813  1.3644  1.4218 -0.1537
 4265SOL    HW224255   0.199   2.488   6.698  3.9030  0.4815 -1.5341
 4266SOL     OW24256   2.619   1.523   7.551  0.7449 -0.8692 -0.1150
 4266SOL    HW124257   2.620   1.598   7.610 -1.4839 -1.5303  0.7401
 4266SOL    HW224258   2.646   1.560   7.466 -1.3039  1.0683  0.0807
 4267SOL     OW24259   3.618   1.124  17.310  0.1774  0.2060 -0.0099
 4267SOL    HW124260   3.545   1.183  17.292  0.5337  0.6116 -0.1231
 4267SOL    HW224261   3.635   1.149  17.401 -0.6285  0.3902  0.0873
 4268SOL     OW24262   0.014   2.935   4.824 -0.5957 -0.0892 -0.2502
 4268SOL    HW124263   0.015   2.860   4.884 -1.2873  2.3971  2.8520
 4268SOL    HW224264   4.682   2.897   4.755 -0.1550 -0.4551 -0.3960
 4269SOL     OW24265   3.959   2.294  11.445  0.0184  0.6303 -0.3512
 4269SOL    HW124266   3.903   2.370  11.427 -1.1511 -0.2077 -0.3223
 4269SOL    HW224267   3.909   2.229  11.395  1.3320 -1.6729  1.3195
 4270SOL     OW24268   2.335   2.015   6.617 -0.5659  0.0392  0.2191
 4270SOL    HW124269   2.301   2.094   6.574 -0.0659  0.2214  0.1558
 4270SOL    HW224270   2.251   1.979   6.646 -0.7661 -1.6628 -2.5220
 4271SOL     OW24271   1.981   0.220   3.663 -0.2132  0.1303 -0.1521
 4271SOL    HW124272   2.046   0.208   3.593 -0.3333 -0.5867 -0.1457
 4271SOL    HW224273   2.040   0.216   3.738  0.6224 -1.4187 -0.8882
 4272SOL     OW24274   2.392   3.028   3.828 -0.2571  0.3684  0.1510
 4272SOL    HW124275   2.420   2.985   3.747  0.5479  2.6087 -0.7592
 4272SOL    HW224276   2.298   3.022   3.812 -0.0222 -0.5403 -0.9285
 4273SOL     OW24277   1.766   4.425   9.856 -0.1789 -0.3355  0.0951
 4273SOL    HW124278   1.834   4.460   9.798 -0.1133  1.1517  1.0597
 4273SOL    HW224279   1.775   4.330   9.847  2.3301  0.0416 -1.5811
 4274SOL     OW24280   3.256   1.048  11.886  0.0765 -0.1468  0.4155
 4274SOL    HW124281   3.172   1.087  11.861 -0.1871 -0.2674  1.0907
 4274SOL    HW224282   3.244   0.957  11.862  0.2908 -0.3981  1.2599
 4275SOL     OW24283   0.306   4.134  17.607 -0.0358  0.6711  0.0880
 4275SOL    HW124284   0.362   4.210  17.624  1.6347 -0.4397 -0.4294
 4275SOL    HW224285   0.234   4.154  17.667 -0.0868  1.8353 -0.3714
 4276SOL     OW24286   2.022   4.480   8.472 -0.1242  0.0145  0.3325
 4276SOL    HW124287   2.021   4.558   8.417  0.8899 -0.1061  0.1477
 4276SOL    HW224288   1.969   4.420   8.419  0.2555 -0.7460  0.8126
 4277SOL     OW24289   2.409   3.556   8.232  0.1427  0.3181  0.1947
 4277SOL    HW124290   2.473   3.627   8.234 -0.8512  1.2110 -0.0264
 4277SOL    HW224291   2.458   3.486   8.188  0.7503  1.5491 -1.0740
 4278SOL     OW24292   3.769   1.652   8.168  0.0670  0.3206  0.7008
 4278SOL    HW124293   3.801   1.649   8.258  0.2319  0.0818  0.6346
 4278SOL    HW224294   3.825   1.721   8.132 -0.7907  0.6257 -0.0387
 4279SOL     OW24295   3.259   0.192  15.179  0.3579  0.0435  0.3443
 4279SOL    HW124296   3.344   0.148  15.173 -0.7889 -2.6476  3.5788
 4279SOL    HW224297   3.284   0.284  15.172  0.7188 -0.0749  0.0940
 4280SOL     OW24298   3.617   1.039   5.195  0.2664 -0.1193 -0.6315
 4280SOL    HW124299   3.692   1.091   5.167  0.9516 -0.1753  1.0857
 4280SOL    HW224300   3.649   1.010   5.280 -0.2448 -1.8492 -1.0344
 4281SOL     OW24301   4.018   3.223   8.079  0.4858 -0.4446  0.3417
 4281SOL    HW124302   4.104   3.184   8.065  1.2305  1.7889 -1.1854
 4281SOL    HW224303   3.988   3.219   7.988 -0.3542 -0.1656  0.6082
 4282SOL     OW24304   3.304   4.138   5.626 -0.3186  0.3503  0.1497
 4282SOL    HW124305   3.375   4.107   5.682  1.4709 -1.0865 -2.9056
 4282SOL    HW224306   3.242   4.069   5.646  0.9680 -0.7394  0.4018
 4283SOL     OW24307   4.286   1.017   4.982  0.1549 -0.4900  0.1415
 4283SOL    HW124308   4.204   1.004   4.934 -0.4038  2.2213  0.3414
 4283SOL    HW224309   4.346   1.043   4.911 -1.4887  1.3527 -0.5770
 4284SOL     OW24310   1.261   4.166  13.724  0.0143 -0.2941 -0.2736
 4284SOL    HW124311   1.184   4.116  13.750  1.5830 -1.5201  2.1277
 4284SOL    HW224312   1.327   4.098  13.711 -2.4599 -2.6797 -0.3430
 4285SOL     OW24313   0.419   3.599   0.490  0.1644 -0.0110  0.0082
 4285SOL    HW124314   0.469   3.678   0.510  0.9108  0.0195 -1.9518
 4285SOL    HW224315   0.338   3.632   0.527  0.6967  0.7488  0.5098
 4286SOL     OW24316   0.306   4.682  15.531 -0.2065 -0.0358 -0.3855
 4286SOL    HW124317   0.386   4.662  15.580  0.1381  0.1987 -0.8533
 4286SOL    HW224318   0.323   4.635  15.449 -0.4857 -0.0243 -0.4510
 4287SOL     OW24319   3.846   2.379   2.399 -0.2162  0.0253 -0.2595
 4287SOL    HW124320   3.812   2.290   2.397 -1.3891  0.4783 -0.4899
 4287SOL    HW224321   3.855   2.394   2.494  0.8752 -1.2514 -0.1607
 4288SOL     OW24322   1.466   1.406   3.324  0.3826  0.3015  0.2992
 4288SOL    HW124323   1.374   1.397   3.300  1.1611  0.6135 -2.7329
 4288SOL    HW224324   1.462   1.495   3.360  1.5924  1.1627 -1.7431
 4289SOL     OW24325   0.121   4.663   4.357  0.1246 -0.0685  0.2450
 4289SOL    HW124326   0.028   4.657   4.336 -0.2321  1.1472  1.5061
 4289SOL    HW224327   0.123   4.578   4.402 -1.1966 -2.2311 -3.7250
 4290SOL     OW24328   1.908   0.110  12.023  0.5622 -0.1144  0.3646
 4290SOL    HW124329   1.999   0.130  12.001  0.8425  1.2845  2.7485
 4290SOL    HW224330   1.902   0.141  12.114 -0.0851  0.9449 -0.0425
 4291SOL     OW24331   4.599   0.900   8.118  0.3314  0.0135 -0.7288
 4291SOL    HW124332   4.640   0.898   8.032 -0.5184  1.6681 -1.1773
 4291SOL    HW224333   4.676   0.910   8.174 -0.4301 -0.9003  0.4928
 4292SOL     OW24334   2.231   3.283   5.678  0.8196  0.6947 -0.0977
 4292SOL    HW124335   2.295   3.346   5.712  1.1795 -1.2510  2.7994
 4292SOL    HW224336   2.194   3.259   5.762  1.7577 -1.2258 -0.2242
 4293SOL     OW24337   2.946   3.977   4.587  0.6323 -0.1161  0.3042
 4293SOL    HW124338   2.934   4.066   4.553 -0.1007 -0.6671 -0.9012
 4293SOL    HW224339   2.946   3.925   4.506 -2.1169  0.4763 -0.0875
 4294SOL     OW24340   0.365   3.494   2.237 -0.6117  0.5861 -0.0186
 4294SOL    HW124341   0.435   3.442   2.277 -0.6331  0.6514  0.1050
 4294SOL    HW224342   0.395   3.585   2.239 -0.9390  0.7026 -0.3832
 4295SOL     OW24343   4.362   0.963   4.580  0.0453  0.0861  0.2480
 4295SOL    HW124344   4.387   0.932   4.493 -2.0351 -0.9103  0.0205
 4295SOL    HW224345   4.318   0.889   4.622  0.2843  1.8944  3.6577
 4296SOL     OW24346   3.827   4.010  13.401 -0.0612  0.1428  0.2405
 4296SOL    HW124347   3.810   4.010  13.307  1.6820 -1.0071 -0.0647
 4296SOL    HW224348   3.905   3.955  13.403  0.0331  0.3299  1.4639
 4297SOL     OW24349   1.134   2.602   3.499 -0.6266 -0.2975  0.0220
 4297SOL    HW124350   1.065   2.602   3.565  1.1589 -1.0610  1.8942
 4297SOL    HW224351   1.094   2.557   3.425 -0.6647 -1.0365  0.4962
 4298SOL     OW24352   3.148   3.982   6.229  0.4421  0.4838  0.0158
 4298SOL    HW124353   3.087   3.913   6.256 -0.3728  1.6650  1.2314
 4298SOL    HW224354   3.141   4.038   6.306 -1.4050  1.0453 -0.5659
 4299SOL     OW24355   4.677   0.326   1.230  0.4783 -0.4333  0.0126
 4299SOL    HW124356   4.666   0.235   1.257  0.1540 -0.5489 -0.5039
 4299SOL    HW224357   4.595   0.347   1.186 -0.2332 -1.9886  0.6178
 4300SOL     OW24358   4.359   1.108   3.879 -0.1238 -0.9192 -0.2824
 4300SOL    HW124359   4.353   1.013   3.874 -1.8972 -0.9669  2.4433
 4300SOL    HW224360   4.452   1.131   3.887 -0.8337  2.1691 -0.7342
 4301SOL     OW24361   4.294   3.908   3.445  0.4871  0.3339  0.3167
 4301SOL    HW124362   4.277   3.995   3.480  0.6222  0.4670  0.0470
 4301SOL    HW224363   4.369   3.933   3.392 -0.3278  2.4851  0.2102
 4302SOL     OW24364   1.278   2.704   3.934  0.2825 -0.4867  0.1299
 4302SOL    HW124365   1.229   2.646   3.876 -0.1178 -0.9069  0.8723
 4302SOL    HW224366   1.209   2.741   3.990 -0.5441 -0.6132 -0.8158
 4303SOL     OW24367   3.831   4.054   2.504 -0.2014  0.7283  0.0478
 4303SOL    HW124368   3.782   4.136   2.503  0.1086  0.9093 -0.2142
 4303SOL    HW224369   3.809   4.025   2.593 -1.3222  2.0170  0.1975
 4304SOL     OW24370   0.874   1.386   6.098  0.0139  0.0545 -0.3575
 4304SOL    HW124371   0.798   1.359   6.047  0.0654 -1.6444  0.4809
 4304SOL    HW224372   0.828   1.382   6.182  0.2271 -0.2658 -0.2537
 4305SOL     OW24373   3.640   2.856   4.241  0.7674  0.2346 -0.5264
 4305SOL    HW124374   3.672   2.803   4.167 -0.4280 -1.9495  0.5307
 4305SOL    HW224375   3.551   2.823   4.254  0.8130  0.5561  0.6093
 4306SOL     OW24376   2.226   1.297   5.554  0.0333  0.2113  0.5971
 4306SOL    HW124377   2.137   1.274   5.529  0.4067 -0.3119 -0.2295
 4306SOL    HW224378   2.228   1.223   5.616  0.7241  0.1893  0.5516
 4307SOL     OW24379   2.674   2.074   5.878 -0.2596  0.8140  0.2227
 4307SOL    HW124380   2.723   2.050   5.799 -0.7812 -1.1491  0.4946
 4307SOL    HW224381   2.732   2.075   5.954 -1.1622 -0.6956  0.9275
 4308SOL     OW24382   3.941   0.735   3.080  0.1595  0.0696  0.8230
 4308SOL    HW124383   3.890   0.809   3.047  0.4402 -0.1452 -0.1106
 4308SOL    HW224384   4.031   0.765   3.075 -0.0702  0.5514 -0.6356
 4309SOL     OW24385   2.510   3.232   9.738  0.5216 -0.1044 -0.2659
 4309SOL    HW124386   2.594   3.243   9.694  0.4633 -0.0883 -0.3717
 4309SOL    HW224387   2.531   3.264   9.826  1.9617 -2.1104  0.1130
 4310SOL     OW24388   2.564   2.351  12.671  0.4995  0.4211  0.0040
 4310SOL    HW124389   2.638   2.379  12.616 -0.4832  2.4837 -0.2340
 4310SOL    HW224390   2.486   2.381  12.626  0.2688 -0.2493 -0.0444
 4311SOL     OW24391   4.245   2.332  15.413 -0.5715  0.2786  0.1417
 4311SOL    HW124392   4.311   2.279  15.459 -0.1886  0.1838 -0.5300
 4311SOL    HW224393   4.298   2.409  15.434 -0.0878  0.0194 -0.1101
 4312SOL     OW24394   3.690   3.518   7.913 -0.6706  0.3798  0.3770
 4312SOL    HW124395   3.687   3.492   7.821 -0.4104  1.6807  0.0068
 4312SOL    HW224396   3.786   3.522   7.920 -0.8600  0.5947  2.7863
 4313SOL     OW24397   2.957   3.946   3.119  0.1547 -0.3888  0.3746
 4313SOL    HW124398   3.049   3.929   3.098 -0.5688 -3.0839 -0.6005
 4313SOL    HW224399   2.925   3.872   3.172 -1.7536  0.3194  0.2082
 4314SOL     OW24400   4.111   2.687   8.752  0.1364 -0.3638 -0.3429
 4314SOL    HW124401   4.146   2.748   8.687  1.4121  0.8982  1.5593
 4314SOL    HW224402   4.178   2.676   8.819  0.3315 -0.3590 -0.5404
 4315SOL     OW24403   0.071   2.873  11.350 -0.1562  0.3945  0.2652
 4315SOL    HW124404   0.009   2.945  11.341  0.9018  1.3192  0.3446
 4315SOL    HW224405   0.075   2.865  11.445  0.2796  3.0861  0.4775
 4316SOL     OW24406   1.518   3.410   9.230 -0.2940 -0.8625  0.7089
 4316SOL    HW124407   1.529   3.439   9.140  1.4982 -2.3460  0.4586
 4316SOL    HW224408   1.518   3.314   9.224  2.0155 -0.7594 -1.0983
 4317SOL     OW24409   3.256   1.115  12.215  0.0976 -0.6228 -0.2875
 4317SOL    HW124410   3.317   1.079  12.150 -0.5787 -1.2753 -0.5536
 4317SOL    HW224411   3.307   1.121  12.296  2.2658 -2.3131 -1.4949
 4318SOL     OW24412   1.958   4.311  10.988  0.0870  0.4666  0.2725
 4318SOL    HW124413   2.015   4.334  11.061 -2.4779 -0.2155  2.5018
 4318SOL    HW224414   2.004   4.356  10.917  0.2673 -0.1937 -0.0197
 4319SOL     OW24415   1.694   4.324  16.788 -0.3450  0.0685 -0.6097
 4319SOL    HW124416   1.629   4.334  16.718 -0.8961 -0.9727 -0.2362
 4319SOL    HW224417   1.665   4.251  16.842  1.1011  0.6055  0.8788
 4320SOL     OW24418   1.657   1.100   7.354  0.1778  0.3337  0.3840
 4320SOL    HW124419   1.742   1.116   7.311 -0.5982  2.5439 -0.3089
 4320SOL    HW224420   1.616   1.186   7.360  2.2038  1.2833  0.5543
 4321SOL     OW24421   0.612   2.681   9.346  0.5120  0.0195 -0.0870
 4321SOL    HW124422   0.657   2.762   9.326 -0.4367  0.3103 -1.0917
 4321SOL    HW224423   0.613   2.670   9.441  2.2236  2.4303  0.1744
 4322SOL     OW24424   3.277   1.275  11.125 -0.0526 -0.0286  0.5326
 4322SOL    HW124425   3.319   1.249  11.206 -1.4031  1.6500  1.7584
 4322SOL    HW224426   3.203   1.214  11.129  0.7419 -0.8015  3.2127
 4323SOL     OW24427   1.881   0.059   7.751  0.1308  0.7273  0.2885
 4323SOL    HW124428   1.964   0.102   7.733  0.0938  1.3034  1.4802
 4323SOL    HW224429   1.829   0.134   7.780 -1.8472 -0.1320 -0.9596
 4324SOL     OW24430   4.453   0.955   4.311 -0.3851  0.1608  0.0375
 4324SOL    HW124431   4.504   0.891   4.260 -0.2558 -0.0127  0.3823
 4324SOL    HW224432   4.487   1.034   4.269  2.4318 -0.3800  1.2839
 4325SOL     OW24433   4.200   2.870   8.542  0.3637  0.0083  0.2349
 4325SOL    HW124434   4.203   2.855   8.447 -1.0679  0.6792  0.0873
 4325SOL    HW224435   4.284   2.916   8.543  0.5070 -0.2592  0.4134
 4326SOL     OW24436   0.640   0.953  14.634  0.2582 -0.2898 -0.3621
 4326SOL    HW124437   0.572   0.979  14.573  0.2352 -0.5411 -0.4460
 4326SOL    HW224438   0.627   0.859  14.651 -0.2371  0.0609  1.1750
 4327SOL     OW24439   3.961   4.087   9.343  0.1306 -0.2923  0.0066
 4327SOL    HW124440   4.001   4.174   9.333 -0.3305 -0.0834 -0.0348
 4327SOL    HW224441   3.867   4.091   9.325 -0.1044  0.9505  1.4875
 4328SOL     OW24442   0.641   3.242   3.880 -0.2764 -0.3411 -0.2444
 4328SOL    HW124443   0.578   3.192   3.827 -1.2352 -0.6359  1.1634
 4328SOL    HW224444   0.584   3.267   3.953 -0.0603  0.4227 -0.3323
 4329SOL     OW24445   2.194   1.764   1.874 -0.1814 -0.3208 -0.0279
 4329SOL    HW124446   2.246   1.685   1.886  1.3555  0.3577 -2.1371
 4329SOL    HW224447   2.107   1.725   1.885  0.4421 -0.9849  2.6861
 4330SOL     OW24448   3.645   2.048   5.325 -0.5289  0.2842  0.0729
 4330SOL    HW124449   3.675   1.992   5.253  1.4132  1.3319  0.0466
 4330SOL    HW224450   3.595   1.983   5.374  0.1846 -1.1771 -1.1481
 4331SOL     OW24451   3.201   0.630   7.841  0.3412  0.5069 -0.3658
 4331SOL    HW124452   3.280   0.586   7.874 -0.6932 -0.6778  0.5335
 4331SOL    HW224453   3.176   0.667   7.926  0.7679 -1.2972  0.5485
 4332SOL     OW24454   0.957   0.105   5.198 -0.2609  0.0879  0.2873
 4332SOL    HW124455   0.904   0.046   5.145  0.2036 -0.4867  0.4654
 4332SOL    HW224456   1.025   0.040   5.218  1.4645  1.4912 -1.0167
 4333SOL     OW24457   3.898   4.261  13.872  0.7099  0.4071  0.3988
 4333SOL    HW124458   3.818   4.290  13.828  1.0227 -1.1966 -1.2472
 4333SOL    HW224459   3.863   4.272  13.960 -0.8282 -0.7995 -0.0426
 4334SOL     OW24460   0.410   2.924   4.533  0.0154  0.3057 -0.0301
 4334SOL    HW124461   0.416   2.985   4.607  0.5714  1.2337 -0.8451
 4334SOL    HW224462   0.321   2.892   4.549  0.0526  0.6759  0.9284
 4335SOL     OW24463   3.933   1.425   8.282  0.1423  0.1383  0.1619
 4335SOL    HW124464   3.966   1.514   8.283 -0.8781  0.5234 -0.0906
 4335SOL    HW224465   3.858   1.420   8.222  1.4834  1.9030 -1.6655
 4336SOL     OW24466   3.778   0.217   6.042 -0.4693 -0.2056  0.1463
 4336SOL    HW124467   3.850   0.187   5.986 -0.6778 -0.0062 -0.2263
 4336SOL    HW224468   3.823   0.268   6.109 -1.4960 -1.1479  1.5573
 4337SOL     OW24469   2.768   0.009   5.214  0.6351  0.5682 -0.2440
 4337SOL    HW124470   2.744   4.697   5.300  1.0212 -1.6829 -1.0385
 4337SOL    HW224471   2.863   4.717   5.216  0.8358  1.8624 -0.1638
 4338SOL     OW24472   0.591   2.631   1.863 -0.0352  0.0659  0.1574
 4338SOL    HW124473   0.519   2.647   1.924 -0.0469  0.2897  0.0853
 4338SOL    HW224474   0.579   2.698   1.796 -0.2926  0.0348  0.1751
 4339SOL     OW24475   3.520   0.936   9.459 -0.2859 -0.1125  0.4257
 4339SOL    HW124476   3.544   0.843   9.468  0.9757  0.0660 -0.9845
 4339SOL    HW224477   3.557   0.946   9.371 -1.4611 -1.9593 -0.2758
 4340SOL     OW24478   0.099   3.082   7.087 -0.2379  0.0267 -0.3579
 4340SOL    HW124479   0.053   3.001   7.063 -0.3527  0.2697 -0.9762
 4340SOL    HW224480   0.022   3.138   7.101  1.6564  2.1264  1.5887
 4341SOL     OW24481   3.345   4.195   2.071  0.3717  0.4779 -0.3623
 4341SOL    HW124482   3.323   4.121   2.128 -0.7238  0.3903 -0.9127
 4341SOL    HW224483   3.395   4.148   2.004 -0.9689 -1.2309 -0.1616
 4342SOL     OW24484   3.086   1.212   9.342 -0.5692 -0.1488  0.0105
 4342SOL    HW124485   3.100   1.123   9.373 -0.2780  0.0654  0.4991
 4342SOL    HW224486   3.178   1.229   9.320  0.4349 -1.4516  3.2071
 4343SOL     OW24487   2.356   4.336   8.548 -0.4733  0.2811 -0.4211
 4343SOL    HW124488   2.308   4.398   8.493  2.2977 -0.1256 -3.2964
 4343SOL    HW224489   2.284   4.276   8.567 -0.7615  0.9699  0.6653
 4344SOL     OW24490   1.090   2.987   1.034  0.0150 -0.3284 -0.2727
 4344SOL    HW124491   1.108   3.031   1.117  1.5503 -0.3047 -0.6073
 4344SOL    HW224492   1.011   3.029   1.000 -1.5087 -0.7087  2.8674
 4345SOL     OW24493   2.589   3.731   8.257 -0.0786 -0.2805 -0.0151
 4345SOL    HW124494   2.602   3.820   8.223  1.3620  0.4027  2.3653
 4345SOL    HW224495   2.678   3.708   8.283 -0.1437 -1.1443 -0.5570
 4346SOL     OW24496   1.442   2.353   4.911  0.3738  0.2872  0.7586
 4346SOL    HW124497   1.428   2.386   4.822  1.5768  1.5535  1.0373
 4346SOL    HW224498   1.508   2.414   4.943  0.5278  1.1356 -1.1672
 4347SOL     OW24499   1.054   4.679   5.463 -0.2409 -0.1534 -0.0694
 4347SOL    HW124500   1.112   4.656   5.391  1.0530  0.9115  0.6321
 4347SOL    HW224501   1.124   4.705   5.523 -1.4065 -1.9898  2.1148
 4348SOL     OW24502   2.762   1.045  17.658  0.1420  0.1362  0.8516
 4348SOL    HW124503   2.834   1.108  17.662 -1.0735  1.7111 -1.9469
 4348SOL    HW224504   2.722   1.049   0.050  0.5966  2.9482  0.9325
 4349SOL     OW24505   4.460   2.152  15.526  0.0431 -0.1108  0.2453
 4349SOL    HW124506   4.453   2.080  15.589  0.2371 -1.0932 -0.8632
 4349SOL    HW224507   4.529   2.204  15.567 -0.6308  1.4723 -0.6089
 4350SOL     OW24508   0.562   2.623  15.307 -0.7324 -0.6200  0.1649
 4350SOL    HW124509   0.494   2.676  15.265 -1.2086 -0.7600  0.7717
 4350SOL    HW224510   0.622   2.695  15.329  0.1459 -1.3815  0.2520
 4351SOL     OW24511   4.492   0.468   3.930 -0.1427  0.4513  0.1573
 4351SOL    HW124512   4.554   0.399   3.904 -0.4684 -0.3270  1.4479
 4351SOL    HW224513   4.560   0.535   3.931 -0.0308  0.2900  2.9071
 4352SOL     OW24514   4.574   2.952   8.894  0.3443  1.1512 -0.2230
 4352SOL    HW124515   4.634   2.952   8.968  0.8770  1.8712 -0.6606
 4352SOL    HW224516   4.494   2.975   8.941 -0.1997 -2.2065  0.4862
 4353SOL     OW24517   1.148   4.419  12.424  0.2547 -0.1010  0.5813
 4353SOL    HW124518   1.238   4.452  12.414  1.3163 -2.9959  0.7426
 4353SOL    HW224519   1.104   4.450  12.344  4.3896  2.1760 -0.8269
 4354SOL     OW24520   3.179   4.083  13.756 -0.1640 -0.5828  0.3206
 4354SOL    HW124521   3.262   4.125  13.732  0.3411 -0.4941  2.1842
 4354SOL    HW224522   3.132   4.084  13.673 -0.6704  1.7659  0.6374
 4355SOL     OW24523   1.833   1.289   7.228  0.1877  0.7222 -0.9418
 4355SOL    HW124524   1.907   1.274   7.286 -1.0528 -0.6506  0.2861
 4355SOL    HW224525   1.811   1.378   7.253  0.2512  0.6006 -0.4611
 4356SOL     OW24526   2.655   3.306  12.433  0.1190 -0.1898 -0.5257
 4356SOL    HW124527   2.737   3.291  12.480 -1.3158 -0.4279  1.8764
 4356SOL    HW224528   2.615   3.225  12.464  0.4245  0.6222  2.0017
 4357SOL     OW24529   3.306   1.401   1.445  0.4869 -0.3364  0.0394
 4357SOL    HW124530   3.308   1.393   1.540  1.7523  0.1599  0.0471
 4357SOL    HW224531   3.286   1.494   1.439  1.5694 -0.1526 -0.6394
 4358SOL     OW24532   0.825   3.676   7.810  0.3304  0.4476 -0.3740
 4358SOL    HW124533   0.761   3.620   7.853  1.4350 -2.0885 -2.0540
 4358SOL    HW224534   0.808   3.754   7.863  1.0427  1.2467 -1.3329
 4359SOL     OW24535   2.351   1.601   9.195 -0.1130 -0.3404  0.8077
 4359SOL    HW124536   2.321   1.683   9.157 -0.8412 -1.1789 -0.4448
 4359SOL    HW224537   2.345   1.620   9.288  1.1816 -0.4167  0.9024
 4360SOL     OW24538   2.355   4.485   7.616 -0.0698  0.0444 -0.3809
 4360SOL    HW124539   2.421   4.548   7.645 -0.1369 -0.1355  0.1641
 4360SOL    HW224540   2.370   4.413   7.678  1.1427  1.1362  0.6237
 4361SOL     OW24541   2.908   4.092   2.064  0.2428 -0.1299 -0.1852
 4361SOL    HW124542   2.954   4.175   2.076  2.3164 -1.5587  1.8625
 4361SOL    HW224543   2.814   4.107   2.057  0.7964  3.9676  0.9471
 4362SOL     OW24544   1.642   3.152  15.922 -0.2470  0.7424  0.0873
 4362SOL    HW124545   1.654   3.137  16.016  0.3649  0.9004  0.0386
 4362SOL    HW224546   1.596   3.236  15.926 -0.3272  0.6806  0.4748
 4363SOL     OW24547   1.239   2.822  16.567 -0.1720  0.0110  0.1526
 4363SOL    HW124548   1.246   2.769  16.487 -0.8736 -1.1015  0.8258
 4363SOL    HW224549   1.309   2.781  16.617 -1.4257 -1.2345  0.8833
 4364SOL     OW24550   3.745   2.030   2.820 -0.3650 -0.3097 -0.3010
 4364SOL    HW124551   3.826   2.008   2.774  0.3215  0.9396  0.3116
 4364SOL    HW224552   3.753   1.973   2.896 -1.1485  2.5811  1.9168
 4365SOL     OW24553   2.865   3.119   9.712  0.1212  0.5364  0.5591
 4365SOL    HW124554   2.860   3.097   9.805  0.1574 -0.3097  0.3686
 4365SOL    HW224555   2.950   3.085   9.685  0.3982  1.1547  0.6581
 4366SOL     OW24556   3.074   1.790  12.823  0.3461  0.7605 -0.1699
 4366SOL    HW124557   2.992   1.757  12.860  1.7217  1.1041  3.2717
 4366SOL    HW224558   3.046   1.861  12.765 -1.1124 -1.7912 -2.5644
 4367SOL     OW24559   1.738   1.189  14.805 -0.1888 -0.6566  0.0846
 4367SOL    HW124560   1.759   1.104  14.765 -1.7775 -1.8019  1.6830
 4367SOL    HW224561   1.659   1.173  14.856 -0.4813  1.4767  0.3049
 4368SOL     OW24562   3.319   1.272   9.188  0.0562  0.2656  0.1233
 4368SOL    HW124563   3.392   1.332   9.202 -0.5292  1.0681 -0.2266
 4368SOL    HW224564   3.343   1.236   9.103  2.6229 -0.6295  1.2234
 4369SOL     OW24565   0.368   0.967   3.002  0.1694 -0.4513  0.4553
 4369SOL    HW124566   0.443   1.019   3.029 -1.2971  1.7016  0.3548
 4369SOL    HW224567   0.404   0.923   2.925  0.5356  2.1183 -0.8384
 4370SOL     OW24568   0.136   2.003   0.434 -0.6028  0.0399 -0.1320
 4370SOL    HW124569   0.177   2.072   0.381 -1.1818 -0.4017 -1.1525
 4370SOL    HW224570   0.202   1.935   0.419 -0.1598  0.1136  1.4988
 4371SOL     OW24571   4.135   1.144  10.958  0.3637  0.2805  0.3854
 4371SOL    HW124572   4.194   1.177  11.025 -0.4597  0.5297  0.9931
 4371SOL    HW224573   4.124   1.058  10.998 -0.7722 -1.8738 -4.4314
 4372SOL     OW24574   1.972   4.461   6.406  0.4877 -0.3111 -0.0046
 4372SOL    HW124575   1.942   4.391   6.347  0.5063 -0.3718  0.0579
 4372SOL    HW224576   1.965   4.410   6.487  2.8222  0.2426  0.5426
 4373SOL     OW24577   2.173   1.263  14.140  0.1783 -0.1650  0.0954
 4373SOL    HW124578   2.202   1.205  14.070  0.8273 -1.1917  1.2143
 4373SOL    HW224579   2.231   1.239  14.213 -1.3544 -1.2533  0.9602
 4374SOL     OW24580   1.653   0.781   0.852 -0.3302 -0.2144 -0.1695
 4374SOL    HW124581   1.696   0.842   0.793  1.4255  0.2911  1.6453
 4374SOL    HW224582   1.585   0.834   0.893  0.6596 -0.1521  1.4204
 4375SOL     OW24583   2.617   4.178   4.741  0.0770 -0.2995 -0.1604
 4375SOL    HW124584   2.534   4.198   4.699  0.4082 -0.3927 -0.8570
 4375SOL    HW224585   2.591   4.135   4.823  1.4410  0.3246  0.6053
 4376SOL     OW24586   4.664   2.743  12.950  0.0352 -0.4458  0.5210
 4376SOL    HW124587   4.667   2.808  13.020 -2.0340 -0.1968  0.3747
 4376SOL    HW224588   0.033   2.721  12.941  0.6223  2.7236 -1.2644
 4377SOL     OW24589   3.964   4.681   5.416  0.2474 -0.1640  0.2556
 4377SOL    HW124590   4.009   4.716   5.493 -0.6561  0.2372  0.6145
 4377SOL    HW224591   4.011   4.720   5.342  2.1129  0.7668  1.9503
 4378SOL     OW24592   2.524   2.530   2.676  0.2375  0.5290 -0.0360
 4378SOL    HW124593   2.514   2.624   2.667 -0.6022  0.1708 -2.8582
 4378SOL    HW224594   2.580   2.531   2.754 -1.6222  0.8140  1.2946
 4379SOL     OW24595   1.491   1.686  11.192 -0.1657 -0.4697  0.1390
 4379SOL    HW124596   1.568   1.688  11.248  0.5649 -1.1287 -0.8400
 4379SOL    HW224597   1.449   1.767  11.221 -2.4829 -1.3704 -0.6920
 4380SOL     OW24598   2.773   0.347   8.162 -0.3931  0.4474  0.0126
 4380SOL    HW124599   2.754   0.416   8.225  1.1644  0.3827  0.5642
 4380SOL    HW224600   2.748   0.394   8.083 -0.9348 -1.3084 -0.8581
 4381SOL     OW24601   3.478   2.594   6.737  0.0309 -0.0733 -0.0711
 4381SOL    HW124602   3.444   2.506   6.723  0.7724  0.0509 -2.6201
 4381SOL    HW224603   3.397   2.645   6.732  1.1228  1.8729  1.8867
 4382SOL     OW24604   3.915   2.013  11.954  0.2302 -0.6622  0.1941
 4382SOL    HW124605   3.880   2.046  11.871 -1.1258  1.2908  1.5422
 4382SOL    HW224606   3.909   1.919  11.935 -0.1434 -0.8990  1.4639
 4383SOL     OW24607   2.352   0.345   4.029  0.2233  0.9894 -0.4330
 4383SOL    HW124608   2.383   0.291   3.957  0.6654  1.0063 -0.2534
 4383SOL    HW224609   2.433   0.367   4.076 -1.5319  2.7838  1.7873
 4384SOL     OW24610   4.718   0.616   3.112 -0.1239 -0.8034 -0.4009
 4384SOL    HW124611   0.037   0.531   3.102  1.0636 -0.2801  0.1402
 4384SOL    HW224612   0.016   0.652   3.026  1.2139  0.2379  0.3540
 4385SOL     OW24613   2.142   2.023   2.206  0.3833  0.2358 -0.2759
 4385SOL    HW124614   2.205   1.961   2.243  1.7063  0.7484 -1.6654
 4385SOL    HW224615   2.061   1.984   2.237  0.2803  0.6202 -0.0663
 4386SOL     OW24616   0.413   0.455   2.546 -0.1201  0.3575 -0.0970
 4386SOL    HW124617   0.391   0.368   2.577 -0.9657  0.2520 -0.9846
 4386SOL    HW224618   0.394   0.446   2.452  0.9625 -0.0963 -0.2726
 4387SOL     OW24619   3.331   2.012  10.014  0.2598  0.2884 -0.2170
 4387SOL    HW124620   3.241   2.043  10.010  0.8035  2.2814  2.4527
 4387SOL    HW224621   3.369   2.082   9.960 -1.2324  1.2701  0.0215
 4388SOL     OW24622   0.511   3.327   7.251 -1.0386 -0.5106 -0.4688
 4388SOL    HW124623   0.521   3.259   7.318  0.9523 -0.3954 -0.6665
 4388SOL    HW224624   0.460   3.283   7.183  0.6548 -1.5176 -1.0903
 4389SOL     OW24625   4.018   1.064   3.334 -0.0939 -0.3530 -0.0530
 4389SOL    HW124626   4.092   1.047   3.393  0.8549  1.6064 -0.6824
 4389SOL    HW224627   3.966   0.986   3.354 -2.3595  1.4747  1.1755
 4390SOL     OW24628   0.427   4.023   8.341 -0.7482  0.5172 -0.4309
 4390SOL    HW124629   0.496   4.090   8.339 -1.1894  0.8947 -2.4309
 4390SOL    HW224630   0.375   4.074   8.403 -2.6710 -2.6949  0.5851
 4391SOL     OW24631   0.400   3.794  15.068 -0.2324  0.2268  0.5802
 4391SOL    HW124632   0.340   3.743  15.122  0.1596 -0.7813  0.0440
 4391SOL    HW224633   0.332   3.832  15.011 -1.3419 -1.2918  0.9121
 4392SOL     OW24634   3.449   3.652   8.727  0.4024  0.3550  0.3648
 4392SOL    HW124635   3.521   3.663   8.666  1.0004 -1.1033  0.8085
 4392SOL    HW224636   3.494   3.646   8.811 -0.4369  0.9794  0.8603
 4393SOL     OW24637   0.087   3.331   4.244  0.0820 -0.4529  0.0876
 4393SOL    HW124638   0.011   3.274   4.255  1.0528 -2.2138 -2.3231
 4393SOL    HW224639   0.042   3.406   4.283 -0.3002 -0.6470  0.0223
 4394SOL     OW24640   1.110   0.532   0.717  0.2382 -0.3108  0.0156
 4394SOL    HW124641   1.086   0.623   0.738  0.6416 -0.2125  0.0554
 4394SOL    HW224642   1.185   0.517   0.774 -0.7032 -1.0330  1.0573
 4395SOL     OW24643   0.503   0.968   2.501 -0.3702  0.3531  0.1979
 4395SOL    HW124644   0.430   0.911   2.524 -0.6580  0.2235 -1.0085
 4395SOL    HW224645   0.486   0.967   2.407  2.9461  1.1334 -0.3941
 4396SOL     OW24646   3.546   4.157   4.408  0.8166  0.1144 -0.8327
 4396SOL    HW124647   3.565   4.090   4.342  0.5702 -0.3589 -0.4306
 4396SOL    HW224648   3.470   4.116   4.450  0.6028  1.3987  0.0173
 4397SOL     OW24649   3.654   0.182   8.521  0.4437 -0.4253 -0.6646
 4397SOL    HW124650   3.613   0.243   8.460 -1.0934  0.5122  1.2742
 4397SOL    HW224651   3.724   0.140   8.471 -0.6369 -0.4878 -2.0983
 4398SOL     OW24652   4.691   1.527   5.951  0.0398  0.2669  0.5012
 4398SOL    HW124653   4.599   1.528   5.925  0.0830  0.3463  0.3510
 4398SOL    HW224654   0.006   1.485   5.874  0.0015  1.3567 -0.1148
 4399SOL     OW24655   0.349   1.746   7.517 -0.7036  0.2759  0.2647
 4399SOL    HW124656   0.395   1.830   7.528  0.4356 -0.4436  0.9372
 4399SOL    HW224657   0.265   1.773   7.555  0.1576  0.3128  2.1810
 4400SOL     OW24658   4.287   3.202  13.501 -0.7510  0.4078 -0.5036
 4400SOL    HW124659   4.283   3.143  13.425 -1.3972  2.0749 -1.7720
 4400SOL    HW224660   4.215   3.161  13.549  1.2990 -2.6541 -0.0234
 4401SOL     OW24661   2.426   4.045   2.583 -0.6491 -0.2030 -0.6071
 4401SOL    HW124662   2.515   4.034   2.617 -0.8905  0.8878  0.3657
 4401SOL    HW224663   2.373   4.016   2.657  1.1509 -4.1818 -0.8360
 4402SOL     OW24664   3.990   0.680   3.917 -0.2166  0.5723 -0.0259
 4402SOL    HW124665   3.927   0.743   3.952 -1.4572  0.2896 -1.7161
 4402SOL    HW224666   3.930   0.624   3.867 -0.4408  1.4867 -0.7939
 4403SOL     OW24667   3.034   1.982   2.248 -0.5400  0.3316 -0.0736
 4403SOL    HW124668   3.031   2.008   2.341 -0.0929  1.5213 -0.3869
 4403SOL    HW224669   3.021   2.069   2.209  1.8805  1.0324  0.6487
 4404SOL     OW24670   2.950   0.501   1.077 -0.0055  0.2186  0.2347
 4404SOL    HW124671   2.870   0.522   1.126 -0.4204 -2.4452  0.6972
 4404SOL    HW224672   2.937   0.411   1.049 -0.5545 -0.3620  2.3050
 4405SOL     OW24673   4.191   0.379  16.753  0.4985 -0.4149 -0.4012
 4405SOL    HW124674   4.242   0.460  16.749 -1.1502  0.6807  0.6980
 4405SOL    HW224675   4.119   0.412  16.808  0.5582 -2.0955  0.6895
 4406SOL     OW24676   4.479   3.568  10.142 -0.6179 -0.6192  0.2806
 4406SOL    HW124677   4.435   3.522  10.070 -0.1106  1.0033 -1.0531
 4406SOL    HW224678   4.443   3.656  10.135  1.1167 -0.0547 -1.3556
 4407SOL     OW24679   2.511   1.505   9.570 -0.2909 -0.7018  0.3472
 4407SOL    HW124680   2.558   1.564   9.629 -1.3174  0.8289 -0.3527
 4407SOL    HW224681   2.590   1.470   9.529  0.5459  1.2217  0.3138
 4408SOL     OW24682   1.990   3.433   6.781  0.2586  0.4448  0.1253
 4408SOL    HW124683   1.932   3.499   6.819 -1.9799  0.0535 -2.6446
 4408SOL    HW224684   1.932   3.357   6.780 -0.9292  1.3712 -0.6993
 4409SOL     OW24685   1.337   0.742   3.811 -0.1274  0.4153  0.5081
 4409SOL    HW124686   1.432   0.753   3.808 -0.0168 -0.0614  1.9210
 4409SOL    HW224687   1.317   0.688   3.735  0.5606 -0.3133  0.8453
 4410SOL     OW24688   3.263   1.803   5.234 -0.1416 -0.8128 -0.2911
 4410SOL    HW124689   3.359   1.799   5.231 -0.0921 -1.9925  2.5409
 4410SOL    HW224690   3.234   1.748   5.161  0.5972 -0.5481 -0.7926
 4411SOL     OW24691   3.834   4.700   8.854  0.5180  0.1449  0.5492
 4411SOL    HW124692   3.885   4.621   8.840  0.1980 -0.1886  1.2658
 4411SOL    HW224693   3.821   4.700   8.949  1.8074 -0.1694  0.7223
 4412SOL     OW24694   1.927   1.869   0.640 -0.3543 -0.1300 -0.0072
 4412SOL    HW124695   1.889   1.805   0.579 -1.0311 -0.4999  0.8053
 4412SOL    HW224696   1.900   1.832   0.724 -0.1922 -0.1473  0.0370
 4413SOL     OW24697   2.711   1.749   6.026  0.0828 -0.3703 -1.1515
 4413SOL    HW124698   2.787   1.792   5.988  0.6225  0.1126  0.4403
 4413SOL    HW224699   2.744   1.660   6.026  0.0317 -0.3915 -0.7380
 4414SOL     OW24700   3.621   3.835  15.876 -0.1867 -0.6002 -0.1943
 4414SOL    HW124701   3.633   3.846  15.782 -1.8735 -1.2687 -0.4862
 4414SOL    HW224702   3.579   3.751  15.891  0.7375 -0.8904  0.7661
 4415SOL     OW24703   3.910   1.797  10.828  0.0890 -0.0996 -0.3880
 4415SOL    HW124704   3.842   1.864  10.841  1.1662  1.0860 -0.8702
 4415SOL    HW224705   3.870   1.715  10.856  1.5628 -0.6077  0.1943
 4416SOL     OW24706   2.706   4.310   4.414  0.3670  0.0908  0.4662
 4416SOL    HW124707   2.658   4.229   4.431  0.5259 -0.0154  0.4076
 4416SOL    HW224708   2.678   4.377   4.476  2.3290  1.6141 -0.2967
 4417SOL     OW24709   2.938   2.540   8.357 -0.2537  0.3297 -0.1383
 4417SOL    HW124710   3.005   2.473   8.350  0.8008  1.5204 -1.2409
 4417SOL    HW224711   2.896   2.531   8.443 -0.1383  0.0665 -0.1091
 4418SOL     OW24712   4.590   3.640   0.057 -0.1714  0.1652 -0.2880
 4418SOL    HW124713   4.580   3.563   0.000  2.3461 -1.1765  1.0967
 4418SOL    HW224714   4.681   3.637   0.087  1.0925 -0.9246 -4.2591
 4419SOL     OW24715   4.689   3.271   2.446  0.1206 -0.6638 -0.7191
 4419SOL    HW124716   4.700   3.366   2.457 -1.2707 -0.4922 -0.7502
 4419SOL    HW224717   4.600   3.268   2.481  1.8877  0.8032  3.8104
 4420SOL     OW24718   4.270   1.161   0.236 -0.4983 -0.3263 -0.0111
 4420SOL    HW124719   4.338   1.187   0.297 -0.8336  0.6488 -0.0635
 4420SOL    HW224720   4.233   1.242   0.201 -2.1117 -1.1985 -0.3347
 4421SOL     OW24721   3.772   0.124   0.802  0.0201  0.4211 -0.0426
 4421SOL    HW124722   3.722   0.076   0.736  1.0753  4.1692 -3.5341
 4421SOL    HW224723   3.703   0.175   0.844 -0.5465 -0.3292 -0.0647
 4422SOL     OW24724   0.566   1.213  17.371 -0.2463 -0.5663  0.2384
 4422SOL    HW124725   0.556   1.283  17.306  0.2950 -1.1205 -0.4470
 4422SOL    HW224726   0.645   1.170  17.337 -1.2070 -1.2176 -1.1419
 4423SOL     OW24727   1.137   3.634   7.116 -0.3465 -0.0139  0.6690
 4423SOL    HW124728   1.137   3.577   7.193  2.3861 -1.9485 -0.7246
 4423SOL    HW224729   1.060   3.604   7.067 -0.0816 -0.7625  0.7071
 4424SOL     OW24730   2.103   0.216   5.442  0.3285 -0.1121  0.3635
 4424SOL    HW124731   2.087   0.129   5.479 -1.9418 -0.0634 -0.4845
 4424SOL    HW224732   2.178   0.235   5.498 -0.4069  0.3038  1.1964
 4425SOL     OW24733   4.699   0.253   5.810  0.2200  0.7755  0.7215
 4425SOL    HW124734   0.020   0.210   5.736  0.5799  1.5714  0.4694
 4425SOL    HW224735   4.679   0.337   5.770 -0.7406 -0.2973 -1.0489
 4426SOL     OW24736   2.594   3.766   8.893 -0.2432  0.3316 -0.5762
 4426SOL    HW124737   2.545   3.687   8.917 -2.0873  1.8512  0.6362
 4426SOL    HW224738   2.611   3.753   8.800  0.8732 -1.4013 -0.1210
 4427SOL     OW24739   2.290   3.309   6.240  0.2195  0.0877  0.0152
 4427SOL    HW124740   2.248   3.354   6.167 -1.0308  0.0980  0.7367
 4427SOL    HW224741   2.327   3.372   6.301  2.7714 -0.6000 -0.8070
 4428SOL     OW24742   2.050   0.939  17.630  0.2184 -0.1090  0.0346
 4428SOL    HW124743   2.043   0.989  17.548 -1.4757 -0.3478  0.0365
 4428SOL    HW224744   2.130   0.981  17.663 -1.1323  1.2263  1.6033
 4429SOL     OW24745   2.091   0.475  10.453 -0.2017 -0.0325  0.3104
 4429SOL    HW124746   2.113   0.383  10.469  0.0793 -0.2768 -1.4528
 4429SOL    HW224747   2.159   0.517  10.400  1.6300 -0.3203  2.4531
 4430SOL     OW24748   0.937   0.699   5.033 -0.2996  0.8509 -0.2597
 4430SOL    HW124749   0.852   0.743   5.041 -0.6215  0.0598  0.6596
 4430SOL    HW224750   0.967   0.735   4.950 -2.0112 -1.7681 -1.9936
 4431SOL     OW24751   1.369   4.138   7.451  0.3739  0.3353  0.0617
 4431SOL    HW124752   1.300   4.177   7.397 -0.1927  0.3734  0.8197
 4431SOL    HW224753   1.339   4.048   7.454  0.5989  0.2585  0.0346
 4432SOL     OW24754   2.932   3.567  12.163  0.2245 -0.0242 -0.8830
 4432SOL    HW124755   2.879   3.494  12.131 -0.0658 -0.4592  0.5931
 4432SOL    HW224756   2.958   3.532  12.248 -4.2524  1.3455  1.0642
 4433SOL     OW24757   3.594   3.163   3.408  0.6195  0.6914 -0.2806
 4433SOL    HW124758   3.530   3.215   3.456  1.7360  1.5044  0.3372
 4433SOL    HW224759   3.642   3.234   3.365  0.3614 -0.5673 -2.6651
 4434SOL     OW24760   1.541   1.625   1.143 -0.0776 -0.0020  0.2205
 4434SOL    HW124761   1.625   1.657   1.176  0.2059  1.0966 -1.5696
 4434SOL    HW224762   1.492   1.619   1.226  0.9340  2.7275  1.0171
 4435SOL     OW24763   0.176   4.276   4.567  0.0165 -0.0388  0.7726
 4435SOL    HW124764   0.269   4.293   4.557 -0.3855  0.5110 -1.9420
 4435SOL    HW224765   0.140   4.305   4.483  0.2512  0.0558  0.7048
 4436SOL     OW24766   2.859   2.846   4.834  0.0187 -0.4489  0.0295
 4436SOL    HW124767   2.836   2.772   4.891  0.9800 -0.8451 -0.0987
 4436SOL    HW224768   2.940   2.816   4.792  0.0195  0.2407 -0.4575
 4437SOL     OW24769   2.963   0.869  13.226  0.1521 -0.1116  0.5122
 4437SOL    HW124770   3.046   0.868  13.179 -1.2850 -1.6313 -1.9849
 4437SOL    HW224771   2.995   0.843  13.312  1.3439  0.3524  0.2071
 4438SOL     OW24772   3.857   0.125   4.557 -0.6167  0.2303  0.3441
 4438SOL    HW124773   3.825   0.161   4.474 -1.1527  0.4006  0.6245
 4438SOL    HW224774   3.830   0.035   4.538  1.7131 -0.6813  1.4655
 4439SOL     OW24775   3.185   0.645   6.832 -0.5835  0.5940  0.2911
 4439SOL    HW124776   3.236   0.725   6.826  0.5103 -0.1823 -0.7992
 4439SOL    HW224777   3.167   0.640   6.926 -0.3502 -0.4735  0.2824
 4440SOL     OW24778   0.945   1.640   2.629  0.3244 -0.2654 -0.1328
 4440SOL    HW124779   1.032   1.633   2.589  1.0935  0.6956  1.3715
 4440SOL    HW224780   0.974   1.696   2.701 -0.1090  0.2059 -0.3262
 4441SOL     OW24781   2.849   0.516   2.640  0.2834  0.3713 -0.2344
 4441SOL    HW124782   2.920   0.581   2.640  1.1442 -0.5647 -0.1518
 4441SOL    HW224783   2.779   0.581   2.643 -0.1632 -0.1204  0.0427
 4442SOL     OW24784   1.622   0.852   3.776 -0.1294 -0.1944  0.0541
 4442SOL    HW124785   1.666   0.777   3.815 -1.0993 -0.0394  1.4364
 4442SOL    HW224786   1.695   0.890   3.727 -0.5059 -0.9190 -1.0944
 4443SOL     OW24787   1.053   1.484   4.739  0.1113 -0.2746 -0.1435
 4443SOL    HW124788   1.113   1.425   4.785  1.7713  0.1778 -1.6996
 4443SOL    HW224789   0.972   1.454   4.781  0.4179 -0.4580  0.3167
 4444SOL     OW24790   0.867   0.072   3.426 -0.5102  0.1017 -0.1378
 4444SOL    HW124791   0.904   0.027   3.502  2.2296  2.6790  0.0368
 4444SOL    HW224792   0.949   0.101   3.387  0.3204 -2.2013 -0.1106
 4445SOL     OW24793   4.077   0.785   0.421 -0.0756  0.0695  0.6786
 4445SOL    HW124794   4.076   0.871   0.378  0.1731  1.0564  2.6191
 4445SOL    HW224795   3.992   0.785   0.464 -1.0404  2.5074 -1.2054
 4446SOL     OW24796   2.387   2.531   8.879  0.4383  0.3287  0.1940
 4446SOL    HW124797   2.363   2.602   8.820 -0.0260  1.0608  1.2576
 4446SOL    HW224798   2.481   2.530   8.897  0.5984  1.6606 -0.6282
 4447SOL     OW24799   1.556   2.061   3.493 -0.2377 -0.2222 -0.0575
 4447SOL    HW124800   1.571   1.970   3.516  2.9992  0.0216 -1.1211
 4447SOL    HW224801   1.647   2.091   3.494 -0.8867  1.9021 -3.5391
 4448SOL     OW24802   4.084   0.184  15.464 -0.7424  0.2408  0.3243
 4448SOL    HW124803   4.010   0.212  15.518 -0.2238  0.6764  0.7988
 4448SOL    HW224804   4.059   0.092  15.469  2.1163 -0.5986 -1.0487
 4449SOL     OW24805   3.426   4.081  13.206  0.5205 -0.2684  0.3212
 4449SOL    HW124806   3.434   4.006  13.147 -0.1267  0.4163 -0.6407
 4449SOL    HW224807   3.331   4.094  13.205  0.8112  1.8054  1.2591
 4450SOL     OW24808   4.010   1.359  16.478  0.5147 -0.3212 -1.1248
 4450SOL    HW124809   4.059   1.277  16.489  0.4929 -0.0889  0.6124
 4450SOL    HW224810   3.928   1.325  16.513  0.4743 -0.3052 -1.2044
 4451SOL     OW24811   1.281   0.272   7.071  0.3666 -0.2521 -0.0303
 4451SOL    HW124812   1.236   0.272   6.987  0.1842 -1.2551  0.0734
 4451SOL    HW224813   1.370   0.291   7.040 -0.1154  2.5884  0.3435
 4452SOL     OW24814   4.465   1.112   4.798 -0.4671 -0.3268 -0.7084
 4452SOL    HW124815   4.516   1.185   4.764  0.1737 -1.1858 -1.6224
 4452SOL    HW224816   4.428   1.082   4.715 -1.7241  0.0284 -0.2750
 4453SOL     OW24817   3.781   0.424  13.219 -0.4822  0.2718  0.3434
 4453SOL    HW124818   3.803   0.334  13.195  0.7281  0.6846 -0.0820
 4453SOL    HW224819   3.867   0.441  13.257 -0.9531  0.0492  1.4949
 4454SOL     OW24820   0.920   4.545   2.200 -0.5595 -0.4334 -0.5232
 4454SOL    HW124821   0.954   4.540   2.111 -2.6030 -2.4772 -1.1748
 4454SOL    HW224822   0.955   4.468   2.244 -0.8641  1.0015  2.2480
 4455SOL     OW24823   0.498   4.551   1.832  0.0417  0.8062 -0.3138
 4455SOL    HW124824   0.488   4.555   1.737  0.5446 -0.7632 -0.4210
 4455SOL    HW224825   0.496   4.458   1.852  1.0858  0.8267 -0.1165
 4456SOL     OW24826   3.189   3.518   3.439 -0.6721  0.0140 -0.5340
 4456SOL    HW124827   3.145   3.511   3.524  1.2956  1.2914  0.5791
 4456SOL    HW224828   3.235   3.602   3.438  0.8377 -0.8105 -0.6786
 4457SOL     OW24829   4.135   0.878  11.063  0.4148 -0.0484  0.0235
 4457SOL    HW124830   4.150   0.833  10.980  2.0151 -0.2388  0.4287
 4457SOL    HW224831   4.216   0.875  11.114 -0.0516  0.6576  0.8175
 4458SOL     OW24832   3.338   0.507   8.414  0.2761  0.3613 -0.1498
 4458SOL    HW124833   3.343   0.555   8.496  1.3801 -1.7197  1.0124
 4458SOL    HW224834   3.245   0.517   8.392 -0.4052 -0.3969  2.4251
 4459SOL     OW24835   1.378   2.502   8.510  0.3767  0.4908 -0.0980
 4459SOL    HW124836   1.453   2.560   8.495  1.1848  0.1931  2.9656
 4459SOL    HW224837   1.407   2.463   8.592  0.3700  2.0664  0.6629
 4460SOL     OW24838   2.404   2.902   2.519 -0.4901 -0.0583 -0.4480
 4460SOL    HW124839   2.365   2.820   2.551 -0.8592  0.1411 -0.3900
 4460SOL    HW224840   2.356   2.970   2.566 -0.1359  1.4402 -2.2761
 4461SOL     OW24841   0.971   2.282   0.604 -0.3726  0.1021 -0.2619
 4461SOL    HW124842   1.066   2.276   0.594 -0.4947 -1.2592 -0.6211
 4461SOL    HW224843   0.942   2.229   0.530 -0.5766 -0.6820  0.3753
 4462SOL     OW24844   0.213   2.068  11.601  0.1534  0.0567 -0.3876
 4462SOL    HW124845   0.148   2.088  11.669  0.4719  0.3639 -0.1763
 4462SOL    HW224846   0.263   1.996  11.639  1.6797  0.4535 -1.6500
 4463SOL     OW24847   3.093   2.557   2.152  0.0818  0.0752 -0.2347
 4463SOL    HW124848   3.026   2.563   2.083 -1.9299 -0.3060  1.6849
 4463SOL    HW224849   3.054   2.562   2.239  1.0780 -1.4575  0.2940
 4464SOL     OW24850   0.259   2.650  16.981  0.0935 -0.2089 -0.3372
 4464SOL    HW124851   0.316   2.699  16.921 -0.7135  1.0493 -0.0867
 4464SOL    HW224852   0.282   2.696  17.061 -0.4702 -2.1334  0.9244
 4465SOL     OW24853   1.613   4.632   3.514  0.1250 -0.5260 -0.6468
 4465SOL    HW124854   1.639   4.542   3.532 -2.7082 -1.1327  0.4739
 4465SOL    HW224855   1.700   4.672   3.510 -0.4279  0.4077 -3.4733
 4466SOL     OW24856   3.755   2.130   2.408 -0.0270 -0.0293  0.5142
 4466SOL    HW124857   3.681   2.100   2.354  1.9075 -1.0874 -1.5633
 4466SOL    HW224858   3.784   2.047   2.447 -0.6011 -0.5838 -0.2215
 4467SOL     OW24859   4.314   0.301   9.902  0.0099 -0.3886 -0.7554
 4467SOL    HW124860   4.316   0.247   9.982  2.6378  0.4592 -0.2252
 4467SOL    HW224861   4.406   0.309   9.876 -0.3168 -0.0845 -1.8019
 4468SOL     OW24862   3.396   0.443  17.628 -0.2124 -0.2637  0.1838
 4468SOL    HW124863   3.486   0.441  17.661 -0.3925 -0.2593  0.6735
 4468SOL    HW224864   3.387   0.534  17.600  1.6940 -0.3427 -0.6618
 4469SOL     OW24865   1.032   4.142   5.083 -0.2861  0.0281  0.3562
 4469SOL    HW124866   1.019   4.141   5.178 -2.5334  0.1160  0.0370
 4469SOL    HW224867   1.045   4.236   5.068 -1.5547 -0.2201 -2.3308
 4470SOL     OW24868   2.032   1.674   4.928  0.4763  0.1883 -0.0932
 4470SOL    HW124869   2.110   1.643   4.974 -1.1714 -1.9596  1.2512
 4470SOL    HW224870   1.955   1.626   4.956  0.8447  0.2577  1.0425
 4471SOL     OW24871   4.100   0.451  13.808 -1.3776  0.1212  0.2232
 4471SOL    HW124872   4.099   0.364  13.768  4.1291  0.2546 -0.1649
 4471SOL    HW224873   4.157   0.437  13.884  0.9392 -1.0184 -1.7058
 4472SOL     OW24874   4.643   3.844   4.922 -0.1150 -0.1461  0.0303
 4472SOL    HW124875   4.667   3.753   4.907  3.5953  0.9042 -0.4371
 4472SOL    HW224876   4.712   3.868   4.984  0.1844  0.2606 -0.4647
 4473SOL     OW24877   0.253   4.083  11.018 -0.4319 -0.0200  0.3313
 4473SOL    HW124878   0.224   4.103  11.107  0.2438  0.2487  0.4905
 4473SOL    HW224879   0.169   4.091  10.972 -0.3923  0.0260  0.2663
 4474SOL     OW24880   2.061   2.740   7.670 -0.1241 -0.0817  0.8817
 4474SOL    HW124881   2.052   2.765   7.578 -0.4139 -0.0377  0.9244
 4474SOL    HW224882   2.153   2.751   7.695 -0.2795 -1.1657  1.9192
 4475SOL     OW24883   4.368   1.951  12.818  0.0968  0.0825 -0.0889
 4475SOL    HW124884   4.343   2.040  12.794 -0.0748 -0.2744 -1.2233
 4475SOL    HW224885   4.281   1.913  12.817  0.4048 -0.6357  0.5526
 4476SOL     OW24886   1.281   2.936  11.199  0.1233  0.4450 -0.2372
 4476SOL    HW124887   1.274   3.031  11.188  1.5908  0.4993 -0.7696
 4476SOL    HW224888   1.340   2.918  11.126  1.0734 -1.9036  1.0903
 4477SOL     OW24889   1.611   1.802   4.983  0.2468  0.4655 -0.0502
 4477SOL    HW124890   1.582   1.888   5.015  2.3132 -0.1905  3.6067
 4477SOL    HW224891   1.610   1.820   4.889  1.2763 -1.7812 -0.4858
 4478SOL     OW24892   3.157   0.937   3.716  0.0291 -0.2435  0.0520
 4478SOL    HW124893   3.117   0.947   3.630  0.8834  2.7601  0.0346
 4478SOL    HW224894   3.193   0.849   3.701  0.6695  0.6622 -3.5331
 4479SOL     OW24895   2.883   4.185  16.535  0.1566  0.2885 -0.1321
 4479SOL    HW124896   2.800   4.232  16.532 -0.5592 -0.9741 -0.5415
 4479SOL    HW224897   2.917   4.197  16.623  1.6235 -3.7056 -0.1264
 4480SOL     OW24898   4.089   0.979   7.643  0.7690 -0.7019 -0.0527
 4480SOL    HW124899   4.179   0.964   7.615  0.8937  0.1720 -0.1163
 4480SOL    HW224900   4.084   1.067   7.680  0.1131  0.0577 -1.9396
 4481SOL     OW24901   2.988   2.396  14.671 -0.0687  0.2441 -0.0975
 4481SOL    HW124902   3.027   2.362  14.590 -0.7876  0.7505 -0.6560
 4481SOL    HW224903   3.066   2.430  14.716 -0.2661  2.1532 -1.1973
 4482SOL     OW24904   2.286   0.457   5.531  0.0342  0.2618 -0.0928
 4482SOL    HW124905   2.365   0.489   5.575 -1.0793  2.1204  0.5660
 4482SOL    HW224906   2.236   0.536   5.510 -1.2296 -0.2491  0.9910
 4483SOL     OW24907   1.359   1.549   5.712 -0.2473 -0.2309  0.0467
 4483SOL    HW124908   1.280   1.500   5.733  1.2085 -1.9255  1.5583
 4483SOL    HW224909   1.411   1.502   5.777  1.0454  0.6751 -0.3257
 4484SOL     OW24910   1.806   3.581  10.724  0.3451  0.2332 -0.0727
 4484SOL    HW124911   1.735   3.586  10.787 -1.9567  0.4538 -2.7026
 4484SOL    HW224912   1.846   3.495  10.737  0.2135  0.0640 -0.8001
 4485SOL     OW24913   0.019   3.643  11.022 -0.4633  0.1822 -0.0934
 4485SOL    HW124914   4.666   3.589  11.043  0.7632 -1.6611 -0.3605
 4485SOL    HW224915   4.706   3.708  10.962  2.1800  0.5965 -1.2816
 4486SOL     OW24916   0.451   1.000   5.458 -0.3042  0.0229 -0.3606
 4486SOL    HW124917   0.541   0.989   5.490  0.8125  2.7559 -2.6069
 4486SOL    HW224918   0.453   1.095   5.451 -0.9748 -0.0817 -2.0696
 4487SOL     OW24919   3.801   0.384   5.570  0.5910  0.9796 -0.9609
 4487SOL    HW124920   3.708   0.363   5.565  0.8863 -0.7879  0.8205
 4487SOL    HW224921   3.801   0.468   5.616  0.0591  0.0442  0.7548
 4488SOL     OW24922   2.827   2.047   3.660  0.3968  0.7707 -0.2783
 4488SOL    HW124923   2.733   2.051   3.640  0.3961 -0.3420 -0.5085
 4488SOL    HW224924   2.852   2.006   3.577 -0.1318  1.3647 -0.7384
 4489SOL     OW24925   3.035   4.357  15.498  0.4732 -0.3664  0.3416
 4489SOL    HW124926   3.014   4.273  15.458 -0.5571 -0.5877  1.3458
 4489SOL    HW224927   3.005   4.415  15.428 -0.3279  1.1005  1.8781
 4490SOL     OW24928   2.524   3.976   7.300 -0.5628 -0.0755  0.4712
 4490SOL    HW124929   2.437   4.016   7.294 -0.6942 -0.0708  2.3845
 4490SOL    HW224930   2.525   3.928   7.217 -1.9700  0.6315  0.0464
 4491SOL     OW24931   4.698   1.320   2.052 -0.2595 -0.1551 -0.1835
 4491SOL    HW124932   4.714   1.248   1.991 -2.7603 -0.9780  0.1111
 4491SOL    HW224933   0.067   1.345   2.054 -0.7502  1.6410 -0.7005
 4492SOL     OW24934   3.087   2.147   9.988 -0.0878  0.1358 -0.7902
 4492SOL    HW124935   3.046   2.171  10.071 -1.2849  0.8584 -1.5823
 4492SOL    HW224936   3.009   2.133   9.933 -1.0999  0.6868  0.5091
 4493SOL     OW24937   0.710   3.192   8.416 -0.1674 -0.3739  0.2375
 4493SOL    HW124938   0.658   3.113   8.405  0.1960 -0.5289 -0.3834
 4493SOL    HW224939   0.705   3.203   8.511  1.8737  0.5569  0.2369
 4494SOL     OW24940   4.386   2.323   6.855 -0.1928 -0.2696 -0.5036
 4494SOL    HW124941   4.351   2.279   6.932  0.5009 -0.6562 -0.4094
 4494SOL    HW224942   4.451   2.381   6.895 -0.8351  0.6721 -0.8139
 4495SOL     OW24943   2.206   3.236   4.434  0.2411  0.0070  1.1156
 4495SOL    HW124944   2.214   3.141   4.431 -2.8321 -0.2052  0.1038
 4495SOL    HW224945   2.127   3.251   4.383  1.3907 -2.1269 -1.2675
 4496SOL     OW24946   1.904   4.493  15.181  0.4898 -0.0241 -0.4364
 4496SOL    HW124947   1.865   4.473  15.096 -1.9775  0.9021  0.5112
 4496SOL    HW224948   1.995   4.465  15.167  0.6131 -1.6497  3.7080
 4497SOL     OW24949   3.866   4.459   8.031 -0.6761  0.0007  0.1159
 4497SOL    HW124950   3.941   4.475   7.974 -0.6986  0.4290  0.2063
 4497SOL    HW224951   3.850   4.365   8.024  0.9772 -0.1746 -1.1879
 4498SOL     OW24952   2.442   0.083  10.767 -0.2991  0.7045  0.7337
 4498SOL    HW124953   2.488   0.003  10.795  1.2198  1.1823 -0.3961
 4498SOL    HW224954   2.515   0.144  10.766 -0.3145  0.7134  0.0029
 4499SOL     OW24955   3.932   1.345   1.045 -0.1033 -0.2025  0.5799
 4499SOL    HW124956   4.024   1.367   1.055  0.2295 -0.4073 -1.9163
 4499SOL    HW224957   3.893   1.370   1.128 -1.3786  2.1292 -0.7309
 4500SOL     OW24958   2.166   1.866   6.394  0.4361 -0.3811 -0.1708
 4500SOL    HW124959   2.238   1.907   6.442  2.3594 -0.8365 -2.6776
 4500SOL    HW224960   2.101   1.936   6.406  1.8090  0.5183  2.0142
 4501SOL     OW24961   0.295   1.812  17.015 -0.1223 -0.2415  0.2951
 4501SOL    HW124962   0.263   1.806  17.105 -0.0653 -0.8203  0.2810
 4501SOL    HW224963   0.259   1.892  16.977  3.3397  2.9061  3.6309
 4502SOL     OW24964   3.080   2.537   5.309 -0.1568  0.6845 -0.1108
 4502SOL    HW124965   3.046   2.461   5.261  0.2144 -0.3992  1.3338
 4502SOL    HW224966   3.165   2.497   5.328 -0.4737  0.5457  1.0433
 4503SOL     OW24967   0.610   0.935  17.458  0.1381  0.4039  0.0593
 4503SOL    HW124968   0.564   0.854  17.435  1.1318 -0.7755  2.1939
 4503SOL    HW224969   0.589   0.981  17.377  0.1094  0.4988  0.1210
 4504SOL     OW24970   0.047   1.674   3.201 -0.2679  0.4098 -0.0733
 4504SOL    HW124971   0.032   1.767   3.214 -0.3614  0.4917 -0.7458
 4504SOL    HW224972   0.126   1.666   3.254 -0.3212 -0.2380 -0.0913
 4505SOL     OW24973   3.312   1.910   5.559  0.4804 -0.4402 -0.1631
 4505SOL    HW124974   3.372   1.985   5.556 -0.3644  0.2086 -1.2471
 4505SOL    HW224975   3.359   1.856   5.495 -1.7272 -0.6774 -1.6112
 4506SOL     OW24976   0.432   4.419  12.379  0.0965 -0.3595 -0.4219
 4506SOL    HW124977   0.399   4.465  12.302  0.5540  1.2970  0.3801
 4506SOL    HW224978   0.521   4.412  12.344  0.9571 -1.2697  1.9747
 4507SOL     OW24979   2.365   1.540   1.869  0.4504  0.4791  0.0790
 4507SOL    HW124980   2.435   1.528   1.805 -0.6189 -0.0742 -0.9794
 4507SOL    HW224981   2.298   1.474   1.853  0.9557 -0.3298  1.2439
 4508SOL     OW24982   0.033   1.349   1.438 -0.6747  0.4294 -0.1984
 4508SOL    HW124983   0.023   1.443   1.456 -0.9864  0.8820 -2.6907
 4508SOL    HW224984   0.056   1.327   1.347  0.1370 -3.0841  0.8661
 4509SOL     OW24985   1.999   3.605   8.957  0.0169 -0.6809  0.5085
 4509SOL    HW124986   1.988   3.585   9.050  1.3439 -1.0014  0.5929
 4509SOL    HW224987   2.082   3.651   8.958  0.0610 -0.7160 -1.3734
 4510SOL     OW24988   0.919   0.372   3.303  0.3108  0.8753  0.3108
 4510SOL    HW124989   0.844   0.389   3.246  0.7479  1.4597 -0.1011
 4510SOL    HW224990   0.995   0.403   3.255 -1.0588  1.8163 -1.2507
 4511SOL     OW24991   4.552   3.103   9.194 -0.4401 -0.1425  0.2628
 4511SOL    HW124992   4.532   3.013   9.221 -0.1859 -0.5293 -0.8307
 4511SOL    HW224993   4.636   3.105   9.147 -1.3876 -0.8468 -1.4233
 4512SOL     OW24994   3.014   0.420   4.228  0.1667  0.1510  0.3991
 4512SOL    HW124995   2.951   0.481   4.189  0.6448  1.5663  1.8603
 4512SOL    HW224996   2.959   0.387   4.299 -2.1684 -0.1533 -1.5161
 4513SOL     OW24997   1.230   2.855   6.025 -0.1965 -0.2756  0.3472
 4513SOL    HW124998   1.226   2.946   6.053 -1.1621 -0.0870 -0.4658
 4513SOL    HW224999   1.303   2.809   6.068  0.1053  0.5585  0.7380
 4514SOL     OW25000   3.996   0.370  16.558 -0.1293 -0.8082 -0.0678
 4514SOL    HW125001   4.084   0.361  16.594 -0.4915  1.0133  1.2717
 4514SOL    HW225002   3.960   0.446  16.603  1.6851 -0.8094  1.3932
 4515SOL     OW25003   0.379   0.576  11.783 -0.3183  0.8090  0.2407
 4515SOL    HW125004   0.411   0.660  11.818 -1.5007  0.4341  2.2101
 4515SOL    HW225005   0.463   0.535  11.762 -0.2194  2.5922 -2.8960
 4516SOL     OW25006   1.691   1.625   2.785 -0.5539 -0.3964 -0.0504
 4516SOL    HW125007   1.756   1.673   2.836 -1.4161 -0.2478  0.9001
 4516SOL    HW225008   1.751   1.596   2.717 -1.5654 -2.1350 -0.1990
 4517SOL     OW25009   4.050   0.466   0.105 -0.7907  0.2180 -0.1310
 4517SOL    HW125010   4.122   0.436   0.161 -1.1397  0.1196  0.2666
 4517SOL    HW225011   4.077   0.557   0.090 -1.2730  0.4402  0.3122
 4518SOL     OW25012   2.822   3.731   4.702 -0.3434  0.2175 -0.0385
 4518SOL    HW125013   2.887   3.686   4.649  0.7027  0.8556  0.7218
 4518SOL    HW225014   2.849   3.822   4.692  0.0697 -0.0384 -1.2682
 4519SOL     OW25015   2.844   3.028  12.941 -0.4378 -0.0161  0.3106
 4519SOL    HW125016   2.844   3.123  12.947  2.7722  0.0250 -0.2412
 4519SOL    HW225017   2.834   2.997  13.032  0.1775  0.2635  0.4740
 4520SOL     OW25018   4.530   4.487   1.227 -0.1671  0.4284 -0.0954
 4520SOL    HW125019   4.489   4.572   1.240  1.0383  0.6948  1.8443
 4520SOL    HW225020   4.559   4.502   1.137  0.4702 -0.9276 -0.1146
 4521SOL     OW25021   4.340   1.775   9.692 -0.2530 -0.0799 -0.2391
 4521SOL    HW125022   4.296   1.843   9.742  0.7448  1.5452 -1.5670
 4521SOL    HW225023   4.264   1.722   9.670 -0.7542  1.3762 -2.0433
 4522SOL     OW25024   1.144   1.166   2.363  0.3438 -0.7795 -0.0476
 4522SOL    HW125025   1.074   1.133   2.420  2.3288 -3.6091  0.7802
 4522SOL    HW225026   1.126   1.117   2.283 -1.4166 -0.3729  0.1139
 4523SOL     OW25027   3.321   1.046  13.289 -0.1997  0.1116  0.6429
 4523SOL    HW125028   3.237   1.084  13.263  0.4679  1.0817 -0.0981
 4523SOL    HW225029   3.307   0.954  13.270  0.5281  0.1103  0.1161
 4524SOL     OW25030   2.312   4.214   6.829  0.4365  0.1491  0.9228
 4524SOL    HW125031   2.321   4.276   6.901  0.0768  0.5023  0.6679
 4524SOL    HW225032   2.248   4.249   6.767 -1.7372 -1.6405  2.1573
 4525SOL     OW25033   0.994   3.039   2.524  0.4858 -0.0998 -0.2622
 4525SOL    HW125034   0.938   3.054   2.448  0.9399  1.3458 -0.3198
 4525SOL    HW225035   0.978   2.945   2.529  0.3868 -0.1705 -2.1055
 4526SOL     OW25036   3.069   1.334   2.808  0.3843 -0.1014 -0.1841
 4526SOL    HW125037   3.059   1.312   2.715 -0.9085  0.4756 -0.1914
 4526SOL    HW225038   3.138   1.401   2.809  1.7686 -1.5593  0.3119
 4527SOL     OW25039   0.504   0.993   8.230 -0.3552 -0.5190 -0.0821
 4527SOL    HW125040   0.422   0.975   8.183  0.0029 -5.0139  0.9694
 4527SOL    HW225041   0.565   0.929   8.193  1.2147  0.6487  0.4773
 4528SOL     OW25042   4.251   2.520   1.794  0.5288 -0.0498  0.2079
 4528SOL    HW125043   4.161   2.514   1.826  1.0713 -2.1134  1.3271
 4528SOL    HW225044   4.293   2.597   1.832 -1.4498  1.4076 -0.5631
 4529SOL     OW25045   1.512   0.826   5.318 -0.1384 -0.7010 -0.4825
 4529SOL    HW125046   1.420   0.800   5.312 -0.1525 -0.5036 -1.0722
 4529SOL    HW225047   1.548   0.758   5.374  0.8630  0.8439  0.7578
 4530SOL     OW25048   3.115   4.044   5.946  0.2759  0.2353  0.2054
 4530SOL    HW125049   3.162   4.127   5.951  1.0670 -0.1297 -1.3474
 4530SOL    HW225050   3.162   3.997   6.014  0.0118  0.5536  0.6132
 4531SOL     OW25051   3.362   1.114   2.519 -0.1928 -0.2660  0.6537
 4531SOL    HW125052   3.271   1.116   2.487  0.6813 -1.4970 -1.8457
 4531SOL    HW225053   3.384   1.205   2.496 -1.2922 -0.3788 -0.8506
 4532SOL     OW25054   0.027   0.634   8.828 -0.5102 -0.2756  0.3332
 4532SOL    HW125055   0.043   0.594   8.913  0.1105 -1.3873 -0.3003
 4532SOL    HW225056   0.017   0.725   8.855  2.4808  0.0501  0.3938
 4533SOL     OW25057   3.650   2.985   7.064  0.7884  0.1679 -0.4322
 4533SOL    HW125058   3.561   3.013   7.041  1.2258  2.9674  1.3149
 4533SOL    HW225059   3.635   2.900   7.105  1.4572 -0.4219 -1.3978
 4534SOL     OW25060   0.314   1.385  15.980 -0.0989  0.2009 -0.4810
 4534SOL    HW125061   0.303   1.349  15.892 -0.1028 -1.0047  0.0148
 4534SOL    HW225062   0.223   1.414  15.992 -1.1606 -2.9169 -0.9995
 4535SOL     OW25063   2.990   0.545  14.835 -0.1714  0.8312 -0.3156
 4535SOL    HW125064   3.040   0.520  14.757  1.8128  1.9939  0.5957
 4535SOL    HW225065   3.052   0.601  14.881 -1.1488  0.2444  1.7365
 4536SOL     OW25066   1.973   1.202   5.937 -0.3228  0.0043  0.2253
 4536SOL    HW125067   1.934   1.221   6.022 -1.6000 -1.4196 -0.0428
 4536SOL    HW225068   1.978   1.107   5.940 -2.6894 -0.1881 -1.7644
 4537SOL     OW25069   1.958   1.647   1.844  0.4763  0.7578  0.3281
 4537SOL    HW125070   1.928   1.648   1.753 -2.7267 -2.2480  1.3549
 4537SOL    HW225071   1.921   1.562   1.869  2.7736  0.3812  2.4444
 4538SOL     OW25072   0.392   0.162   6.676  0.3832  0.4682  0.4642
 4538SOL    HW125073   0.392   0.254   6.651 -0.1297  0.3167 -0.1149
 4538SOL    HW225074   0.481   0.141   6.705 -0.4324 -0.6136  2.1660
 4539SOL     OW25075   4.593   0.788   4.167  0.4017 -0.3585 -0.0763
 4539SOL    HW125076   4.587   0.733   4.089  1.1573 -0.2577 -0.2067
 4539SOL    HW225077   4.667   0.749   4.214  0.5142 -0.0793 -0.0216
 4540SOL     OW25078   2.678   3.451  14.129 -0.3554  0.3140  0.1256
 4540SOL    HW125079   2.755   3.504  14.150 -0.9365  0.9024  0.8153
 4540SOL    HW225080   2.625   3.451  14.209 -1.3960  0.0963 -0.5582
 4541SOL     OW25081   2.089   4.059   2.364  0.2178  0.6282 -0.2464
 4541SOL    HW125082   2.097   4.147   2.400 -0.0594  0.4597  0.2182
 4541SOL    HW225083   2.005   4.038   2.405  0.3468  0.6022 -0.0008
 4542SOL     OW25084   4.211   1.475  11.288  0.0330 -0.0127  0.7675
 4542SOL    HW125085   4.120   1.454  11.264 -0.1193  1.3556  0.0740
 4542SOL    HW225086   4.208   1.570  11.270  1.9955  0.0377  0.7459
 4543SOL     OW25087   0.124   4.196  11.221  0.1509 -0.0298  0.2083
 4543SOL    HW125088   0.184   4.196  11.296 -0.2456  2.0993  0.5193
 4543SOL    HW225089   0.095   4.285  11.203 -2.2682 -0.3431  2.5186
 4544SOL     OW25090   1.108   2.179   2.959 -0.0583  0.5037  0.6484
 4544SOL    HW125091   1.135   2.119   2.890  0.1858  0.7048  0.5680
 4544SOL    HW225092   1.177   2.181   3.025  0.0778 -0.6209  0.5415
 4545SOL     OW25093   3.461   1.962  10.253 -0.2633 -0.0458 -0.3244
 4545SOL    HW125094   3.412   1.977  10.173  1.3515 -1.5085 -1.5953
 4545SOL    HW225095   3.460   2.050  10.290 -1.9787 -0.0364 -0.4030
 4546SOL     OW25096   4.249   3.527   7.050  0.4059 -0.2998 -0.0369
 4546SOL    HW125097   4.229   3.573   6.969 -1.7635 -0.5277  0.3728
 4546SOL    HW225098   4.208   3.441   7.041 -0.2387 -0.1334  1.3080
 4547SOL     OW25099   0.402   0.427   2.271 -0.2930 -0.2950  0.0053
 4547SOL    HW125100   0.368   0.353   2.222  0.7216 -0.7590 -0.0047
 4547SOL    HW225101   0.360   0.494   2.217 -0.6436 -0.5985 -0.0974
 4548SOL     OW25102   0.651   2.940   9.037 -0.3649 -0.0315  0.0583
 4548SOL    HW125103   0.586   2.877   9.007 -1.0925  0.0121  1.5464
 4548SOL    HW225104   0.645   2.925   9.131  0.3921  0.5615  0.2061
 4549SOL     OW25105   2.897   4.706   1.368 -0.3837 -0.0925 -0.4067
 4549SOL    HW125106   2.957   4.632   1.371  1.5556  1.4918 -0.1868
 4549SOL    HW225107   2.823   4.661   1.327  1.6603 -1.0641 -3.0263
 4550SOL     OW25108   1.625   0.782   6.456 -0.3562 -1.1927 -0.2058
 4550SOL    HW125109   1.613   0.689   6.475 -0.4102 -0.7944  1.6640
 4550SOL    HW225110   1.535   0.803   6.430 -0.9506  1.1298  3.6953
 4551SOL     OW25111   2.009   0.083   8.113  0.0545 -0.1055 -0.0672
 4551SOL    HW125112   1.926   0.062   8.071  0.2887 -1.4012  0.1032
 4551SOL    HW225113   2.055   0.136   8.048 -1.1656 -1.4533 -2.0460
 4552SOL     OW25114   2.593   2.955   4.010  0.2003  0.7225  1.0405
 4552SOL    HW125115   2.525   2.984   3.949  0.1458  0.2774  0.8905
 4552SOL    HW225116   2.644   3.035   4.019  1.5617  0.2892 -3.1182
 4553SOL     OW25117   2.987   3.108   5.682 -0.5823  0.1818  0.0059
 4553SOL    HW125118   2.943   3.153   5.754  1.4511  1.3462  0.5164
 4553SOL    HW225119   3.017   3.035   5.736 -0.3791  0.5451  0.3918
 4554SOL     OW25120   1.199   0.530   8.852  0.3978  0.3507  0.2318
 4554SOL    HW125121   1.189   0.486   8.768  1.0260 -0.7505  0.7321
 4554SOL    HW225122   1.135   0.483   8.906 -1.3211  3.0775  0.5511
 4555SOL     OW25123   0.846   2.704   5.826 -0.4018 -0.0973 -0.1282
 4555SOL    HW125124   0.807   2.674   5.907 -0.2753  0.1511  0.0240
 4555SOL    HW225125   0.774   2.736   5.772  0.5358  0.4116 -1.0837
 4556SOL     OW25126   3.557   1.668   2.507 -0.3451 -0.1405 -0.5107
 4556SOL    HW125127   3.472   1.663   2.463 -0.1184  1.4067 -1.1162
 4556SOL    HW225128   3.622   1.670   2.437  0.3765 -1.6677  0.1231
 4557SOL     OW25129   3.337   2.271   7.146 -0.1524  0.1824  0.2104
 4557SOL    HW125130   3.430   2.266   7.166  0.5474  1.3110 -2.8156
 4557SOL    HW225131   3.300   2.326   7.215 -0.4541  0.1873  0.0454
 4558SOL     OW25132   3.438   2.247   5.723 -0.1927  0.0562 -0.6813
 4558SOL    HW125133   3.458   2.200   5.642  2.3708 -0.0934  0.0533
 4558SOL    HW225134   3.382   2.187   5.773 -0.5662  0.8961 -0.0935
 4559SOL     OW25135   3.937   4.452   8.841 -0.5895 -0.4481 -0.1128
 4559SOL    HW125136   3.889   4.370   8.832 -1.5098  0.2898 -1.8270
 4559SOL    HW225137   4.007   4.426   8.901 -0.1248 -1.3286 -1.0442
 4560SOL     OW25138   3.670   3.845   7.730 -1.0366  0.6342 -0.6370
 4560SOL    HW125139   3.724   3.920   7.706 -0.2245  0.1169 -0.4273
 4560SOL    HW225140   3.703   3.784   7.664  0.7854 -0.2918  1.1315
 4561SOL     OW25141   0.754   0.759  13.243  0.4480  0.8740  0.2329
 4561SOL    HW125142   0.683   0.712  13.287 -0.0174  0.3358 -1.0815
 4561SOL    HW225143   0.788   0.794  13.325  1.2996 -1.5082  0.9135
 4562SOL     OW25144   0.630   3.686  14.908  0.2654  0.2622  0.4764
 4562SOL    HW125145   0.601   3.595  14.914  1.0908 -0.0303 -0.0309
 4562SOL    HW225146   0.605   3.702  14.817  1.0251  0.6361  0.3359
 4563SOL     OW25147   3.831   2.396  12.264  0.5437  0.0467 -0.0678
 4563SOL    HW125148   3.738   2.393  12.286  0.6261  2.2936  0.5696
 4563SOL    HW225149   3.845   2.301  12.258 -2.6880 -0.3313 -1.4103
 4564SOL     OW25150   2.631   0.502   7.195  0.3334  0.3443  0.2739
 4564SOL    HW125151   2.561   0.449   7.156 -0.7064  1.3001  0.8595
 4564SOL    HW225152   2.661   0.437   7.260  0.4888  0.0278 -0.1132
 4565SOL     OW25153   3.829   3.038   6.305  0.0490 -0.1447 -0.0163
 4565SOL    HW125154   3.883   3.071   6.376  1.7276 -0.0631 -1.3296
 4565SOL    HW225155   3.880   3.050   6.225  0.0318 -0.8610 -0.1398
 4566SOL     OW25156   1.435   0.181   7.385  0.2732 -0.5277 -0.4747
 4566SOL    HW125157   1.463   0.163   7.475 -0.8192 -2.3183 -0.4793
 4566SOL    HW225158   1.353   0.130   7.384  0.4042 -0.7552  0.9776
 4567SOL     OW25159   2.074   0.660   3.474  0.1332  0.1306  0.2925
 4567SOL    HW125160   2.000   0.717   3.497  1.9082  1.6199  2.3651
 4567SOL    HW225161   2.143   0.723   3.491 -2.8108  3.0381  1.4414
 4568SOL     OW25162   4.669   2.468   1.767  0.7073  0.2166  0.0108
 4568SOL    HW125163   4.670   2.495   1.675 -0.6851 -0.5551 -0.2393
 4568SOL    HW225164   4.593   2.410   1.770  0.6456  0.2556 -0.8043
 4569SOL     OW25165   4.103   1.268  16.805 -0.1875  0.7993 -0.6332
 4569SOL    HW125166   4.129   1.225  16.723 -1.4100 -2.0440  0.4774
 4569SOL    HW225167   4.168   1.338  16.810 -0.1327  0.5566  1.8441
 4570SOL     OW25168   3.033   3.560  11.900  0.2038  0.4781 -0.2770
 4570SOL    HW125169   3.009   3.567  11.992  0.3498  1.4282 -0.3084
 4570SOL    HW225170   2.973   3.628  11.871 -1.9447 -1.0324  0.6815
 4571SOL     OW25171   0.441   4.081   0.570 -0.1149 -0.4376 -0.3539
 4571SOL    HW125172   0.415   4.139   0.499  0.2012 -0.9546 -0.8847
 4571SOL    HW225173   0.493   4.144   0.619 -1.2880  1.1169 -1.1159
 4572SOL     OW25174   2.503   3.461   0.008  0.0970 -0.2211  0.3253
 4572SOL    HW125175   2.595   3.442   0.029  0.1031  0.0013  0.4911
 4572SOL    HW225176   2.494   3.535   0.068 -2.5060 -0.4316  0.1748
 4573SOL     OW25177   3.726   4.102   4.881  0.3491  0.5195  0.0428
 4573SOL    HW125178   3.814   4.136   4.866  1.2298 -1.3051  1.0284
 4573SOL    HW225179   3.682   4.090   4.797 -1.3738  1.0445  0.8649
 4574SOL     OW25180   1.431   1.297   2.269  0.0139 -0.1378  0.2134
 4574SOL    HW125181   1.487   1.239   2.321 -0.3586  0.1976  0.9823
 4574SOL    HW225182   1.474   1.294   2.183  0.2248  0.1110  0.3112
 4575SOL     OW25183   0.385   0.989   3.922 -0.2076 -0.6079 -0.1051
 4575SOL    HW125184   0.376   1.074   3.879  0.9572 -0.0335  0.7703
 4575SOL    HW225185   0.460   0.952   3.874  0.9863 -0.5604  1.7337
 4576SOL     OW25186   0.533   3.688   2.389 -0.0947 -0.2001  0.2395
 4576SOL    HW125187   0.556   3.766   2.337  0.8143  0.0089  0.9520
 4576SOL    HW225188   0.561   3.710   2.478 -0.0219 -1.8917  0.6171
 4577SOL     OW25189   3.827   1.985  14.615  0.5040 -0.5652 -1.0689
 4577SOL    HW125190   3.804   1.905  14.663 -0.9329  0.4205 -0.1332
 4577SOL    HW225191   3.803   1.955  14.528 -2.6782  0.9083 -0.6969
 4578SOL     OW25192   1.393   0.141  10.375 -0.1193  0.2945 -0.4063
 4578SOL    HW125193   1.404   0.229  10.412 -0.3821 -0.3549  1.2155
 4578SOL    HW225194   1.318   0.110  10.426  0.2053  1.0725  0.5405
 4579SOL     OW25195   2.875   2.070   8.949  0.1751 -0.2333 -0.3062
 4579SOL    HW125196   2.896   2.162   8.960  0.9141 -0.2809 -1.3849
 4579SOL    HW225197   2.950   2.030   8.994  0.2146 -0.5070 -0.6132
 4580SOL     OW25198   0.266   3.118  11.559  0.3502  0.4481 -0.4199
 4580SOL    HW125199   0.333   3.060  11.594 -0.8563  1.0835  2.9234
 4580SOL    HW225200   0.197   3.068  11.602  1.3964 -1.4871 -0.9532
 4581SOL     OW25201   4.118   2.205   2.652 -0.4822 -0.1639 -0.6319
 4581SOL    HW125202   4.068   2.130   2.684 -1.9494  0.7510 -0.7858
 4581SOL    HW225203   4.067   2.280   2.684 -2.1521 -1.2485 -0.8018
 4582SOL     OW25204   4.116   2.405   5.299  0.6825  0.5363  0.6593
 4582SOL    HW125205   4.196   2.384   5.251  0.6738 -1.1339  1.3908
 4582SOL    HW225206   4.119   2.500   5.284  1.4784  0.4961  0.5718
 4583SOL     OW25207   3.532   4.037   3.381 -0.0649 -0.1781 -0.5963
 4583SOL    HW125208   3.597   4.064   3.446 -0.1325  0.5657 -0.8369
 4583SOL    HW225209   3.551   3.944   3.369 -1.2074 -0.4842 -0.0332
 4584SOL     OW25210   0.179   2.091  14.181 -0.3081 -0.3840 -0.6830
 4584SOL    HW125211   0.203   2.173  14.139 -2.3922 -0.2566 -1.6030
 4584SOL    HW225212   0.092   2.070  14.147 -1.3039  0.8036  1.1247
 4585SOL     OW25213   2.663   4.220   3.311 -0.2788 -0.5808  0.4090
 4585SOL    HW125214   2.631   4.130   3.304 -2.7703  0.2706  0.7081
 4585SOL    HW225215   2.579   4.266   3.318  0.0721  0.4681 -2.4290
 4586SOL     OW25216   3.104   0.213  16.142 -0.7939 -0.2056 -0.2875
 4586SOL    HW125217   3.117   0.167  16.060  1.4899 -0.5833  0.2883
 4586SOL    HW225218   3.084   0.303  16.116 -1.0832 -0.6397 -1.5456
 4587SOL     OW25219   2.261   3.435   9.350  0.2282  0.1052  0.2907
 4587SOL    HW125220   2.309   3.449   9.432 -1.8281  0.9847  1.3455
 4587SOL    HW225221   2.183   3.399   9.391  0.9986 -0.2348  1.4604
 4588SOL     OW25222   0.880   3.643   8.951 -0.4276  0.3663 -0.0280
 4588SOL    HW125223   0.831   3.673   9.028  0.2502  2.6871 -0.4907
 4588SOL    HW225224   0.966   3.686   8.956 -0.3122  0.3455 -1.8621
 4589SOL     OW25225   0.571   1.125   6.783 -0.2922 -0.0223 -0.4109
 4589SOL    HW125226   0.647   1.152   6.731 -0.9157 -0.0873 -1.3638
 4589SOL    HW225227   0.612   1.085   6.860 -1.6300 -1.8373 -0.6386
 4590SOL     OW25228   1.200   0.237  15.556 -0.0818  0.7321  0.1350
 4590SOL    HW125229   1.106   0.253  15.542 -0.1307  0.1475 -0.2240
 4590SOL    HW225230   1.201   0.143  15.539  1.2379  0.5855  1.0477
 4591SOL     OW25231   0.514   3.748   3.851 -0.3838  0.3737  0.1518
 4591SOL    HW125232   0.479   3.659   3.861  1.5311 -0.6052 -1.9852
 4591SOL    HW225233   0.606   3.728   3.834 -0.8590 -1.3790 -0.3322
 4592SOL     OW25234   2.148   0.093   3.845 -0.2701  0.0816 -0.5992
 4592SOL    HW125235   2.243   0.109   3.842 -0.4906  0.9771 -3.0126
 4592SOL    HW225236   2.149   0.003   3.813 -2.9300 -0.0794 -0.1881
 4593SOL     OW25237   2.736   2.085   2.707  0.1535 -0.0863  0.0220
 4593SOL    HW125238   2.828   2.110   2.716  0.6281 -0.7474 -2.8548
 4593SOL    HW225239   2.727   2.019   2.638 -0.0108  1.1108 -1.0925
 4594SOL     OW25240   1.171   2.909   3.261 -0.2747 -0.1307  0.0792
 4594SOL    HW125241   1.182   2.889   3.169  0.3164  0.8203 -0.0643
 4594SOL    HW225242   1.176   3.004   3.274 -1.8278  0.0106 -0.3086
 4595SOL     OW25243   1.684   1.114   3.237  0.8974  0.2297  0.1298
 4595SOL    HW125244   1.690   1.117   3.141  1.1269  1.0621  0.1733
 4595SOL    HW225245   1.605   1.065   3.259  0.8185  0.2431 -0.1167
 4596SOL     OW25246   1.441   0.579   7.030  0.4064 -0.1119  0.0422
 4596SOL    HW125247   1.368   0.595   7.090 -0.3254 -0.5432 -0.7445
 4596SOL    HW225248   1.397   0.613   6.953 -0.5879  0.9028  1.0487
 4597SOL     OW25249   4.669   2.041   0.960 -0.0661 -0.0749  0.0581
 4597SOL    HW125250   0.023   2.063   0.908 -0.7984 -0.1038 -1.0311
 4597SOL    HW225251   4.613   2.116   0.940 -1.0729 -1.4212 -2.1136
 4598SOL     OW25252   2.555   2.254   0.751  0.3462 -0.1394  0.5560
 4598SOL    HW125253   2.634   2.223   0.796  0.2507 -1.7852 -0.3869
 4598SOL    HW225254   2.532   2.326   0.810 -1.4534 -0.1739 -0.1040
 4599SOL     OW25255   3.167   3.446   8.438 -0.0002  0.0970 -0.0464
 4599SOL    HW125256   3.189   3.388   8.511  1.3556 -0.0282 -0.5449
 4599SOL    HW225257   3.093   3.496   8.472  0.4181  1.0086 -0.4823
 4600SOL     OW25258   3.088   3.707   2.476 -0.0310  0.0281 -0.1628
 4600SOL    HW125259   3.160   3.748   2.429 -1.4729  1.2024 -1.3360
 4600SOL    HW225260   3.091   3.613   2.456 -1.6135 -0.1101  0.2671
 4601SOL     OW25261   4.628   1.890  14.300  0.4856  0.0467 -0.3843
 4601SOL    HW125262   4.671   1.870  14.383  0.0279  0.4794 -0.0471
 4601SOL    HW225263   4.558   1.954  14.315  0.8403  0.1892  0.6632
 4602SOL     OW25264   3.615   0.597   8.479 -0.3243 -0.0582  0.0297
 4602SOL    HW125265   3.563   0.655   8.424  0.2518 -0.6164 -1.0972
 4602SOL    HW225266   3.702   0.597   8.440 -0.5123  0.0944 -0.3910
 4603SOL     OW25267   4.326   3.987   6.132  0.3894 -0.5449 -0.0085
 4603SOL    HW125268   4.354   3.905   6.172  0.4587 -1.0328 -1.0632
 4603SOL    HW225269   4.404   4.040   6.150 -0.5375  0.8779 -0.1893
 4604SOL     OW25270   4.263   2.825   3.890 -0.3818 -0.2362  0.6659
 4604SOL    HW125271   4.294   2.841   3.801 -1.3861  2.0955  0.7549
 4604SOL    HW225272   4.315   2.747   3.908 -0.2289 -0.2129  0.3141
 4605SOL     OW25273   0.820   2.987   6.167 -0.5427 -0.3908 -0.1655
 4605SOL    HW125274   0.810   3.062   6.226  2.3403  0.3100 -0.5690
 4605SOL    HW225275   0.728   2.985   6.139 -1.2876  0.7483  2.2541
 4606SOL     OW25276   2.385   1.932   3.519 -0.4218 -0.6525  0.1860
 4606SOL    HW125277   2.394   1.836   3.518  1.5474 -0.4507 -0.7247
 4606SOL    HW225278   2.313   1.940   3.456 -1.0362 -2.6965  0.6297
 4607SOL     OW25279   0.138   0.601  11.535  0.1939  0.0848  0.4066
 4607SOL    HW125280   0.208   0.647  11.581  1.0809 -1.7280  0.8385
 4607SOL    HW225281   0.160   0.597  11.442 -1.0172  1.8325  0.0370
 4608SOL     OW25282   1.252   4.510   0.201  0.2719  0.2173 -0.1435
 4608SOL    HW125283   1.226   4.475   0.286 -1.7650  0.9073 -0.4996
 4608SOL    HW225284   1.162   4.513   0.170 -0.1900  0.8131  1.3113
 4609SOL     OW25285   3.169   2.018   7.213 -0.3113 -0.1207  0.0109
 4609SOL    HW125286   3.159   1.984   7.302 -0.1678  0.2780  0.1774
 4609SOL    HW225287   3.175   2.110   7.235 -0.7161  0.4044 -2.0349
 4610SOL     OW25288   3.623   3.212   6.721 -0.3570 -0.4788  0.2733
 4610SOL    HW125289   3.595   3.273   6.653  2.4778  0.0667 -0.4309
 4610SOL    HW225290   3.559   3.249   6.781 -0.2328  1.7459 -0.9340
 4611SOL     OW25291   3.084   0.254  17.203 -0.0986 -0.5581  0.1865
 4611SOL    HW125292   3.016   0.203  17.248 -1.9429  0.5697 -1.3323
 4611SOL    HW225293   3.131   0.303  17.271  0.0336  0.0466 -0.3326
 4612SOL     OW25294   3.809   2.991   2.220  0.0666  0.2409 -0.6057
 4612SOL    HW125295   3.835   2.960   2.307 -0.1386  2.3181  0.1972
 4612SOL    HW225296   3.775   2.912   2.178 -0.7660 -0.8095  2.0952
 4613SOL     OW25297   0.100   3.697  15.506  0.2226  0.4694 -0.5769
 4613SOL    HW125298   0.029   3.635  15.486 -0.2234  1.0416 -0.7644
 4613SOL    HW225299   0.137   3.655  15.583 -0.5934  0.1188 -0.3685
 4614SOL     OW25300   0.228   0.389  17.238  0.4455 -0.2659 -0.3120
 4614SOL    HW125301   0.140   0.352  17.244  1.2264 -2.1307 -0.2816
 4614SOL    HW225302   0.271   0.352  17.315 -2.0369 -1.5139  0.4766
 4615SOL     OW25303   2.229   2.535  12.133  0.3149 -0.2779 -0.2167
 4615SOL    HW125304   2.234   2.442  12.111  0.2819 -0.4880  0.6559
 4615SOL    HW225305   2.134   2.539  12.127  0.0915 -2.1231  2.3816
 4616SOL     OW25306   2.003   3.128  15.032 -0.1737 -0.2601 -0.1535
 4616SOL    HW125307   1.914   3.093  15.025  0.2284 -1.0330 -1.4802
 4616SOL    HW225308   2.009   3.157  15.123 -2.2266 -2.6665  0.7307
 4617SOL     OW25309   2.031   3.130  10.912  0.1006 -0.3197  0.3073
 4617SOL    HW125310   2.045   3.051  10.861 -1.2595 -1.6213  1.9348
 4617SOL    HW225311   2.057   3.107  11.001 -0.5528  1.9739  1.0919
 4618SOL     OW25312   1.540   0.035   2.915  0.0423 -0.4178 -0.4292
 4618SOL    HW125313   1.624   0.023   2.958 -0.3648 -1.2529  0.1412
 4618SOL    HW225314   1.574   0.051   2.827  1.4331 -2.0138 -0.1729
 4619SOL     OW25315   0.590   1.538  14.378  0.0325  0.3900 -0.8694
 4619SOL    HW125316   0.561   1.451  14.406 -0.6031  0.8585 -0.0545
 4619SOL    HW225317   0.535   1.553  14.301  0.5960  2.1673 -0.9218
 4620SOL     OW25318   0.343   1.539   2.653 -0.9658 -0.7272  0.2722
 4620SOL    HW125319   0.311   1.457   2.615  1.5464  0.2235 -3.9971
 4620SOL    HW225320   0.294   1.541   2.734  0.8781 -1.3834  1.4183
 4621SOL     OW25321   0.515   0.310  12.595 -0.4187 -0.4332 -0.2186
 4621SOL    HW125322   0.433   0.276  12.631 -0.4708  1.1903  1.2199
 4621SOL    HW225323   0.551   0.338  12.679 -0.5183  1.1910 -0.7164
 4622SOL     OW25324   1.342   1.121   2.530 -0.2396 -0.0139 -0.0159
 4622SOL    HW125325   1.427   1.142   2.493 -0.4156  0.1218 -0.3471
 4622SOL    HW225326   1.278   1.127   2.459 -0.9347 -0.2728  0.5889
 4623SOL     OW25327   3.339   4.508   3.587 -0.2453  0.5091 -0.0263
 4623SOL    HW125328   3.285   4.574   3.544 -0.8980  0.0143  0.0218
 4623SOL    HW225329   3.279   4.465   3.648 -2.5269 -0.3525 -2.8438
 4624SOL     OW25330   3.314   2.161   0.400  0.3685 -0.2501  0.0091
 4624SOL    HW125331   3.408   2.168   0.382  0.4818  0.2502  0.8003
 4624SOL    HW225332   3.296   2.083   0.347 -0.1321 -2.2744  3.1175
 4625SOL     OW25333   2.364   3.019  15.195  0.1462  0.1184 -0.1558
 4625SOL    HW125334   2.375   2.924  15.205  2.0328  0.6590  2.8771
 4625SOL    HW225335   2.351   3.020  15.100  0.2983 -1.3053 -0.1937
 4626SOL     OW25336   1.145   4.240   0.981 -0.2160  0.9785  0.0833
 4626SOL    HW125337   1.118   4.191   1.059 -1.5762  2.3089  0.4601
 4626SOL    HW225338   1.229   4.277   1.009  0.3400  1.1871 -1.8840
 4627SOL     OW25339   3.306   0.083   2.886 -0.2560 -0.2104  0.0986
 4627SOL    HW125340   3.384   0.106   2.836  0.6741 -1.3957  1.0157
 4627SOL    HW225341   3.289   4.712   2.886 -2.7658  0.2182  0.3467
 4628SOL     OW25342   1.031   0.583   5.376 -0.1058  0.0841 -0.0627
 4628SOL    HW125343   1.075   0.506   5.342 -0.7513 -0.6880  0.8683
 4628SOL    HW225344   1.049   0.640   5.301 -1.9124 -0.4150 -0.8743
 4629SOL     OW25345   4.014   0.493   9.784  0.0432 -0.4835 -0.1041
 4629SOL    HW125346   4.057   0.559   9.730 -0.4171  0.7243  1.0119
 4629SOL    HW225347   3.926   0.489   9.745 -0.1168 -1.5346  0.3580
 4630SOL     OW25348   2.425   0.840   7.903 -0.5681  0.0794  0.0823
 4630SOL    HW125349   2.334   0.817   7.923 -0.9158  2.6837  1.5051
 4630SOL    HW225350   2.418   0.935   7.898  2.9910  0.2888 -0.6455
 4631SOL     OW25351   2.914   2.721   7.035  1.0812  0.0105 -0.4540
 4631SOL    HW125352   2.822   2.692   7.036  1.6955 -1.8433  1.1460
 4631SOL    HW225353   2.915   2.784   6.963 -0.3321 -0.0511 -0.5395
 4632SOL     OW25354   2.357   4.670   1.966 -0.1514 -0.4083  0.1557
 4632SOL    HW125355   2.305   4.722   1.905  1.4647  0.1210 -0.7500
 4632SOL    HW225356   2.418   0.013   1.998 -0.0943 -0.0518 -0.6989
 4633SOL     OW25357   0.716   0.093  10.157  0.1907  0.1498 -0.2969
 4633SOL    HW125358   0.798   0.097  10.107  0.4280 -1.3702 -0.0215
 4633SOL    HW225359   0.678   0.009  10.134 -0.4709  0.7170 -1.2530
 4634SOL     OW25360   4.304   2.966   2.855  0.0894 -0.1481  0.3308
 4634SOL    HW125361   4.300   2.872   2.876  0.8901 -0.3417 -0.4244
 4634SOL    HW225362   4.234   2.973   2.790  1.3820  0.6664 -0.9485
 4635SOL     OW25363   1.584   4.450   6.154  0.5121 -0.3549 -0.1090
 4635SOL    HW125364   1.497   4.479   6.126  1.7028 -0.5694 -3.9781
 4635SOL    HW225365   1.553   4.394   6.226  0.8458 -0.2506  0.1153
 4636SOL     OW25366   2.627   3.132   0.763 -0.0180  0.7758  0.1080
 4636SOL    HW125367   2.633   3.064   0.830  0.4376  1.4424  0.7365
 4636SOL    HW225368   2.717   3.120   0.732  0.9082  0.7883  2.8019
 4637SOL     OW25369   2.886   0.912   7.339 -0.1221  0.2527 -0.0209
 4637SOL    HW125370   2.793   0.905   7.318 -0.4849  1.2427  1.2897
 4637SOL    HW225371   2.884   0.886   7.431  1.7482  1.2696  0.3174
 4638SOL     OW25372   4.303   4.424  16.228 -0.2829 -0.2684 -0.1428
 4638SOL    HW125373   4.248   4.348  16.210 -1.1960  0.5048 -0.6021
 4638SOL    HW225374   4.237   4.493  16.233 -0.0980 -0.1818  1.2103
 4639SOL     OW25375   3.956   2.154   3.293 -0.2035 -0.4642 -0.2299
 4639SOL    HW125376   3.875   2.205   3.302 -0.2968 -0.6356 -0.1017
 4639SOL    HW225377   4.005   2.176   3.372 -0.7619 -1.7373  0.4606
 4640SOL     OW25378   0.246   0.754   4.480 -0.2186  0.0299  0.3644
 4640SOL    HW125379   0.295   0.835   4.482  1.0139 -0.6862 -1.0781
 4640SOL    HW225380   0.156   0.785   4.468 -0.7576 -1.6977 -0.1754
 4641SOL     OW25381   0.701   0.848   3.009 -0.1573  0.3678 -0.2790
 4641SOL    HW125382   0.664   0.936   3.017 -0.7909 -0.2511  3.5828
 4641SOL    HW225383   0.646   0.800   3.071 -0.4503  0.1720 -0.6914
 4642SOL     OW25384   4.021   2.282   7.511 -0.2471 -1.0879 -0.8585
 4642SOL    HW125385   3.966   2.332   7.571  0.4527 -0.6239 -0.5946
 4642SOL    HW225386   4.035   2.199   7.556  0.2540 -0.4322  0.1954
 4643SOL     OW25387   2.092   4.331  11.210 -0.2960 -0.2787 -0.3123
 4643SOL    HW125388   2.179   4.291  11.213  0.0309  0.5005  0.5461
 4643SOL    HW225389   2.103   4.404  11.271 -0.9858 -0.2742 -0.1933
 4644SOL     OW25390   3.078   4.635   7.183 -0.4197 -0.3107 -0.3749
 4644SOL    HW125391   3.109   4.631   7.273  0.5014 -1.9297 -0.7689
 4644SOL    HW225392   3.116   4.551   7.155 -0.3844 -0.4000 -0.0578
 4645SOL     OW25393   1.840   1.365   8.735  0.1828 -0.1108 -0.7225
 4645SOL    HW125394   1.849   1.316   8.816 -1.0827  0.0044 -0.5098
 4645SOL    HW225395   1.824   1.291   8.676  0.9401  0.2668 -1.4161
 4646SOL     OW25396   3.882   1.883   9.778  0.7723 -0.1389 -0.3476
 4646SOL    HW125397   3.889   1.856   9.870  1.0676 -0.0182 -0.3358
 4646SOL    HW225398   3.926   1.966   9.795 -0.4168  0.4777 -0.3357
 4647SOL     OW25399   2.146   2.211   4.557 -0.1396  0.7031 -0.1272
 4647SOL    HW125400   2.220   2.191   4.499  0.3303 -2.0129  1.3791
 4647SOL    HW225401   2.185   2.260   4.629  0.9320  0.5323 -0.5929
 4648SOL     OW25402   0.980   0.207   4.609 -0.0147 -0.2424 -0.0807
 4648SOL    HW125403   1.050   0.147   4.583  1.8268  1.4660  0.9737
 4648SOL    HW225404   1.019   0.294   4.608 -1.4856  0.4225  0.9986
 4649SOL     OW25405   2.163   4.124   7.633 -0.3409 -0.6887  0.1049
 4649SOL    HW125406   2.205   4.184   7.571  0.3929  0.6618  1.9177
 4649SOL    HW225407   2.124   4.184   7.697 -0.0217  0.3664 -0.6876
 4650SOL     OW25408   4.011   2.909  12.239 -0.4670 -0.6546  0.3255
 4650SOL    HW125409   4.042   2.928  12.150  1.7331  2.1846  1.6969
 4650SOL    HW225410   3.934   2.860  12.211 -0.9498  1.5306 -2.2134
 4651SOL     OW25411   3.459   1.299   2.277  0.2954  0.3442  0.4494
 4651SOL    HW125412   3.478   1.315   2.184 -1.2959  1.4345  0.3106
 4651SOL    HW225413   3.367   1.274   2.273  0.9308 -1.5515 -2.5063
 4652SOL     OW25414   1.096   0.900  10.951 -0.2592 -0.2471  0.4039
 4652SOL    HW125415   1.041   0.822  10.953 -0.4302 -0.1010  1.1438
 4652SOL    HW225416   1.183   0.866  10.928 -0.3037 -1.0007  1.3501
 4653SOL     OW25417   4.648   3.217  15.417 -0.3765 -0.1343 -0.1244
 4653SOL    HW125418   4.611   3.130  15.430 -1.6858  0.4896  0.2904
 4653SOL    HW225419   0.009   3.203  15.374 -0.1452  0.6284  0.0756
 4654SOL     OW25420   4.345   1.221   3.298  0.8727  0.7920  0.2981
 4654SOL    HW125421   4.365   1.313   3.279 -2.4900  1.2837 -1.0566
 4654SOL    HW225422   4.309   1.226   3.386 -0.1994  0.4965 -0.1186
 4655SOL     OW25423   4.114   1.945   7.200  0.2660  0.8118 -0.4281
 4655SOL    HW125424   4.037   1.892   7.221  0.6176  0.2167 -0.6445
 4655SOL    HW225425   4.136   1.911   7.113  0.9030 -0.2616  0.1388
 4656SOL     OW25426   3.483   2.959   1.393 -0.0906 -0.6198 -0.7553
 4656SOL    HW125427   3.569   2.921   1.375 -0.6024 -0.7937 -2.8081
 4656SOL    HW225428   3.505   2.997   1.479 -1.1731  1.1861 -1.2818
 4657SOL     OW25429   0.857   1.291   3.388 -0.2341  0.1494 -0.1219
 4657SOL    HW125430   0.846   1.216   3.447  0.7378  1.7295  2.0607
 4657SOL    HW225431   0.912   1.246   3.324  1.9562  0.4044  1.6060
 4658SOL     OW25432   0.714   3.382   4.864  0.0137 -0.5966 -0.2063
 4658SOL    HW125433   0.679   3.295   4.843  1.5709 -1.4630  0.8077
 4658SOL    HW225434   0.721   3.372   4.959  0.0392  0.5056 -0.0920
 4659SOL     OW25435   1.623   0.562   2.321 -0.0196  0.4330  0.1825
 4659SOL    HW125436   1.619   0.468   2.300  0.8436  0.7869 -1.5454
 4659SOL    HW225437   1.544   0.569   2.374  1.0608  1.3638  1.6898
 4660SOL     OW25438   3.696   0.015   4.929 -0.0410  0.5489  0.3361
 4660SOL    HW125439   3.724   0.060   5.008  0.2457  0.3820  0.3277
 4660SOL    HW225440   3.642   0.077   4.879 -1.5868 -0.2570  1.0135
 4661SOL     OW25441   3.322   1.673  17.078 -1.4078  0.6777  0.0928
 4661SOL    HW125442   3.417   1.684  17.083 -1.4280  0.1448  1.7410
 4661SOL    HW225443   3.311   1.580  17.058  1.0373  0.2065  0.8884
 4662SOL     OW25444   0.628   4.352   1.110 -0.1601  0.3851  0.1119
 4662SOL    HW125445   0.570   4.427   1.125  0.8166  1.3754 -1.0076
 4662SOL    HW225446   0.667   4.387   1.030 -2.1442  0.8663 -0.6540
 4663SOL     OW25447   4.355   4.477   5.426  0.7940 -0.0853  0.4596
 4663SOL    HW125448   4.358   4.388   5.462 -3.0964  0.7375  2.7829
 4663SOL    HW225449   4.357   4.536   5.501  0.0314  2.9302 -1.8803
 4664SOL     OW25450   3.636   3.794  11.119 -0.2589 -0.1417 -0.8078
 4664SOL    HW125451   3.692   3.716  11.121  0.7575  0.6758  1.2803
 4664SOL    HW225452   3.571   3.777  11.187  0.0350 -0.2627 -0.5595
 4665SOL     OW25453   2.715   3.456   6.416  0.1045 -0.0268 -0.4239
 4665SOL    HW125454   2.632   3.455   6.464  0.2030  0.8013 -0.2368
 4665SOL    HW225455   2.688   3.491   6.331 -2.3552  0.5707  0.6042
 4666SOL     OW25456   3.182   4.665   7.867 -0.4655  0.2288  0.1248
 4666SOL    HW125457   3.238   4.605   7.917  0.2678  0.0484 -0.8978
 4666SOL    HW225458   3.203   0.021   7.916 -0.2787  0.6088 -0.5663
 4667SOL     OW25459   2.606   2.270  10.130  0.1776  0.1092  0.4009
 4667SOL    HW125460   2.588   2.279  10.224  1.1980  1.4273  0.4635
 4667SOL    HW225461   2.674   2.337  10.119 -0.1270  0.5558  1.2303
 4668SOL     OW25462   3.326   1.420   9.830 -0.1753  0.0490  0.3399
 4668SOL    HW125463   3.241   1.394   9.797 -0.4020  0.7937  0.3425
 4668SOL    HW225464   3.353   1.482   9.762 -0.6556 -0.0381  0.0724
 4669SOL     OW25465   2.356   1.454   3.770 -0.3379 -0.4105 -0.4972
 4669SOL    HW125466   2.362   1.549   3.782  0.6706 -0.4066 -0.9374
 4669SOL    HW225467   2.408   1.419   3.842 -1.4363  1.6781  1.2838
 4670SOL     OW25468   4.272   0.752  14.098 -0.1831  0.1837  0.3338
 4670SOL    HW125469   4.260   0.847  14.090  0.0242  0.2469  0.7618
 4670SOL    HW225470   4.205   0.737  14.165  1.7819  0.2269  2.2991
 4671SOL     OW25471   0.571   3.143   7.510  0.4394 -0.2214 -0.2501
 4671SOL    HW125472   0.618   3.175   7.587 -1.8437  3.7609 -0.5484
 4671SOL    HW225473   0.490   3.115   7.552 -0.1031  2.3072  0.3886
 4672SOL     OW25474   2.827   0.738   4.727  0.5517  0.2542  0.1041
 4672SOL    HW125475   2.781   0.822   4.729  3.0114  1.6298 -1.1124
 4672SOL    HW225476   2.913   0.777   4.712  0.7269  0.0508  0.6099
 4673SOL     OW25477   3.978   0.758   6.860 -0.2895 -0.9464  0.5156
 4673SOL    HW125478   3.915   0.735   6.929 -0.8699  0.4569  0.4633
 4673SOL    HW225479   3.977   0.678   6.808  1.2900  0.2290 -1.3255
 4674SOL     OW25480   0.382   0.373  13.927 -0.2942  0.7988 -0.6524
 4674SOL    HW125481   0.297   0.418  13.928 -0.0905  1.1768  0.0302
 4674SOL    HW225482   0.362   0.283  13.953 -1.0549  0.1961 -3.3472
 4675SOL     OW25483   1.213   3.819   5.673 -0.0094 -0.0443 -0.2157
 4675SOL    HW125484   1.143   3.871   5.633 -0.7951 -0.9019  0.0517
 4675SOL    HW225485   1.266   3.783   5.602 -1.2492  0.4529 -1.3861
 4676SOL     OW25486   0.114   2.508  15.369 -0.3811 -0.1708 -0.1167
 4676SOL    HW125487   0.125   2.553  15.285 -1.2160  0.5826  0.1771
 4676SOL    HW225488   0.195   2.514  15.418 -0.6723 -0.7086  0.4426
 4677SOL     OW25489   3.049   0.303   2.716 -0.2615  0.3885 -0.4059
 4677SOL    HW125490   3.013   0.246   2.649 -1.4770 -0.5960  1.0809
 4677SOL    HW225491   2.983   0.372   2.706  0.9394  1.3935 -1.3610
 4678SOL     OW25492   3.240   2.514   9.331 -0.0136 -0.7017 -0.1740
 4678SOL    HW125493   3.176   2.546   9.394  1.7931  1.6067  0.4741
 4678SOL    HW225494   3.225   2.420   9.315 -1.3367 -0.6545  0.8141
 4679SOL     OW25495   3.209   4.223  11.106 -0.2102 -0.5020  0.4425
 4679SOL    HW125496   3.208   4.319  11.105 -0.4838 -0.5039  0.5839
 4679SOL    HW225497   3.148   4.199  11.037  0.9747 -1.9223 -0.1274
 4680SOL     OW25498   0.683   1.772  14.478  0.3670 -0.1207 -0.4033
 4680SOL    HW125499   0.675   1.808  14.389 -1.7601  2.6201  0.8895
 4680SOL    HW225500   0.651   1.685  14.454  0.4015  0.5495 -2.8766
 4681SOL     OW25501   4.284   0.797   9.750  0.2834 -0.2428  0.6414
 4681SOL    HW125502   4.275   0.702   9.749 -0.1568 -0.2039  1.0990
 4681SOL    HW225503   4.377   0.808   9.769  0.3806 -2.8934  1.6367
 4682SOL     OW25504   3.879   3.168  11.207 -0.1993  0.6932 -0.0639
 4682SOL    HW125505   3.822   3.243  11.193 -1.2940 -0.2484 -0.7304
 4682SOL    HW225506   3.922   3.157  11.122  0.8183 -0.5293  0.6113
 4683SOL     OW25507   4.305   4.635   7.958 -0.2124 -0.0180  0.1212
 4683SOL    HW125508   4.380   4.682   7.921  0.1030 -0.3201  0.3757
 4683SOL    HW225509   4.343   4.591   8.034  0.4804  2.9173  1.4990
 4684SOL     OW25510   1.251   3.691  15.494 -0.4927  0.4058 -0.1859
 4684SOL    HW125511   1.345   3.695  15.476 -0.3299 -1.0371  0.3686
 4684SOL    HW225512   1.228   3.610  15.450 -0.8602  0.1309  0.5143
 4685SOL     OW25513   2.052   3.535   6.386 -0.2809 -0.6376 -0.1381
 4685SOL    HW125514   2.062   3.604   6.321 -0.4952  0.1350  0.6573
 4685SOL    HW225515   2.005   3.583   6.454 -1.0688  0.0479 -1.1747
 4686SOL     OW25516   2.241   2.627   2.237  0.2500  0.6572 -0.9580
 4686SOL    HW125517   2.216   2.626   2.144  2.8115 -0.7431 -1.6210
 4686SOL    HW225518   2.282   2.711   2.257  1.1392  0.3578 -1.5496
 4687SOL     OW25519   2.324   1.003   7.516 -0.0841  0.0994  0.2825
 4687SOL    HW125520   2.387   1.058   7.468 -0.3043  0.2515  0.1714
 4687SOL    HW225521   2.269   1.065   7.564  0.4653  1.0309 -0.2794
 4688SOL     OW25522   4.607   0.085   7.059 -1.0562 -0.0692 -0.0019
 4688SOL    HW125523   4.520   0.061   7.093 -1.0605 -1.3347 -0.9214
 4688SOL    HW225524   4.660   0.069   7.137 -0.9149  0.8658  0.0903
 4689SOL     OW25525   1.434   3.026  12.954  0.3811 -0.1025 -0.7753
 4689SOL    HW125526   1.358   2.978  12.921  1.0098  0.0193 -2.4128
 4689SOL    HW225527   1.452   2.977  13.034 -2.3237 -0.6799 -0.5377
 4690SOL     OW25528   0.301   0.457  13.323  0.3226 -0.1505  0.1759
 4690SOL    HW125529   0.275   0.448  13.232  1.8092 -0.0716 -0.2520
 4690SOL    HW225530   0.214   0.479  13.357 -0.1209 -1.0966 -0.3696
 4691SOL     OW25531   2.244   3.594  10.517 -0.3270 -0.3094  0.1702
 4691SOL    HW125532   2.254   3.499  10.513 -0.7211 -0.3378 -0.1278
 4691SOL    HW225533   2.158   3.609  10.479 -0.0822  0.0204 -0.2529
 4692SOL     OW25534   1.696   2.003   5.853  0.0003  0.2322  0.0253
 4692SOL    HW125535   1.733   1.995   5.765 -3.2606  0.7225 -1.3595
 4692SOL    HW225536   1.703   1.911   5.881  1.6243  0.1117 -0.7760
 4693SOL     OW25537   4.342   0.726   2.874 -0.3563 -0.2081 -0.1479
 4693SOL    HW125538   4.262   0.773   2.896  0.4777  0.4664  1.3880
 4693SOL    HW225539   4.403   0.765   2.936 -0.6964  1.3114 -0.7765
 4694SOL     OW25540   2.247   2.265   2.122 -0.6057  0.0708  0.5675
 4694SOL    HW125541   2.296   2.229   2.048  1.1127  0.1575  1.6798
 4694SOL    HW225542   2.204   2.189   2.161  1.0376 -1.6960 -1.0433
 4695SOL     OW25543   1.668   2.514   1.146  0.0592 -0.5967 -0.3899
 4695SOL    HW125544   1.636   2.528   1.236 -0.1024  0.3958 -0.6007
 4695SOL    HW225545   1.602   2.563   1.097 -0.6499  1.7771  2.8995
 4696SOL     OW25546   4.264   1.085  11.813 -0.1258  0.0141 -0.3143
 4696SOL    HW125547   4.316   1.030  11.755  1.6091  1.6987 -0.3512
 4696SOL    HW225548   4.176   1.080  11.776 -0.7893  1.8436  0.9747
 4697SOL     OW25549   0.783   4.064  12.226  0.1694 -0.5340 -0.4116
 4697SOL    HW125550   0.827   4.149  12.214  0.2560 -0.4370  0.6030
 4697SOL    HW225551   0.766   4.052  12.133 -0.1509 -2.0184 -0.1537
 4698SOL     OW25552   1.556   2.735  13.474 -0.3309 -0.0202  0.6676
 4698SOL    HW125553   1.511   2.818  13.459  0.8176  0.9007  2.2798
 4698SOL    HW225554   1.521   2.721  13.562 -2.3435 -2.0746 -0.4664
 4699SOL     OW25555   3.355   1.539   7.414 -0.2681 -0.4853 -0.4476
 4699SOL    HW125556   3.306   1.541   7.332  0.5054 -1.1370 -0.9296
 4699SOL    HW225557   3.402   1.458   7.394  0.4428 -0.4534  1.0416
 4700SOL     OW25558   4.607   1.541   6.317 -0.4276  0.2644 -0.5210
 4700SOL    HW125559   4.603   1.629   6.280  1.5814  1.1421  1.3438
 4700SOL    HW225560   4.689   1.503   6.284  0.5231  0.2815  1.8122
 4701SOL     OW25561   3.271   1.168   7.586 -0.5143  0.3142  0.4590
 4701SOL    HW125562   3.304   1.101   7.646 -0.0731 -0.2287 -0.3884
 4701SOL    HW225563   3.179   1.139   7.581 -0.7942  1.1064  1.0659
 4702SOL     OW25564   1.249   4.564   6.677  0.0107 -0.4381 -0.3735
 4702SOL    HW125565   1.205   4.490   6.720 -0.3432  1.0918  1.9333
 4702SOL    HW225566   1.275   4.525   6.594 -0.3125 -3.2169  0.7973
 4703SOL     OW25567   1.362   1.305  16.749  0.1977 -0.4780  0.1841
 4703SOL    HW125568   1.343   1.282  16.840  0.5085 -0.1001  0.3491
 4703SOL    HW225569   1.272   1.292  16.718 -0.3845 -0.5097  1.9004
 4704SOL     OW25570   1.455   0.678  10.575  0.2607  0.2806 -0.1306
 4704SOL    HW125571   1.499   0.740  10.517  1.4022 -0.0905  0.3252
 4704SOL    HW225572   1.374   0.725  10.596 -0.3665 -0.7958 -0.1834
 4705SOL     OW25573   2.312   1.650   9.455 -0.2326  1.0548  0.2380
 4705SOL    HW125574   2.239   1.589   9.445  0.6301 -0.5649  3.5915
 4705SOL    HW225575   2.380   1.596   9.496 -0.0708 -0.1521 -1.6358
 4706SOL     OW25576   2.968   1.514   6.226 -0.1049 -0.0950 -0.4002
 4706SOL    HW125577   3.045   1.466   6.256  0.5310  1.7755  0.9408
 4706SOL    HW225578   2.959   1.591   6.282 -1.2496  0.1019 -0.8437
 4707SOL     OW25579   1.241   1.341   4.898 -0.1797  0.3315 -0.5148
 4707SOL    HW125580   1.253   1.307   4.987  1.6811  1.1066 -0.4644
 4707SOL    HW225581   1.295   1.420   4.897  0.9317 -0.4068  0.4284
 4708SOL     OW25582   0.635   3.451   3.631 -0.2162 -0.0755 -0.0352
 4708SOL    HW125583   0.606   3.434   3.721  0.7513  1.1796  0.5190
 4708SOL    HW225584   0.697   3.381   3.612 -1.3168 -1.0319 -0.0900
 4709SOL     OW25585   3.614   4.430   8.858 -0.4619 -0.1486  0.0543
 4709SOL    HW125586   3.647   4.493   8.794  1.8533 -3.5282 -2.1092
 4709SOL    HW225587   3.644   4.352   8.812 -0.3404 -0.0448 -0.0416
 4710SOL     OW25588   2.005   0.543   5.966 -0.3100 -0.0486 -0.4057
 4710SOL    HW125589   2.101   0.546   5.966 -0.3368  0.6465  0.7867
 4710SOL    HW225590   1.990   0.513   6.055  0.0795  0.8379 -0.0372
 4711SOL     OW25591   1.305   0.752   4.437 -0.6109  0.0658 -0.2584
 4711SOL    HW125592   1.348   0.667   4.445  0.1253  0.3497 -1.2021
 4711SOL    HW225593   1.338   0.786   4.354  1.9182  0.2851  0.8379
 4712SOL     OW25594   0.733   2.307  15.915 -0.0217 -0.2790 -0.6514
 4712SOL    HW125595   0.762   2.362  15.842 -0.0395 -0.1736 -0.5797
 4712SOL    HW225596   0.744   2.220  15.877 -0.9486 -0.3559 -0.7416
 4713SOL     OW25597   3.222   1.292   7.003  0.4414 -1.4929  0.1930
 4713SOL    HW125598   3.316   1.272   7.000  0.6426 -1.1768  3.8013
 4713SOL    HW225599   3.195   1.212   7.048  0.2538 -1.1066  0.7683
 4714SOL     OW25600   1.958   3.367  15.877  0.1222 -0.1882 -0.5420
 4714SOL    HW125601   1.941   3.405  15.963  1.6350 -1.2980  0.2408
 4714SOL    HW225602   1.969   3.449  15.828 -0.0034 -0.7860 -1.5590
 4715SOL     OW25603   0.541   0.877   7.754  0.7470 -0.3066  0.1305
 4715SOL    HW125604   0.585   0.798   7.723  0.6182  0.6936 -2.5946
 4715SOL    HW225605   0.607   0.947   7.760 -0.5992  0.9173  0.7542
 4716SOL     OW25606   2.699   2.248   7.950 -0.4297 -0.2283 -0.0891
 4716SOL    HW125607   2.704   2.341   7.970 -1.7110  0.2953 -2.2214
 4716SOL    HW225608   2.611   2.228   7.983 -0.2167  1.2597  1.4056
 4717SOL     OW25609   0.704   1.810   8.696  0.0835  0.0618 -0.5548
 4717SOL    HW125610   0.741   1.865   8.627  1.3750 -2.3810 -1.8144
 4717SOL    HW225611   0.640   1.873   8.730 -3.5666 -2.8950 -2.0156
 4718SOL     OW25612   3.790   1.609   2.360 -0.6479  0.3686 -0.3145
 4718SOL    HW125613   3.800   1.548   2.433  3.2881  1.0385 -0.3200
 4718SOL    HW225614   3.820   1.550   2.291  1.5269 -1.2556  1.9849
 4719SOL     OW25615   2.798   3.981   8.607  0.0195  0.1135  0.0519
 4719SOL    HW125616   2.713   4.012   8.637 -1.1163 -1.7158 -1.3149
 4719SOL    HW225617   2.789   3.886   8.614  1.8083 -0.1377 -1.0780
 4720SOL     OW25618   2.337   2.910  14.208  0.4837  0.8605 -0.3912
 4720SOL    HW125619   2.256   2.895  14.159  0.2117  1.6278 -0.1844
 4720SOL    HW225620   2.364   2.834  14.259  0.7167  1.6992  0.7280
 4721SOL     OW25621   0.558   1.479   5.588 -0.2985 -0.3633  0.0270
 4721SOL    HW125622   0.477   1.495   5.638 -1.8553 -0.4715 -2.4692
 4721SOL    HW225623   0.584   1.569   5.569 -2.8008 -0.0666 -2.0119
 4722SOL     OW25624   4.338   3.378   1.651 -0.1136  0.3026  1.1238
 4722SOL    HW125625   4.369   3.344   1.736 -0.5723  0.2864  1.2860
 4722SOL    HW225626   4.264   3.322   1.629 -0.2068  0.5181  0.8912
 4723SOL     OW25627   4.068   1.326   7.654  0.4667  0.4794  0.2174
 4723SOL    HW125628   4.049   1.283   7.738  0.1683 -3.5572 -1.8867
 4723SOL    HW225629   4.152   1.368   7.669  0.5428  0.5989 -0.5553
 4724SOL     OW25630   2.992   1.757  15.856 -0.0120  0.2916  0.2553
 4724SOL    HW125631   3.037   1.841  15.866 -0.8446  0.4416  2.7575
 4724SOL    HW225632   3.066   1.698  15.874 -1.1177 -0.9845  0.5692
 4725SOL     OW25633   2.674   3.776   0.985 -0.8711  0.3216 -0.4236
 4725SOL    HW125634   2.621   3.827   1.046 -1.5833 -2.6383  1.4133
 4725SOL    HW225635   2.629   3.691   0.983  0.0093 -0.1218 -1.8901
 4726SOL     OW25636   1.783   3.200   5.209 -0.1892  0.1871  0.1794
 4726SOL    HW125637   1.870   3.239   5.214 -0.1901  0.3679 -1.3221
 4726SOL    HW225638   1.797   3.113   5.172 -0.6666  0.5347 -0.8326
 4727SOL     OW25639   1.647   4.278   8.663 -0.0826  0.2773  0.0333
 4727SOL    HW125640   1.610   4.330   8.735 -0.3195 -1.3415  1.0590
 4727SOL    HW225641   1.696   4.212   8.711 -0.1052  1.4509  1.6702
 4728SOL     OW25642   4.351   1.360   2.950 -0.6190  0.0317  0.3255
 4728SOL    HW125643   4.365   1.299   2.877  1.0440 -0.2727  0.8842
 4728SOL    HW225644   4.398   1.317   3.021 -1.8841 -2.2338 -0.2127
 4729SOL     OW25645   4.304   0.937  16.221  0.2960 -0.6250 -0.3722
 4729SOL    HW125646   4.271   0.909  16.307  0.5699 -0.1162 -0.0981
 4729SOL    HW225647   4.276   1.029  16.220  0.9318 -0.4725 -3.4358
 4730SOL     OW25648   3.552   1.548   7.823 -0.1362 -0.3045  0.4102
 4730SOL    HW125649   3.567   1.465   7.868  1.3894 -0.2309  0.0655
 4730SOL    HW225650   3.604   1.539   7.743  0.3562 -1.5299  0.8676
 4731SOL     OW25651   1.221   1.406   7.271  0.1412  0.2997 -0.1642
 4731SOL    HW125652   1.247   1.322   7.310 -1.6603 -0.1478  0.0743
 4731SOL    HW225653   1.143   1.371   7.229 -0.8584  1.6035  0.6207
 4732SOL     OW25654   3.937   1.622  16.435 -0.1643  0.1327 -0.3143
 4732SOL    HW125655   3.943   1.658  16.524 -0.4184 -0.1041 -0.2006
 4732SOL    HW225656   3.938   1.526  16.442 -1.3722  0.3119  2.3619
 4733SOL     OW25657   2.930   1.572   4.279 -0.1751  0.0566 -0.2883
 4733SOL    HW125658   2.894   1.537   4.198  0.6728 -1.2936 -0.0928
 4733SOL    HW225659   2.860   1.573   4.344  1.5212  0.5291  1.5623
 4734SOL     OW25660   4.296   0.499   2.645  0.8204 -0.2240 -0.0127
 4734SOL    HW125661   4.348   0.465   2.572 -0.2081  0.6552 -1.1752
 4734SOL    HW225662   4.327   0.590   2.643 -2.0293  0.6924 -2.8163
 4735SOL     OW25663   4.063   1.244   5.095  0.3028  0.4710  0.9862
 4735SOL    HW125664   4.096   1.238   5.005 -0.9111 -0.9720  0.6383
 4735SOL    HW225665   3.971   1.265   5.079 -0.1136 -1.9861 -0.0154
 4736SOL     OW25666   0.446   4.697   7.422  0.3625 -0.4697 -0.2909
 4736SOL    HW125667   0.528   4.662   7.459  1.4553  1.6904 -0.6732
 4736SOL    HW225668   0.426   4.641   7.347 -2.8766  1.0022 -0.5222
 4737SOL     OW25669   1.216   2.131  10.371 -0.1864  0.1893 -0.4700
 4737SOL    HW125670   1.264   2.104  10.449 -0.3474  0.5484 -0.2407
 4737SOL    HW225671   1.236   2.052  10.321 -0.7474  0.3086 -0.8924
 4738SOL     OW25672   2.490   3.782   2.801  0.1478  0.1814  0.2129
 4738SOL    HW125673   2.464   3.705   2.750  1.8009 -0.7268  0.7679
 4738SOL    HW225674   2.410   3.834   2.806  0.7557  1.2767 -1.5080
 4739SOL     OW25675   0.862   0.297   1.174  0.3531 -0.2429  0.2191
 4739SOL    HW125676   0.843   0.292   1.267 -2.6747 -0.3917 -0.4037
 4739SOL    HW225677   0.909   0.214   1.168 -1.0647 -0.8976 -1.7505
 4740SOL     OW25678   2.234   1.096   0.091 -0.7913  0.6489 -0.0765
 4740SOL    HW125679   2.163   1.161   0.096 -1.0154  0.4788 -0.9927
 4740SOL    HW225680   2.304   1.159   0.072 -0.0965 -0.0269  0.2653
 4741SOL     OW25681   2.284   0.563   3.888  0.3761 -0.2916 -0.0055
 4741SOL    HW125682   2.314   0.495   3.949  0.3893 -0.3973 -0.1305
 4741SOL    HW225683   2.271   0.522   3.803 -0.5159 -0.7314  0.3365
 4742SOL     OW25684   1.021   4.289   3.584 -0.7474 -0.4149  0.0522
 4742SOL    HW125685   1.072   4.359   3.542  0.5876 -1.2590  0.2852
 4742SOL    HW225686   0.940   4.292   3.533 -0.2449 -1.3306 -0.8126
 4743SOL     OW25687   3.992   2.327   0.278  0.2768 -0.1473 -0.3339
 4743SOL    HW125688   3.980   2.266   0.352 -2.3446  0.7522 -0.0155
 4743SOL    HW225689   3.976   2.257   0.215  2.8444 -0.0166 -1.1297
 4744SOL     OW25690   2.442   3.746  11.542  0.2571 -0.0151  0.2653
 4744SOL    HW125691   2.525   3.761  11.496  0.1184 -4.1166 -1.3634
 4744SOL    HW225692   2.389   3.706  11.472 -0.8310 -0.6873  1.4811
 4745SOL     OW25693   2.088   0.868  17.329  0.5154  0.1068 -0.4701
 4745SOL    HW125694   2.049   0.946  17.368 -0.2310 -0.5548  0.1058
 4745SOL    HW225695   2.025   0.801  17.354 -0.3286  1.4153  0.8876
 4746SOL     OW25696   2.495   0.290   4.449  0.3113 -0.6485  0.0842
 4746SOL    HW125697   2.564   0.353   4.429 -0.1075 -1.3287 -3.6325
 4746SOL    HW225698   2.471   0.248   4.366 -1.1622  0.0591  0.1430
 4747SOL     OW25699   0.746   0.262   9.110  0.2776  0.1379 -0.0538
 4747SOL    HW125700   0.700   0.293   9.188 -3.5443 -0.0193 -2.2394
 4747SOL    HW225701   0.799   0.188   9.138 -0.0073 -0.1116 -0.1823
 4748SOL     OW25702   3.216   3.992   9.172  0.0457 -0.7696 -0.5408
 4748SOL    HW125703   3.289   3.992   9.109  0.5239 -2.2378  0.0152
 4748SOL    HW225704   3.231   3.904   9.207  1.6434 -0.1489  0.3267
 4749SOL     OW25705   1.409   2.472   0.923  0.1150  0.4751  0.2639
 4749SOL    HW125706   1.430   2.508   0.837 -0.4002  0.4322  0.1204
 4749SOL    HW225707   1.452   2.539   0.976  0.3919  1.4146 -1.1619
 4750SOL     OW25708   3.136   3.414  13.097  0.4922  1.0025  0.2892
 4750SOL    HW125709   3.230   3.399  13.084 -0.0996 -1.6736 -0.7090
 4750SOL    HW225710   3.124   3.485  13.160  0.0431  0.9147  0.3029
 4751SOL     OW25711   1.948   3.418  16.147 -0.3306 -0.3155 -0.2334
 4751SOL    HW125712   2.030   3.466  16.162  0.7727 -2.6335  1.1526
 4751SOL    HW225713   1.965   3.334  16.189 -1.1838 -1.4254 -2.1229
 4752SOL     OW25714   3.679   3.145  14.831  0.5317  0.1555  0.6117
 4752SOL    HW125715   3.649   3.129  14.741 -2.9475  0.7381  1.6801
 4752SOL    HW225716   3.698   3.236  14.808  0.3377 -0.0732 -0.4657
 4753SOL     OW25717   2.429   1.139   6.143  0.3468  0.2472 -0.3886
 4753SOL    HW125718   2.481   1.139   6.223 -0.0533  0.0102 -0.1251
 4753SOL    HW225719   2.435   1.044   6.129 -0.0281  0.4366 -1.7696
 4754SOL     OW25720   4.404   2.438  12.166 -0.5237  0.4814  0.2170
 4754SOL    HW125721   4.387   2.523  12.126 -0.1980  0.5027  0.1257
 4754SOL    HW225722   4.312   2.414  12.182 -0.5464  0.5345  0.1651
 4755SOL     OW25723   4.616   3.647   5.640 -0.2625 -0.2490  0.2985
 4755SOL    HW125724   4.692   3.704   5.631 -0.4442 -0.7068 -4.2325
 4755SOL    HW225725   4.604   3.660   5.734  0.8989 -1.9365  0.6952
 4756SOL     OW25726   3.551   1.902   4.581  0.5327 -0.4538  0.2369
 4756SOL    HW125727   3.518   1.971   4.638  0.0127 -1.4888  1.1865
 4756SOL    HW225728   3.497   1.829   4.611  0.3938 -0.2403  0.5027
 4757SOL     OW25729   3.369   3.623   7.030 -0.2192 -0.2103  0.4985
 4757SOL    HW125730   3.407   3.643   7.115  3.8296 -0.8162 -1.1466
 4757SOL    HW225731   3.410   3.540   7.004  0.6801  0.0930  0.9518
 4758SOL     OW25732   4.479   0.729   6.292  0.2260  0.0435 -1.2950
 4758SOL    HW125733   4.455   0.667   6.223  1.5746 -0.8566 -0.9474
 4758SOL    HW225734   4.498   0.675   6.368 -0.0207  0.7118 -0.7579
 4759SOL     OW25735   3.577   3.886   1.520 -0.3244  0.0740 -0.0415
 4759SOL    HW125736   3.511   3.833   1.477 -1.3296  1.5174 -0.2908
 4759SOL    HW225737   3.560   3.854   1.609  1.7055  0.7919  0.6203
 4760SOL     OW25738   4.177   2.540   9.962 -0.7469  0.3470 -0.2885
 4760SOL    HW125739   4.131   2.464   9.997 -1.9384  0.8577 -0.7275
 4760SOL    HW225740   4.260   2.545  10.008  0.1573  1.7964 -2.1012
 4761SOL     OW25741   2.277   1.788   8.996  0.2051  0.1948  0.5208
 4761SOL    HW125742   2.224   1.721   8.953  0.4989  1.6958 -2.1835
 4761SOL    HW225743   2.351   1.799   8.936 -0.3280  1.2391  0.0481
 4762SOL     OW25744   3.667   3.952   3.142  0.0041 -0.2005  0.0846
 4762SOL    HW125745   3.580   3.992   3.145  0.1945  0.1979  0.3259
 4762SOL    HW225746   3.636   3.890   3.209  1.3372  1.2269  2.0433
 4763SOL     OW25747   3.657   1.980   6.730 -0.1583 -0.2503  0.2723
 4763SOL    HW125748   3.594   1.929   6.780  0.3549  0.8029  1.9995
 4763SOL    HW225749   3.632   2.071   6.748 -0.1846  0.0289 -1.1213
 4764SOL     OW25750   3.666   2.853   6.469  0.0932  0.0737  0.0082
 4764SOL    HW125751   3.658   2.870   6.563 -1.6326  2.7131 -0.6097
 4764SOL    HW225752   3.695   2.938   6.437 -2.9443  0.6030 -1.3002
 4765SOL     OW25753   2.933   0.839   5.520  0.5248 -0.5373 -0.2201
 4765SOL    HW125754   3.022   0.844   5.556  0.3057  0.0161  0.2479
 4765SOL    HW225755   2.954   0.840   5.427  1.0061  1.1385 -0.0915
 4766SOL     OW25756   1.084   0.519   1.712 -0.4844  0.8014 -0.6931
 4766SOL    HW125757   1.045   0.509   1.625  0.3863 -0.9092 -0.8849
 4766SOL    HW225758   1.174   0.490   1.697 -0.7562 -0.4216  0.0123
 4767SOL     OW25759   0.487   3.971   1.061 -0.2889  0.0133 -0.0774
 4767SOL    HW125760   0.494   3.876   1.051 -0.1801  0.0474 -0.3288
 4767SOL    HW225761   0.580   3.989   1.075  0.3786 -3.0764 -0.5642
 4768SOL     OW25762   3.868   4.649   3.345  0.2375  0.1069  0.9017
 4768SOL    HW125763   3.916   4.723   3.306 -1.9069  0.6264 -0.7151
 4768SOL    HW225764   3.780   4.656   3.308  0.0266 -0.0081  1.3851
 4769SOL     OW25765   4.100   0.778   6.463  0.2123  0.0653 -0.3068
 4769SOL    HW125766   4.142   0.693   6.473 -1.8565 -1.0016 -0.8903
 4769SOL    HW225767   4.171   0.835   6.494  1.4184 -2.3317  1.3152
 4770SOL     OW25768   1.553   4.068   7.872  0.0654  0.2931 -0.0573
 4770SOL    HW125769   1.501   4.018   7.809 -1.2935 -0.0956  1.3871
 4770SOL    HW225770   1.504   4.147   7.895 -1.4364 -0.3160 -1.1608
 4771SOL     OW25771   2.907   2.210  10.198  0.2025 -0.1906  0.2063
 4771SOL    HW125772   2.855   2.201  10.278 -2.4099 -1.7258 -1.6707
 4771SOL    HW225773   2.864   2.283  10.154 -0.0529  0.6460  1.8366
 4772SOL     OW25774   3.358   3.283   2.475 -0.1216 -0.1888  0.2236
 4772SOL    HW125775   3.286   3.311   2.418  0.5478  0.1112 -0.4707
 4772SOL    HW225776   3.307   3.289   2.557 -0.4526  0.7445 -0.0498
 4773SOL     OW25777   2.035   4.038   8.862  0.2997  0.4268 -0.0812
 4773SOL    HW125778   2.052   4.118   8.911 -0.9527  0.2122  0.6987
 4773SOL    HW225779   2.115   3.987   8.876 -1.5884 -2.5733 -0.3010
 4774SOL     OW25780   1.575   2.206   2.028  0.7827  0.0328 -0.1822
 4774SOL    HW125781   1.537   2.226   2.113  0.1210 -0.9745 -0.2427
 4774SOL    HW225782   1.528   2.275   1.981  1.2191  0.9595  0.7503
 4775SOL     OW25783   1.621   1.615   2.437  0.2223  0.4502  0.0086
 4775SOL    HW125784   1.565   1.634   2.362  0.8547  0.9989 -0.3265
 4775SOL    HW225785   1.551   1.611   2.502 -0.6562  0.3006 -0.9440
 4776SOL     OW25786   2.633   1.379   3.265 -0.3702  0.1386  0.2029
 4776SOL    HW125787   2.664   1.303   3.216  0.9222  0.8988 -0.1536
 4776SOL    HW225788   2.575   1.411   3.196  1.5898  0.5877 -1.2505
 4777SOL     OW25789   3.124   2.608   3.490 -0.3072 -0.2491  0.1513
 4777SOL    HW125790   3.047   2.647   3.532  1.9183  3.3792  0.8750
 4777SOL    HW225791   3.115   2.656   3.407  0.2020  0.1852  0.3508
 4778SOL     OW25792   1.575   4.083  14.194  0.0830 -0.2471 -0.4179
 4778SOL    HW125793   1.647   4.020  14.198 -1.1004 -1.6158 -0.6281
 4778SOL    HW225794   1.597   4.123  14.110  1.8572 -0.5501 -0.0900
 4779SOL     OW25795   0.210   3.384  10.381 -0.5664 -0.4326  0.2201
 4779SOL    HW125796   0.128   3.395  10.332 -0.9087 -1.0876  0.6461
 4779SOL    HW225797   0.252   3.306  10.343  0.0279 -0.5107  1.0376
 4780SOL     OW25798   4.427   1.083   2.884  0.5727  0.3874  0.7124
 4780SOL    HW125799   4.468   1.079   2.797  0.5925 -0.1682  0.7446
 4780SOL    HW225800   4.489   1.025   2.928 -1.1997 -2.0153  0.0178
 4781SOL     OW25801   2.420   2.714   1.092  0.4944 -0.1553 -0.2119
 4781SOL    HW125802   2.330   2.695   1.066 -0.4990  2.0081  1.5807
 4781SOL    HW225803   2.414   2.807   1.114 -0.3528 -1.0360  3.4072
 4782SOL     OW25804   1.006   4.299   4.214  0.0384  0.5008  0.6020
 4782SOL    HW125805   1.000   4.213   4.172 -0.6853 -0.1551  2.0838
 4782SOL    HW225806   1.032   4.358   4.142  0.2223  1.9008  1.8161
 4783SOL     OW25807   3.641   4.398   8.496 -0.0556  0.6823  0.4466
 4783SOL    HW125808   3.654   4.485   8.458 -0.8293 -0.4358 -2.3756
 4783SOL    HW225809   3.692   4.357   8.426  3.0423  3.4390  1.0968
 4784SOL     OW25810   3.227   3.866  10.261 -0.4986 -0.0463  0.4959
 4784SOL    HW125811   3.320   3.875  10.241 -1.3460  4.1390 -1.6265
 4784SOL    HW225812   3.219   3.774  10.235  1.3845 -0.4456  1.3728
 4785SOL     OW25813   1.586   3.822   8.050  0.1435  0.2917 -0.2619
 4785SOL    HW125814   1.625   3.737   8.027  0.1217 -0.0071  0.8072
 4785SOL    HW225815   1.604   3.876   7.973 -0.7164  0.0156 -0.6593
 4786SOL     OW25816   4.156   3.238   8.412  0.0447  0.3296  0.1309
 4786SOL    HW125817   4.232   3.263   8.463  0.2948 -1.5769  0.6937
 4786SOL    HW225818   4.075   3.263   8.456 -1.3512  1.4692 -3.0190
 4787SOL     OW25819   4.662   0.610   1.315  0.0978 -0.4204 -0.4398
 4787SOL    HW125820   0.031   0.609   1.291  0.3319  0.4546  0.4565
 4787SOL    HW225821   4.619   0.548   1.256 -0.8129  0.4700 -0.7165
 4788SOL     OW25822   1.098   2.452  12.507 -0.4143 -0.0930 -0.2407
 4788SOL    HW125823   1.192   2.436  12.497 -0.3044 -0.0269  0.7474
 4788SOL    HW225824   1.081   2.542  12.481  1.0098  0.2252 -0.0684
 4789SOL     OW25825   0.182   3.920   4.659  0.4570 -0.1489 -0.1153
 4789SOL    HW125826   0.168   3.830   4.688  0.2887 -0.4881 -1.2588
 4789SOL    HW225827   0.108   3.932   4.600  2.5853  3.4936 -1.9913
 4790SOL     OW25828   0.469   0.815  11.558 -0.1020  0.1376 -0.6214
 4790SOL    HW125829   0.408   0.890  11.562  1.5465  1.5085 -1.1547
 4790SOL    HW225830   0.508   0.813  11.645 -0.5405 -2.6882 -0.4991
 4791SOL     OW25831   2.835   3.023   7.285 -0.3811  0.0869  0.1796
 4791SOL    HW125832   2.888   2.943   7.283  1.3283  1.2449 -1.1010
 4791SOL    HW225833   2.857   3.063   7.370 -0.9767  3.5907 -1.3141
 4792SOL     OW25834   1.517   2.803   7.213  0.0635 -0.3296 -0.7996
 4792SOL    HW125835   1.580   2.790   7.284 -1.9183 -1.2335  0.8105
 4792SOL    HW225836   1.434   2.770   7.250  1.3249  0.2642  2.5482
 4793SOL     OW25837   3.443   2.890   5.612 -0.3545 -0.3679  0.4311
 4793SOL    HW125838   3.453   2.977   5.651 -0.4077 -0.3954  0.5070
 4793SOL    HW225839   3.470   2.829   5.680 -0.1458 -0.4298  0.2931
 4794SOL     OW25840   0.176   4.131   5.114 -0.1684  0.6316  0.4713
 4794SOL    HW125841   0.270   4.147   5.099  0.2937 -1.5123  0.9812
 4794SOL    HW225842   0.158   4.112   5.022  1.4841 -1.2931  0.5287
 4795SOL     OW25843   4.365   2.482  11.411 -0.0704 -0.1893  0.0660
 4795SOL    HW125844   4.396   2.467  11.500 -1.0815 -2.3895  0.0635
 4795SOL    HW225845   4.316   2.564  11.413  1.0747  0.4634  1.1297
 4796SOL     OW25846   1.497   1.103  16.561 -0.2693 -0.1108 -0.0643
 4796SOL    HW125847   1.419   1.070  16.607  0.2817 -1.5776 -0.1887
 4796SOL    HW225848   1.550   1.144  16.630 -2.9489  0.4783  1.6672
 4797SOL     OW25849   4.243   2.327  10.552  0.1592  0.0076 -0.5237
 4797SOL    HW125850   4.169   2.371  10.511  0.1651  1.9452  1.5627
 4797SOL    HW225851   4.280   2.383  10.621 -0.1950 -1.1833  0.6411
 4798SOL     OW25852   1.444   3.756   4.263 -0.4111  0.1957  0.5336
 4798SOL    HW125853   1.391   3.835   4.275  0.6339  1.1280 -0.9216
 4798SOL    HW225854   1.531   3.791   4.284  0.7249 -2.7723  0.7885
 4799SOL     OW25855   2.211   2.759   5.231  0.6859  0.0543  0.0055
 4799SOL    HW125856   2.252   2.790   5.150 -3.2213  2.2400 -1.1744
 4799SOL    HW225857   2.224   2.840   5.281 -0.2507  1.0513 -1.3657
 4800SOL     OW25858   3.166   1.813   1.858 -0.1179 -0.3689 -0.4649
 4800SOL    HW125859   3.154   1.719   1.841 -0.0589  0.0288 -2.7191
 4800SOL    HW225860   3.234   1.847   1.800 -0.6146  1.7655  0.2221
 4801SOL     OW25861   1.997   2.472   8.121  0.3248  0.1971  0.2934
 4801SOL    HW125862   2.034   2.530   8.055  1.6741 -0.2480  0.6544
 4801SOL    HW225863   1.910   2.470   8.083 -0.7060 -0.0421  2.6788
 4802SOL     OW25864   2.037   0.613   4.009 -0.1810  0.1142  0.2665
 4802SOL    HW125865   2.036   0.522   4.039 -0.0720 -0.7515 -2.3273
 4802SOL    HW225866   2.117   0.606   3.956  1.0507 -0.1559  2.1770
 4803SOL     OW25867   3.139   4.224   7.635 -0.5504  0.1248 -0.0715
 4803SOL    HW125868   3.051   4.218   7.672 -0.4291  0.5007  0.2718
 4803SOL    HW225869   3.152   4.319   7.637 -3.5684  0.5454 -0.9754
 4804SOL     OW25870   3.988   1.870   1.558  0.7950  0.8725 -0.9176
 4804SOL    HW125871   3.998   1.947   1.501 -0.9318  2.3652  0.7883
 4804SOL    HW225872   3.991   1.903   1.647  1.5953 -0.1886 -0.5559
 4805SOL     OW25873   3.062   2.651   2.449  0.2836  0.5384 -0.6653
 4805SOL    HW125874   3.145   2.664   2.402  0.6785  1.2192  0.2122
 4805SOL    HW225875   3.063   2.742   2.479  0.6608  0.8822 -1.7090
 4806SOL     OW25876   2.835   0.325   4.401  0.5194  0.3810  0.5676
 4806SOL    HW125877   2.808   0.405   4.447 -0.9991  0.4362 -0.4350
 4806SOL    HW225878   2.844   0.264   4.474  0.5974 -0.1109  0.1387
 4807SOL     OW25879   2.893   1.193   8.496 -0.0687  0.1791  0.1581
 4807SOL    HW125880   2.927   1.280   8.473 -1.1324  0.7603  0.7530
 4807SOL    HW225881   2.810   1.188   8.449  1.1110  2.3049 -2.1872
 4808SOL     OW25882   0.416   0.139  15.371  0.4917  0.1416  0.0652
 4808SOL    HW125883   0.366   0.099  15.442  0.7144  1.9644  1.2264
 4808SOL    HW225884   0.420   0.076  15.298 -2.2776 -0.8062  0.7240
 4809SOL     OW25885   1.827   3.758   9.964  0.3494 -0.4884 -0.1901
 4809SOL    HW125886   1.771   3.685   9.990  2.1249 -0.6832  3.1551
 4809SOL    HW225887   1.779   3.791   9.888  0.6187  0.2379 -0.0444
 4810SOL     OW25888   2.969   1.166   5.967 -0.7255  0.4282 -0.4049
 4810SOL    HW125889   2.904   1.108   5.928  0.4529 -0.6739 -0.7228
 4810SOL    HW225890   3.033   1.101   5.998  0.9894  2.1291 -0.3627
 4811SOL     OW25891   0.576   4.017  16.767  0.0875  0.7088  0.1544
 4811SOL    HW125892   0.562   3.984  16.679  0.2535  0.6095  0.1650
 4811SOL    HW225893   0.574   4.112  16.756 -0.2749  0.4643 -1.8086
 4812SOL     OW25894   0.189   1.025   7.227 -0.2504  0.1767  0.5081
 4812SOL    HW125895   0.274   1.068   7.220 -1.1215  2.2428  2.5497
 4812SOL    HW225896   0.163   1.047   7.317 -2.6331  2.2164 -0.6651
 4813SOL     OW25897   1.823   4.361  15.412  0.7963 -0.8270  0.2957
 4813SOL    HW125898   1.821   4.429  15.479  0.7789  0.2716 -0.8185
 4813SOL    HW225899   1.855   4.423  15.346  0.1927  0.7205  1.4581
 4814SOL     OW25900   3.439   0.668  16.860  0.7054 -0.1764 -0.8700
 4814SOL    HW125901   3.412   0.759  16.873  0.0665 -0.6433  1.0691
 4814SOL    HW225902   3.355   0.623  16.860  0.6141 -0.0089 -0.8731
 4815SOL     OW25903   4.699   0.134  16.111 -0.3448  0.1664  0.7883
 4815SOL    HW125904   0.062   0.123  16.069 -1.2748 -2.2450 -0.5272
 4815SOL    HW225905   4.710   0.075  16.186  1.6673  2.4825  2.3148
 4816SOL     OW25906   2.038   0.922  12.923 -0.5635  0.2909 -0.1664
 4816SOL    HW125907   1.984   0.898  12.998 -0.0239 -1.2218 -0.2570
 4816SOL    HW225908   2.094   0.845  12.914 -0.9305 -0.3201  2.6134
 4817SOL     OW25909   4.542   1.227   0.329  0.3263  0.2704  0.1724
 4817SOL    HW125910   4.508   1.276   0.404 -1.0320 -0.6935  0.2029
 4817SOL    HW225911   4.578   1.295   0.272  1.3187  0.5044  1.0932
 4818SOL     OW25912   0.708   0.475  12.521  0.0129  0.3484  0.6334
 4818SOL    HW125913   0.633   0.432  12.561 -0.2802  0.0265 -0.2598
 4818SOL    HW225914   0.759   0.503  12.597 -0.0844  1.3084  0.3411
 4819SOL     OW25915   4.352   3.107  14.601  0.1773 -0.0253 -0.5906
 4819SOL    HW125916   4.279   3.052  14.575  1.1843 -1.5411 -0.2123
 4819SOL    HW225917   4.359   3.170  14.529 -0.8708  1.3138  0.4768
 4820SOL     OW25918   4.502   0.959  13.869 -0.1930 -0.4714  0.3992
 4820SOL    HW125919   4.535   0.951  13.780  1.8660  0.4361  1.0833
 4820SOL    HW225920   4.414   0.989  13.847 -0.3154 -0.3881  0.9927
 4821SOL     OW25921   0.037   1.140  17.293 -0.1061  0.4805 -0.2499
 4821SOL    HW125922   0.112   1.179  17.336 -0.9208  3.1504 -1.1877
 4821SOL    HW225923   4.706   1.219  17.305  0.9925  1.4387 -1.5562
 4822SOL     OW25924   4.248   2.655   7.049 -0.2663  0.5556  0.4443
 4822SOL    HW125925   4.166   2.680   7.092 -0.2053  0.1301  0.7932
 4822SOL    HW225926   4.286   2.608   7.122  0.7778  2.9085  1.3956
 4823SOL     OW25927   1.708   1.086   8.349 -0.3672  0.4504  0.1936
 4823SOL    HW125928   1.615   1.075   8.370 -0.0218 -0.5453  1.1837
 4823SOL    HW225929   1.735   0.995   8.336  0.2224  0.2043  3.1377
 4824SOL     OW25930   3.419   4.554   2.229  0.0445  0.0688  0.7900
 4824SOL    HW125931   3.404   4.551   2.324 -0.8612  1.7059  0.7027
 4824SOL    HW225932   3.475   4.631   2.216  0.9084 -1.0895 -2.1763
 4825SOL     OW25933   0.368   3.941  16.014 -0.0762  0.2771  0.1303
 4825SOL    HW125934   0.387   3.979  15.928 -0.5894 -1.6970 -0.8791
 4825SOL    HW225935   0.418   3.861  15.998 -0.1342  0.1458  0.6145
 4826SOL     OW25936   3.754   1.561  10.038 -0.0014 -0.4179 -0.2197
 4826SOL    HW125937   3.753   1.639  10.093  0.0173  0.5823 -1.6343
 4826SOL    HW225938   3.661   1.551  10.017 -0.3843  2.1828  0.2533
 4827SOL     OW25939   2.675   1.979  14.744 -0.5491  0.0926 -0.2397
 4827SOL    HW125940   2.728   2.006  14.820  2.4652 -2.8886 -1.2532
 4827SOL    HW225941   2.591   1.977  14.790  0.2815 -1.3045  1.2312
 4828SOL     OW25942   1.498   0.412   7.795 -0.0248  0.1185 -0.1378
 4828SOL    HW125943   1.470   0.497   7.829  1.0544 -0.7662  2.9540
 4828SOL    HW225944   1.416   0.374   7.764  0.2709 -0.8178  0.2327
 4829SOL     OW25945   0.350   0.190  13.119 -0.2198 -0.4483 -0.4548
 4829SOL    HW125946   0.330   0.271  13.071  0.4209  1.0362  1.7897
 4829SOL    HW225947   0.380   0.215  13.206  1.3454  0.8627 -1.3841
 4830SOL     OW25948   0.654   4.241   4.386 -0.1056  0.2869 -0.1322
 4830SOL    HW125949   0.724   4.199   4.436  0.0671  1.0360  0.2509
 4830SOL    HW225950   0.649   4.170   4.322 -1.4992 -0.7295  1.1021
 4831SOL     OW25951   0.723   0.051  11.780 -0.3140 -0.5996 -0.4043
 4831SOL    HW125952   0.772   0.100  11.714  0.8916 -1.4391 -0.1426
 4831SOL    HW225953   0.688   4.707  11.722  0.6909 -1.6509  0.2077
 4832SOL     OW25954   0.656   2.076   6.146  0.5607  0.2603 -0.7545
 4832SOL    HW125955   0.734   2.039   6.189  1.3225  1.0393 -1.4709
 4832SOL    HW225956   0.668   2.035   6.061 -0.0017 -1.9478  0.2326
 4833SOL     OW25957   2.667   0.492   7.930  0.4410  1.1271  0.1929
 4833SOL    HW125958   2.679   0.578   7.970  2.8314 -0.0669  2.0267
 4833SOL    HW225959   2.583   0.507   7.885 -0.6429 -0.6204  1.6503
 4834SOL     OW25960   4.252   2.755   8.021 -0.4071  0.1813 -0.1870
 4834SOL    HW125961   4.327   2.785   8.072 -0.0021  0.2097 -0.8038
 4834SOL    HW225962   4.273   2.790   7.935 -1.7311  2.1964  0.3065
 4835SOL     OW25963   0.472   4.082   7.434 -0.1985  0.3268 -0.3368
 4835SOL    HW125964   0.416   4.018   7.390  1.6907  0.0485 -2.3437
 4835SOL    HW225965   0.488   4.136   7.357  0.0287 -3.3479 -2.8832
 4836SOL     OW25966   1.984   2.916   5.501 -0.4076  0.2558  0.5410
 4836SOL    HW125967   2.065   2.942   5.544 -1.3046  1.1826  1.6454
 4836SOL    HW225968   2.003   2.950   5.413 -1.6878  0.1613  0.2231
 4837SOL     OW25969   4.358   0.789   5.933  0.2304  0.7734 -0.3872
 4837SOL    HW125970   4.296   0.798   5.860 -0.1936 -0.0024 -0.1313
 4837SOL    HW225971   4.377   0.696   5.945 -0.7126  0.5905 -0.3115
 4838SOL     OW25972   2.380   3.447   9.608 -0.1245 -0.4995 -0.6235
 4838SOL    HW125973   2.437   3.388   9.657  1.0949  2.0095  1.0283
 4838SOL    HW225974   2.324   3.486   9.676 -1.3707 -0.4957 -1.6523
 4839SOL     OW25975   4.462   1.453   8.953 -0.2532 -0.4351 -0.2127
 4839SOL    HW125976   4.551   1.466   8.987  0.1986  0.8336 -1.8866
 4839SOL    HW225977   4.430   1.426   9.039  0.8719 -1.8419 -0.2327
 4840SOL     OW25978   4.464   1.459  16.384  0.4692  0.3412 -0.8224
 4840SOL    HW125979   4.374   1.492  16.380  0.6021  0.6475 -1.4100
 4840SOL    HW225980   4.453   1.372  16.421 -0.3205  1.1855  0.9095
 4841SOL     OW25981   0.710   3.340   1.668 -0.6603 -0.7389  0.2465
 4841SOL    HW125982   0.770   3.279   1.710  0.2536  0.1663  0.2593
 4841SOL    HW225983   0.751   3.427   1.677 -0.6356 -0.8769  1.4986
 4842SOL     OW25984   0.971   3.302   5.673  0.2580 -0.4421 -0.1334
 4842SOL    HW125985   1.052   3.353   5.666  0.2209 -0.2392  0.8950
 4842SOL    HW225986   0.918   3.361   5.727  1.9978  2.3104 -1.4586
 4843SOL     OW25987   4.184   3.154   1.636  0.1488 -0.4341  0.0740
 4843SOL    HW125988   4.252   3.126   1.697 -0.1306  1.3007  1.1884
 4843SOL    HW225989   4.104   3.137   1.686  0.3348 -0.5802  0.3268
 4844SOL     OW25990   2.975   0.959   5.091  0.5257  0.5643  0.1810
 4844SOL    HW125991   2.882   0.975   5.076  0.2010  0.2108  1.7646
 4844SOL    HW225992   2.978   0.866   5.112 -1.3665  0.9312  2.1500
 4845SOL     OW25993   1.344   2.645   4.397 -0.1259 -0.2956  0.4092
 4845SOL    HW125994   1.392   2.728   4.407 -1.7569  0.8828 -1.5372
 4845SOL    HW225995   1.279   2.667   4.330  0.7475 -0.4177 -0.4762
 4846SOL     OW25996   4.223   1.768   1.349  0.0686 -0.0851 -0.3656
 4846SOL    HW125997   4.276   1.844   1.323  0.5704  0.0128  0.9300
 4846SOL    HW225998   4.173   1.807   1.421  1.8918 -0.2964  1.0457
 4847SOL     OW25999   3.992   1.949   8.842 -0.2163 -0.2889 -0.4584
 4847SOL    HW126000   3.976   2.027   8.896 -0.4321  0.9097 -2.2313
 4847SOL    HW226001   4.051   1.981   8.773 -0.0110  0.2234 -0.0462
 4848SOL     OW26002   3.683   3.424   3.341 -0.2199 -0.2652  0.0360
 4848SOL    HW126003   3.735   3.502   3.363  0.2244  0.1623 -2.4929
 4848SOL    HW226004   3.614   3.453   3.281  0.2693 -1.1075 -0.9235
 4849SOL     OW26005   2.225   2.685   2.581  0.0649  0.2915 -0.0667
 4849SOL    HW126006   2.153   2.701   2.520 -0.6902 -0.0282  0.7652
 4849SOL    HW226007   2.182   2.691   2.666  0.0372 -1.0323 -0.0018
 4850SOL     OW26008   0.192   2.687  13.319 -0.6709 -0.0039  0.1275
 4850SOL    HW126009   0.132   2.702  13.392 -0.5547  1.9382 -0.1518
 4850SOL    HW226010   0.157   2.602  13.296  0.0928 -0.6357  1.2818
 4851SOL     OW26011   1.323   4.080   0.709 -0.0045  0.0891  0.0625
 4851SOL    HW126012   1.318   4.082   0.805  0.0926 -0.8367  0.0886
 4851SOL    HW226013   1.361   4.167   0.700 -0.4269 -0.1259 -3.5446
 4852SOL     OW26014   4.106   3.590  16.560  0.8807 -0.2011  0.2240
 4852SOL    HW126015   4.060   3.600  16.644 -3.0520 -0.8786 -1.8228
 4852SOL    HW226016   4.068   3.507  16.532  1.0405 -0.2288  0.0970
 4853SOL     OW26017   4.109   1.616   5.659  0.4694  0.0169  0.6644
 4853SOL    HW126018   4.094   1.677   5.587  0.3834 -0.3080  0.4070
 4853SOL    HW226019   4.064   1.536   5.631  1.9016 -1.5964  2.9468
 4854SOL     OW26020   4.133   1.063  11.590 -0.2662  0.2999 -0.7245
 4854SOL    HW126021   4.130   1.158  11.576  0.5386  0.5981  1.0997
 4854SOL    HW226022   4.184   1.042  11.511  0.4890  0.5966 -0.3170
 4855SOL     OW26023   3.197   0.599   5.984 -0.1452 -0.3156 -0.1719
 4855SOL    HW126024   3.262   0.645   6.037 -1.2069  0.3673  0.5407
 4855SOL    HW226025   3.161   0.667   5.928 -1.2380 -1.2757 -0.6283
 4856SOL     OW26026   2.518   3.779   4.400 -0.5074 -0.2251 -0.1443
 4856SOL    HW126027   2.552   3.691   4.418 -1.1821 -0.7058 -1.2575
 4856SOL    HW226028   2.423   3.775   4.405 -0.6056  1.9998 -0.1955
 4857SOL     OW26029   0.674   3.102   5.719  0.1280 -0.0796  0.2453
 4857SOL    HW126030   0.682   3.009   5.697  3.0262  0.2309 -0.0220
 4857SOL    HW226031   0.580   3.100   5.736 -0.1742 -0.4813 -1.4677
 4858SOL     OW26032   4.261   1.381   5.247  0.5789  0.3427 -0.1439
 4858SOL    HW126033   4.183   1.352   5.199  1.9772 -3.0545 -0.3456
 4858SOL    HW226034   4.217   1.379   5.331  1.3730  0.9445  0.2911
 4859SOL     OW26035   0.133   1.770  17.654  0.1420  0.3389 -0.3484
 4859SOL    HW126036   0.048   1.797  17.619  0.6873 -0.3183 -2.2045
 4859SOL    HW226037   0.161   1.709  17.586 -1.3175 -0.4118 -0.2709
 4860SOL     OW26038   1.598   1.219   6.126 -0.1208 -0.3506 -0.2678
 4860SOL    HW126039   1.649   1.241   6.204 -1.6681  1.2387  0.2988
 4860SOL    HW226040   1.616   1.125   6.122 -0.3854 -0.3117 -2.2984
 4861SOL     OW26041   2.728   2.156   4.502 -0.0236 -0.6691 -0.0964
 4861SOL    HW126042   2.773   2.123   4.424  0.2246 -1.5536  0.4215
 4861SOL    HW226043   2.647   2.106   4.493 -1.1613  0.9388  1.2067
 4862SOL     OW26044   2.794   0.316   6.192  0.5992  0.2081 -0.0087
 4862SOL    HW126045   2.822   0.263   6.117  2.3114  0.3743  0.5285
 4862SOL    HW226046   2.835   0.399   6.167 -1.0441  1.6004  1.9051
 4863SOL     OW26047   4.333   2.751  11.808  0.1037 -0.1457  0.2453
 4863SOL    HW126048   4.327   2.675  11.752 -0.0172 -1.5111  2.0980
 4863SOL    HW226049   4.384   2.725  11.885  0.9773  2.4176  0.5650
 4864SOL     OW26050   4.454   0.124   5.168  0.1170  0.2565 -0.3924
 4864SOL    HW126051   4.475   0.203   5.118  2.8104  0.5110  1.1699
 4864SOL    HW226052   4.494   0.059   5.111 -1.5269 -0.3013 -0.9016
 4865SOL     OW26053   4.527   4.400   8.202  0.2154 -0.5312 -0.2344
 4865SOL    HW126054   4.433   4.397   8.219 -0.2939  0.6080 -2.7781
 4865SOL    HW226055   4.563   4.444   8.279 -0.9195  0.0168 -0.0282
 4866SOL     OW26056   3.591   1.001   7.077 -0.0864 -0.6739 -0.0707
 4866SOL    HW126057   3.569   1.025   6.987  0.9386 -0.3286 -0.2325
 4866SOL    HW226058   3.504   1.009   7.115  0.3286 -1.9729  1.1609
 4867SOL     OW26059   0.509   2.792   7.179 -0.5393 -0.3170 -0.2818
 4867SOL    HW126060   0.494   2.782   7.273  0.8923  1.0345  0.0952
 4867SOL    HW226061   0.453   2.867   7.160 -0.7432 -0.2997  0.3877
 4868SOL     OW26062   1.773   0.058  10.501  0.4601  0.6480  0.2514
 4868SOL    HW126063   1.710   4.717  10.531  0.2623  0.7834  0.1270
 4868SOL    HW226064   1.718   0.127  10.464  0.7545 -0.5553 -2.4347
 4869SOL     OW26065   1.170   3.816  13.103 -0.0360  0.1263  0.4781
 4869SOL    HW126066   1.216   3.736  13.129 -2.5092 -1.7006 -0.8236
 4869SOL    HW226067   1.238   3.858  13.050  0.2307  0.1770  0.8565
 4870SOL     OW26068   4.254   2.799  12.657  0.2657  0.1706  0.2690
 4870SOL    HW126069   4.347   2.816  12.669  0.4803 -0.9271  0.1840
 4870SOL    HW226070   4.246   2.746  12.577  1.6531  0.1824  0.1298
 4871SOL     OW26071   3.685   1.413  11.285  0.9000 -0.2724 -0.1251
 4871SOL    HW126072   3.671   1.320  11.265 -1.8431 -0.0376  0.6950
 4871SOL    HW226073   3.605   1.427  11.336  0.1664 -2.0101 -0.7989
 4872SOL     OW26074   0.515   3.992   3.360  0.2999 -0.4382  0.2556
 4872SOL    HW126075   0.437   4.048   3.364 -0.0576 -0.8558 -0.9212
 4872SOL    HW226076   0.514   3.949   3.446  0.1794  1.7332  1.3430
 4873SOL     OW26077   2.414   3.730   6.445  0.0705 -0.2109 -0.1800
 4873SOL    HW126078   2.396   3.824   6.454 -0.7010 -0.4181  0.4441
 4873SOL    HW226079   2.506   3.732   6.472 -0.2778 -0.7661  1.0366
 4874SOL     OW26080   3.072   1.634  16.419 -0.2427  0.1744 -0.1831
 4874SOL    HW126081   3.096   1.714  16.371  3.1213 -1.3908 -1.1528
 4874SOL    HW226082   2.982   1.662  16.435 -0.6605 -0.9886 -0.4768
 4875SOL     OW26083   3.191   1.142   9.897  0.0678  0.4427  0.3792
 4875SOL    HW126084   3.251   1.082   9.853 -0.4968 -0.7581  1.2485
 4875SOL    HW226085   3.210   1.133   9.990 -1.6319 -1.8338  0.4928
 4876SOL     OW26086   1.321   1.657   4.027  0.4301 -0.4278 -0.0516
 4876SOL    HW126087   1.248   1.687   3.972  1.5289 -0.3893 -1.5095
 4876SOL    HW226088   1.383   1.727   4.007  0.8376 -0.9148 -0.4943
 4877SOL     OW26089   0.487   1.819   5.289 -0.0846  0.5632 -0.5215
 4877SOL    HW126090   0.397   1.788   5.278  0.4054 -1.1292  0.2871
 4877SOL    HW226091   0.484   1.834   5.383 -1.0152 -0.0959 -0.4514
 4878SOL     OW26092   3.024   4.705   5.161  0.2943 -0.4164 -1.0561
 4878SOL    HW126093   3.011   0.002   5.069 -1.1394  1.3502 -0.4679
 4878SOL    HW226094   3.116   4.719   5.181  0.5764 -1.8199 -1.3716
 4879SOL     OW26095   0.733   0.031   3.753 -0.7755  0.0201 -0.1231
 4879SOL    HW126096   0.673   0.018   3.826  0.3150  1.3054  0.9925
 4879SOL    HW226097   0.693   0.107   3.712 -0.3069 -0.0576 -0.7427
 4880SOL     OW26098   2.732   3.252   2.927 -0.2180 -0.3545 -0.1399
 4880SOL    HW126099   2.769   3.250   2.839 -1.3650 -1.5676 -0.5989
 4880SOL    HW226100   2.657   3.310   2.910  0.6052  1.2207  1.6330
 4881SOL     OW26101   0.233   0.001  16.062 -0.1681 -0.4384  0.0219
 4881SOL    HW126102   0.196   4.684  16.141 -0.0806  2.6299  1.6627
 4881SOL    HW226103   0.199   4.666  15.995  0.2846  0.5213 -1.0460
 4882SOL     OW26104   1.207   2.216   8.700  0.6004 -0.1259 -0.2421
 4882SOL    HW126105   1.159   2.166   8.765 -1.5603  1.2310 -0.8106
 4882SOL    HW226106   1.130   2.267   8.677  0.1128 -1.0428 -0.6565
 4883SOL     OW26107   1.780   2.222   8.037  0.3884 -0.2576 -0.0189
 4883SOL    HW126108   1.763   2.303   7.990 -1.8394 -0.9358 -0.3843
 4883SOL    HW226109   1.701   2.179   8.005  0.5170 -0.7536  0.3171
 4884SOL     OW26110   4.128   1.174  14.976 -0.6584  0.6250  0.1477
 4884SOL    HW126111   4.223   1.164  14.989 -0.9312  1.8282  3.0452
 4884SOL    HW226112   4.131   1.233  14.900  0.4794 -2.2174 -2.0455
 4885SOL     OW26113   3.497   2.432   1.347 -0.0919 -0.3457 -0.0263
 4885SOL    HW126114   3.469   2.523   1.353  0.2910 -0.3221  1.4766
 4885SOL    HW226115   3.431   2.385   1.296  0.7472 -0.6473 -0.8464
 4886SOL     OW26116   2.642   4.681  14.198  0.1434 -0.1079  0.3814
 4886SOL    HW126117   2.639   4.608  14.137  1.5817  0.7892 -0.7565
 4886SOL    HW226118   2.614   4.648  14.284 -1.3750 -1.8997 -0.8078
 4887SOL     OW26119   4.347   4.006   8.703  0.2949  0.5529 -0.0846
 4887SOL    HW126120   4.326   4.079   8.645 -0.7647 -0.3310 -0.8136
 4887SOL    HW226121   4.280   4.016   8.771  1.0378 -0.2446  0.7606
 4888SOL     OW26122   0.007   0.895   7.855  0.0474 -0.2005  0.1845
 4888SOL    HW126123   0.103   0.888   7.862  0.2265  0.5440 -1.4140
 4888SOL    HW226124   4.718   0.970   7.797  0.2813 -1.1875 -1.1435
 4889SOL     OW26125   2.810   0.814   6.036  0.4982  0.0400 -0.2386
 4889SOL    HW126126   2.802   0.827   5.942 -3.3115  0.9435  0.1995
 4889SOL    HW226127   2.716   0.818   6.056  0.6079 -1.4341  0.6112
 4890SOL     OW26128   0.435   2.602   4.692 -0.0794  0.5535 -0.2459
 4890SOL    HW126129   0.463   2.514   4.667 -0.6498  0.1892  0.4028
 4890SOL    HW226130   0.347   2.603   4.655 -0.7099  0.1221  1.2446
 4891SOL     OW26131   3.445   1.731  17.417 -0.5010 -0.2504  0.2174
 4891SOL    HW126132   3.474   1.726  17.326 -1.0185 -0.4294  0.0670
 4891SOL    HW226133   3.488   1.815  17.433  1.7687 -1.3011 -0.3582
 4892SOL     OW26134   3.276   0.735  15.216 -0.0233 -0.2113 -0.0485
 4892SOL    HW126135   3.292   0.731  15.310  0.1601 -3.3785 -0.2331
 4892SOL    HW226136   3.351   0.789  15.191  0.1767 -0.3020  0.3595
 4893SOL     OW26137   0.359   3.830   6.299  0.1063 -0.0551  0.1123
 4893SOL    HW126138   0.435   3.774   6.318  0.7220  0.7516  0.0047
 4893SOL    HW226139   0.308   3.787   6.231 -0.8543  2.0579 -0.4905
 4894SOL     OW26140   0.252   1.318   7.382  0.2528 -0.5620 -0.2857
 4894SOL    HW126141   0.223   1.255   7.449  0.7844  1.3995  1.7806
 4894SOL    HW226142   0.327   1.359   7.426 -0.3549  0.3618 -0.1159
 4895SOL     OW26143   4.686   2.197  13.258 -0.1891 -0.0543 -0.1782
 4895SOL    HW126144   4.716   2.284  13.282 -0.8806  0.2487 -0.4164
 4895SOL    HW226145   4.625   2.172  13.328  1.3489  2.1857  1.9792
 4896SOL     OW26146   2.613   3.773   4.118 -0.3594  0.0327  0.0440
 4896SOL    HW126147   2.692   3.820   4.145 -1.0732  1.1668  0.1255
 4896SOL    HW226148   2.568   3.761   4.201 -0.5725 -0.0771 -0.0872
 4897SOL     OW26149   1.302   1.278   0.624 -0.0392 -0.6066  0.9589
 4897SOL    HW126150   1.273   1.264   0.533  0.8618 -1.6060  0.8352
 4897SOL    HW226151   1.218   1.262   0.667 -0.4803  2.5537  1.2756
 4898SOL     OW26152   0.544   0.302   4.591 -0.7607  0.2340 -0.5884
 4898SOL    HW126153   0.582   0.225   4.549 -0.4697 -0.5158  1.0537
 4898SOL    HW226154   0.588   0.303   4.677 -0.7409  0.7667 -0.6024
 4899SOL     OW26155   4.088   2.270  11.719 -0.5923 -0.4840  0.2531
 4899SOL    HW126156   4.058   2.278  11.629 -2.3941  1.8542  1.0495
 4899SOL    HW226157   4.042   2.189  11.740  0.4281 -0.9776  0.5917
 4900SOL     OW26158   3.479   3.891  10.178 -0.1465 -0.2843 -0.8519
 4900SOL    HW126159   3.574   3.896  10.178 -0.1472 -0.2497 -0.6943
 4900SOL    HW226160   3.472   3.902  10.083  1.8392 -0.1028 -0.9806
 4901SOL     OW26161   0.275   2.970   1.532  0.4403  0.2282 -0.5606
 4901SOL    HW126162   0.209   2.959   1.600  0.0424  0.9461 -0.8295
 4901SOL    HW226163   0.276   3.065   1.532 -0.7536  0.2330  0.0389
 4902SOL     OW26164   3.627   3.105   1.577  0.3425  0.3824 -0.1837
 4902SOL    HW126165   3.634   3.103   1.672  1.9035  0.8743 -0.2848
 4902SOL    HW226166   3.686   3.171   1.543 -1.6085  1.6140 -1.1649
 4903SOL     OW26167   4.220   4.049   5.870 -0.0585  0.1960 -0.0584
 4903SOL    HW126168   4.265   4.027   5.951 -0.8626 -0.1401  0.2938
 4903SOL    HW226169   4.149   4.099   5.909 -1.4128 -1.6198 -0.2451
 4904SOL     OW26170   2.055   1.752   3.708  0.3004  0.0902 -0.3987
 4904SOL    HW126171   2.028   1.843   3.716 -0.7811 -0.1522 -1.2559
 4904SOL    HW226172   2.097   1.718   3.788  2.1591  2.8253 -0.2297
 4905SOL     OW26173   1.723   3.062  10.467  0.2985  1.1029  0.9788
 4905SOL    HW126174   1.719   3.024  10.555  2.8153  1.3692  1.2009
 4905SOL    HW226175   1.780   3.002  10.419  0.4053  0.6772  1.6338
 4906SOL     OW26176   3.207   2.478  10.081 -0.0062  0.0647  0.1539
 4906SOL    HW126177   3.228   2.391  10.116  1.4712  0.4286  0.1914
 4906SOL    HW226178   3.137   2.464  10.017  0.6596  0.4775 -0.6722
 4907SOL     OW26179   1.853   1.099   4.109  0.0851 -0.0955  0.6185
 4907SOL    HW126180   1.888   1.076   4.023 -1.0993  1.5913 -0.2969
 4907SOL    HW226181   1.762   1.068   4.101  0.8520 -1.8053 -1.4100
 4908SOL     OW26182   3.971   2.024   5.892 -0.3119  0.1936 -0.2603
 4908SOL    HW126183   3.983   2.115   5.920  0.4710 -0.9107  2.9723
 4908SOL    HW226184   3.907   2.030   5.822 -1.2501  1.3000  0.6969
 4909SOL     OW26185   1.242   0.331   2.563  0.5123  1.1026 -0.3636
 4909SOL    HW126186   1.236   0.370   2.650  0.6909 -0.4899  0.3747
 4909SOL    HW226187   1.275   0.245   2.592 -0.7173  1.0263  0.8312
 4910SOL     OW26188   4.485   0.372   2.503 -0.3407  0.0686  0.1108
 4910SOL    HW126189   4.546   0.298   2.508  0.7293  0.8953 -0.6038
 4910SOL    HW226190   4.407   0.320   2.485 -0.5470  0.5788 -0.4683
 4911SOL     OW26191   0.223   4.094   1.786  0.4329  0.7709  0.1615
 4911SOL    HW126192   0.276   4.169   1.759 -0.7639  1.3406 -0.6098
 4911SOL    HW226193   0.143   4.106   1.735  0.1650  1.0334  0.6398
 4912SOL     OW26194   2.871   4.562   6.203 -0.3455  0.1262 -0.2354
 4912SOL    HW126195   2.918   4.500   6.147 -1.9493 -1.5649  0.2850
 4912SOL    HW226196   2.811   4.601   6.139 -2.1866 -0.2715  1.2257
 4913SOL     OW26197   1.899   0.173  12.308 -0.3355 -0.1334  0.0858
 4913SOL    HW126198   1.842   0.225  12.364 -0.9018 -0.1497 -0.4857
 4913SOL    HW226199   1.908   0.089  12.354  0.5994 -0.5217 -0.8030
 4914SOL     OW26200   1.940   3.171  16.294  0.0500 -0.7475 -0.3231
 4914SOL    HW126201   1.964   3.108  16.226 -0.5560 -0.4221 -0.8366
 4914SOL    HW226202   2.025   3.162  16.336  0.2340 -2.9074 -1.1681
 4915SOL     OW26203   0.184   1.074   7.488  0.1617  0.0456  0.7112
 4915SOL    HW126204   0.232   1.085   7.570 -0.1271  0.3739  0.8355
 4915SOL    HW226205   0.111   1.030   7.532 -0.9173 -0.9397 -2.0728
 4916SOL     OW26206   1.460   3.875   2.649 -0.5939  1.1213  0.0841
 4916SOL    HW126207   1.533   3.914   2.601 -0.7500  0.1127 -0.9779
 4916SOL    HW226208   1.493   3.878   2.739 -2.4495 -0.8569  0.8363
 4917SOL     OW26209   1.231   4.427   1.406 -0.3783 -0.0678 -0.1244
 4917SOL    HW126210   1.278   4.492   1.457  0.6221 -1.7061  1.0260
 4917SOL    HW226211   1.250   4.341   1.443  0.1162  0.3093  0.4921
 4918SOL     OW26212   4.253   3.642   8.328  0.0687 -1.0403  0.1190
 4918SOL    HW126213   4.260   3.623   8.234 -1.0487 -0.5585 -0.0663
 4918SOL    HW226214   4.309   3.579   8.372 -0.7394 -2.1187 -0.4074
 4919SOL     OW26215   3.243   2.020   6.936 -0.2298  0.0445 -0.0873
 4919SOL    HW126216   3.247   1.969   7.017 -0.4575  1.2596  0.6911
 4919SOL    HW226217   3.228   2.107   6.974 -1.5096 -1.0836  2.0477
 4920SOL     OW26218   0.906   3.383   2.381  0.2623 -0.6447  0.5619
 4920SOL    HW126219   0.836   3.424   2.331 -0.4653 -1.5209  0.8580
 4920SOL    HW226220   0.877   3.292   2.376 -0.0561 -0.5418  0.4889
 4921SOL     OW26221   3.252   4.592   8.959 -0.3369 -0.4204 -0.6538
 4921SOL    HW126222   3.165   4.580   8.922 -0.8105  0.2630  0.2473
 4921SOL    HW226223   3.247   4.524   9.027  0.1127  0.9832  0.7957
 4922SOL     OW26224   3.003   0.838   3.936 -1.1153  0.1244 -0.3770
 4922SOL    HW126225   3.062   0.872   3.868 -0.2464  0.2650  0.4523
 4922SOL    HW226226   3.061   0.785   3.990  0.4207  1.1799 -0.9809
 4923SOL     OW26227   2.760   2.688  12.586 -0.4735 -0.2538  0.5753
 4923SOL    HW126228   2.695   2.731  12.530  0.1981  0.4417  0.3297
 4923SOL    HW226229   2.830   2.753  12.589 -1.0854  0.4338  0.0801
 4924SOL     OW26230   2.852   1.525   7.965 -0.2501 -0.4252  0.8481
 4924SOL    HW126231   2.768   1.483   7.946  0.0577  0.1638 -1.7878
 4924SOL    HW226232   2.910   1.459   7.927 -0.9556  0.2025 -1.3045
 4925SOL     OW26233   0.242   0.604  11.280  0.8412 -0.2512  0.0964
 4925SOL    HW126234   0.241   0.639  11.191  0.3547 -0.8946 -0.1539
 4925SOL    HW226235   0.333   0.575  11.289  0.9056  0.0072  0.2779
 4926SOL     OW26236   4.153   3.671   8.966 -0.1299 -0.5153  0.8037
 4926SOL    HW126237   4.239   3.641   8.996  0.5027  0.5748  0.1066
 4926SOL    HW226238   4.100   3.690   9.043 -2.2771 -1.6866 -0.3707
 4927SOL     OW26239   3.034   3.119   3.714 -0.1648 -0.1740 -0.3100
 4927SOL    HW126240   3.044   3.152   3.803 -0.6617 -0.7474 -0.0443
 4927SOL    HW226241   3.015   3.026   3.728  1.8269 -0.7332 -1.3388
 4928SOL     OW26242   0.931   1.930   3.394  0.0197  0.1715 -0.0886
 4928SOL    HW126243   0.938   1.835   3.384 -0.2074  0.0966  0.4977
 4928SOL    HW226244   0.923   1.931   3.489  0.8911 -0.5610 -0.0112
 4929SOL     OW26245   2.149   0.004   2.612 -0.5634  0.1253 -0.2697
 4929SOL    HW126246   2.085   0.035   2.548 -2.3103 -0.7288  1.0626
 4929SOL    HW226247   2.093   4.705   2.687 -0.1167  2.9631  0.9232
 4930SOL     OW26248   3.618   1.356   9.112 -0.2464 -0.8997  0.2667
 4930SOL    HW126249   3.706   1.320   9.098  0.2411  0.5540 -0.4859
 4930SOL    HW226250   3.634   1.439   9.066  1.1589 -1.0231  0.5370
 4931SOL     OW26251   1.348   2.238   8.092  0.0453  0.2997  0.2872
 4931SOL    HW126252   1.306   2.314   8.050 -0.2705  1.0391  1.9076
 4931SOL    HW226253   1.370   2.263   8.182  0.9939  1.4336 -0.2474
 4932SOL     OW26254   4.677   1.713   6.579 -0.2459  0.3765  0.1421
 4932SOL    HW126255   4.633   1.697   6.496 -1.3929  1.9878  0.4480
 4932SOL    HW226256   4.612   1.771   6.618 -0.3890 -0.2618  0.8579
 4933SOL     OW26257   4.101   1.367   2.367  0.0695  0.4034 -0.3256
 4933SOL    HW126258   4.020   1.367   2.316  1.0580  0.1984 -1.8629
 4933SOL    HW226259   4.155   1.310   2.313 -2.4900 -1.3069 -1.0910
 4934SOL     OW26260   3.897   0.903   4.021  0.2973 -0.0872  0.4354
 4934SOL    HW126261   3.985   0.939   4.030  0.2279  0.2396 -0.2359
 4934SOL    HW226262   3.855   0.956   4.088  1.2644  2.3432 -0.9121
 4935SOL     OW26263   3.154   1.581   8.716 -0.2678  0.2623 -0.1259
 4935SOL    HW126264   3.102   1.643   8.768  2.9219  1.6075  1.4375
 4935SOL    HW226265   3.114   1.600   8.631 -1.2021 -0.5443  0.1291
 4936SOL     OW26266   0.039   3.106  10.186 -0.1498  0.2171 -0.2714
 4936SOL    HW126267   0.131   3.131  10.180  0.0971 -0.1735  1.9049
 4936SOL    HW226268   0.033   3.102  10.281 -1.4714  0.6704 -0.3421
 4937SOL     OW26269   4.475   4.068   3.746  0.4887  0.1805  0.0094
 4937SOL    HW126270   4.510   3.984   3.776 -0.2124 -0.3388 -0.6258
 4937SOL    HW226271   4.491   4.116   3.828 -3.6097 -1.7353  1.9228
 4938SOL     OW26272   1.482   0.633   0.633 -0.3490 -0.4134 -0.0722
 4938SOL    HW126273   1.539   0.565   0.597  1.9512  0.9312  1.0206
 4938SOL    HW226274   1.525   0.708   0.593  0.5958 -0.7347  0.3204
 4939SOL     OW26275   4.139   4.053  11.971 -0.5972  0.3754 -0.2708
 4939SOL    HW126276   4.142   3.978  11.911 -0.0024 -0.1713  0.4338
 4939SOL    HW226277   4.122   4.012  12.056  1.1498  1.8472  0.7688
 4940SOL     OW26278   4.436   0.700  17.682  0.0841 -0.0359  0.0247
 4940SOL    HW126279   4.529   0.698   0.010  0.7675 -0.2790 -2.7410
 4940SOL    HW226280   4.414   0.784   0.027  0.1975  1.2634 -2.6052
 4941SOL     OW26281   4.538   4.380   7.916  0.4471 -0.0546  0.3040
 4941SOL    HW126282   4.606   4.447   7.931  0.6469 -0.3584  0.7661
 4941SOL    HW226283   4.530   4.357   8.009 -4.5972 -0.0946 -0.1692
 4942SOL     OW26284   0.790   3.837   9.157 -0.2223  0.1660 -0.0763
 4942SOL    HW126285   0.706   3.792   9.150 -0.8274  1.1878  0.5592
 4942SOL    HW226286   0.804   3.866   9.247 -1.3850 -0.4592  0.3016
 4943SOL     OW26287   0.546   3.930  16.526 -0.0965  0.0714 -0.1455
 4943SOL    HW126288   0.493   3.855  16.498 -0.4691  0.7215 -1.1719
 4943SOL    HW226289   0.594   3.946  16.444  0.7619 -0.2620  0.2929
 4944SOL     OW26290   1.927   3.327  10.737 -0.2921  0.4964  0.3836
 4944SOL    HW126291   1.970   3.303  10.819 -1.7510 -0.5798  0.8230
 4944SOL    HW226292   1.928   3.240  10.697  0.2512  0.7306 -0.1123
 4945SOL     OW26293   2.299   3.401   7.611  0.8504  0.6231 -0.7935
 4945SOL    HW126294   2.258   3.448   7.539 -2.0628  1.3333  1.3199
 4945SOL    HW226295   2.390   3.408   7.585  1.2650  0.0487  0.4799
 4946SOL     OW26296   3.647   2.599   9.437 -0.0006 -0.2632 -0.6753
 4946SOL    HW126297   3.688   2.618   9.522 -1.1063  0.4847 -0.3176
 4946SOL    HW226298   3.718   2.619   9.376 -0.3436 -0.2733 -1.0774
 4947SOL     OW26299   3.175   0.457   1.251 -0.4445 -0.3080  0.6856
 4947SOL    HW126300   3.097   0.442   1.198  0.0418  1.9092 -0.6448
 4947SOL    HW226301   3.147   0.495   1.335  0.3989  2.2335 -0.1778
 4948SOL     OW26302   0.615   1.260  16.520 -0.4580  0.5544  0.3309
 4948SOL    HW126303   0.585   1.308  16.596  1.2278 -1.5231  2.2961
 4948SOL    HW226304   0.674   1.327  16.487 -0.9160  1.1031  0.6268
 4949SOL     OW26305   3.851   1.323  10.885  0.1038  0.0337 -0.2099
 4949SOL    HW126306   3.793   1.304  10.811  0.6567  0.7447 -0.8287
 4949SOL    HW226307   3.831   1.248  10.941  2.7436 -0.6219 -0.1437
 4950SOL     OW26308   0.941   2.873   8.222 -0.3275 -0.2398 -0.5037
 4950SOL    HW126309   0.961   2.942   8.159 -2.1172  2.4232  1.8974
 4950SOL    HW226310   0.890   2.920   8.287 -0.0090 -0.2595 -0.2424
 4951SOL     OW26311   1.633   2.946   7.450 -0.2891 -0.1016  0.1129
 4951SOL    HW126312   1.587   3.012   7.501 -1.5252 -2.1740  1.6296
 4951SOL    HW226313   1.674   3.004   7.385 -0.5955 -0.5617 -0.4932
 4952SOL     OW26314   0.929   0.575   1.910  0.3028  0.1968  0.3856
 4952SOL    HW126315   0.985   0.549   1.837  0.7587  1.4826  0.2738
 4952SOL    HW226316   0.883   0.640   1.857 -0.1508 -0.5782 -0.1629
 4953SOL     OW26317   0.839   3.942  15.044 -0.3274 -0.5768  0.8082
 4953SOL    HW126318   0.919   3.964  15.090  0.1959  0.8669 -0.8129
 4953SOL    HW226319   0.872   3.967  14.958  1.4765 -1.7827  1.1534
 4954SOL     OW26320   4.433   3.862   8.219 -0.3282 -0.2848  0.0320
 4954SOL    HW126321   4.418   3.831   8.308 -2.4745 -1.3090 -0.6836
 4954SOL    HW226322   4.355   3.916   8.205  0.2174  0.9557  1.8063
 4955SOL     OW26323   0.191   4.447  17.537  0.1991  0.2628 -0.3461
 4955SOL    HW126324   0.120   4.383  17.533  0.5002 -0.2378  1.9798
 4955SOL    HW226325   0.147   4.526  17.568 -0.3768  0.1071 -0.7602
 4956SOL     OW26326   2.857   3.962   6.635 -0.3447 -0.3206 -0.1115
 4956SOL    HW126327   2.852   3.948   6.730 -2.8242  1.6525  0.0520
 4956SOL    HW226328   2.767   3.953   6.605 -0.3989 -0.8127  0.1927
 4957SOL     OW26329   0.926   3.919  13.183 -0.5597 -0.2707 -0.3617
 4957SOL    HW126330   1.009   3.898  13.141 -0.1159  1.7363 -0.5059
 4957SOL    HW226331   0.933   4.002  13.230 -2.9534 -1.2204  1.6582
 4958SOL     OW26332   3.443   2.667   3.487  0.8078 -0.4068 -0.4721
 4958SOL    HW126333   3.454   2.758   3.513 -0.5983 -0.5970  0.7713
 4958SOL    HW226334   3.348   2.660   3.490  0.7161  1.1730  0.1984
 4959SOL     OW26335   2.711   1.397   2.571  0.0861 -0.2119  0.4302
 4959SOL    HW126336   2.787   1.348   2.601 -2.2659 -4.1187 -0.0854
 4959SOL    HW226337   2.680   1.441   2.651 -0.5071  2.2616 -1.1461
 4960SOL     OW26338   0.176   1.651  14.648 -0.1876  1.0188  0.6288
 4960SOL    HW126339   0.252   1.642  14.589 -1.5734 -1.3387 -0.8233
 4960SOL    HW226340   0.220   1.679  14.728 -3.1744  3.2473  1.4561
 4961SOL     OW26341   2.168   1.946   4.730 -0.0932  0.4235 -0.1003
 4961SOL    HW126342   2.074   1.949   4.711 -0.2970 -1.2129  0.7038
 4961SOL    HW226343   2.175   1.878   4.796  1.7308  0.1094 -0.6060
 4962SOL     OW26344   0.343   0.538   2.912 -0.0964  0.0734 -0.1251
 4962SOL    HW126345   0.254   0.528   2.876 -0.6692  1.5293  0.8961
 4962SOL    HW226346   0.330   0.514   3.004 -1.6444  0.2231 -0.3060
 4963SOL     OW26347   0.436   4.524  11.846 -0.5683 -0.2866  0.3801
 4963SOL    HW126348   0.469   4.446  11.802  1.0499  0.3087  0.5445
 4963SOL    HW226349   0.436   4.587  11.774  0.2527 -0.0015  0.6314
 4964SOL     OW26350   3.549   0.272  13.250  0.4362 -0.2612 -0.1085
 4964SOL    HW126351   3.607   0.211  13.206 -2.1154 -0.5658 -3.0516
 4964SOL    HW226352   3.608   0.346  13.267  0.7031 -0.3974 -0.4499
 4965SOL     OW26353   4.075   1.074   5.882  0.1812  0.0901  0.0353
 4965SOL    HW126354   3.998   1.045   5.931  1.2079  0.3358  1.8127
 4965SOL    HW226355   4.151   1.047   5.935 -0.7699 -2.3958  0.1201
 4966SOL     OW26356   2.618   2.633   6.657 -0.0383  0.2788  0.5672
 4966SOL    HW126357   2.540   2.616   6.710  0.4982  0.2838  1.3664
 4966SOL    HW226358   2.603   2.573   6.584 -0.3650 -0.6259  1.3654
 4967SOL     OW26359   3.359   4.287  13.570  0.3811 -0.3981  0.8909
 4967SOL    HW126360   3.276   4.261  13.531  0.7005 -0.4746  0.2653
 4967SOL    HW226361   3.426   4.290  13.501 -0.6338  1.1777 -0.0325
 4968SOL     OW26362   1.368   3.786   1.301 -0.3332  0.2454 -0.0485
 4968SOL    HW126363   1.354   3.777   1.207 -2.2477  2.1951  0.0616
 4968SOL    HW226364   1.463   3.774   1.304 -0.1221  1.9193 -0.1315
 4969SOL     OW26365   3.489   2.292   1.987  0.6987 -0.6453 -0.0657
 4969SOL    HW126366   3.495   2.216   1.928 -1.6018 -1.2930  0.5524
 4969SOL    HW226367   3.409   2.273   2.035  0.3498 -0.1252 -0.4468
 4970SOL     OW26368   2.305   1.998   2.739 -0.1850  0.8709 -0.0494
 4970SOL    HW126369   2.350   2.044   2.810 -0.8224 -0.3792  1.1673
 4970SOL    HW226370   2.382   1.993   2.682 -0.9770 -0.9839 -0.9314
 4971SOL     OW26371   3.298   3.602   8.198 -0.1978  0.2393 -0.9904
 4971SOL    HW126372   3.298   3.698   8.188  0.8611  0.4917  1.5131
 4971SOL    HW226373   3.271   3.595   8.290 -0.2405  1.6796 -0.8882
 4972SOL     OW26374   1.973   2.584   6.962 -0.1097  0.1877  0.1509
 4972SOL    HW126375   1.960   2.529   6.885 -0.3922 -0.6060  0.7743
 4972SOL    HW226376   1.908   2.653   6.947 -2.0668 -1.6326  0.3735
 4973SOL     OW26377   1.088   2.556   3.808  0.3470  0.3587 -0.0023
 4973SOL    HW126378   1.021   2.576   3.743 -0.8173  0.1987  1.1498
 4973SOL    HW226379   1.139   2.488   3.764  0.0907 -0.2571  0.6532
 4974SOL     OW26380   2.699   3.816   2.960  0.7861 -0.1982 -0.2379
 4974SOL    HW126381   2.733   3.731   2.989 -0.6761 -0.1305  1.6868
 4974SOL    HW226382   2.619   3.790   2.913  1.5339  0.4095 -1.8199
 4975SOL     OW26383   1.745   2.545   6.250 -0.9418 -0.0163 -0.3195
 4975SOL    HW126384   1.792   2.518   6.171 -0.7538  2.4633 -1.0352
 4975SOL    HW226385   1.663   2.537   6.202 -0.6762  1.4160 -1.0068
 4976SOL     OW26386   0.973   4.108   5.954  0.0978  0.4902 -0.2117
 4976SOL    HW126387   0.895   4.123   5.900 -0.6839  0.4139  0.8866
 4976SOL    HW226388   0.999   4.198   5.975  2.1513  0.1040 -1.0879
 4977SOL     OW26389   1.528   2.091   6.504 -0.1822 -0.1976 -0.1299
 4977SOL    HW126390   1.493   2.169   6.546  0.2303  0.0186 -0.1826
 4977SOL    HW226391   1.474   2.026   6.549 -1.5877  0.6720 -0.5547
 4978SOL     OW26392   0.827   1.131   2.913  0.1856 -0.2809  0.4329
 4978SOL    HW126393   0.899   1.073   2.887  0.5767 -0.0609  1.0388
 4978SOL    HW226394   0.766   1.081   2.858  0.7614  0.7951 -1.1904
 4979SOL     OW26395   1.576   1.431   1.425  0.3803 -0.2893  0.4725
 4979SOL    HW126396   1.481   1.418   1.428  0.4112 -0.3555  1.2167
 4979SOL    HW226397   1.592   1.375   1.349  1.2713  0.5873  0.0194
 4980SOL     OW26398   3.035   2.599   2.979  0.1825 -0.1075 -0.5974
 4980SOL    HW126399   2.980   2.525   3.003 -0.4894  0.1932 -1.1987
 4980SOL    HW226400   3.057   2.593   2.886  3.0646  1.8614 -0.0364
 4981SOL     OW26401   1.897   4.534   5.830  0.2251  0.3327 -0.3660
 4981SOL    HW126402   1.831   4.501   5.769 -1.4761  0.1283  1.5625
 4981SOL    HW226403   1.971   4.481   5.800  0.2878  0.2397 -0.0460
 4982SOL     OW26404   0.581   1.952  10.166  0.2800  0.0937 -0.6099
 4982SOL    HW126405   0.541   1.867  10.187  1.9125 -0.6221 -0.4479
 4982SOL    HW226406   0.617   1.984  10.249 -0.4636 -3.5565  1.1249
 4983SOL     OW26407   2.211   0.573   4.735  0.3409 -0.0889 -0.4008
 4983SOL    HW126408   2.269   0.504   4.768 -0.3628  0.0603  1.1488
 4983SOL    HW226409   2.145   0.514   4.698 -0.0182  0.4452 -0.6152
 4984SOL     OW26410   1.727   1.493   8.166 -0.6110  0.4463 -0.1791
 4984SOL    HW126411   1.697   1.468   8.079 -2.8766 -0.9378  0.9742
 4984SOL    HW226412   1.801   1.552   8.152  1.9088 -2.4267  0.9645
 4985SOL     OW26413   2.308   0.608   5.853 -0.3545 -0.7311  0.2055
 4985SOL    HW126414   2.379   0.601   5.789  0.2708 -2.2832  1.0911
 4985SOL    HW226415   2.283   0.517   5.841 -0.1779 -0.6803 -0.5517
 4986SOL     OW26416   2.415   3.953  11.344 -0.0661 -0.3030 -0.0761
 4986SOL    HW126417   2.500   3.910  11.357 -0.6267 -1.6045 -0.7757
 4986SOL    HW226418   2.412   4.012  11.419 -1.4479  0.8607 -1.0471
 4987SOL     OW26419   2.597   2.870   4.660 -0.2180  0.1856 -0.1260
 4987SOL    HW126420   2.632   2.813   4.592 -0.0646  1.8701 -1.4454
 4987SOL    HW226421   2.670   2.862   4.721 -0.7878 -0.9449  0.4074
 4988SOL     OW26422   1.264   2.172   0.738  0.4737 -0.1159  0.4944
 4988SOL    HW126423   1.223   2.135   0.816  0.8500  2.9164  2.1216
 4988SOL    HW226424   1.347   2.132   0.765  0.4672 -0.2329  0.3455
 4989SOL     OW26425   3.655   3.768   6.350 -0.0426  0.6024 -0.7930
 4989SOL    HW126426   3.568   3.762   6.310 -0.9417 -1.7989  1.5625
 4989SOL    HW226427   3.655   3.859   6.382  0.7058 -0.6286  2.6839
 4990SOL     OW26428   0.329   3.767   5.788  0.0878  0.4745  0.6115
 4990SOL    HW126429   0.353   3.793   5.699  0.0817  0.1476  0.5133
 4990SOL    HW226430   0.366   3.679   5.794  0.8175  0.9005  2.4186
 4991SOL     OW26431   4.607   4.112   8.484 -0.4757  0.2149 -0.0554
 4991SOL    HW126432   4.519   4.150   8.492 -0.4393 -0.1241  2.0005
 4991SOL    HW226433   4.601   4.043   8.550  0.9796 -1.7892 -2.0728
 4992SOL     OW26434   1.471   3.038   6.083  0.1631 -0.2161  0.1551
 4992SOL    HW126435   1.445   3.009   5.995  1.4955  1.8745 -0.9204
 4992SOL    HW226436   1.565   3.022   6.086  0.3411  1.0133  0.8137
 4993SOL     OW26437   0.965   2.453   7.987 -0.2155 -0.3659 -0.0193
 4993SOL    HW126438   0.993   2.363   8.007 -0.8796 -0.7440 -0.7774
 4993SOL    HW226439   1.046   2.486   7.948  0.7813 -1.7933  0.8116
 4994SOL     OW26440   3.492   1.096   8.593  0.4243 -0.1993  0.3590
 4994SOL    HW126441   3.422   1.031   8.590 -0.0187  0.4708 -3.5005
 4994SOL    HW226442   3.465   1.138   8.512 -1.7748 -1.7085  0.3191
 4995SOL     OW26443   2.700   4.197   8.896 -0.2340  0.0996 -0.0283
 4995SOL    HW126444   2.740   4.110   8.898  0.5984  0.4889 -0.0958
 4995SOL    HW226445   2.705   4.245   8.978 -2.9815 -0.1355  0.2909
 4996SOL     OW26446   3.247   0.265   7.788 -0.3349  0.3435 -0.0739
 4996SOL    HW126447   3.271   0.217   7.709  0.4128  1.0029 -0.2417
 4996SOL    HW226448   3.253   0.357   7.763  0.6668  0.2608 -0.1360
 4997SOL     OW26449   2.278   4.583   8.979 -0.4768 -0.4773 -0.4622
 4997SOL    HW126450   2.245   4.560   8.892 -3.6440  1.2905  0.2708
 4997SOL    HW226451   2.307   4.501   9.018 -0.9992  0.2838  1.4892
 4998SOL     OW26452   1.452   0.389   6.427 -0.1273 -0.0152 -0.6220
 4998SOL    HW126453   1.379   0.331   6.447  0.3895  0.4953  2.7571
 4998SOL    HW226454   1.442   0.463   6.486  2.1792 -1.9298  2.1609
 4999SOL     OW26455   1.557   3.851   0.226 -0.6614  0.2099  0.0998
 4999SOL    HW126456   1.518   3.770   0.259  0.9187 -1.2061 -1.4790
 4999SOL    HW226457   1.513   3.886   0.148 -1.1595  2.3661  1.3470
 5000SOL     OW26458   2.751   4.587   8.346  0.3003  0.1666  0.4574
 5000SOL    HW126459   2.745   4.585   8.441  0.5578 -1.1595  0.4521
 5000SOL    HW226460   2.836   4.543   8.343 -0.3672 -0.9866 -1.9159
 5001SOL     OW26461   0.877   0.098   7.485 -0.3091 -0.0710  0.1001
 5001SOL    HW126462   0.821   0.077   7.410 -0.8463  1.3591  0.1038
 5001SOL    HW226463   0.927   0.174   7.455  0.8154 -0.9020 -0.1474
 5002SOL     OW26464   0.391   2.692   0.581  0.4176  0.4192  0.0653
 5002SOL    HW126465   0.436   2.776   0.569  1.7993 -0.3083  0.1511
 5002SOL    HW226466   0.299   2.708   0.602  0.5297  0.4347  0.5465
 5003SOL     OW26467   3.805   2.160   9.485  0.6359  0.1521  0.1114
 5003SOL    HW126468   3.804   2.164   9.580 -3.8687 -1.1743  0.1306
 5003SOL    HW226469   3.711   2.144   9.478  0.6990  0.4224 -1.4659
 5004SOL     OW26470   1.159   0.549   6.889 -0.4751  0.2485  0.0574
 5004SOL    HW126471   1.184   0.461   6.863  0.1033  0.5403 -0.3622
 5004SOL    HW226472   1.064   0.541   6.903  0.0509 -1.6745  2.6328
 5005SOL     OW26473   1.920   3.222   2.428 -0.7613  0.0166  0.2754
 5005SOL    HW126474   1.834   3.205   2.391 -0.6074 -1.5246  0.6578
 5005SOL    HW226475   1.930   3.133   2.462 -1.8117 -0.3669 -0.4437
 5006SOL     OW26476   4.301   0.924   2.127 -0.4472  0.4729  0.9094
 5006SOL    HW126477   4.323   0.857   2.191 -0.6218  3.2234  3.8313
 5006SOL    HW226478   4.228   0.873   2.091  0.2697 -1.0963  1.6763
 5007SOL     OW26479   0.190   4.429  15.610  0.6760  0.2509  0.2008
 5007SOL    HW126480   0.114   4.419  15.553  0.4076  1.0202  0.4321
 5007SOL    HW226481   0.238   4.499  15.566  2.7325 -0.7475  0.8415
 5008SOL     OW26482   0.827   0.183   2.825 -0.4992 -0.5031 -0.4092
 5008SOL    HW126483   0.850   0.224   2.741  2.6864  2.0102  1.7006
 5008SOL    HW226484   0.790   0.102   2.789 -1.9542  0.2459 -0.5723
 5009SOL     OW26485   2.288   2.492   3.849  0.1671 -0.3782  0.1188
 5009SOL    HW126486   2.221   2.437   3.889 -0.7372  0.1707 -0.6631
 5009SOL    HW226487   2.338   2.427   3.799 -0.4540 -2.6124  2.3668
 5010SOL     OW26488   2.026   4.011   7.158 -0.2206  0.2845 -0.7769
 5010SOL    HW126489   1.931   4.014   7.160 -0.2455 -0.0928 -1.5690
 5010SOL    HW226490   2.054   3.995   7.068 -0.5109  1.3928 -1.0585
 5011SOL     OW26491   3.449   3.972   7.406  0.4777 -0.9070  0.2647
 5011SOL    HW126492   3.387   3.930   7.347  0.1965  0.2516 -0.2549
 5011SOL    HW226493   3.513   3.901   7.416 -0.4958 -1.9672 -1.0081
 5012SOL     OW26494   2.996   2.990  13.210  0.2122 -0.0629 -0.3957
 5012SOL    HW126495   2.979   3.070  13.259  2.0694 -0.3100  0.6880
 5012SOL    HW226496   3.083   3.012  13.178  0.3364  0.1204  0.0643
 5013SOL     OW26497   3.751   4.692   6.619 -0.1727  0.3524 -0.1782
 5013SOL    HW126498   3.674   0.009   6.581 -1.2006 -1.3252  0.1067
 5013SOL    HW226499   3.787   4.646   6.543 -0.6006 -1.2196  0.5613
 5014SOL     OW26500   0.154   4.015   1.474  0.2067 -0.1756 -0.2085
 5014SOL    HW126501   0.190   3.929   1.498  0.8676  0.1650  0.0337
 5014SOL    HW226502   0.068   4.023   1.515  1.0405  0.6279  1.4006
 5015SOL     OW26503   3.313   2.914   8.858  0.2631  0.5080 -0.0365
 5015SOL    HW126504   3.391   2.868   8.824 -0.6108  0.9275 -2.6471
 5015SOL    HW226505   3.279   2.850   8.920 -1.0110  0.0055 -1.2332
 5016SOL     OW26506   0.241   3.916   9.373  0.0597  0.3393  0.1558
 5016SOL    HW126507   0.176   3.902   9.304  0.3375 -1.4653  0.2717
 5016SOL    HW226508   0.318   3.939   9.321  0.1621  1.1765  0.6659
 5017SOL     OW26509   2.172   3.906   8.339  0.1159 -0.0355  0.5821
 5017SOL    HW126510   2.196   3.836   8.277 -1.2603  0.4404 -0.4683
 5017SOL    HW226511   2.099   3.863   8.382 -0.3152  0.1760  0.0619
 5018SOL     OW26512   3.041   1.072   4.514 -0.3554  0.3685 -0.2794
 5018SOL    HW126513   3.007   1.120   4.590  0.0659  1.8763 -1.0282
 5018SOL    HW226514   3.009   1.132   4.446 -0.5435  1.1795  0.5223
 5019SOL     OW26515   0.049   4.062  10.552  0.4898 -0.3656 -0.8130
 5019SOL    HW126516   4.704   4.119  10.587  0.6504  0.8120 -2.3912
 5019SOL    HW226517   0.019   3.972  10.564  1.6604 -0.8539 -1.6171
 5020SOL     OW26518   0.381   3.978   4.116 -0.1836  0.1857 -0.3637
 5020SOL    HW126519   0.414   3.918   4.049  0.5659  0.2647 -0.0656
 5020SOL    HW226520   0.393   3.910   4.182  0.1620  0.9402  0.3539
 5021SOL     OW26521   2.112   3.780  14.356  0.2034 -0.3636 -0.3203
 5021SOL    HW126522   2.124   3.690  14.325  0.7507 -0.1031 -0.8599
 5021SOL    HW226523   2.160   3.829  14.290  1.2947  0.5893  1.1813
 5022SOL     OW26524   3.195   2.359   2.516  0.1348  0.5244 -0.1753
 5022SOL    HW126525   3.128   2.291   2.507  1.5386 -0.7394 -1.0280
 5022SOL    HW226526   3.192   2.380   2.609 -0.2492 -0.7289  0.0836
 5023SOL     OW26527   4.647   0.322   7.812 -0.1485  0.3018  0.1918
 5023SOL    HW126528   4.684   0.403   7.847  1.2732 -0.1151 -0.3451
 5023SOL    HW226529   4.568   0.330   7.866 -0.0676  1.6039  0.1159
 5024SOL     OW26530   0.464   1.962   6.843 -0.7197 -0.1628 -0.3124
 5024SOL    HW126531   0.489   1.962   6.751  0.2903 -2.3989 -0.0370
 5024SOL    HW226532   0.369   1.969   6.849 -0.3698  4.2069  0.6479
 5025SOL     OW26533   2.686   2.120  15.265  0.1731  0.0467  0.2791
 5025SOL    HW126534   2.724   2.046  15.312  2.2456 -0.0551 -1.5336
 5025SOL    HW226535   2.641   2.169  15.334 -0.8864  0.1175 -0.4724
 5026SOL     OW26536   2.908   3.598   8.262 -0.4537 -0.2272 -0.6895
 5026SOL    HW126537   2.929   3.687   8.292 -0.4371 -0.9018  1.2663
 5026SOL    HW226538   2.927   3.599   8.168  0.3786  0.5132 -0.5128
 5027SOL     OW26539   2.018   3.640  13.566  0.2045 -0.2260 -0.3909
 5027SOL    HW126540   2.088   3.692  13.605 -0.9648 -0.2511  1.7170
 5027SOL    HW226541   1.967   3.607  13.640  0.7556  0.0920  0.1309
 5028SOL     OW26542   3.088   4.315   2.795 -0.2563  0.3637 -0.3878
 5028SOL    HW126543   2.995   4.317   2.818 -0.0385 -2.9370  0.7951
 5028SOL    HW226544   3.123   4.229   2.819 -1.1942 -0.3240 -1.4889
 5029SOL     OW26545   3.512   0.168   5.965 -0.3691  0.0890 -0.2717
 5029SOL    HW126546   3.528   0.087   5.917  0.5349  0.1340 -0.0418
 5029SOL    HW226547   3.595   0.213   5.982 -0.4050  1.3160 -3.3102
 5030SOL     OW26548   3.464   0.637   3.466  0.0152 -0.0197 -0.3318
 5030SOL    HW126549   3.531   0.575   3.437 -1.0879 -1.8044  0.9460
 5030SOL    HW226550   3.415   0.651   3.386 -0.6810 -0.3806  0.0317
 5031SOL     OW26551   3.814   2.036   6.250  0.2210 -0.3003 -0.4035
 5031SOL    HW126552   3.838   2.128   6.238  0.3504 -0.4534 -1.2986
 5031SOL    HW226553   3.739   2.033   6.310 -0.1764  1.0060 -0.8408
 5032SOL     OW26554   4.494   1.207   1.349 -0.5027 -0.6768 -0.3351
 5032SOL    HW126555   4.415   1.261   1.344  0.3587  0.7460  1.3298
 5032SOL    HW226556   4.464   1.134   1.403  1.0323 -1.5829 -0.7068
 5033SOL     OW26557   1.523   1.778   5.292  0.3184  0.4354 -0.1606
 5033SOL    HW126558   1.612   1.786   5.256 -0.1963 -0.2584 -1.5849
 5033SOL    HW226559   1.467   1.806   5.220 -1.8473  0.5946  1.5712
 5034SOL     OW26560   2.201   1.852  13.521  0.6988  0.6113  0.4557
 5034SOL    HW126561   2.120   1.826  13.565  0.4156  1.4501  0.4337
 5034SOL    HW226562   2.159   1.878  13.439  0.6233  0.2143  0.3713
 5035SOL     OW26563   3.349   1.033   6.299  0.0262  0.3468  0.4450
 5035SOL    HW126564   3.276   1.033   6.362 -0.7990  0.5882 -0.5124
 5035SOL    HW226565   3.305   1.083   6.230  1.9729  0.5925 -0.5957
 5036SOL     OW26566   0.375   2.675   0.219  0.0431 -0.3103  1.0714
 5036SOL    HW126567   0.301   2.617   0.233  0.3866 -1.4037 -1.5130
 5036SOL    HW226568   0.408   2.670   0.309 -0.5234 -0.5880  1.2579
 5037SOL     OW26569   4.211   2.275   1.578  0.3121  0.2946 -0.4359
 5037SOL    HW126570   4.138   2.287   1.638  0.1574  0.1371 -0.5934
 5037SOL    HW226571   4.196   2.357   1.531 -2.4074 -1.3387 -2.4139
 5038SOL     OW26572   1.877   0.041   8.582 -0.2125  0.1475 -0.0963
 5038SOL    HW126573   1.902   0.027   8.674  1.6952  1.2850 -0.4573
 5038SOL    HW226574   1.824   4.690   8.553  1.5660 -1.1633  0.0347
 5039SOL     OW26575   3.025   3.558  14.748  0.1499  0.2763 -0.2124
 5039SOL    HW126576   3.013   3.612  14.670  1.2027  2.4880  1.1772
 5039SOL    HW226577   2.951   3.590  14.799  0.1834  0.1384 -0.0756
 5040SOL     OW26578   2.407   2.340   5.994 -0.0012 -0.4235  0.1974
 5040SOL    HW126579   2.343   2.389   5.942  0.1433 -1.5145 -1.0143
 5040SOL    HW226580   2.412   2.263   5.937 -2.7337  0.2908 -1.0311
 5041SOL     OW26581   3.787   1.536   4.952  0.0905  0.2117 -0.3608
 5041SOL    HW126582   3.755   1.477   4.884 -2.8732 -1.7346  2.7713
 5041SOL    HW226583   3.880   1.538   4.927  0.4183  0.4094  0.8800
 5042SOL     OW26584   0.575   2.058   4.776 -0.5739  0.1866 -0.4659
 5042SOL    HW126585   0.624   2.110   4.839  0.0219 -1.9303  0.8127
 5042SOL    HW226586   0.587   1.979   4.828  3.0610  0.0641 -1.5115
 5043SOL     OW26587   0.335   0.819  14.795  0.0497 -0.1103 -0.6141
 5043SOL    HW126588   0.318   0.887  14.729 -1.8978  0.4095  0.4030
 5043SOL    HW226589   0.324   0.750  14.730 -1.1198  0.6068 -1.1889
 5044SOL     OW26590   2.210   4.481   6.776  0.1391 -0.0768  0.0844
 5044SOL    HW126591   2.300   4.513   6.783  0.1835 -0.6665  2.0073
 5044SOL    HW226592   2.201   4.487   6.681  0.1564  0.3033  0.1062
 5045SOL     OW26593   2.985   0.615   7.673  0.4677 -0.0179 -0.0539
 5045SOL    HW126594   2.947   0.540   7.717  1.0200 -1.4919 -2.1232
 5045SOL    HW226595   3.056   0.633   7.736  1.2242  3.2646 -1.8077
 5046SOL     OW26596   2.538   3.268   3.358  0.5235 -0.3501  0.5077
 5046SOL    HW126597   2.492   3.185   3.374  0.5415 -0.7188 -1.3703
 5046SOL    HW226598   2.601   3.252   3.289 -0.5110  2.4222 -1.0615
 5047SOL     OW26599   3.200   0.926   3.152 -0.0432  0.3535 -0.6709
 5047SOL    HW126600   3.222   0.996   3.213  3.0827 -1.1223 -0.1363
 5047SOL    HW226601   3.203   0.962   3.063  0.0039  2.0250 -0.0045
 5048SOL     OW26602   3.732   2.079   1.930  0.1347 -0.0371  0.2536
 5048SOL    HW126603   3.639   2.073   1.909  0.0321  1.7112  0.1754
 5048SOL    HW226604   3.745   2.168   1.965 -0.2973 -0.2007  0.8210
 5049SOL     OW26605   2.945   1.341   5.232 -0.3767 -0.6948 -0.2733
 5049SOL    HW126606   2.864   1.393   5.235  0.2091  0.1211  1.2972
 5049SOL    HW226607   2.998   1.401   5.285 -1.1962  0.4798 -0.7705
 5050SOL     OW26608   3.876   3.237   7.838 -0.1599 -0.2531 -0.0498
 5050SOL    HW126609   3.834   3.285   7.767 -0.3833 -1.7193 -0.9055
 5050SOL    HW226610   3.807   3.229   7.904  0.3660  0.0734  0.5392
 5051SOL     OW26611   4.355   1.870   2.507 -0.6245  0.0721  0.2041
 5051SOL    HW126612   4.273   1.832   2.478  0.0510  0.6534 -2.4602
 5051SOL    HW226613   4.339   1.963   2.494 -1.5383  0.2002  2.2735
 5052SOL     OW26614   1.900   1.936  11.266 -0.7368  0.2708 -0.0355
 5052SOL    HW126615   1.944   1.935  11.181 -0.9141 -2.8504 -0.0878
 5052SOL    HW226616   1.809   1.939  11.239 -0.1795  2.2966 -1.6707
 5053SOL     OW26617   0.049   2.250   3.196  0.2359 -0.6240 -0.5841
 5053SOL    HW126618   0.143   2.255   3.213 -0.3593  1.9451  2.0152
 5053SOL    HW226619   0.043   2.307   3.119 -3.4890  0.6405  0.6367
 5054SOL     OW26620   0.694   4.289  16.923  0.3485 -0.3781 -0.2774
 5054SOL    HW126621   0.649   4.291  16.838  1.0385 -1.0858 -0.6565
 5054SOL    HW226622   0.621   4.265  16.980  1.4487  0.7692  1.5821
 5055SOL     OW26623   4.543   2.944   3.145  0.2989 -0.3628 -0.0564
 5055SOL    HW126624   4.480   2.876   3.122 -1.3395  0.9305  0.6094
 5055SOL    HW226625   4.551   2.913   3.235 -2.2800  0.2877  0.4036
 5056SOL     OW26626   0.332   1.707   4.818  0.1170  0.3171 -0.0316
 5056SOL    HW126627   0.267   1.665   4.873  0.7710 -1.2919 -0.4703
 5056SOL    HW226628   0.412   1.657   4.836  0.9639  2.0196  0.8964
 5057SOL     OW26629   1.543   0.938   5.803 -0.2938  0.1914 -0.4462
 5057SOL    HW126630   1.485   0.991   5.858 -2.2349 -1.6048 -0.7558
 5057SOL    HW226631   1.496   0.855   5.798  2.1285 -1.3693  3.6670
 5058SOL     OW26632   4.087   2.256   3.526 -0.5327  0.1250 -0.8672
 5058SOL    HW126633   4.049   2.243   3.613  0.7549  0.0440 -0.3155
 5058SOL    HW226634   4.179   2.277   3.543 -0.8135  0.3033  0.4444
 5059SOL     OW26635   4.534   2.986  11.692 -0.0980 -0.4641 -0.1960
 5059SOL    HW126636   4.536   3.041  11.770 -1.6017  0.5287 -0.8518
 5059SOL    HW226637   4.479   2.913  11.721 -0.7950  0.4282  0.7245
 5060SOL     OW26638   4.703   3.364  13.237  0.2012  0.0234  0.2950
 5060SOL    HW126639   4.618   3.326  13.215  1.0190 -1.0561 -1.0083
 5060SOL    HW226640   0.036   3.288  13.249 -0.2543 -0.6702 -1.8400
 5061SOL     OW26641   2.310   4.246  12.941 -0.2745  0.1712  0.2151
 5061SOL    HW126642   2.355   4.273  12.861  3.1467  2.4079  2.8299
 5061SOL    HW226643   2.373   4.259  13.012 -1.2585  2.5773  0.6378
 5062SOL     OW26644   1.695   4.311   7.251 -0.0723  0.3380  0.4621
 5062SOL    HW126645   1.669   4.271   7.334 -0.5421 -1.1844 -0.4035
 5062SOL    HW226646   1.613   4.341   7.211  0.2514 -2.1273 -2.0694
 5063SOL     OW26647   4.456   1.899   1.857 -0.4809  0.6463 -0.0115
 5063SOL    HW126648   4.367   1.881   1.888 -0.7583 -1.8337 -2.2581
 5063SOL    HW226649   4.481   1.813   1.823 -1.8872  0.1426  0.2115
 5064SOL     OW26650   1.808   0.717   8.614 -0.2603 -0.1125 -0.3363
 5064SOL    HW126651   1.772   0.643   8.565  1.2233  0.9587 -3.0169
 5064SOL    HW226652   1.736   0.780   8.612 -1.2173 -1.1230  1.9376
 5065SOL     OW26653   3.573   2.210   3.486  0.4823  0.0178 -0.1147
 5065SOL    HW126654   3.508   2.146   3.456 -0.0947  1.3962 -1.7701
 5065SOL    HW226655   3.653   2.164   3.512  0.2948  0.2093  0.8221
 5066SOL     OW26656   2.637   0.293  16.259  0.1309  0.0394  0.3310
 5066SOL    HW126657   2.579   0.278  16.334  0.5204 -1.0870  0.4154
 5066SOL    HW226658   2.713   0.239  16.281  0.7794 -0.3648 -3.0563
 5067SOL     OW26659   2.709   2.603  10.378  0.7372  0.5460  0.1598
 5067SOL    HW126660   2.686   2.511  10.375  3.3092 -0.1162  0.5714
 5067SOL    HW226661   2.778   2.596  10.312 -0.5036 -1.1644 -0.9496
 5068SOL     OW26662   0.798   1.662   2.404 -0.0059 -0.2218 -0.4355
 5068SOL    HW126663   0.854   1.643   2.479  0.0350 -1.7597 -0.8646
 5068SOL    HW226664   0.722   1.609   2.424  1.7197 -2.8879 -0.9866
 5069SOL     OW26665   3.414   1.824   6.017  0.2568 -0.4491  0.2106
 5069SOL    HW126666   3.498   1.844   6.057  0.3075  0.0491 -0.1323
 5069SOL    HW226667   3.411   1.890   5.947 -1.7951 -1.3550 -0.5569
 5070SOL     OW26668   4.026   0.513   5.794 -0.4431 -0.1965 -0.5009
 5070SOL    HW126669   4.035   0.607   5.783 -0.6846  0.0179  1.1639
 5070SOL    HW226670   3.952   0.493   5.851 -0.0926 -1.6219 -0.5369
 5071SOL     OW26671   2.872   3.162   4.915  0.0273 -0.1032  0.1640
 5071SOL    HW126672   2.939   3.095   4.900 -0.1203 -0.0057 -0.9378
 5071SOL    HW226673   2.803   3.098   4.935  1.0416 -0.5083  2.3199
 5072SOL     OW26674   0.135   0.095   5.622 -0.0146 -0.2162 -0.1483
 5072SOL    HW126675   0.126   0.067   5.531 -0.2946  1.0074 -0.4937
 5072SOL    HW226676   0.219   0.141   5.628 -0.5110  0.9580 -2.1249
 5073SOL     OW26677   3.138   0.757   5.770  0.2323  0.4041 -0.0687
 5073SOL    HW126678   3.154   0.847   5.742 -0.5112  0.4604 -0.3121
 5073SOL    HW226679   3.213   0.718   5.725  0.0515  2.7446 -2.3594
 5074SOL     OW26680   2.314   4.119   3.320  0.1072 -0.2103  0.1096
 5074SOL    HW126681   2.238   4.092   3.371 -0.8014 -1.2626 -1.7752
 5074SOL    HW226682   2.310   4.210   3.348 -0.7259 -0.3876  0.5372
 5075SOL     OW26683   0.112   0.115   7.774  0.7132  0.6639  0.0242
 5075SOL    HW126684   0.122   0.078   7.861  0.0014  1.4046  0.4147
 5075SOL    HW226685   0.067   0.195   7.800  0.1221  0.7665 -1.2713
 5076SOL     OW26686   1.520   3.570   7.636 -0.2193 -0.4561 -0.0737
 5076SOL    HW126687   1.592   3.610   7.684  1.1192 -1.6873 -1.0751
 5076SOL    HW226688   1.565   3.501   7.589 -0.2987  0.6296 -1.7626
 5077SOL     OW26689   2.151   4.581   7.081 -0.1328 -0.7070 -0.1861
 5077SOL    HW126690   2.165   4.579   6.987  2.2614  0.3615  0.1363
 5077SOL    HW226691   2.101   4.502   7.098  2.2809 -1.6106  2.7198
 5078SOL     OW26692   2.073   3.571   8.522 -0.1764  0.2743  0.1926
 5078SOL    HW126693   2.020   3.631   8.469 -0.4721 -0.7366 -0.6385
 5078SOL    HW226694   2.101   3.505   8.459 -1.2109  1.4943 -1.5535
 5079SOL     OW26695   4.103   1.743  13.646  0.2933 -0.0358  0.3541
 5079SOL    HW126696   4.009   1.755  13.630  0.3315 -1.7258 -1.1633
 5079SOL    HW226697   4.110   1.772  13.737  0.5634 -1.2964  0.7243
 5080SOL     OW26698   0.013   2.106   9.975 -0.2636  0.1427  0.3026
 5080SOL    HW126699   0.019   2.193   9.935 -0.5461 -1.9725 -4.3447
 5080SOL    HW226700   4.655   2.069   9.940  1.4888 -2.5926 -0.8182
 5081SOL     OW26701   4.514   1.976  14.841  0.7080 -0.1355 -0.0317
 5081SOL    HW126702   4.502   1.985  14.746  2.1561  2.0035 -0.0204
 5081SOL    HW226703   4.444   2.031  14.876  1.0413  0.1495  0.1922
 5082SOL     OW26704   3.930   0.566   3.316 -0.1168 -0.3266 -0.6415
 5082SOL    HW126705   3.967   0.596   3.233 -0.7095  1.7251 -0.1444
 5082SOL    HW226706   3.993   0.500   3.347  2.1978  2.4505  0.5542
 5083SOL     OW26707   2.106   4.180   8.272  0.0082 -0.2945  0.1008
 5083SOL    HW126708   2.091   4.228   8.353  1.1115  0.5795 -0.2100
 5083SOL    HW226709   2.144   4.096   8.299  2.7396  1.4532  1.6091
 5084SOL     OW26710   0.063   1.624   3.496 -0.2950  0.1902  0.0711
 5084SOL    HW126711   0.024   1.557   3.552  1.0326 -0.5993  0.0396
 5084SOL    HW226712   0.000   1.696   3.485 -0.2040  0.1438 -0.7635
 5085SOL     OW26713   0.272   0.097   4.525  0.0590  0.1037 -0.0565
 5085SOL    HW126714   0.365   0.073   4.523 -0.4256 -1.8008  0.4759
 5085SOL    HW226715   0.229   0.041   4.460  1.1711 -0.0932 -0.6308
 5086SOL     OW26716   0.540   4.589  15.681 -0.2544  0.7309  0.0023
 5086SOL    HW126717   0.614   4.587  15.620  0.8786 -0.6961  1.4054
 5086SOL    HW226718   0.568   4.655  15.743 -0.2554  1.6045 -0.9260
 5087SOL     OW26719   2.037   3.306   4.211  0.7662  0.7861  0.1297
 5087SOL    HW126720   2.059   3.389   4.168 -1.5431  0.7176 -1.1498
 5087SOL    HW226721   2.098   3.242   4.175  0.4404  1.2682 -1.2902
 5088SOL     OW26722   3.159   0.599   7.116 -0.5517 -0.0793 -0.6689
 5088SOL    HW126723   3.157   0.645   7.200 -0.9972  2.1623 -1.8891
 5088SOL    HW226724   3.172   0.508   7.143 -3.2890 -0.4044 -0.4915
 5089SOL     OW26725   4.148   2.433   9.408  0.1210  0.1484  0.6883
 5089SOL    HW126726   4.189   2.491   9.472  0.5765 -0.1393  0.6569
 5089SOL    HW226727   4.213   2.363   9.414 -1.5713 -1.4804 -0.0981
 5090SOL     OW26728   2.453   0.703   9.307 -0.2730  0.4946 -0.0450
 5090SOL    HW126729   2.358   0.714   9.313 -0.4289 -1.2615  0.7894
 5090SOL    HW226730   2.479   0.789   9.274 -1.8838  0.1781 -2.1742
 5091SOL     OW26731   3.477   0.879   2.408  0.0238 -0.2806 -0.2759
 5091SOL    HW126732   3.448   0.948   2.468 -3.8669 -0.8359 -1.5170
 5091SOL    HW226733   3.392   0.836   2.398  0.0631 -0.4117 -0.0525
 5092SOL     OW26734   3.364   2.913   0.805 -0.2153  0.1677 -0.1229
 5092SOL    HW126735   3.398   2.882   0.889 -1.2207  1.8288  0.9013
 5092SOL    HW226736   3.449   2.953   0.785 -0.3569  0.2274 -0.6152
 5093SOL     OW26737   3.501   4.336  13.312  0.6335  0.4543  0.2015
 5093SOL    HW126738   3.578   4.381  13.277 -0.0676  0.7117 -1.0010
 5093SOL    HW226739   3.494   4.258  13.257  0.5753 -0.4930  1.5433
 5094SOL     OW26740   1.817   2.531   7.480  0.1084 -0.4891  0.4909
 5094SOL    HW126741   1.870   2.561   7.407 -0.6719 -0.0414  0.1142
 5094SOL    HW226742   1.731   2.513   7.442 -0.7662 -1.4154  2.8616
 5095SOL     OW26743   1.281   3.187  15.738  0.3419 -0.7755 -0.4855
 5095SOL    HW126744   1.329   3.104  15.737 -0.2291 -1.1358  3.1155
 5095SOL    HW226745   1.198   3.155  15.773  0.6321  0.7675  1.5796
 5096SOL     OW26746   0.884   1.630   8.561  0.4591  0.2815 -0.3037
 5096SOL    HW126747   0.822   1.680   8.614 -0.8719 -0.9829 -0.6544
 5096SOL    HW226748   0.870   1.680   8.480  0.7964 -1.4055 -1.3837
 5097SOL     OW26749   3.946   3.813   8.495 -0.4319  0.4629  0.1056
 5097SOL    HW126750   4.011   3.770   8.550  1.9783  2.1080 -1.4888
 5097SOL    HW226751   3.970   3.783   8.408 -3.3398  3.1023 -1.6261
 5098SOL     OW26752   4.504   0.196   4.364  0.2289 -0.3645 -0.1349
 5098SOL    HW126753   4.569   0.250   4.320 -0.1813 -0.5372 -0.9540
 5098SOL    HW226754   4.522   0.208   4.457  1.7452 -0.2202 -0.4433
 5099SOL     OW26755   3.346   1.751   7.740  0.4996 -0.1182  0.4390
 5099SOL    HW126756   3.354   1.659   7.765 -0.9973 -0.2913  0.2940
 5099SOL    HW226757   3.377   1.744   7.649 -2.3386  0.3116 -0.5571
 5100SOL     OW26758   0.212   3.092   5.966 -0.4114 -0.9872  1.4895
 5100SOL    HW126759   0.152   3.078   5.893  0.6318  1.0660  0.2539
 5100SOL    HW226760   0.159   3.056   6.038 -1.2164  0.7602  1.7847
 5101SOL     OW26761   2.132   2.189  11.314 -0.1052  0.2669 -0.0617
 5101SOL    HW126762   2.167   2.100  11.314 -0.0197  0.3151  2.0316
 5101SOL    HW226763   2.072   2.199  11.388 -3.0693  0.6234 -2.5222
 5102SOL     OW26764   1.611   1.579   8.396  0.1256 -0.1133 -0.4086
 5102SOL    HW126765   1.577   1.491   8.407 -0.9835  0.2591 -0.9099
 5102SOL    HW226766   1.668   1.568   8.319 -1.1052 -2.3576 -0.9940
 5103SOL     OW26767   1.369   0.587   0.222  0.0376  0.1624  0.2542
 5103SOL    HW126768   1.296   0.574   0.281 -1.8743 -0.9432 -2.3671
 5103SOL    HW226769   1.421   0.507   0.231 -0.2960 -0.3464 -2.2016
 5104SOL     OW26770   1.104   1.737  13.526  0.0015  0.0317 -0.2135
 5104SOL    HW126771   1.112   1.832  13.520  0.3617  0.0593  0.6402
 5104SOL    HW226772   1.147   1.714  13.444  2.4998  3.0369  0.2850
 5105SOL     OW26773   1.594   0.052   4.163  0.5650  0.2025 -0.5524
 5105SOL    HW126774   1.525   0.038   4.098  0.5632 -1.5239 -0.1856
 5105SOL    HW226775   1.554   0.126   4.209 -0.4185 -1.3734  1.1061
 5106SOL     OW26776   1.193   3.330   4.344  0.4565  0.1155 -0.3500
 5106SOL    HW126777   1.138   3.396   4.387 -0.3225 -0.5721 -0.2893
 5106SOL    HW226778   1.242   3.393   4.292  2.2471 -1.4812 -0.5846
 5107SOL     OW26779   0.785   0.973   4.527  0.3120  0.1151 -0.1766
 5107SOL    HW126780   0.771   1.017   4.443 -2.4061 -1.9853 -0.8352
 5107SOL    HW226781   0.866   0.930   4.500 -1.2296 -2.4295 -0.6971
 5108SOL     OW26782   2.112   0.984  17.091 -0.4471 -0.1084  0.1772
 5108SOL    HW126783   2.017   0.974  17.099 -0.4247 -2.1490 -2.0950
 5108SOL    HW226784   2.133   0.947  17.177  1.8337  0.3541 -0.2026
 5109SOL     OW26785   4.628   2.092   1.770 -0.5213 -0.1227 -0.6781
 5109SOL    HW126786   4.580   2.175   1.765 -0.6000 -0.1362 -0.1870
 5109SOL    HW226787   4.563   2.038   1.815  0.1056  0.5127  1.0095
 5110SOL     OW26788   0.198   2.033   1.799  0.1201 -0.0371 -0.5695
 5110SOL    HW126789   0.228   2.104   1.743  0.5569  0.1312 -0.1266
 5110SOL    HW226790   0.105   2.047   1.785 -0.1322 -2.6524 -1.5653
 5111SOL     OW26791   1.788   3.618   6.891 -0.2906  0.4945 -0.9407
 5111SOL    HW126792   1.812   3.708   6.868 -1.1088  0.8440 -0.3909
 5111SOL    HW226793   1.791   3.619   6.986  1.5219  1.3778 -1.0111
 5112SOL     OW26794   2.960   1.472   7.591  0.3087 -0.4265 -0.2161
 5112SOL    HW126795   3.007   1.476   7.674 -0.6156  0.5041  0.2650
 5112SOL    HW226796   2.940   1.565   7.579 -1.8179 -0.7295  0.8727
 5113SOL     OW26797   2.747   3.068   0.014  0.3482 -0.2098  0.3869
 5113SOL    HW126798   2.659   3.036  17.686  1.3475 -1.9652 -1.0508
 5113SOL    HW226799   2.780   2.985   0.050  1.5971  0.8627  1.7000
 5114SOL     OW26800   0.143   2.855   4.549  0.3095  0.0159 -0.5353
 5114SOL    HW126801   0.062   2.805   4.556  1.4784 -2.1724 -2.9101
 5114SOL    HW226802   0.099   2.939   4.557  1.3002  0.3497  1.3866
 5115SOL     OW26803   3.127   3.484   3.040 -0.0797  0.3348  0.0710
 5115SOL    HW126804   3.186   3.421   2.999 -2.0947 -0.7499 -1.1383
 5115SOL    HW226805   3.066   3.504   2.969 -1.5560 -1.5696  0.8135
 5116SOL     OW26806   2.120   2.006   6.158  0.1047  0.2293  0.2854
 5116SOL    HW126807   2.155   1.955   6.231  1.0342 -2.0375 -1.7279
 5116SOL    HW226808   2.026   2.011   6.174 -0.1933 -1.3728 -0.9706
 5117SOL     OW26809   0.997   1.168   5.634  0.1230  0.9058 -0.3328
 5117SOL    HW126810   1.056   1.097   5.609 -1.3997  0.0902 -1.6405
 5117SOL    HW226811   0.921   1.122   5.669  0.2940 -1.0937 -2.5768
 5118SOL     OW26812   4.283   3.030   8.333  0.4015  0.3568  0.1607
 5118SOL    HW126813   4.245   3.116   8.351  2.4072  1.6182 -1.5554
 5118SOL    HW226814   4.371   3.066   8.317 -0.8802  3.4930  0.0224
 5119SOL     OW26815   1.429   4.249   8.498  0.0380 -0.4371  0.1245
 5119SOL    HW126816   1.501   4.249   8.561 -0.7929 -2.4718  1.0713
 5119SOL    HW226817   1.454   4.331   8.454 -0.0723  1.0222  2.7947
 5120SOL     OW26818   3.821   2.591   2.870  0.1978 -0.0991  0.4650
 5120SOL    HW126819   3.881   2.648   2.822 -1.4648  0.7567 -0.5887
 5120SOL    HW226820   3.854   2.604   2.959 -0.9920  0.2987  0.8475
 5121SOL     OW26821   2.953   1.654   6.583  0.0828  0.2972 -0.5464
 5121SOL    HW126822   3.019   1.586   6.569 -0.6184 -0.2919 -0.9607
 5121SOL    HW226823   2.955   1.704   6.502  0.1607 -2.1049 -2.0080
 5122SOL     OW26824   2.128   4.013   3.757  0.2327 -0.1085 -0.1498
 5122SOL    HW126825   2.185   3.944   3.724  2.0251  0.1502  2.3532
 5122SOL    HW226826   2.162   4.083   3.701 -0.4160  1.3747  1.2913
 5123SOL     OW26827   3.559   0.465   4.082 -0.0862  0.0661 -0.2162
 5123SOL    HW126828   3.596   0.547   4.049  0.4025  0.6737  1.8509
 5123SOL    HW226829   3.596   0.446   4.168 -0.1874  3.4569  0.5620
 5124SOL     OW26830   2.688   2.687   9.515  0.0173 -0.3119 -0.0499
 5124SOL    HW126831   2.760   2.686   9.452  1.2145  3.1169  1.2917
 5124SOL    HW226832   2.681   2.599   9.552  1.3706 -0.3586  0.0691
 5125SOL     OW26833   2.952   0.680   6.644 -0.0444  0.7365 -0.1512
 5125SOL    HW126834   2.868   0.653   6.679 -0.2181  1.9243  0.3381
 5125SOL    HW226835   3.006   0.707   6.718  1.6029 -0.1527 -1.0154
 5126SOL     OW26836   3.169   3.580   7.737 -0.6659 -0.6978 -0.1532
 5126SOL    HW126837   3.256   3.574   7.776 -1.0796  0.5208  0.9494
 5126SOL    HW226838   3.195   3.617   7.652 -0.0313  0.4607  0.5428
 5127SOL     OW26839   2.317   3.119  14.383 -0.3517 -0.4888  0.6641
 5127SOL    HW126840   2.314   3.040  14.329  0.3674 -1.0546  1.4691
 5127SOL    HW226841   2.307   3.076  14.467 -0.6204  2.3044  2.0607
 5128SOL     OW26842   0.375   0.747   5.354  0.0262  0.3845  0.2863
 5128SOL    HW126843   0.407   0.828   5.394  1.3780 -1.2383  2.4519
 5128SOL    HW226844   0.463   0.725   5.326 -0.0261  0.2621  0.2168
 5129SOL     OW26845   4.084   3.774   0.303  0.1722 -0.2791 -0.0490
 5129SOL    HW126846   4.102   3.768   0.397  2.5770 -0.0428 -0.4846
 5129SOL    HW226847   4.170   3.751   0.267  0.4392 -0.4829  0.7060
 5130SOL     OW26848   4.204   1.970   9.864  0.6896  0.5983 -0.0641
 5130SOL    HW126849   4.139   2.040   9.859 -0.8122 -0.6950  1.2603
 5130SOL    HW226850   4.207   1.939   9.955 -0.1543  1.4587  0.2481
 5131SOL     OW26851   0.548   0.810  11.809 -0.8033  0.1451 -0.5053
 5131SOL    HW126852   0.635   0.786  11.778 -0.5204  1.6900 -0.9529
 5131SOL    HW226853   0.563   0.803  11.903  1.8891 -1.9547 -1.1110
 5132SOL     OW26854   3.512   0.367   5.480  0.4682  0.2039  0.4255
 5132SOL    HW126855   3.447   0.349   5.549  1.4079 -0.0658  1.2297
 5132SOL    HW226856   3.458   0.406   5.411 -0.2831 -1.8847 -0.1672
 5133SOL     OW26857   2.279   1.327  16.824 -0.0301 -0.2570  0.3744
 5133SOL    HW126858   2.319   1.368  16.900  1.9813  0.0407 -0.8517
 5133SOL    HW226859   2.283   1.237  16.857 -1.0675  0.9919  3.9068
 5134SOL     OW26860   3.232   3.909   2.202 -0.0765  0.0590 -0.2039
 5134SOL    HW126861   3.294   3.866   2.260  1.2036  2.1956  0.0074
 5134SOL    HW226862   3.255   3.869   2.119  2.3164 -0.7987  0.8803
 5135SOL     OW26863   4.190   2.998   6.890  0.4532 -0.0458 -0.0132
 5135SOL    HW126864   4.109   2.948   6.880  1.1116 -0.4167 -3.4140
 5135SOL    HW226865   4.191   3.017   6.984  0.8492  0.6586 -0.1556
 5136SOL     OW26866   1.701   1.064   0.051 -0.4028 -0.1435 -0.1104
 5136SOL    HW126867   1.709   1.032   0.141 -1.1065  1.7716  0.6296
 5136SOL    HW226868   1.776   1.014   0.019 -1.0799 -0.6080 -0.9838
 5137SOL     OW26869   1.233   0.699  15.788 -0.4130  0.5185  0.4460
 5137SOL    HW126870   1.284   0.655  15.720  0.5237 -0.8225  2.0039
 5137SOL    HW226871   1.215   0.621  15.840  3.5825 -1.2961 -0.8432
 5138SOL     OW26872   2.550   3.544  13.893  0.4194 -0.3295  0.0870
 5138SOL    HW126873   2.603   3.501  13.960  0.7314  1.7847  1.2148
 5138SOL    HW226874   2.474   3.591  13.928 -0.2022 -1.2954  0.0264
 5139SOL     OW26875   2.855   1.990   5.717  0.0071 -0.2313  0.3523
 5139SOL    HW126876   2.950   1.985   5.728 -0.2052 -2.4879  1.2288
 5139SOL    HW226877   2.856   2.080   5.685 -0.1799 -0.5971 -0.6726
 5140SOL     OW26878   2.474   1.570   6.618  0.4462 -0.0086 -0.2888
 5140SOL    HW126879   2.446   1.486   6.654  0.8494 -1.0212 -2.3553
 5140SOL    HW226880   2.393   1.613   6.645 -0.0454 -0.8283 -0.4829
 5141SOL     OW26881   2.359   3.993   8.127 -0.0071  0.3115 -0.1831
 5141SOL    HW126882   2.442   4.025   8.163  0.7385 -0.0827 -1.5651
 5141SOL    HW226883   2.295   4.011   8.196  1.2414  1.2805  0.7078
 5142SOL     OW26884   0.484   2.506   2.431 -0.2623  0.3603 -0.6737
 5142SOL    HW126885   0.578   2.511   2.451 -0.6871 -0.3293  1.5318
 5142SOL    HW226886   0.456   2.587   2.474  0.4249  0.1340  0.1960
 5143SOL     OW26887   4.509   2.547  12.881 -0.0111  0.1182  0.4633
 5143SOL    HW126888   4.545   2.626  12.922 -0.3575  0.0480  0.9061
 5143SOL    HW226889   4.588   2.531  12.829 -1.3070 -1.2414 -1.0922
 5144SOL     OW26890   3.686   3.900  14.686 -0.6827  0.2115 -0.9238
 5144SOL    HW126891   3.651   3.976  14.641 -1.0042  1.3132  1.2221
 5144SOL    HW226892   3.633   3.831  14.645 -0.8530  0.5238 -1.2314
 5145SOL     OW26893   0.026   4.249   8.097 -0.2019  0.3341 -0.2716
 5145SOL    HW126894   4.684   4.294   8.152 -0.0088  0.6109 -0.2684
 5145SOL    HW226895   0.021   4.167   8.146 -0.4710  0.3484 -0.2762
 5146SOL     OW26896   0.151   2.250   5.772 -0.0240  1.0614  0.1534
 5146SOL    HW126897   0.231   2.303   5.774  1.2966 -0.9066 -1.0346
 5146SOL    HW226898   0.131   2.219   5.861 -0.0640  0.5403 -0.0398
 5147SOL     OW26899   0.414   2.358   5.835  0.7526  0.1634  0.3884
 5147SOL    HW126900   0.415   2.323   5.924  0.2734 -0.4380  0.1574
 5147SOL    HW226901   0.505   2.332   5.815  1.0144  1.2977  0.0990
 5148SOL     OW26902   2.097   0.364   4.097  0.2451  0.6437 -0.3825
 5148SOL    HW126903   2.190   0.353   4.078  0.4813  2.7336 -0.4713
 5148SOL    HW226904   2.080   0.339   4.188 -1.0946  0.4248 -0.6938
 5149SOL     OW26905   0.593   3.556  10.973  0.1515 -0.3556 -0.4624
 5149SOL    HW126906   0.560   3.538  10.885 -4.2263  0.9397  0.8896
 5149SOL    HW226907   0.551   3.488  11.026  2.7411  1.2891  3.7287
 5150SOL     OW26908   2.029   1.520   8.640 -0.3423 -0.1802  0.0085
 5150SOL    HW126909   1.984   1.438   8.661 -1.2764  0.6162  1.1687
 5150SOL    HW226910   2.071   1.542   8.724  1.3776  1.2022 -1.2050
 5151SOL     OW26911   2.372   0.045   5.269  0.3645  0.2881 -0.1293
 5151SOL    HW126912   2.369   0.131   5.310  1.0227 -1.9469  4.5353
 5151SOL    HW226913   2.448   0.009   5.315 -0.1176 -0.3682  0.1494
 5152SOL     OW26914   3.316   0.301   4.367 -0.1282  0.3693  0.1972
 5152SOL    HW126915   3.384   0.324   4.430  0.3841  0.1074 -0.2531
 5152SOL    HW226916   3.264   0.381   4.364  0.1129  0.4685 -1.6393
 5153SOL     OW26917   0.530   0.609   4.558 -0.2373  0.0157 -0.5326
 5153SOL    HW126918   0.529   0.519   4.523 -0.9985  0.2689 -1.1384
 5153SOL    HW226919   0.495   0.591   4.645  0.0395 -2.2442 -0.8707
 5154SOL     OW26920   0.671   0.471   8.778 -0.3822  0.1385  0.0059
 5154SOL    HW126921   0.608   0.489   8.708 -1.0251 -0.2496  0.4886
 5154SOL    HW226922   0.615   0.496   8.851  0.6166  0.2790  0.7233
 5155SOL     OW26923   0.497   3.651   6.547  0.0669 -0.1803 -0.4309
 5155SOL    HW126924   0.520   3.716   6.614  0.9425 -2.5394  1.5829
 5155SOL    HW226925   0.563   3.673   6.482  0.2215 -1.3672 -0.6695
 5156SOL     OW26926   2.955   1.758   6.324 -0.3077 -0.2941  0.5838
 5156SOL    HW126927   2.887   1.819   6.296  1.2358  1.4666  0.7227
 5156SOL    HW226928   3.029   1.795   6.276 -1.0365  0.6214  0.1601
 5157SOL     OW26929   0.372   3.775   4.297  0.1171  0.2251 -0.3192
 5157SOL    HW126930   0.418   3.753   4.378  0.7750 -0.0696 -0.7723
 5157SOL    HW226931   0.287   3.785   4.339 -0.1568 -1.4395 -0.4820
 5158SOL     OW26932   3.492   0.434  12.980 -0.0540  0.7289 -0.0436
 5158SOL    HW126933   3.575   0.389  12.962 -0.9216 -0.6682 -0.5843
 5158SOL    HW226934   3.513   0.524  13.001 -3.7517  2.2504 -2.8575
 5159SOL     OW26935   2.021   2.023  12.757  0.0832 -0.3098 -0.0812
 5159SOL    HW126936   2.010   2.115  12.733  0.2101 -0.4715 -0.7702
 5159SOL    HW226937   1.941   1.990  12.716 -1.6291  1.8615  1.5215
 5160SOL     OW26938   4.472   3.064   3.955  0.7109 -0.1210 -0.3754
 5160SOL    HW126939   4.554   3.019   3.932  0.7178  1.0941 -2.6968
 5160SOL    HW226940   4.415   2.987   3.953 -1.2189  1.4524 -4.1394
 5161SOL     OW26941   2.107   2.009   5.852  0.4627  0.2772  0.3873
 5161SOL    HW126942   2.057   2.066   5.910 -1.3430  0.9063 -1.7775
 5161SOL    HW226943   2.195   2.024   5.888 -0.2723  2.8015  1.1275
 5162SOL     OW26944   0.568   1.843   4.065  0.0352  0.9294  0.3290
 5162SOL    HW126945   0.553   1.937   4.059  1.4958  1.0038 -1.9902
 5162SOL    HW226946   0.548   1.819   3.975  2.3827 -0.8267  0.2745
 5163SOL     OW26947   2.051   4.180   5.964  0.6852 -0.1987 -0.3788
 5163SOL    HW126948   2.039   4.164   5.871 -1.7589  0.8729 -0.2346
 5163SOL    HW226949   1.957   4.190   5.977  0.4699 -1.0915 -1.2342
 5164SOL     OW26950   3.100   2.751  13.204 -0.0897  0.2884  0.0569
 5164SOL    HW126951   3.065   2.839  13.219  1.7020  1.1520 -0.8490
 5164SOL    HW226952   3.124   2.743  13.111 -1.8033  0.5095 -0.3995
 5165SOL     OW26953   2.288   0.702  13.365 -0.4124 -0.5487  0.5451
 5165SOL    HW126954   2.267   0.750  13.286 -3.2441 -0.2568  1.4526
 5165SOL    HW226955   2.383   0.712  13.370 -0.3936 -0.6257  0.3259
 5166SOL     OW26956   3.438   1.841   3.033 -0.1639  0.3033  0.1517
 5166SOL    HW126957   3.445   1.801   2.946  1.8637 -0.1935  0.5590
 5166SOL    HW226958   3.507   1.907   3.033 -0.7419  0.9225  2.0728
 5167SOL     OW26959   3.429   2.444   9.516  0.5748  0.3327  0.2927
 5167SOL    HW126960   3.505   2.495   9.488  0.7133 -0.2591 -0.4288
 5167SOL    HW226961   3.373   2.456   9.439 -0.9406 -0.3985  1.2839
 5168SOL     OW26962   0.317   2.717   6.585  0.1931  0.0238  0.1092
 5168SOL    HW126963   0.254   2.645   6.587  1.0982 -0.8073 -0.8268
 5168SOL    HW226964   0.272   2.771   6.520  0.8972 -0.8269 -1.0960
 5169SOL     OW26965   2.641   2.776  16.618  0.6294 -0.1626  0.6018
 5169SOL    HW126966   2.692   2.799  16.540 -0.9496 -0.5425 -0.5485
 5169SOL    HW226967   2.628   2.682  16.607  4.0499 -0.7913  2.0870
 5170SOL     OW26968   1.474   2.265   2.269  0.1398  0.4032 -0.4626
 5170SOL    HW126969   1.435   2.350   2.287 -1.2516 -0.4426  0.5856
 5170SOL    HW226970   1.395   2.223   2.234 -1.3677  2.2838  0.6539
 5171SOL     OW26971   0.550   3.826   7.283  0.1236 -0.0073 -0.6161
 5171SOL    HW126972   0.460   3.833   7.315  0.6017  1.1757  0.4573
 5171SOL    HW226973   0.540   3.737   7.249 -1.2482 -0.2274  0.4095
 5172SOL     OW26974   3.311   0.506   4.624 -0.7063  0.5303 -0.5107
 5172SOL    HW126975   3.269   0.499   4.539  1.3525 -1.1218 -1.3941
 5172SOL    HW226976   3.228   0.524   4.669 -0.4922  1.3562 -0.4399
 5173SOL     OW26977   0.308   1.259   3.249 -0.0942 -0.1045 -0.2275
 5173SOL    HW126978   0.315   1.353   3.268 -0.1100 -0.3270  0.8771
 5173SOL    HW226979   0.350   1.244   3.164 -1.9551 -4.1663 -0.4485
 5174SOL     OW26980   2.265   1.162   1.156  0.5523  0.7631  0.7531
 5174SOL    HW126981   2.336   1.098   1.146  3.1881  3.3435  2.8865
 5174SOL    HW226982   2.317   1.240   1.175 -0.6301  1.4511  1.1742
 5175SOL     OW26983   3.232   3.515   4.197 -0.0326 -0.3916 -0.2680
 5175SOL    HW126984   3.138   3.523   4.210  0.0066 -0.9257  0.3577
 5175SOL    HW226985   3.254   3.435   4.245 -0.3775 -0.5203 -0.3268
 5176SOL     OW26986   1.447   3.443   9.891  0.1337 -0.1407  0.1089
 5176SOL    HW126987   1.446   3.355   9.854  2.1809  0.1715 -0.6822
 5176SOL    HW226988   1.399   3.492   9.825  0.7721 -0.3011 -0.4789
 5177SOL     OW26989   0.036   3.007   4.264  0.1140 -1.2021 -0.0736
 5177SOL    HW126990   0.125   3.012   4.228 -0.2026 -2.9386 -1.0856
 5177SOL    HW226991   0.044   3.022   4.359  1.5292  3.4773 -0.9527
 5178SOL     OW26992   0.513   0.634   7.172 -0.1582  0.2386 -0.4905
 5178SOL    HW126993   0.477   0.560   7.122  0.6443 -0.2034 -0.4008
 5178SOL    HW226994   0.455   0.704   7.141 -1.2610 -1.0125 -1.2504
 5179SOL     OW26995   4.419   0.107  16.189 -0.0869  0.0568  0.3634
 5179SOL    HW126996   4.455   0.018  16.195  0.7219  0.3209 -0.5409
 5179SOL    HW226997   4.331   0.098  16.225 -0.1555 -0.7429 -0.0204
 5180SOL     OW26998   2.523   3.647   2.416  0.1292  0.4989 -0.0277
 5180SOL    HW126999   2.434   3.657   2.382  1.2557  2.1433 -2.4901
 5180SOL    HW227000   2.500   3.614   2.503  0.8362  0.6986  0.2314
 5181SOL     OW27001   3.669   0.139   4.173 -0.5166  0.1786 -0.1431
 5181SOL    HW127002   3.681   0.199   4.099 -3.3069  2.4307  1.2368
 5181SOL    HW227003   3.703   0.189   4.248 -0.6964 -0.9315  0.6724
 5182SOL     OW27004   3.966   0.923   2.213 -0.1967 -0.1752 -0.0993
 5182SOL    HW127005   4.029   0.881   2.155  2.8275  5.2306 -0.7295
 5182SOL    HW227006   3.909   0.849   2.235  0.3020 -0.7240 -0.6742
 5183SOL     OW27007   3.800   3.393  11.711 -0.5303  0.2345 -0.3860
 5183SOL    HW127008   3.847   3.359  11.635  0.6280 -1.7767  1.2540
 5183SOL    HW227009   3.726   3.441  11.673 -0.0376  1.1257 -0.2282
 5184SOL     OW27010   2.385   0.014   4.579  0.0963 -0.3504 -0.4342
 5184SOL    HW127011   2.454   4.673   4.563  0.6710 -0.8098  3.7646
 5184SOL    HW227012   2.388   0.070   4.502 -0.4014  1.0998  0.5998
 5185SOL     OW27013   2.701   1.562   6.459 -0.0128  0.3646  0.0320
 5185SOL    HW127014   2.625   1.583   6.513 -0.0856  0.2087 -0.0099
 5185SOL    HW227015   2.759   1.630   6.493  1.8059 -0.6501 -1.0380
 5186SOL     OW27016   0.212   0.735  15.261  0.3235 -0.2115  0.7903
 5186SOL    HW127017   0.120   0.709  15.270 -0.0612  0.4545 -1.0835
 5186SOL    HW227018   0.212   0.758  15.168 -0.3164  0.4769  0.9560
 5187SOL     OW27019   0.562   2.983   6.048 -0.2047  0.6356 -0.9343
 5187SOL    HW127020   0.526   2.936   6.124  0.8783 -1.1020 -1.4873
 5187SOL    HW227021   0.531   2.928   5.976 -2.8481  1.0394 -0.1163
 5188SOL     OW27022   4.375   2.282   6.334 -0.0754  0.0446  0.8581
 5188SOL    HW127023   4.366   2.302   6.427  3.8499 -2.7152  1.8616
 5188SOL    HW227024   4.305   2.333   6.294  0.5760  0.5465  0.3320
 5189SOL     OW27025   2.386   4.395   2.137  0.1847  1.1311 -0.5286
 5189SOL    HW127026   2.462   4.451   2.153 -2.1233  4.2581 -0.5646
 5189SOL    HW227027   2.408   4.332   2.206  1.3966  2.6649  0.4964
 5190SOL     OW27028   1.642   4.242   4.424  0.0637 -0.0311  0.0876
 5190SOL    HW127029   1.660   4.292   4.504  1.3660  1.1655 -0.9628
 5190SOL    HW227030   1.706   4.280   4.364 -0.6450 -1.9543 -1.8926
 5191SOL     OW27031   1.027   3.582   4.466  0.1206 -0.2935 -0.0094
 5191SOL    HW127032   0.996   3.659   4.513  0.2981 -0.0171 -0.3409
 5191SOL    HW227033   1.084   3.627   4.404 -1.3693  0.2051 -1.0197
 5192SOL     OW27034   3.008   3.790   9.454  0.8761  0.2719  0.5824
 5192SOL    HW127035   2.984   3.828   9.539 -3.2972 -0.8425 -0.0721
 5192SOL    HW227036   3.102   3.799   9.463  1.2552 -1.3894 -1.7425
 5193SOL     OW27037   0.188   1.207   1.612  0.4275 -0.8509 -0.0104
 5193SOL    HW127038   0.268   1.237   1.570 -0.9559 -0.6766 -2.5092
 5193SOL    HW227039   0.115   1.242   1.560  1.2267 -0.9668 -1.2011
 5194SOL     OW27040   2.346   3.177   9.005 -0.4664 -0.4918 -0.8346
 5194SOL    HW127041   2.251   3.163   8.997 -0.5146 -0.9792  0.4722
 5194SOL    HW227042   2.367   3.147   9.094  0.2015  0.5221 -0.6487
 5195SOL     OW27043   1.263   1.963   3.148 -0.3596 -0.0259  0.7261
 5195SOL    HW127044   1.344   2.011   3.168 -1.0906  1.5250 -0.0321
 5195SOL    HW227045   1.278   1.870   3.161 -0.5833  0.0841  1.7422
 5196SOL     OW27046   1.642   0.131   1.622 -0.4223  0.2745 -0.3290
 5196SOL    HW127047   1.572   0.163   1.678  0.8677  1.4899  0.6084
 5196SOL    HW227048   1.666   0.060   1.682 -0.6477 -0.0199 -0.5935
 5197SOL     OW27049   3.572   3.113   0.738 -0.1360 -0.3893 -0.3659
 5197SOL    HW127050   3.582   3.145   0.649  0.5192 -0.4448 -0.3138
 5197SOL    HW227051   3.509   3.172   0.778  1.4536  1.4085 -0.5296
 5198SOL     OW27052   0.902   4.131  14.035  0.3256  0.0629  0.3378
 5198SOL    HW127053   0.924   4.211  13.988  2.9482 -0.5098  0.5729
 5198SOL    HW227054   0.870   4.081  13.961  1.1557  0.7850 -0.5048
 5199SOL     OW27055   3.683   4.575   3.718 -0.1221 -0.4059  0.0364
 5199SOL    HW127056   3.615   4.527   3.671 -0.7761  2.3345 -1.8035
 5199SOL    HW227057   3.636   4.592   3.800 -1.8417 -0.5038 -0.9391
 5200SOL     OW27058   3.284   4.462   5.351 -0.0634  0.3693  0.0331
 5200SOL    HW127059   3.367   4.415   5.341 -0.5898 -1.1720  2.8385
 5200SOL    HW227060   3.222   4.401   5.312 -0.4330 -0.1402  1.3932
 5201SOL     OW27061   1.962   4.521   9.689 -0.1607 -0.4651  0.1888
 5201SOL    HW127062   1.928   4.512   9.600  2.2329 -1.8581 -0.5831
 5201SOL    HW227063   2.044   4.567   9.673 -0.9692  1.1889  0.7800
 5202SOL     OW27064   4.543   3.173   4.192 -0.1475  0.3787 -0.8986
 5202SOL    HW127065   4.480   3.143   4.127  0.9402  0.2497 -1.9016
 5202SOL    HW227066   4.591   3.090   4.203 -2.3184 -0.4745  2.1061
 5203SOL     OW27067   2.699   2.534   7.980 -0.1958  1.2042  0.1839
 5203SOL    HW127068   2.787   2.564   8.000  0.8135 -0.8070 -1.2916
 5203SOL    HW227069   2.662   2.541   8.068 -1.3981  0.3475 -0.2432
 5204SOL     OW27070   0.320   3.266   5.475  0.1277 -0.1605  0.5801
 5204SOL    HW127071   0.386   3.276   5.544  1.0920 -0.1592 -0.3391
 5204SOL    HW227072   0.347   3.202   5.409  0.2570 -0.4870  0.9518
 5205SOL     OW27073   0.474   2.870   4.091 -0.0354 -0.3283 -0.5038
 5205SOL    HW127074   0.455   2.862   4.185  1.0150  0.1161 -0.2548
 5205SOL    HW227075   0.570   2.865   4.083  0.1528 -0.4121  1.6652
 5206SOL     OW27076   0.243   3.169  11.275  0.6467 -0.3380  0.1606
 5206SOL    HW127077   0.176   3.236  11.265  2.3227  0.9674 -2.4780
 5206SOL    HW227078   0.259   3.166  11.369 -1.9459 -0.2779  0.6199
 5207SOL     OW27079   3.870   3.315   3.697  0.4941  0.1707 -0.3107
 5207SOL    HW127080   3.895   3.270   3.617  1.8856 -1.0353  0.8050
 5207SOL    HW227081   3.813   3.251   3.739  0.3284 -0.1400 -1.0069
 5208SOL     OW27082   0.263   2.212   7.713 -0.3600  0.2343  0.2009
 5208SOL    HW127083   0.188   2.267   7.691 -0.6755  0.1583  1.0994
 5208SOL    HW227084   0.267   2.212   7.809 -0.8785  1.8002  0.2304
 5209SOL     OW27085   2.078   2.662   8.747  0.4534 -0.4753  0.3026
 5209SOL    HW127086   2.105   2.625   8.831 -0.2929  2.0696  1.6400
 5209SOL    HW227087   2.031   2.589   8.707  1.1649 -0.8022  0.0540
 5210SOL     OW27088   2.623   4.154  17.418  0.3901 -0.3686 -0.3157
 5210SOL    HW127089   2.593   4.137  17.329  0.6777  1.6340 -0.7812
 5210SOL    HW227090   2.613   4.249  17.427  1.0948 -0.0865 -2.5118
 5211SOL     OW27091   0.796   0.926   3.279 -0.1878 -0.7396 -0.3989
 5211SOL    HW127092   0.851   0.956   3.351 -2.5533  2.0581  0.2360
 5211SOL    HW227093   0.707   0.946   3.306  0.6065  1.0705  0.9157
 5212SOL     OW27094   1.665   2.477   2.829  0.1207  0.2964 -0.2509
 5212SOL    HW127095   1.584   2.463   2.779 -0.5394  1.3536  0.5162
 5212SOL    HW227096   1.716   2.453   2.752  0.0610 -1.1736  0.1574
 5213SOL     OW27097   2.427   1.583   5.400 -0.0772 -0.1298  0.1912
 5213SOL    HW127098   2.428   1.524   5.324 -2.5939 -1.4264  1.1557
 5213SOL    HW227099   2.388   1.661   5.363 -1.0729 -1.7018 -2.0487
 5214SOL     OW27100   4.537   2.688   5.434 -0.8046 -0.4391  0.2841
 5214SOL    HW127101   4.483   2.729   5.501  0.1532 -0.2697  0.9618
 5214SOL    HW227102   4.618   2.736   5.453 -1.2232 -0.1006  1.1910
 5215SOL     OW27103   3.924   2.733  16.188 -0.3688 -0.2711 -0.2910
 5215SOL    HW127104   3.976   2.738  16.268 -2.5186 -1.2343  1.1396
 5215SOL    HW227105   3.882   2.818  16.195 -0.1182 -0.1385 -0.3763
 5216SOL     OW27106   4.341   0.410   0.766  0.3011  0.1284 -0.7445
 5216SOL    HW127107   4.428   0.417   0.805 -0.0789 -0.9969  0.3094
 5216SOL    HW227108   4.287   0.478   0.806  1.0940  1.0330 -1.2046
 5217SOL     OW27109   4.479   3.558   5.221  0.8380  0.2988  0.2141
 5217SOL    HW127110   4.448   3.473   5.253 -0.1042  0.1716 -1.0508
 5217SOL    HW227111   4.419   3.625   5.255 -0.5323 -0.6518 -0.3131
 5218SOL     OW27112   4.382   0.321   6.622 -0.1448  0.2075  0.0837
 5218SOL    HW127113   4.339   0.390   6.671 -0.2499 -0.6870  1.2492
 5218SOL    HW227114   4.390   0.262   6.697  0.8464  1.0519  0.6410
 5219SOL     OW27115   1.553   0.292  13.934 -0.1393 -0.6088 -0.2180
 5219SOL    HW127116   1.630   0.332  13.895 -0.9077  0.9662 -0.1124
 5219SOL    HW227117   1.483   0.329  13.880 -0.5637  1.6641  1.8640
 5220SOL     OW27118   0.496   3.709   7.961  0.4796  0.4149 -0.2678
 5220SOL    HW127119   0.509   3.742   7.872  1.4636  1.3153  0.2172
 5220SOL    HW227120   0.425   3.765   7.992  0.4230  0.3079 -0.2019
 5221SOL     OW27121   1.324   1.588   7.125  0.2487 -0.4460  0.4495
 5221SOL    HW127122   1.286   1.518   7.178 -1.7256  0.9377  0.8496
 5221SOL    HW227123   1.377   1.632   7.192  0.5706  0.2443 -0.2572
 5222SOL     OW27124   1.821   3.954  14.284 -0.4163  0.7801  0.0670
 5222SOL    HW127125   1.910   3.951  14.248 -0.1110 -0.0210  0.8749
 5222SOL    HW227126   1.844   3.963  14.377  1.0379 -2.0971 -0.0076
 5223SOL     OW27127   2.801   0.409  15.839  0.3548 -0.3588  0.3654
 5223SOL    HW127128   2.782   0.500  15.816 -1.0545  0.0227  3.0944
 5223SOL    HW227129   2.783   0.411  15.933  1.0847 -0.0759  0.4965
 5224SOL     OW27130   2.998   1.922   8.172 -0.1515 -0.0875  0.3793
 5224SOL    HW127131   2.929   1.863   8.142  0.2871 -0.5868  0.3575
 5224SOL    HW227132   3.050   1.957   8.099  0.1831 -2.3469 -0.4660
 5225SOL     OW27133   1.069   3.997   9.976  0.4353 -0.1911  0.7270
 5225SOL    HW127134   1.138   3.990  10.042 -0.1783 -3.3971  1.0094
 5225SOL    HW227135   0.995   4.006  10.036  0.2335  4.1421 -0.1774
 5226SOL     OW27136   2.883   2.356   3.070 -0.8277 -0.1868 -0.7076
 5226SOL    HW127137   2.789   2.338   3.062 -1.2744  2.2122 -0.8353
 5226SOL    HW227138   2.919   2.268   3.066 -1.2870 -0.3933 -0.3553
 5227SOL     OW27139   0.080   3.600  17.459 -0.2829  0.0390 -0.7074
 5227SOL    HW127140   0.150   3.598  17.393 -0.1066 -2.4784 -0.4391
 5227SOL    HW227141   0.078   3.693  17.483 -3.3596 -0.2861  0.2726
 5228SOL     OW27142   1.624   4.100   5.627  0.3219 -0.0299 -0.2025
 5228SOL    HW127143   1.539   4.111   5.670  0.6992 -0.0908  0.5544
 5228SOL    HW227144   1.609   4.039   5.555 -0.8805  1.5885 -1.3199
 5229SOL     OW27145   2.517   1.827   6.232  0.4930  0.3221  0.4468
 5229SOL    HW127146   2.557   1.808   6.147 -0.2618 -1.6068  0.5379
 5229SOL    HW227147   2.471   1.748   6.260 -1.8975  1.5168 -0.1288
 5230SOL     OW27148   2.382   0.714  14.138 -0.2010 -0.1171  0.4744
 5230SOL    HW127149   2.389   0.630  14.183  0.5287  0.5571  1.6187
 5230SOL    HW227150   2.390   0.689  14.046  1.7458  0.1356  0.5706
 5231SOL     OW27151   1.957   0.048   4.589  0.3676 -0.0685  0.4617
 5231SOL    HW127152   1.877   0.031   4.639  0.8115 -0.2592  1.1088
 5231SOL    HW227153   2.020   0.023   4.657  1.9430  1.1886 -0.5413
 5232SOL     OW27154   3.001   4.518  15.258  0.3170  0.0336 -0.4505
 5232SOL    HW127155   3.043   4.475  15.184 -0.6009 -1.7130  0.0236
 5232SOL    HW227156   3.023   4.609  15.240  2.2509  0.0495  2.0553
 5233SOL     OW27157   1.683   4.099   6.663  0.1304 -0.1694  0.9388
 5233SOL    HW127158   1.778   4.107   6.654 -0.0382  0.4358 -0.3403
 5233SOL    HW227159   1.653   4.172   6.609  1.7791  0.1916  0.4839
 5234SOL     OW27160   0.594   3.192   8.968 -0.0684 -0.5028 -0.5302
 5234SOL    HW127161   0.676   3.239   8.950  0.3527 -0.8936  0.3464
 5234SOL    HW227162   0.624   3.121   9.025  0.5989 -0.2426 -0.5552
 5235SOL     OW27163   4.676   0.276  14.051 -0.3689 -0.4355  0.2848
 5235SOL    HW127164   4.592   0.322  14.058 -0.1714 -0.0034 -0.1568
 5235SOL    HW227165   4.652   0.191  14.013 -1.1756 -0.4728  0.8818
 5236SOL     OW27166   0.686   2.814   5.622  0.0435 -0.3902  0.5441
 5236SOL    HW127167   0.595   2.811   5.652  0.4984 -2.0069  1.7785
 5236SOL    HW227168   0.690   2.748   5.553  2.3731 -0.7397  1.0405
 5237SOL     OW27169   1.142   2.687   8.598  0.4641 -0.3790 -0.3525
 5237SOL    HW127170   1.217   2.635   8.569 -0.1820 -0.3234 -2.1332
 5237SOL    HW227171   1.068   2.648   8.551 -0.3723  1.4082 -0.5344
 5238SOL     OW27172   1.824   2.314  17.549 -0.4381 -0.3929  0.1373
 5238SOL    HW127173   1.793   2.396  17.587 -0.0512 -1.0732  1.8909
 5238SOL    HW227174   1.904   2.344  17.507  0.4928 -0.3105  1.9930
 5239SOL     OW27175   4.028   4.187   5.992  0.4450  0.0562 -0.3263
 5239SOL    HW127176   4.030   4.263   6.050  1.4531  0.4863 -0.9304
 5239SOL    HW227177   3.959   4.132   6.032  0.9469  0.2468  0.7965
 5240SOL     OW27178   1.996   3.481   5.370  0.0482 -0.2227  0.5346
 5240SOL    HW127179   2.033   3.404   5.414 -1.9534 -1.1132  0.6552
 5240SOL    HW227180   2.068   3.487   5.307 -0.5755 -1.4733 -0.2998
 5241SOL     OW27181   1.646   3.301   2.805  0.0346 -0.6072  0.3294
 5241SOL    HW127182   1.602   3.347   2.734  1.3709 -0.8591 -0.6745
 5241SOL    HW227183   1.733   3.293   2.765  0.6419 -2.0956  1.9474
 5242SOL     OW27184   4.405   3.309   5.311 -0.0251 -0.0157 -0.2032
 5242SOL    HW127185   4.485   3.265   5.285  0.2367  0.2630  0.1212
 5242SOL    HW227186   4.443   3.342   5.393 -1.3110  0.0534  0.3700
 5243SOL     OW27187   0.531   3.706  16.056 -0.0180  0.3369 -0.1876
 5243SOL    HW127188   0.607   3.681  16.108 -1.3454  0.4356  1.7982
 5243SOL    HW227189   0.513   3.629  16.002  0.2902 -1.1547  1.8354
 5244SOL     OW27190   2.304   0.818  13.112  0.2773 -0.2295 -0.6720
 5244SOL    HW127191   2.389   0.777  13.096  1.2924  1.1411  1.2156
 5244SOL    HW227192   2.253   0.782  13.039 -2.6105 -1.1188  1.7585
 5245SOL     OW27193   0.743   2.055  12.392 -0.3664  0.7815  0.3732
 5245SOL    HW127194   0.828   2.098  12.391  1.1990 -2.2995  0.3758
 5245SOL    HW227195   0.691   2.104  12.328  0.7732  0.3138 -0.9073
 5246SOL     OW27196   2.493   2.485   0.951 -0.2532 -0.5321 -0.6671
 5246SOL    HW127197   2.482   2.562   1.008 -1.3836 -1.9308  0.9870
 5246SOL    HW227198   2.585   2.465   0.969 -0.6470 -3.3958 -1.8665
 5247SOL     OW27199   2.410   2.287  11.381  0.2143 -0.0295  0.2348
 5247SOL    HW127200   2.384   2.379  11.384  2.5250  0.6914 -1.6333
 5247SOL    HW227201   2.345   2.251  11.321 -2.1492  0.4759  2.4995
 5248SOL     OW27202   4.402   2.691   7.457  0.0025  0.0407  0.3537
 5248SOL    HW127203   4.340   2.682   7.529 -0.0642  0.3739  0.3387
 5248SOL    HW227204   4.407   2.786   7.445  1.5650  0.0723  1.3023
 5249SOL     OW27205   2.255   2.578   0.439  0.0584 -0.8398 -0.1412
 5249SOL    HW127206   2.192   2.644   0.470  0.2583  0.1617 -1.8969
 5249SOL    HW227207   2.290   2.554   0.525 -1.9849 -3.2058  0.0582
 5250SOL     OW27208   2.731   0.041   3.859 -0.0009  0.1818 -0.2452
 5250SOL    HW127209   2.768   0.111   3.806  0.2996 -1.4247 -2.1553
 5250SOL    HW227210   2.796   4.696   3.847  0.6006  0.4129  1.6660
 5251SOL     OW27211   3.563   0.199  13.561 -0.3226  0.3236  0.1112
 5251SOL    HW127212   3.586   0.106  13.562 -0.4509  0.3049  2.5849
 5251SOL    HW227213   3.511   0.201  13.481  2.1851 -0.1275 -1.5001
 5252SOL     OW27214   3.117   2.817   6.393  0.4037 -0.4930  0.6639
 5252SOL    HW127215   3.129   2.855   6.306 -1.4949 -0.2432  0.5048
 5252SOL    HW227216   3.028   2.781   6.389  0.5377 -0.7686  0.1726
 5253SOL     OW27217   0.588   4.051  15.211 -0.4890  0.7031 -0.3814
 5253SOL    HW127218   0.662   4.085  15.262 -0.9191  1.6180 -0.3675
 5253SOL    HW227219   0.533   4.130  15.209  0.2989  1.2700  0.3807
 5254SOL     OW27220   4.594   1.794   8.469 -0.3401  0.2587  0.7287
 5254SOL    HW127221   4.500   1.783   8.483 -0.7945  0.8766 -1.8170
 5254SOL    HW227222   4.619   1.708   8.504 -0.9455 -0.3055 -0.2221
 5255SOL     OW27223   4.478   0.221   6.380 -0.3041 -0.2717 -0.3533
 5255SOL    HW127224   4.553   0.210   6.438 -0.1580 -1.0977 -0.7040
 5255SOL    HW227225   4.416   0.250   6.448  2.3042  0.2480  1.8019
 5256SOL     OW27226   4.051   1.111   7.196 -0.0611  0.0467 -0.9228
 5256SOL    HW127227   3.969   1.064   7.214  2.5755 -3.5093  1.8564
 5256SOL    HW227228   4.082   1.044   7.134 -1.7937  0.7611 -2.5804
 5257SOL     OW27229   0.805   4.051   8.944  0.4740  0.2139 -0.3299
 5257SOL    HW127230   0.737   4.090   8.997  0.4214  0.5455 -0.6416
 5257SOL    HW227231   0.834   3.976   8.996 -0.9694 -0.0047  0.1598
 5258SOL     OW27232   4.108   2.415  15.979  0.1979  0.5919 -0.1127
 5258SOL    HW127233   4.041   2.430  16.046  0.2602 -2.4371  0.6425
 5258SOL    HW227234   4.069   2.412  15.892  2.5583 -0.3714 -1.1275
 5259SOL     OW27235   4.373   2.203   3.663 -0.3432  0.0486  1.0621
 5259SOL    HW127236   4.389   2.140   3.734  1.0647  0.8159  1.4103
 5259SOL    HW227237   4.337   2.276   3.713  3.3769 -0.8699  5.0526
 5260SOL     OW27238   3.574   3.802  14.430 -0.3849  0.2647  0.6675
 5260SOL    HW127239   3.653   3.817  14.377  0.2216  0.3673  1.6103
 5260SOL    HW227240   3.501   3.833  14.376 -0.1319 -0.2242  0.0497
 5261SOL     OW27241   0.001   1.012   4.522  0.0583  0.4258  0.3268
 5261SOL    HW127242   4.636   0.982   4.503  0.3622  0.0916 -0.5949
 5261SOL    HW227243   0.037   1.025   4.434  2.0983  1.6166  1.3129
 5262SOL     OW27244   3.582   3.712  14.077 -0.2510  0.1948 -0.1035
 5262SOL    HW127245   3.580   3.804  14.053  0.3765  0.5835  1.3294
 5262SOL    HW227246   3.645   3.714  14.150  1.7314 -2.1351 -1.7430
 5263SOL     OW27247   1.647   1.150   4.434 -0.2049 -0.4746 -0.6524
 5263SOL    HW127248   1.565   1.186   4.468 -0.4921 -0.1622 -1.6804
 5263SOL    HW227249   1.610   1.086   4.373 -0.2532 -0.7550 -0.3262
 5264SOL     OW27250   0.401   0.625   6.824 -0.2223 -0.0255 -0.0376
 5264SOL    HW127251   0.351   0.631   6.905  0.6263 -1.0268  0.5506
 5264SOL    HW227252   0.317   0.644   6.781  0.3956 -0.4336 -1.4189
 5265SOL     OW27253   0.755   2.496   4.735 -0.0820 -0.3827  0.1302
 5265SOL    HW127254   0.754   2.400   4.729 -2.2821 -0.2641 -1.4427
 5265SOL    HW227255   0.768   2.510   4.642  1.8775 -1.8334  0.1746
 5266SOL     OW27256   4.256   4.186   2.774  0.6846  0.1092  0.3529
 5266SOL    HW127257   4.293   4.261   2.820 -0.1899  0.7833 -0.0540
 5266SOL    HW227258   4.307   4.187   2.693 -2.1357 -0.8354 -1.4314
 5267SOL     OW27259   2.670   3.590  12.516  0.3880  0.3569  0.5328
 5267SOL    HW127260   2.724   3.661  12.482  1.2110 -0.1345  0.8168
 5267SOL    HW227261   2.707   3.510  12.479  0.4736 -0.2383  1.9112
 5268SOL     OW27262   1.612   4.649  13.008 -0.8214  0.0356  0.6908
 5268SOL    HW127263   1.681   4.589  12.978 -0.9359  0.3685 -0.2405
 5268SOL    HW227264   1.663   0.005  13.027 -0.2274  0.4570 -2.7666
 5269SOL     OW27265   2.048   4.353  14.988  0.1759 -0.2968 -0.0911
 5269SOL    HW127266   2.099   4.332  14.910  0.0895 -0.5770 -0.0710
 5269SOL    HW227267   1.968   4.386  14.947 -0.5373 -0.5315  1.1235
 5270SOL     OW27268   4.133   1.301   8.081 -0.6477 -0.0825 -0.2311
 5270SOL    HW127269   4.167   1.380   8.039 -1.1810  1.0111  1.4024
 5270SOL    HW227270   4.078   1.329   8.154 -0.1909 -0.6428  0.3285
 5271SOL     OW27271   1.705   4.437  17.687 -0.3044  0.5749 -0.0412
 5271SOL    HW127272   1.660   4.362   0.031  0.1107 -1.0942 -2.8048
 5271SOL    HW227273   1.637   4.471  17.628  2.1729  0.7204 -2.7790
 5272SOL     OW27274   3.717   2.251   7.838  0.1728 -0.6596 -0.1321
 5272SOL    HW127275   3.719   2.332   7.788 -0.0046 -0.0067  0.9285
 5272SOL    HW227276   3.694   2.186   7.771  0.4318  0.3165 -1.1699
 5273SOL     OW27277   1.683   3.161  16.179  0.3717  0.0845  0.6640
 5273SOL    HW127278   1.767   3.173  16.223 -0.8117  1.5052  2.5664
 5273SOL    HW227279   1.656   3.074  16.208 -0.7793  0.8168  1.8104
 5274SOL     OW27280   4.253   0.357  10.428  0.4804  0.0356 -0.5135
 5274SOL    HW127281   4.191   0.305  10.479 -0.4760  0.1587 -1.5559
 5274SOL    HW227282   4.240   0.448  10.456  3.8487  0.4606 -0.2936
 5275SOL     OW27283   4.453   3.281   8.947  0.1020  0.2599 -0.3574
 5275SOL    HW127284   4.457   3.352   9.010 -0.9701  0.1930 -0.2175
 5275SOL    HW227285   4.494   3.325   8.872  1.2306 -0.0358  0.0827
 5276SOL     OW27286   4.716   3.391   8.350 -0.3282  0.1398  0.7842
 5276SOL    HW127287   4.712   3.366   8.257 -2.6949 -2.6589  1.6222
 5276SOL    HW227288   0.058   3.460   8.339 -0.1651  0.0065  0.9046
 5277SOL     OW27289   1.413   3.320   4.817  0.2546 -0.1509 -0.2541
 5277SOL    HW127290   1.419   3.278   4.731 -0.9894 -3.0184  1.0960
 5277SOL    HW227291   1.470   3.397   4.809 -0.7526  0.4545 -1.5721
 5278SOL     OW27292   2.510   0.626   1.497  0.0606 -0.1842  0.0799
 5278SOL    HW127293   2.497   0.532   1.481 -1.1541 -0.0725  0.3917
 5278SOL    HW227294   2.605   0.635   1.503  0.4173 -2.2316 -2.1789
 5279SOL     OW27295   1.285   2.801   2.518  0.0484 -0.0108  0.0310
 5279SOL    HW127296   1.381   2.796   2.513 -0.0349  0.2194 -1.9133
 5279SOL    HW227297   1.269   2.763   2.604 -1.4790  0.0368 -0.2382
 5280SOL     OW27298   4.379   2.985   7.466 -0.1204 -0.0485 -0.9081
 5280SOL    HW127299   4.388   3.080   7.457  0.2935 -0.0840 -0.8671
 5280SOL    HW227300   4.461   2.949   7.500 -0.1922 -0.1361 -0.8275
 5281SOL     OW27301   2.778   0.024   2.313  0.1441 -0.4540 -0.3035
 5281SOL    HW127302   2.812   0.108   2.283  0.4781 -0.6845 -0.5722
 5281SOL    HW227303   2.845   4.685   2.285  0.4609 -0.3856  0.3102
 5282SOL     OW27304   1.049   3.260   3.737  0.8860 -0.3063 -1.0202
 5282SOL    HW127305   1.143   3.246   3.744  0.8768  1.9662  3.6464
 5282SOL    HW227306   1.022   3.305   3.818 -2.5191  1.9377 -3.4085
 5283SOL     OW27307   2.796   1.532   4.021 -0.1765 -0.0179  0.4112
 5283SOL    HW127308   2.731   1.538   3.951  0.3294 -1.0723 -0.1429
 5283SOL    HW227309   2.826   1.622   4.006  0.1547 -0.4827 -1.7180
 5284SOL     OW27310   2.497   0.858   2.755 -0.2600 -0.3511 -0.8367
 5284SOL    HW127311   2.419   0.902   2.721  0.7599  1.5129 -0.7919
 5284SOL    HW227312   2.491   0.866   2.850  0.8812 -3.5311 -0.4897
 5285SOL     OW27313   0.159   4.096  12.505 -0.2621 -0.3716 -0.0430
 5285SOL    HW127314   0.105   4.067  12.578  1.8070 -0.3903  1.4981
 5285SOL    HW227315   0.120   4.038  12.440  0.0574  1.3006 -1.7393
 5286SOL     OW27316   4.099   1.629   8.180  0.5635 -0.3446  0.2718
 5286SOL    HW127317   4.062   1.714   8.202 -0.2187 -0.3700 -0.9252
 5286SOL    HW227318   4.155   1.605   8.254  2.6337 -0.2335 -1.2704
 5287SOL     OW27319   0.539   3.862   8.670  0.2652  0.1581 -0.0376
 5287SOL    HW127320   0.578   3.932   8.618 -0.3812 -0.8764 -1.9240
 5287SOL    HW227321   0.489   3.920   8.727 -0.0822 -0.3150  0.1452
 5288SOL     OW27322   2.136   3.395   2.480 -0.4377 -0.3241 -0.7664
 5288SOL    HW127323   2.044   3.375   2.460  0.0632 -3.2264 -0.1463
 5288SOL    HW227324   2.153   3.470   2.422 -0.4058 -2.2207 -3.2172
 5289SOL     OW27325   1.651   1.786   9.338  0.0915  0.2918  0.3410
 5289SOL    HW127326   1.679   1.702   9.374 -0.8912 -1.9221 -4.1122
 5289SOL    HW227327   1.736   1.832   9.338  0.7997 -1.0156  0.2477
 5290SOL     OW27328   4.173   1.930   9.338 -0.1988  0.0249  0.1944
 5290SOL    HW127329   4.079   1.923   9.354 -0.4187  0.7346 -0.8194
 5290SOL    HW227330   4.174   1.972   9.252 -2.8483 -1.6810 -0.7016
 5291SOL     OW27331   3.619   2.578  15.816 -0.0366 -0.4041  0.1124
 5291SOL    HW127332   3.692   2.598  15.757 -0.8966 -4.2265 -2.2156
 5291SOL    HW227333   3.565   2.656  15.829 -0.4772 -1.0120  1.9603
 5292SOL     OW27334   2.727   0.557   4.529 -0.7519 -0.1428  0.1801
 5292SOL    HW127335   2.768   0.616   4.593 -1.0351 -1.0302  1.1904
 5292SOL    HW227336   2.692   0.611   4.458 -3.1549  0.0490  1.5114
 5293SOL     OW27337   4.626   4.617   3.745 -0.9465  0.0852  0.1106
 5293SOL    HW127338   4.666   4.534   3.769  1.2086  0.8018 -1.0068
 5293SOL    HW227339   4.576   4.586   3.670  1.8305 -1.4174 -1.1214
 5294SOL     OW27340   3.263   0.183   8.028  0.5421 -0.5761  0.3100
 5294SOL    HW127341   3.205   0.239   8.081  1.5340  0.0180  0.7601
 5294SOL    HW227342   3.244   0.225   7.944  1.0812 -1.8082 -0.4282
 5295SOL     OW27343   1.340   0.274   2.274  0.1644  0.4598  0.6887
 5295SOL    HW127344   1.290   0.294   2.354 -2.4158  0.7283 -0.9785
 5295SOL    HW227345   1.280   0.219   2.223  1.6358 -1.0829  0.6610
 5296SOL     OW27346   0.605   3.008  17.462 -0.4535 -0.9203  0.1231
 5296SOL    HW127347   0.567   3.095  17.451  0.3008 -0.6807 -0.5870
 5296SOL    HW227348   0.575   2.990  17.551  1.7604 -0.0826  1.0235
 5297SOL     OW27349   1.246   2.778   0.085  0.7699 -0.3770  0.1196
 5297SOL    HW127350   1.176   2.725   0.121  0.8100  0.0015  0.7554
 5297SOL    HW227351   1.199   2.806   0.007  2.4453  0.4217 -0.6186
 5298SOL     OW27352   0.443   3.686   4.536 -0.3119  0.3622 -0.7811
 5298SOL    HW127353   0.482   3.769   4.562  0.9551 -0.3608 -0.3699
 5298SOL    HW227354   0.498   3.618   4.576  0.1090  0.2066 -1.6256
 5299SOL     OW27355   3.322   1.699   9.027  0.3227 -0.1869 -0.5040
 5299SOL    HW127356   3.337   1.737   8.940 -0.3913 -0.4092 -0.7290
 5299SOL    HW227357   3.313   1.779   9.079 -1.4598 -0.4628 -0.3661
 5300SOL     OW27358   4.389   1.038   1.533 -0.0488 -0.3729 -0.0409
 5300SOL    HW127359   4.374   1.087   1.613 -0.6132  1.4753 -1.2746
 5300SOL    HW227360   4.388   0.948   1.564  0.0861 -0.7890 -1.2325
 5301SOL     OW27361   0.871   3.642  11.400 -0.5097  0.1033  0.4428
 5301SOL    HW127362   0.925   3.704  11.449 -0.4516 -0.7969  1.5150
 5301SOL    HW227363   0.929   3.617  11.328  1.8123  1.3460  1.8712
 5302SOL     OW27364   3.615   2.290   6.558  0.7468  0.1214 -0.3934
 5302SOL    HW127365   3.612   2.378   6.520 -2.8460  0.6955  1.1912
 5302SOL    HW227366   3.698   2.292   6.605  0.4894  1.6110  0.0117
 5303SOL     OW27367   1.510   1.418   5.921  0.3313 -0.1464 -0.3355
 5303SOL    HW127368   1.543   1.350   5.978  0.8171  1.0495  0.8113
 5303SOL    HW227369   1.592   1.459   5.894  1.3338 -1.0432  1.3652
 5304SOL     OW27370   3.185   4.031  12.710  0.5526 -0.3752 -0.7207
 5304SOL    HW127371   3.156   3.963  12.650 -0.7389  0.2077 -0.7564
 5304SOL    HW227372   3.184   4.106  12.651  2.0571 -0.6477 -1.0877
 5305SOL     OW27373   1.631   2.050   5.428 -0.2591 -0.0804  0.5491
 5305SOL    HW127374   1.709   2.031   5.480 -1.1051  2.1958  2.6732
 5305SOL    HW227375   1.586   1.968   5.447 -1.7857  0.4003 -1.0305
 5306SOL     OW27376   1.005   2.009  14.675  0.0528  0.4378  0.8494
 5306SOL    HW127377   0.933   1.947  14.685 -0.4952  0.7113 -1.4512
 5306SOL    HW227378   1.070   1.940  14.665  0.5661  0.8993  1.0059
 5307SOL     OW27379   2.540   3.848   5.862 -0.0760  0.0286 -0.0049
 5307SOL    HW127380   2.579   3.760   5.862 -0.3860 -0.1029  1.6235
 5307SOL    HW227381   2.620   3.897   5.842  0.3941 -0.4828  0.6050
 5308SOL     OW27382   3.779   1.403   4.691  0.6821  0.0161 -0.2481
 5308SOL    HW127383   3.689   1.434   4.699  0.4711 -0.6128 -0.1472
 5308SOL    HW227384   3.788   1.394   4.596  2.7582 -1.5007  0.0841
 5309SOL     OW27385   0.945   1.353   6.844 -0.2763 -0.1834 -0.1354
 5309SOL    HW127386   0.876   1.354   6.909 -0.0982  0.9873  0.0244
 5309SOL    HW227387   1.001   1.426   6.869 -0.9703  0.6073 -0.9110
 5310SOL     OW27388   1.401   4.269  14.099  0.7636 -0.2676 -0.8157
 5310SOL    HW127389   1.437   4.199  14.153  1.1656 -0.5547 -1.4563
 5310SOL    HW227390   1.315   4.280  14.139  0.2255  0.5973 -2.2301
 5311SOL     OW27391   1.546   2.392  11.257 -0.3077 -0.0185 -0.3322
 5311SOL    HW127392   1.543   2.385  11.162 -3.6496 -4.7695  0.1085
 5311SOL    HW227393   1.492   2.468  11.279  0.1920  0.2443 -0.0066
 5312SOL     OW27394   3.412   2.212   8.427 -0.2667 -0.2960  0.1609
 5312SOL    HW127395   3.349   2.143   8.405 -0.3172 -0.4172  0.6700
 5312SOL    HW227396   3.362   2.292   8.411 -2.5244 -1.5010  1.1332
 5313SOL     OW27397   4.150   2.659   5.265  0.5365 -0.1418 -0.9500
 5313SOL    HW127398   4.146   2.731   5.329  1.9748 -0.9791  0.0805
 5313SOL    HW227399   4.240   2.669   5.233  2.0427 -1.1793  2.8855
 5314SOL     OW27400   3.443   1.316  17.263  0.0552 -0.0200 -0.2268
 5314SOL    HW127401   3.373   1.380  17.271 -0.6489 -0.3099 -3.7151
 5314SOL    HW227402   3.517   1.375  17.248  2.2133 -3.3106 -2.5636
 5315SOL     OW27403   2.909   2.731   3.588 -0.0278 -0.2975 -0.1667
 5315SOL    HW127404   2.911   2.804   3.649  1.5968  0.7221 -1.4591
 5315SOL    HW227405   2.843   2.764   3.527  0.0397 -0.8342 -0.5303
 5316SOL     OW27406   2.292   2.244   0.993  0.4508  0.4831  0.4236
 5316SOL    HW127407   2.275   2.271   0.903  1.4473 -0.9142 -0.1769
 5316SOL    HW227408   2.211   2.224   1.042  0.9686  2.9762  2.3207
 5317SOL     OW27409   0.067   0.643   4.249  0.6518 -0.3834  0.5105
 5317SOL    HW127410   0.054   0.551   4.226  1.0442  0.3784 -2.7832
 5317SOL    HW227411   0.151   0.635   4.293  1.2577  0.1689 -0.5550
 5318SOL     OW27412   1.657   2.128   2.747  0.1545 -0.0145  0.2422
 5318SOL    HW127413   1.615   2.194   2.692 -1.4131 -1.4982 -0.3253
 5318SOL    HW227414   1.583   2.086   2.790  0.9529 -0.8615  0.7926
 5319SOL     OW27415   4.317   3.070   7.803 -0.7133  0.2118 -0.3241
 5319SOL    HW127416   4.370   3.130   7.751  1.3284  1.1355  2.8048
 5319SOL    HW227417   4.227   3.088   7.776 -0.6787 -0.7977 -1.1045
 5320SOL     OW27418   3.841   2.462   7.611 -0.2367  0.1165 -0.3730
 5320SOL    HW127419   3.748   2.483   7.623 -0.0735 -0.4870  1.9973
 5320SOL    HW227420   3.832   2.442   7.518 -0.6399  0.5873 -0.4365
 5321SOL     OW27421   0.952   1.413   5.485 -0.2342  0.1994 -0.7109
 5321SOL    HW127422   1.004   1.362   5.547 -0.8514  0.6038  0.1324
 5321SOL    HW227423   1.014   1.423   5.413 -0.3174  1.2080 -0.6478
 5322SOL     OW27424   3.279   2.613  14.051 -0.2770  0.0691 -0.0501
 5322SOL    HW127425   3.233   2.541  14.094  0.1621 -0.5359 -0.6168
 5322SOL    HW227426   3.257   2.692  14.102  1.5976  0.6177 -0.1083
 5323SOL     OW27427   4.176   3.503  14.080  0.7096  0.1110  0.3575
 5323SOL    HW127428   4.165   3.472  13.991  0.6694  1.0028  0.0462
 5323SOL    HW227429   4.230   3.434  14.117  2.2405 -0.8896 -3.7773
 5324SOL     OW27430   2.068   0.816   4.204  0.1807  0.2226 -0.1393
 5324SOL    HW127431   2.043   0.751   4.270  0.2401  1.0628  0.7120
 5324SOL    HW227432   2.043   0.766   4.126 -1.0509 -0.2175  0.5286
 5325SOL     OW27433   4.234   0.719  13.474  0.2723  0.1089  0.1719
 5325SOL    HW127434   4.252   0.645  13.416  1.0716 -0.1064  0.6933
 5325SOL    HW227435   4.160   0.697  13.530  0.9334  0.9635  1.3811
 5326SOL     OW27436   1.586   3.784   3.603 -0.4841  0.0726  0.1692
 5326SOL    HW127437   1.658   3.730   3.636 -0.7594 -0.4848 -0.1353
 5326SOL    HW227438   1.632   3.844   3.544  0.5372 -1.0863 -0.2104
 5327SOL     OW27439   0.909   0.695   6.634 -0.1536 -0.4779 -0.5713
 5327SOL    HW127440   0.898   0.766   6.572  1.1070 -1.7902 -2.3158
 5327SOL    HW227441   0.832   0.705   6.689 -0.4587 -0.2679 -1.0386
 5328SOL     OW27442   3.174   2.102   3.129 -0.0114  0.0309 -0.0769
 5328SOL    HW127443   3.201   2.166   3.063 -0.3202 -0.9753 -1.1996
 5328SOL    HW227444   3.080   2.120   3.126  0.4731  2.5629  0.5279
 5329SOL     OW27445   1.668   4.078   0.710  0.0215 -0.6262  0.3114
 5329SOL    HW127446   1.604   4.085   0.781  1.2104 -2.2276  1.5579
 5329SOL    HW227447   1.693   3.985   0.711 -2.5316 -1.3229  0.3267
 5330SOL     OW27448   1.418   1.595   6.841  0.7287 -0.1621 -0.2179
 5330SOL    HW127449   1.499   1.634   6.810 -1.2609  2.4625 -2.1570
 5330SOL    HW227450   1.400   1.635   6.926 -0.7580  0.7693 -0.9652
 5331SOL     OW27451   1.682   0.038   0.270 -0.1577  0.2879  0.0115
 5331SOL    HW127452   1.690   4.679   0.319 -0.4026 -0.8150 -1.7804
 5331SOL    HW227453   1.589   0.057   0.278 -0.2647 -1.5891  2.9957
 5332SOL     OW27454   2.787   2.726   5.090 -0.3842 -0.7157 -0.3226
 5332SOL    HW127455   2.698   2.736   5.122  1.7997  2.4466  4.7743
 5332SOL    HW227456   2.817   2.814   5.066 -1.0967 -0.6484 -0.9869
 5333SOL     OW27457   3.242   0.348   5.350  0.1495  0.0941 -0.0798
 5333SOL    HW127458   3.194   0.369   5.271 -0.0989  0.1820  0.0935
 5333SOL    HW227459   3.164   0.353   5.405  0.3002 -1.8997  0.3242
 5334SOL     OW27460   2.514   2.873   6.275  0.2846  0.3204  0.7676
 5334SOL    HW127461   2.592   2.926   6.294  2.0615 -1.5271 -1.3712
 5334SOL    HW227462   2.478   2.860   6.362  0.1468 -3.0340  0.2030
 5335SOL     OW27463   0.500   3.372  17.042 -0.6103 -0.0818 -0.2187
 5335SOL    HW127464   0.514   3.460  17.008  0.2260  0.0864  0.5517
 5335SOL    HW227465   0.500   3.322  16.961 -1.4655 -1.3287  0.5432
 5336SOL     OW27466   2.232   1.542   2.939  0.2794  0.0454  0.1485
 5336SOL    HW127467   2.137   1.553   2.943  0.2496  0.6169 -2.0708
 5336SOL    HW227468   2.237   1.512   2.848 -1.3036  0.4297 -0.0673
 5337SOL     OW27469   3.125   1.538   6.847 -0.2776 -0.2325 -0.3514
 5337SOL    HW127470   3.165   1.462   6.890  0.8889 -0.1060 -1.2283
 5337SOL    HW227471   3.040   1.505   6.816 -0.5474  1.6532 -1.6200
 5338SOL     OW27472   0.707   2.404   3.272  0.0085 -0.5664 -0.4751
 5338SOL    HW127473   0.698   2.311   3.293  3.1736 -0.9803 -0.9302
 5338SOL    HW227474   0.616   2.431   3.254  0.1363 -0.1953 -0.5784
 5339SOL     OW27475   2.422   4.172   8.921  0.4477  0.4520 -0.0230
 5339SOL    HW127476   2.423   4.155   8.827 -2.0424 -1.3924  0.2757
 5339SOL    HW227477   2.495   4.233   8.934 -0.4199  0.9989  2.3188
 5340SOL     OW27478   1.206   3.795   3.188  1.0363  0.2741 -0.4840
 5340SOL    HW127479   1.233   3.703   3.187 -1.6991 -0.5269 -1.4378
 5340SOL    HW227480   1.179   3.813   3.098  0.7118 -0.7290 -0.5885
 5341SOL     OW27481   1.229   1.786   5.062 -0.1862 -0.5087 -0.3269
 5341SOL    HW127482   1.136   1.760   5.061 -1.0303  2.5992 -2.0996
 5341SOL    HW227483   1.216   1.880   5.075 -1.4088 -0.6874 -0.2368
 5342SOL     OW27484   3.692   0.577   5.262 -0.1166 -0.6503 -0.5428
 5342SOL    HW127485   3.687   0.482   5.272  0.4299 -0.6364 -0.1670
 5342SOL    HW227486   3.635   0.596   5.188  0.7851  1.4893 -0.6838
 5343SOL     OW27487   2.715   0.513   1.244 -0.6458  0.3209 -0.4909
 5343SOL    HW127488   2.720   0.462   1.325  0.2381  1.1227 -0.0430
 5343SOL    HW227489   2.649   0.578   1.270 -2.1037 -1.7738  1.0745
 5344SOL     OW27490   1.803   0.620   4.689 -0.2360  0.0817 -0.3573
 5344SOL    HW127491   1.751   0.573   4.754 -0.8984  0.4743 -0.6066
 5344SOL    HW227492   1.859   0.545   4.670 -2.6959 -2.3884  2.1367
 5345SOL     OW27493   3.402   2.273   7.604 -0.3666  0.3414  0.0218
 5345SOL    HW127494   3.358   2.317   7.531  1.4644  1.0734 -0.6153
 5345SOL    HW227495   3.405   2.183   7.572 -2.7581  0.8882 -1.8524
 5346SOL     OW27496   0.556   3.424  15.169 -0.2426  0.0432 -0.0756
 5346SOL    HW127497   0.546   3.445  15.077  0.5936 -1.5571 -0.5322
 5346SOL    HW227498   0.531   3.506  15.212  0.8317 -0.3403  1.2918
 5347SOL     OW27499   3.054   3.754   6.553  0.0507 -0.8138 -0.1939
 5347SOL    HW127500   3.090   3.720   6.635  3.5347 -0.7446 -1.6708
 5347SOL    HW227501   2.972   3.793   6.584  0.0874 -0.0751 -1.0248
 5348SOL     OW27502   1.684   3.474  13.632 -0.0107 -0.4610  0.1105
 5348SOL    HW127503   1.740   3.490  13.708 -0.4936 -0.5950  0.4935
 5348SOL    HW227504   1.750   3.450  13.567  0.2153  2.1423 -0.6383
 5349SOL     OW27505   1.341   2.952   4.333  0.4408 -0.0906  0.0167
 5349SOL    HW127506   1.307   3.003   4.406 -1.2468 -2.9442  1.2453
 5349SOL    HW227507   1.288   2.992   4.265 -0.2248  0.0172  0.6064
 5350SOL     OW27508   4.175   0.318   2.807 -0.3236  0.2171  0.0334
 5350SOL    HW127509   4.207   0.385   2.747  0.2437  0.2338  0.3534
 5350SOL    HW227510   4.205   0.234   2.772  0.4663  0.7858 -0.6537
 5351SOL     OW27511   2.949   2.985   5.431  0.4235  0.0416  0.1414
 5351SOL    HW127512   3.033   2.944   5.450  1.1310  0.5777 -1.8606
 5351SOL    HW227513   2.947   3.059   5.492 -0.5668  0.7075 -0.7034
 5352SOL     OW27514   4.058   1.633   3.113  0.4159  0.5484 -0.1196
 5352SOL    HW127515   4.062   1.727   3.095  0.8602  0.6325  0.4125
 5352SOL    HW227516   4.116   1.626   3.189 -0.6922 -0.4246  0.6443
 5353SOL     OW27517   1.919   2.646   8.495 -0.3632  0.1949 -0.0550
 5353SOL    HW127518   1.875   2.713   8.548 -0.2471 -0.0533  0.3601
 5353SOL    HW227519   1.871   2.658   8.414 -1.8001 -2.1110  0.4487
 5354SOL     OW27520   3.565   2.206   6.884 -0.1142  0.3031  0.8171
 5354SOL    HW127521   3.478   2.240   6.905  0.0317  0.1910  1.5827
 5354SOL    HW227522   3.628   2.266   6.923 -1.9491  2.8944 -0.2098
 5355SOL     OW27523   1.194   0.325  10.163  0.0327  0.6823 -0.1690
 5355SOL    HW127524   1.227   0.396  10.107  0.0746 -0.0805 -1.0986
 5355SOL    HW227525   1.223   0.334  10.254 -0.9010  0.0778  0.1956
 5356SOL     OW27526   1.340   0.783   4.088  0.1269  0.6461  0.3610
 5356SOL    HW127527   1.282   0.856   4.108  0.1093  0.5876  0.5168
 5356SOL    HW227528   1.332   0.787   3.992  1.4726  1.2633  0.2700
 5357SOL     OW27529   3.867   2.425  11.823 -0.1425  0.1392  0.3788
 5357SOL    HW127530   3.904   2.484  11.889  3.0393 -1.8162  0.3432
 5357SOL    HW227531   3.942   2.370  11.801  0.8191  1.2580  0.8401
 5358SOL     OW27532   4.088   1.182  10.680 -0.1802 -0.3613  0.1280
 5358SOL    HW127533   4.178   1.212  10.690 -0.3223  0.3193 -0.5743
 5358SOL    HW227534   4.072   1.163  10.772 -2.0121  2.2314  0.3514
 5359SOL     OW27535   4.632   2.410   4.265  0.1013 -0.2139  0.5414
 5359SOL    HW127536   4.565   2.412   4.334 -0.8473 -0.5521 -0.3828
 5359SOL    HW227537   4.700   2.349   4.294 -1.1626 -2.4937 -1.2785
 5360SOL     OW27538   2.460   1.666   1.409 -0.3170  0.3707  0.4621
 5360SOL    HW127539   2.409   1.605   1.462 -0.8527 -0.0359 -0.5009
 5360SOL    HW227540   2.487   1.723   1.481  0.0618 -0.3469  0.8805
 5361SOL     OW27541   3.579   0.651   3.110  0.3842 -0.3855  0.0016
 5361SOL    HW127542   3.636   0.593   3.161  2.5466  1.3767 -0.3922
 5361SOL    HW227543   3.513   0.685   3.171 -0.4576 -0.9966 -0.5754
 5362SOL     OW27544   4.422   2.480  16.706  0.0072 -0.1134 -0.0777
 5362SOL    HW127545   4.500   2.436  16.673 -0.1499 -0.9690  0.6865
 5362SOL    HW227546   4.447   2.563  16.747 -0.3734 -0.1630  0.2542
 5363SOL     OW27547   2.106   4.666   4.338  0.2980  0.0786 -0.4346
 5363SOL    HW127548   2.167   4.619   4.280 -0.4994 -3.4284  1.6016
 5363SOL    HW227549   2.018   4.656   4.303  0.6498  0.2787 -1.3933
 5364SOL     OW27550   2.381   0.315  17.047  0.2239  0.2374 -0.4216
 5364SOL    HW127551   2.376   0.294  17.140 -1.7862  1.2664 -0.3130
 5364SOL    HW227552   2.473   0.338  17.031 -0.0863  0.5497 -1.7492
 5365SOL     OW27553   1.758   1.560   5.007  0.3805 -0.7159  0.1615
 5365SOL    HW127554   1.806   1.588   5.086  1.2322 -1.3592 -0.1352
 5365SOL    HW227555   1.695   1.632   4.999  0.0334 -1.0153  0.2126
 5366SOL     OW27556   4.497   1.247   0.989 -0.2133 -0.0396  0.7795
 5366SOL    HW127557   4.418   1.291   1.021 -0.1233  0.3362  0.4794
 5366SOL    HW227558   4.479   1.255   0.896 -0.7925  1.7662  1.0505
 5367SOL     OW27559   4.510   3.534  15.752 -0.3564 -0.0375  0.4107
 5367SOL    HW127560   4.472   3.456  15.793 -1.4019  0.0876 -0.3087
 5367SOL    HW227561   4.459   3.597  15.803 -3.4726 -0.0558 -2.6084
 5368SOL     OW27562   4.152   2.317  14.799 -0.0535  0.1617  0.0853
 5368SOL    HW127563   4.099   2.287  14.724  0.3961 -2.8488  0.9606
 5368SOL    HW227564   4.190   2.236  14.833  1.5056 -0.1587 -2.3541
 5369SOL     OW27565   1.797   2.434   5.223  0.8040  0.0226  0.4596
 5369SOL    HW127566   1.769   2.370   5.157  1.5963 -0.4207  0.5587
 5369SOL    HW227567   1.849   2.502   5.180 -0.5665  0.6647 -0.1772
 5370SOL     OW27568   1.235   0.436   2.820 -0.2648  0.1197 -0.5414
 5370SOL    HW127569   1.191   0.387   2.888  3.1094 -2.6919 -0.3876
 5370SOL    HW227570   1.157   0.478   2.784  0.4013 -1.1364 -3.5037
 5371SOL     OW27571   3.099   2.507   7.040  0.6146 -0.3138 -0.9990
 5371SOL    HW127572   3.042   2.578   7.010 -0.0534  0.7345  2.8012
 5371SOL    HW227573   3.078   2.445   6.970  0.5126 -2.1074  0.6345
 5372SOL     OW27574   1.995   3.170   9.217  0.0552  0.0554  0.1333
 5372SOL    HW127575   1.943   3.225   9.160 -0.5072  0.3935  0.9740
 5372SOL    HW227576   2.047   3.126   9.149 -1.1669 -1.4983  0.2033
 5373SOL     OW27577   0.754   4.031  16.032  0.0935 -0.3102 -0.5229
 5373SOL    HW127578   0.720   3.999  16.116 -1.6935 -0.2415 -1.2112
 5373SOL    HW227579   0.677   4.017  15.977  0.2774  1.5334 -1.2418
 5374SOL     OW27580   1.557   0.398   3.684 -0.2297  0.0860 -0.6623
 5374SOL    HW127581   1.552   0.307   3.656  0.3339 -0.0128 -0.4474
 5374SOL    HW227582   1.583   0.446   3.605  0.9901 -0.6771 -0.7244
 5375SOL     OW27583   3.926   3.830   9.185  0.0900 -0.2591  0.0740
 5375SOL    HW127584   3.901   3.862   9.098  0.7781 -1.3669 -0.5311
 5375SOL    HW227585   3.936   3.908   9.240 -1.3736  0.5547 -0.7964
 5376SOL     OW27586   4.289   2.643   3.328 -0.2698 -0.0748 -0.1010
 5376SOL    HW127587   4.304   2.682   3.414  2.6302 -2.8680  0.7077
 5376SOL    HW227588   4.376   2.618   3.296  0.4651  1.7129  0.5332
 5377SOL     OW27589   1.553   2.505   7.352 -0.2112  0.0878  0.2111
 5377SOL    HW127590   1.559   2.480   7.260  1.4541 -0.0877  0.3621
 5377SOL    HW227591   1.493   2.449   7.400 -0.6769 -0.0220 -0.5055
 5378SOL     OW27592   1.195   4.001   9.129  0.3702  0.0306 -0.2690
 5378SOL    HW127593   1.136   3.999   9.205  1.1828  0.1587  0.3697
 5378SOL    HW227594   1.185   4.093   9.104 -1.1460  0.0406  0.3555
 5379SOL     OW27595   3.662   3.896   8.939 -0.3573  0.1695  0.2172
 5379SOL    HW127596   3.636   3.809   8.911 -1.2503 -0.0532  1.7344
 5379SOL    HW227597   3.733   3.903   8.875 -0.6823 -0.0959 -0.1687
 5380SOL     OW27598   1.823   4.090  12.849 -0.7905 -0.7576  0.2284
 5380SOL    HW127599   1.888   4.140  12.899  1.2937 -3.1915 -0.1012
 5380SOL    HW227600   1.874   4.035  12.790 -1.3183 -0.4418 -0.5189
 5381SOL     OW27601   2.202   3.689   2.655  0.7299 -0.8195  0.7611
 5381SOL    HW127602   2.151   3.760   2.693 -0.5077 -1.8223  0.9720
 5381SOL    HW227603   2.226   3.733   2.573  0.7110 -1.2330  0.5317
 5382SOL     OW27604   3.957   4.592   9.242  0.0173  0.3370 -0.1070
 5382SOL    HW127605   3.895   4.579   9.170  0.8450 -0.2476 -0.7241
 5382SOL    HW227606   3.896   4.608   9.314  0.1284  0.5801 -0.0688
 5383SOL     OW27607   2.401   1.766   9.967  0.1528 -0.4347  0.5835
 5383SOL    HW127608   2.313   1.734   9.947 -0.5074  1.5860  0.2388
 5383SOL    HW227609   2.459   1.700   9.928  1.3905 -0.4819  2.5182
 5384SOL     OW27610   4.114   3.001   7.426 -0.2128  0.0341  0.1109
 5384SOL    HW127611   4.209   3.009   7.441 -0.2281 -0.1378  0.2909
 5384SOL    HW227612   4.109   2.910   7.454 -1.5440 -0.2508 -1.0791
 5385SOL     OW27613   2.189   2.709   3.992 -0.8553  0.0861  0.1512
 5385SOL    HW127614   2.246   2.658   3.935  0.5822  0.6304  1.0911
 5385SOL    HW227615   2.211   2.677   4.080 -0.4808 -1.3251 -0.4428
 5386SOL     OW27616   2.572   3.311   1.682  0.0367 -0.3063 -0.1406
 5386SOL    HW127617   2.573   3.233   1.738 -3.5236  0.4624  0.9513
 5386SOL    HW227618   2.652   3.355   1.711 -0.6351  0.5889  0.3391
 5387SOL     OW27619   1.555   1.001  14.934  0.3835  0.0821  0.0459
 5387SOL    HW127620   1.613   0.952  14.992 -2.1470 -2.5480  0.3797
 5387SOL    HW227621   1.513   0.930  14.886 -0.3735  0.7675 -0.3096
 5388SOL     OW27622   1.932   3.912  10.175 -0.2762 -0.4343  0.8112
 5388SOL    HW127623   1.902   3.852  10.243  2.8539 -2.3897  0.4834
 5388SOL    HW227624   1.889   3.872  10.099 -0.7247  1.9430 -0.1852
 5389SOL     OW27625   4.002   0.017   5.980  0.3713  0.1961  0.8550
 5389SOL    HW127626   4.062   4.686   6.030  0.4209  0.4300  1.0482
 5389SOL    HW227627   4.059   0.053   5.912  0.9005 -2.6555 -0.2196
 5390SOL     OW27628   1.837   0.670   4.973  0.0097  0.1586 -0.1316
 5390SOL    HW127629   1.793   0.706   4.896  0.2797 -2.2437 -1.4202
 5390SOL    HW227630   1.767   0.620   5.015  0.6522 -0.4503  0.2240
 5391SOL     OW27631   1.069   1.019   4.431  0.1164  0.5398  0.5867
 5391SOL    HW127632   1.104   1.075   4.361 -0.0955 -0.8286 -0.6282
 5391SOL    HW227633   1.109   1.060   4.508  1.8025  2.4086 -1.2847
 5392SOL     OW27634   3.494   3.699   7.253 -0.3701  0.6736  0.7265
 5392SOL    HW127635   3.554   3.636   7.291 -0.2571 -0.1007 -0.7415
 5392SOL    HW227636   3.553   3.763   7.214  1.0957 -0.6545  0.7652
 5393SOL     OW27637   3.985   1.779  10.022  0.2445 -0.3596 -0.1303
 5393SOL    HW127638   3.952   1.760  10.110 -0.1800  2.4196  0.3154
 5393SOL    HW227639   4.059   1.834  10.047 -0.8924 -0.1269  2.6752
 5394SOL     OW27640   0.558   2.373   4.162 -0.0780 -0.5117  0.1347
 5394SOL    HW127641   0.478   2.411   4.199  0.1901  0.0863  0.0969
 5394SOL    HW227642   0.594   2.444   4.109 -0.4165  0.0130  0.6064
 5395SOL     OW27643   0.294   3.841   7.362  0.1291 -0.2199 -0.5397
 5395SOL    HW127644   0.243   3.921   7.352 -0.2201 -0.4633 -0.7089
 5395SOL    HW227645   0.239   3.799   7.428  0.0752 -0.0817 -0.4972
 5396SOL     OW27646   1.369   0.834   2.590  0.8119 -0.7634 -0.1024
 5396SOL    HW127647   1.340   0.911   2.541  1.4817  0.7676  1.9065
 5396SOL    HW227648   1.329   0.768   2.534  0.5186  0.4822 -1.3603
 5397SOL     OW27649   4.130   3.520  11.159  0.5817  0.3915 -0.0865
 5397SOL    HW127650   4.207   3.576  11.173  1.7129 -0.7032 -1.7800
 5397SOL    HW227651   4.110   3.494  11.248  0.3668  2.3173  0.4270
 5398SOL     OW27652   0.151   2.380  14.315  0.6177 -0.4217  0.2368
 5398SOL    HW127653   0.201   2.380  14.234 -1.3642 -0.4586 -0.9613
 5398SOL    HW227654   0.213   2.337  14.375  0.6279 -1.9269 -0.8628
 5399SOL     OW27655   1.848   0.415   2.448  0.5758  0.3183 -0.3282
 5399SOL    HW127656   1.766   0.445   2.410 -0.6272 -1.7761  0.6441
 5399SOL    HW227657   1.852   0.451   2.537  1.3063 -0.6111  0.0183
 5400SOL     OW27658   2.997   3.416   3.278 -0.2578 -0.2953 -0.0844
 5400SOL    HW127659   3.035   3.436   3.193 -1.5289  1.3427 -0.2586
 5400SOL    HW227660   3.056   3.452   3.344 -1.2617  3.4763 -1.2479
 5401SOL     OW27661   1.992   3.023  16.961 -0.1629  0.2364 -0.1673
 5401SOL    HW127662   2.085   3.014  16.982 -0.1030 -0.6290 -0.8051
 5401SOL    HW227663   1.960   2.937  16.988  0.7196 -0.3334 -0.9627
 5402SOL     OW27664   1.168   3.626   9.326  0.8529 -0.5805  0.2302
 5402SOL    HW127665   1.174   3.550   9.383  1.1643 -2.2088 -1.9827
 5402SOL    HW227666   1.125   3.692   9.380 -0.6507 -2.2230  1.0588
 5403SOL     OW27667   1.591   0.682   2.697  0.1554  0.3569 -0.1079
 5403SOL    HW127668   1.505   0.682   2.654  0.4905 -0.6461 -0.7669
 5403SOL    HW227669   1.564   0.736   2.772 -0.0864  0.2023 -0.0841
 5404SOL     OW27670   1.117   0.091   8.692  0.5891  0.1609  0.5448
 5404SOL    HW127671   1.202   0.075   8.734  0.7960 -2.9098 -1.0125
 5404SOL    HW227672   1.053   0.050   8.749  1.7991 -0.9280  1.1281
 5405SOL     OW27673   1.778   2.066  17.258  0.7388 -0.4319 -0.1337
 5405SOL    HW127674   1.698   2.022  17.287  2.0908 -1.6725  1.7820
 5405SOL    HW227675   1.830   1.991  17.227  1.0636 -0.8789  1.4700
 5406SOL     OW27676   2.554   3.056  12.522  0.4237 -0.0638  0.3043
 5406SOL    HW127677   2.539   2.975  12.473  1.0843  0.5453 -0.9072
 5406SOL    HW227678   2.629   3.034  12.577  1.2373  2.0570  0.0238
 5407SOL     OW27679   4.128   0.198   9.749  0.0319 -0.0372 -0.3211
 5407SOL    HW127680   4.213   0.225   9.783  1.2443 -1.8871 -1.8852
 5407SOL    HW227681   4.125   0.246   9.667 -0.1019  0.1240 -0.2210
 5408SOL     OW27682   4.722   3.384  14.586 -0.0123  0.4158  0.3251
 5408SOL    HW127683   4.680   3.461  14.624  1.1798  1.9386 -1.4642
 5408SOL    HW227684   0.082   3.426  14.563 -0.4304  1.8200  1.3594
 5409SOL     OW27685   3.918   1.424  17.088  0.3845  0.7211  0.0050
 5409SOL    HW127686   4.010   1.421  17.063 -0.0575  0.6973 -1.6241
 5409SOL    HW227687   3.882   1.441  17.001 -1.2128 -1.1761  0.2841
 5410SOL     OW27688   3.970   3.158   4.881  0.5539 -0.1313  1.0684
 5410SOL    HW127689   3.961   3.248   4.913  2.0898  0.9814 -1.6081
 5410SOL    HW227690   3.999   3.116   4.961 -1.3121 -1.8532  0.8434
 5411SOL     OW27691   1.506   2.709   7.531  0.7769  0.3033 -0.0262
 5411SOL    HW127692   1.583   2.766   7.538  1.2893 -0.4261  0.1982
 5411SOL    HW227693   1.544   2.644   7.472  1.3906  2.0190 -1.5316
 5412SOL     OW27694   3.022   4.473   8.330 -0.0589  0.1064 -0.2609
 5412SOL    HW127695   3.096   4.498   8.385  0.3017  2.1104 -1.6806
 5412SOL    HW227696   3.065   4.480   8.244 -0.4320 -2.4066 -0.6680
 5413SOL     OW27697   2.579   4.712   0.974  0.3233 -0.7165 -0.9600
 5413SOL    HW127698   2.670   4.714   0.943  1.3728  1.7392  2.1714
 5413SOL    HW227699   2.588   4.631   1.025  1.0420 -0.0610 -0.0381
 5414SOL     OW27700   4.299   4.333  13.689  0.2560 -0.6524 -0.2483
 5414SOL    HW127701   4.369   4.373  13.637 -1.9567  1.7431 -1.3784
 5414SOL    HW227702   4.309   4.380  13.771 -1.7888  0.6233 -0.7275
 5415SOL     OW27703   2.336   4.467   1.058  0.3191 -0.6860 -0.4008
 5415SOL    HW127704   2.266   4.402   1.053 -0.4186 -0.1748  3.3257
 5415SOL    HW227705   2.299   4.531   0.996 -1.3533 -0.2534  1.0360
 5416SOL     OW27706   4.465   2.648  17.037 -0.0953  0.1698  0.2729
 5416SOL    HW127707   4.438   2.694  16.957  1.4670  1.3126  0.4187
 5416SOL    HW227708   4.442   2.708  17.108 -1.4559 -2.2467  1.9058
 5417SOL     OW27709   2.012   3.372   9.429 -0.4353 -0.2830  0.0552
 5417SOL    HW127710   2.001   3.287   9.387 -1.1725 -0.0478 -0.2308
 5417SOL    HW227711   1.981   3.363   9.520  1.1333  0.3486  0.6503
 5418SOL     OW27712   0.388   3.827  12.257 -0.9963  0.3306  0.2343
 5418SOL    HW127713   0.483   3.831  12.244 -1.1001  0.0044 -0.5995
 5418SOL    HW227714   0.390   3.824  12.352  0.2260  0.7084  0.2281
 5419SOL     OW27715   0.379   2.809  17.685  0.5654  0.4088 -0.5904
 5419SOL    HW127716   0.380   2.892   0.039  2.7787  0.3360 -0.4914
 5419SOL    HW227717   0.385   2.755   0.070 -0.1130  1.7638  0.3890
 5420SOL     OW27718   2.700   3.779   6.452  0.2165 -0.4673 -0.5726
 5420SOL    HW127719   2.681   3.809   6.364  1.5631  2.6675  0.1913
 5420SOL    HW227720   2.795   3.767   6.455  0.0075 -1.6299  1.5971
 5421SOL     OW27721   3.564   0.939   3.167  0.6250  0.4596  0.0864
 5421SOL    HW127722   3.532   0.987   3.091  0.7029 -3.1403 -2.2184
 5421SOL    HW227723   3.652   0.910   3.142 -0.1748 -1.5385 -0.4043
 5422SOL     OW27724   0.243   2.094   2.850 -0.1120 -0.2366 -0.8882
 5422SOL    HW127725   0.323   2.065   2.894 -0.5388 -0.6315 -0.3707
 5422SOL    HW227726   0.184   2.020   2.861 -0.5723  0.2983  0.2722
 5423SOL     OW27727   1.546   1.964   6.980 -0.6723 -0.2009 -0.7434
 5423SOL    HW127728   1.555   2.046   6.931 -0.9888  0.2260 -0.0920
 5423SOL    HW227729   1.453   1.943   6.976 -0.7257  0.2162 -1.6631
 5424SOL     OW27730   2.642   0.251  10.741 -0.3987 -0.2423  0.5288
 5424SOL    HW127731   2.624   0.345  10.738  4.7349  0.7260 -0.2162
 5424SOL    HW227732   2.715   0.239  10.802  2.3653 -0.1436 -2.7644
 5425SOL     OW27733   2.583   1.463   4.188  0.3022  0.2915  0.5969
 5425SOL    HW127734   2.653   1.496   4.132  0.7160  0.7079  1.3639
 5425SOL    HW227735   2.618   1.458   4.277  1.4318  0.6615  0.1711
 5426SOL     OW27736   2.028   1.502  14.497 -0.5676  0.9256  0.9435
 5426SOL    HW127737   1.977   1.427  14.527  0.3356 -0.5497 -1.2380
 5426SOL    HW227738   2.074   1.518  14.580  1.1501 -0.1651  0.1907
 5427SOL     OW27739   0.124   1.740   5.495 -0.6856  0.7104 -0.6623
 5427SOL    HW127740   0.068   1.663   5.487 -1.0467  1.0068 -1.0813
 5427SOL    HW227741   0.073   1.803   5.547  1.0131  1.4433  0.1045
 5428SOL     OW27742   2.463   2.203  12.864  0.5491  0.2249 -0.3793
 5428SOL    HW127743   2.480   2.122  12.817 -3.8551 -1.1158  0.3425
 5428SOL    HW227744   2.512   2.256  12.801  0.5806  1.0053  0.2999
 5429SOL     OW27745   3.881   1.344   9.440  0.1485 -0.2797 -0.3510
 5429SOL    HW127746   3.825   1.317   9.368 -0.6333  1.9181 -0.5673
 5429SOL    HW227747   3.828   1.393   9.503 -0.6684 -1.8780  0.2117
 5430SOL     OW27748   3.823   0.335   4.019 -0.3570  0.3381  0.3350
 5430SOL    HW127749   3.912   0.299   4.015 -0.7311 -0.5635  0.3561
 5430SOL    HW227750   3.803   0.357   3.928  1.5358 -0.4888 -0.2792
 5431SOL     OW27751   2.414   1.974   8.557  0.3660  0.4520 -0.1742
 5431SOL    HW127752   2.506   2.001   8.563  1.3723 -3.1268  0.7647
 5431SOL    HW227753   2.404   1.937   8.645  1.6714  2.8567  0.9724
 5432SOL     OW27754   0.667   1.355  16.180  0.1157  0.4227  0.1447
 5432SOL    HW127755   0.746   1.384  16.226 -0.5138  2.6379 -0.2004
 5432SOL    HW227756   0.607   1.420  16.215 -1.8543 -1.2321 -0.1440
 5433SOL     OW27757   1.293   4.626  12.087  0.0490  0.2186 -0.0557
 5433SOL    HW127758   1.322   4.564  12.020  0.9937  1.8215 -1.1226
 5433SOL    HW227759   1.233   4.566  12.132 -0.2241  2.6095  2.7510
 5434SOL     OW27760   0.319   2.731   2.467  0.4515  0.6212  0.1603
 5434SOL    HW127761   0.248   2.793   2.452 -1.0599 -0.7479  1.5724
 5434SOL    HW227762   0.278   2.645   2.474  0.5796  0.7462  2.6299
 5435SOL     OW27763   1.791   0.388   6.873  0.0503 -0.1287 -0.4870
 5435SOL    HW127764   1.810   0.366   6.965 -0.9111 -0.3087 -0.3352
 5435SOL    HW227765   1.698   0.366   6.870  0.3330 -1.3377 -0.2914
 5436SOL     OW27766   2.534   0.115   1.393 -0.0713 -0.8128  0.1362
 5436SOL    HW127767   2.570   0.051   1.454 -1.3464  0.7708  2.5335
 5436SOL    HW227768   2.466   0.062   1.351 -1.0887  0.6912 -0.1239
 5437SOL     OW27769   4.720   1.664  12.862  0.0497  0.2308  0.2332
 5437SOL    HW127770   4.681   1.750  12.874 -0.7724 -0.1388  0.2091
 5437SOL    HW227771   0.076   1.677  12.915 -0.8310  3.3578  0.7828
 5438SOL     OW27772   1.182   0.388   7.845 -0.3832  0.7022  0.0034
 5438SOL    HW127773   1.103   0.374   7.898  0.8051 -0.5734  1.4333
 5438SOL    HW227774   1.164   0.385   7.751 -0.1830 -1.9872  0.0356
 5439SOL     OW27775   3.704   0.688   7.758 -0.4411 -0.6193  0.3835
 5439SOL    HW127776   3.630   0.683   7.697  0.6376  0.0647 -0.9782
 5439SOL    HW227777   3.767   0.744   7.712 -0.0199 -0.9120  0.6081
 5440SOL     OW27778   0.653   0.325   2.967 -0.4901  0.1646  0.4719
 5440SOL    HW127779   0.623   0.364   2.885  1.2913  0.9059  0.1563
 5440SOL    HW227780   0.708   0.252   2.939 -1.0530  0.4248 -1.2969
 5441SOL     OW27781   4.545   3.064   6.021  0.0231  0.0118 -0.3813
 5441SOL    HW127782   4.461   3.034   5.985 -0.0965  0.6211 -0.6174
 5441SOL    HW227783   4.543   3.009   6.099  0.1457 -0.6393 -0.8296
 5442SOL     OW27784   4.372   4.241   1.874  0.2159 -0.6668  0.1697
 5442SOL    HW127785   4.313   4.205   1.940  0.9785 -0.0605  1.1855
 5442SOL    HW227786   4.433   4.168   1.864 -0.9603 -1.4597 -1.2863
 5443SOL     OW27787   2.132   4.192   4.241 -0.1547 -0.3135  0.7990
 5443SOL    HW127788   2.210   4.141   4.263 -0.8835 -1.6781  0.1729
 5443SOL    HW227789   2.140   4.184   4.146 -1.9214 -2.3256  0.8248
 5444SOL     OW27790   1.597   0.987   4.004 -0.1004 -0.3581  0.0392
 5444SOL    HW127791   1.605   0.928   3.929 -1.3197 -1.6362  0.9200
 5444SOL    HW227792   1.573   1.068   3.958 -1.3910 -0.9636 -0.3540
 5445SOL     OW27793   3.754   1.070  15.440  0.1816  0.2424  0.2494
 5445SOL    HW127794   3.687   1.139  15.437  0.2070  0.2105 -1.0350
 5445SOL    HW227795   3.816   1.100  15.374  1.3517 -0.4311  1.0286
 5446SOL     OW27796   0.108   1.207   2.717 -0.0632 -0.3362 -0.1231
 5446SOL    HW127797   0.043   1.274   2.698  1.2732  0.7248 -1.0164
 5446SOL    HW227798   0.153   1.224   2.634  1.5135 -0.7554  0.6445
 5447SOL     OW27799   1.588   1.608   1.653 -0.6968 -0.3628  0.0608
 5447SOL    HW127800   1.577   1.582   1.562 -3.3979 -1.6579  0.7649
 5447SOL    HW227801   1.502   1.590   1.693 -1.2262  0.8204 -0.5419
 5448SOL     OW27802   0.205   3.661  15.205 -0.2526  0.2394 -0.2470
 5448SOL    HW127803   0.202   3.646  15.299  0.8038  0.3493 -0.1962
 5448SOL    HW227804   0.114   3.639  15.189 -0.1689 -0.6849  0.5904
 5449SOL     OW27805   2.847   0.822   0.587 -0.7331  0.4520 -0.2412
 5449SOL    HW127806   2.860   0.764   0.662 -0.2398  1.8002  0.7239
 5449SOL    HW227807   2.858   0.759   0.516 -1.2932 -0.9215  0.9012
 5450SOL     OW27808   1.675   1.064   2.971 -0.0317  0.2165  0.5213
 5450SOL    HW127809   1.625   1.140   2.943 -1.6808  0.3854  3.9249
 5450SOL    HW227810   1.617   0.991   2.950  1.4187 -0.7688 -0.0645
 5451SOL     OW27811   0.492   3.267  17.453  0.0538 -0.3427  0.3277
 5451SOL    HW127812   0.407   3.256  17.496  0.1992 -1.5055  0.3107
 5451SOL    HW227813   0.529   3.337  17.506  2.5504  0.3763 -2.3783
 5452SOL     OW27814   0.807   0.618   4.588  0.5768  0.3759 -0.9398
 5452SOL    HW127815   0.845   0.660   4.511  1.0283 -1.8852 -1.9428
 5452SOL    HW227816   0.714   0.638   4.579  0.5499 -0.1845 -1.8614
 5453SOL     OW27817   1.612   0.294   2.011 -0.0248  0.0100 -0.3077
 5453SOL    HW127818   1.605   0.283   2.106  0.8295 -1.0632 -0.3700
 5453SOL    HW227819   1.704   0.301   1.987  0.3351 -0.3143  0.9875
 5454SOL     OW27820   2.494   1.591   8.461  0.3437 -0.0063  0.1444
 5454SOL    HW127821   2.471   1.570   8.552  0.1470 -0.6619 -0.0580
 5454SOL    HW227822   2.407   1.617   8.429  0.0998  1.6812  2.1914
 5455SOL     OW27823   2.108   4.574   7.618  0.1145  0.1522 -0.0025
 5455SOL    HW127824   2.106   4.582   7.522 -1.1662 -2.8852 -0.2363
 5455SOL    HW227825   2.200   4.548   7.623  0.7584  2.3539 -0.3322
 5456SOL     OW27826   3.435   0.376   3.747  0.1041 -0.1940  0.2048
 5456SOL    HW127827   3.483   0.458   3.744 -0.8777  0.3414 -0.6568
 5456SOL    HW227828   3.485   0.320   3.688  1.4023 -1.5921  2.6034
 5457SOL     OW27829   0.925   1.475   3.770 -0.1038  0.4815 -0.3569
 5457SOL    HW127830   0.964   1.558   3.798 -1.9953  1.8833 -1.8946
 5457SOL    HW227831   0.880   1.457   3.853  0.7717 -0.4631 -0.0864
 5458SOL     OW27832   2.056   2.238   3.650 -0.5051 -0.5859 -0.3382
 5458SOL    HW127833   1.994   2.303   3.685 -0.1349 -0.8582  0.8337
 5458SOL    HW227834   2.049   2.161   3.707  0.3233 -0.5240 -0.1640
 5459SOL     OW27835   2.631   3.372   9.332 -0.7408 -0.2600 -0.1899
 5459SOL    HW127836   2.670   3.322   9.404  1.9098 -1.3442 -2.4113
 5459SOL    HW227837   2.698   3.355   9.266 -0.0970  1.4791  0.0093
 5460SOL     OW27838   3.966   1.835  16.209 -0.1311 -0.3667 -0.2796
 5460SOL    HW127839   3.942   1.744  16.230 -1.8617  0.4975  1.5446
 5460SOL    HW227840   3.881   1.878  16.195  0.5834  0.0359 -3.3253
 5461SOL     OW27841   2.481   1.547   4.624  0.4649  0.6836 -0.3696
 5461SOL    HW127842   2.450   1.457   4.614 -1.8009  1.3302  0.8341
 5461SOL    HW227843   2.414   1.600   4.579 -1.3133 -1.1575  0.0915
 5462SOL     OW27844   1.499   3.295   3.268  0.1210  0.0208 -0.0498
 5462SOL    HW127845   1.512   3.353   3.192  2.9556 -1.3437 -0.6015
 5462SOL    HW227846   1.477   3.362   3.332  1.3194 -1.1993  1.6454
 5463SOL     OW27847   0.863   3.689  12.287  0.4614 -0.1700 -0.3876
 5463SOL    HW127848   0.897   3.766  12.241  1.3051  0.0311  0.5940
 5463SOL    HW227849   0.931   3.669  12.351 -0.1593  0.7820  0.5694
 5464SOL     OW27850   1.312   0.468  10.447  0.5635 -0.2367  0.1582
 5464SOL    HW127851   1.240   0.525  10.420  0.8345  0.5841  1.1467
 5464SOL    HW227852   1.374   0.531  10.485  0.0247 -1.0640  2.4067
 5465SOL     OW27853   4.390   1.709   6.050  0.4224  0.6593 -0.0459
 5465SOL    HW127854   4.389   1.614   6.039 -1.6780  0.4987  1.6638
 5465SOL    HW227855   4.372   1.720   6.143  1.8826 -0.0068  0.3170
 5466SOL     OW27856   4.179   1.153  16.522 -0.2139 -0.1708 -0.4312
 5466SOL    HW127857   4.263   1.197  16.512 -1.0737  1.5718  0.0783
 5466SOL    HW227858   4.202   1.075  16.472  1.2999  0.0204 -0.0348
 5467SOL     OW27859   1.680   2.634   5.881  1.0660  0.4548  0.0006
 5467SOL    HW127860   1.683   2.595   5.794  1.4474  0.0729  0.1833
 5467SOL    HW227861   1.587   2.613   5.893  0.8615  1.4378  0.1421
 5468SOL     OW27862   0.529   1.790   8.384  0.5816  0.1928  0.0090
 5468SOL    HW127863   0.595   1.859   8.372  0.9645 -0.1767 -0.0292
 5468SOL    HW227864   0.576   1.716   8.344 -0.1689 -0.6021  0.6138
 5469SOL     OW27865   1.781   3.050   0.030  0.2177  0.0339  0.2179
 5469SOL    HW127866   1.747   3.002   0.105  1.7945  0.5666  1.2893
 5469SOL    HW227867   1.860   3.096   0.058 -0.2008  1.9954 -1.8299
 5470SOL     OW27868   2.797   4.106   3.942 -0.0630 -0.5806 -0.2734
 5470SOL    HW127869   2.889   4.083   3.940  0.0185 -0.3034  0.5087
 5470SOL    HW227870   2.782   4.147   4.027 -1.9322 -2.1149  0.1280
 5471SOL     OW27871   4.166   0.792   8.820 -0.3795  0.3497  1.0425
 5471SOL    HW127872   4.111   0.829   8.752 -0.8449 -1.0459  0.6547
 5471SOL    HW227873   4.182   0.870   8.873  1.8761  0.0810  0.7620
 5472SOL     OW27874   2.664   3.578  15.666 -0.9299 -0.1346 -0.0383
 5472SOL    HW127875   2.646   3.671  15.680  0.7151  0.1986 -0.1726
 5472SOL    HW227876   2.576   3.549  15.640 -0.8720 -0.0574 -0.3168
 5473SOL     OW27877   0.165   2.494   2.400  0.0683  0.1265 -0.0821
 5473SOL    HW127878   0.246   2.450   2.374  0.5228  1.4824 -0.9751
 5473SOL    HW227879   0.141   2.458   2.485  1.6018  0.0317  0.3078
 5474SOL     OW27880   1.495   1.027   9.237 -0.3942  0.2007  0.4347
 5474SOL    HW127881   1.554   1.012   9.311  3.4559  2.2109 -2.1980
 5474SOL    HW227882   1.495   1.122   9.223 -1.0940  0.0024 -0.9011
 5475SOL     OW27883   0.025   3.890   0.881  0.5591  0.5653 -0.4964
 5475SOL    HW127884   0.037   3.800   0.911  0.4225  0.0649 -1.9373
 5475SOL    HW227885   4.696   3.880   0.802 -1.8899 -0.2407  1.2350
 5476SOL     OW27886   0.095   4.583   3.499  0.1789 -0.6284 -0.7046
 5476SOL    HW127887   0.070   4.494   3.477  1.5812 -1.2163  0.0962
 5476SOL    HW227888   0.145   4.606   3.421  0.5119  0.0638 -0.2949
 5477SOL     OW27889   1.749   2.804   6.293  0.0328  0.0916  0.0266
 5477SOL    HW127890   1.667   2.797   6.341 -0.4952  0.5081 -0.8066
 5477SOL    HW227891   1.764   2.714   6.265 -0.7676 -0.0715  0.1372
 5478SOL     OW27892   2.009   0.423   4.605 -0.0550  0.1467  0.0629
 5478SOL    HW127893   2.005   0.357   4.674  0.2263  0.4700  0.3846
 5478SOL    HW227894   2.031   0.364   4.532 -2.5573  0.5103 -0.9783
 5479SOL     OW27895   0.048   0.403  11.160  0.0526 -0.2939 -0.6428
 5479SOL    HW127896   0.040   0.343  11.234 -2.2911  0.4465 -0.2980
 5479SOL    HW227897   0.142   0.420  11.166 -0.4544  2.5178 -0.6406
 5480SOL     OW27898   1.760   2.012   6.757  0.1902  0.2359 -0.2827
 5480SOL    HW127899   1.707   2.091   6.768  0.6598  0.5330 -0.1234
 5480SOL    HW227900   1.698   1.940   6.768 -0.6963  0.8097 -1.6431
 5481SOL     OW27901   4.381   4.456   6.913 -0.1674  0.1946 -0.0988
 5481SOL    HW127902   4.315   4.486   6.852 -0.8697 -0.9026  0.1191
 5481SOL    HW227903   4.327   4.427   6.987  0.2505  0.5634  0.3541
 5482SOL     OW27904   4.660   4.522   1.823  0.3475  0.3051  0.2985
 5482SOL    HW127905   0.028   4.496   1.838  1.0156  2.0796 -0.6216
 5482SOL    HW227906   4.653   4.579   1.899  1.8330 -2.0637  2.1936
 5483SOL     OW27907   3.344   0.019  11.703 -0.1257  0.6422  0.4786
 5483SOL    HW127908   3.391   0.096  11.673 -0.9080 -0.0458 -2.5593
 5483SOL    HW227909   3.311   4.701  11.623 -1.2056  0.7681  0.8531
 5484SOL     OW27910   0.318   1.846   4.397 -0.2845  0.3465  0.4292
 5484SOL    HW127911   0.406   1.807   4.395 -0.4235  0.0890 -0.5507
 5484SOL    HW227912   0.310   1.860   4.492  0.2993 -2.1084  0.8488
 5485SOL     OW27913   0.671   2.057   2.584  0.0622  0.0311 -0.8013
 5485SOL    HW127914   0.625   1.983   2.544  1.2942 -0.7729 -0.7486
 5485SOL    HW227915   0.638   2.074   2.673 -0.3132 -1.7058 -0.5977
 5486SOL     OW27916   3.250   1.436   7.686 -0.3188 -0.0159 -0.8742
 5486SOL    HW127917   3.259   1.344   7.661 -1.6031  0.0246 -1.4456
 5486SOL    HW227918   3.288   1.477   7.608 -0.9625 -1.4258 -1.9045
 5487SOL     OW27919   2.030   3.510   4.025  0.4645  0.7874  0.3994
 5487SOL    HW127920   2.086   3.508   3.948  0.1426  1.3414  0.1496
 5487SOL    HW227921   2.042   3.601   4.051  0.1332  0.3655  2.0307
 5488SOL     OW27922   2.072   1.035   6.398 -0.3627 -0.5960 -0.0510
 5488SOL    HW127923   2.094   1.118   6.356 -0.7130 -0.7462 -0.5163
 5488SOL    HW227924   2.077   1.060   6.491  0.6447  2.4044 -0.9275
 5489SOL     OW27925   1.792   4.605   7.016  0.1693  0.1572  0.3083
 5489SOL    HW127926   1.794   4.648   7.101 -2.9972 -2.0180  1.4660
 5489SOL    HW227927   1.741   4.675   6.976  0.2734  1.3057  2.2061
 5490SOL     OW27928   4.034   4.422   3.656 -0.1789  0.3823 -0.4635
 5490SOL    HW127929   4.009   4.514   3.645  0.7032  1.0523  3.3723
 5490SOL    HW227930   3.962   4.382   3.607  1.3032 -0.4877 -1.9203
 5491SOL     OW27931   3.635   4.428  12.586  0.4402 -0.2549  0.6716
 5491SOL    HW127932   3.571   4.463  12.523  0.4336 -2.5631 -0.6113
 5491SOL    HW227933   3.721   4.455  12.556 -0.3997  1.3771 -0.2742
 5492SOL     OW27934   4.437   2.016   7.717  0.1623  0.3975  0.5753
 5492SOL    HW127935   4.398   2.029   7.630  0.2783 -0.0422  0.4572
 5492SOL    HW227936   4.510   2.077   7.703 -0.9631  1.3854 -1.1154
 5493SOL     OW27937   1.985   0.131  15.559 -0.3219  0.4609  0.6723
 5493SOL    HW127938   1.967   0.073  15.633 -0.4716 -0.1790  0.1295
 5493SOL    HW227939   1.992   0.061  15.495  0.4425  1.8257 -0.7282
 5494SOL     OW27940   2.572   2.749   5.257 -0.2442  0.1686  0.2580
 5494SOL    HW127941   2.612   2.769   5.341  0.1630  2.5943 -0.5093
 5494SOL    HW227942   2.484   2.715   5.277  0.1525 -0.3304  1.1398
 5495SOL     OW27943   3.428   2.935   2.830 -0.6666 -0.6387  0.5944
 5495SOL    HW127944   3.478   2.857   2.853  0.0216 -0.3491  0.0475
 5495SOL    HW227945   3.342   2.906   2.861 -0.4976 -1.2397  0.4934
 5496SOL     OW27946   0.246   1.027  14.162 -0.1582  0.1780  0.2201
 5496SOL    HW127947   0.159   1.036  14.201  0.2153  1.8415  0.7005
 5496SOL    HW227948   0.239   1.077  14.080  1.3963 -0.6030 -0.3824
 5497SOL     OW27949   2.315   2.008   4.317  0.8507 -0.3076  0.7295
 5497SOL    HW127950   2.289   2.008   4.225  0.4780 -0.4759  0.8373
 5497SOL    HW227951   2.237   1.976   4.362 -0.0699  0.8204 -0.0665
 5498SOL     OW27952   3.077   4.401   8.050 -0.3712 -0.1308  0.7744
 5498SOL    HW127953   3.157   4.438   8.014 -1.1640  0.7607 -0.0703
 5498SOL    HW227954   3.088   4.315   8.011  1.8217 -0.3438  1.8414
 5499SOL     OW27955   4.360   3.478  14.627 -0.5195 -0.3061  0.2476
 5499SOL    HW127956   4.281   3.460  14.678 -0.5475  1.3683  0.7730
 5499SOL    HW227957   4.339   3.421  14.553 -0.7349 -0.2107  0.2354
 5500SOL     OW27958   3.519   0.701  13.042 -0.1882 -0.6301 -0.8654
 5500SOL    HW127959   3.554   0.788  13.062  0.7105 -0.4460 -3.1956
 5500SOL    HW227960   3.532   0.712  12.947 -2.7409  1.9592 -0.9345
 5501SOL     OW27961   0.692   1.345   1.929  0.6522  0.1887 -0.7876
 5501SOL    HW127962   0.634   1.284   1.975  0.2865 -1.2452 -3.1268
 5501SOL    HW227963   0.669   1.334   1.836  0.5003 -0.9239 -0.6223
 5502SOL     OW27964   0.711   3.336   5.914 -0.2320 -0.2250  0.3350
 5502SOL    HW127965   0.707   3.253   5.866 -0.3128  1.0092 -1.8397
 5502SOL    HW227966   0.741   3.312   6.001 -0.8081  0.5590  0.7434
 5503SOL     OW27967   3.948   3.632   4.312  0.1600 -0.1476 -1.2199
 5503SOL    HW127968   3.912   3.720   4.304 -1.6922 -0.9123 -1.2432
 5503SOL    HW227969   3.926   3.587   4.230  0.1146  0.0443 -1.3129
 5504SOL     OW27970   1.555   2.978  11.665  0.3265  0.0878  0.1952
 5504SOL    HW127971   1.634   3.006  11.712  0.6169  0.2470 -0.3802
 5504SOL    HW227972   1.550   3.036  11.589 -2.0825 -1.6543 -0.9561
 5505SOL     OW27973   0.357   0.848   3.453  0.4153  0.4465  0.2275
 5505SOL    HW127974   0.320   0.810   3.532  0.3420  0.0752  0.0115
 5505SOL    HW227975   0.307   0.797   3.390 -0.1832  1.8526 -0.4459
 5506SOL     OW27976   1.236   1.674  13.303  0.1790  0.3175 -0.4993
 5506SOL    HW127977   1.276   1.588  13.295  2.5597  1.5136 -1.2902
 5506SOL    HW227978   1.187   1.669  13.221 -1.2262  0.1586  0.3418
 5507SOL     OW27979   3.890   3.477   5.813 -0.2515 -0.0213 -0.3137
 5507SOL    HW127980   3.839   3.558   5.803 -1.6081 -0.8703 -0.2574
 5507SOL    HW227981   3.978   3.511   5.800  0.3376 -1.4953 -0.0963
 5508SOL     OW27982   1.177   1.827  14.493 -0.1549 -0.1304  0.3519
 5508SOL    HW127983   1.272   1.830  14.504 -0.1580  1.3932 -0.0834
 5508SOL    HW227984   1.173   1.896  14.426  0.8369 -0.7646 -0.3563
 5509SOL     OW27985   3.556   0.622  13.542 -0.1500 -0.6850 -0.6805
 5509SOL    HW127986   3.616   0.564  13.588  1.3787 -0.0180 -1.8257
 5509SOL    HW227987   3.562   0.585  13.454  1.9250 -1.0483 -0.3749
 5510SOL     OW27988   4.137   3.630   2.155  0.2209 -0.0750  0.2497
 5510SOL    HW127989   4.068   3.593   2.210  0.2610  1.8120  1.5831
 5510SOL    HW227990   4.209   3.649   2.216  1.1004  3.5580 -1.9447
 5511SOL     OW27991   3.729   1.569   5.208  0.0664  0.1570  0.3178
 5511SOL    HW127992   3.747   1.593   5.118  2.7622 -3.4052 -0.1062
 5511SOL    HW227993   3.811   1.589   5.252  1.0661 -1.9203 -0.6153
 5512SOL     OW27994   0.096   4.611   1.132 -0.3272  0.9524  0.5166
 5512SOL    HW127995   0.023   4.618   1.070  0.3373 -0.5123 -0.4223
 5512SOL    HW227996   0.146   4.536   1.099 -3.0650 -0.7620  0.3156
 5513SOL     OW27997   3.452   3.267  15.050  0.5601 -0.0348  0.0502
 5513SOL    HW127998   3.479   3.202  14.985  0.5888  1.6636 -1.6249
 5513SOL    HW227999   3.357   3.269  15.033  0.2608  0.5907  1.7819
 5514SOL     OW28000   2.956   3.072   6.507  0.1392 -0.1732  0.1762
 5514SOL    HW128001   2.987   3.106   6.591  2.1055  0.2717 -0.7335
 5514SOL    HW228002   3.022   3.004   6.494  0.5741  0.4190 -0.6800
 5515SOL     OW28003   3.568   0.790  10.308 -0.1421 -0.2551 -0.6331
 5515SOL    HW128004   3.515   0.861  10.272  0.6474 -0.7261 -2.7277
 5515SOL    HW228005   3.623   0.756  10.237 -0.5926 -0.5666 -0.8348
 5516SOL     OW28006   0.695   0.178   2.129  0.3392 -0.3478 -0.7796
 5516SOL    HW128007   0.697   0.268   2.098  1.6762 -0.8598 -2.1803
 5516SOL    HW228008   0.603   0.173   2.153  0.7566 -0.5010  0.7422
 5517SOL     OW28009   0.403   3.170   2.051 -0.4278 -0.1819 -0.2758
 5517SOL    HW128010   0.390   3.135   1.963  0.2183  1.1229 -0.8970
 5517SOL    HW228011   0.313   3.187   2.078  0.2561  1.9282  0.7477
 5518SOL     OW28012   1.157   3.209   8.918  0.2398 -0.1287 -0.2086
 5518SOL    HW128013   1.121   3.297   8.920 -3.7589 -1.7555 -2.0850
 5518SOL    HW228014   1.128   3.178   8.832 -1.6828  2.6183 -0.5340
 5519SOL     OW28015   0.405   3.092   5.695  0.1657  0.2018 -0.4463
 5519SOL    HW128016   0.366   3.012   5.658  1.8880 -0.4781 -0.7962
 5519SOL    HW228017   0.341   3.112   5.763  0.3089 -0.9047  0.0296
 5520SOL     OW28018   3.343   2.898   9.166 -0.1197 -0.1153 -0.6429
 5520SOL    HW128019   3.406   2.845   9.117 -0.2389 -1.3446  0.5554
 5520SOL    HW228020   3.356   2.852   9.249  1.9826  0.6671 -0.5186
 5521SOL     OW28021   3.437   3.214   2.065  0.0027  0.0351 -0.0705
 5521SOL    HW128022   3.515   3.218   2.122 -0.6781  0.1513  0.8572
 5521SOL    HW228023   3.382   3.269   2.121  0.0602 -0.3142  0.3256
 5522SOL     OW28024   0.264   3.305   0.073  0.1232  0.2588  0.2555
 5522SOL    HW128025   0.275   3.328   0.165 -3.5070  1.1780  0.4461
 5522SOL    HW228026   0.281   3.390   0.031  2.4209  0.2035  1.0801
 5523SOL     OW28027   2.630   3.601   9.637 -0.0390  0.2999  0.2955
 5523SOL    HW128028   2.620   3.593   9.732  0.0609 -0.9365  0.1981
 5523SOL    HW228029   2.590   3.523   9.599 -0.0150  0.1795  0.5186
 5524SOL     OW28030   0.147   0.364   3.064 -0.1082 -0.0615  0.4660
 5524SOL    HW128031   0.220   0.352   3.124  1.3734 -1.2593 -1.5844
 5524SOL    HW228032   0.144   0.276   3.028  2.8059 -0.5001  1.3117
 5525SOL     OW28033   2.504   3.944   9.048 -0.2238  0.1534  0.4246
 5525SOL    HW128034   2.468   4.020   9.002  0.5589  0.5478  0.4695
 5525SOL    HW228035   2.532   3.888   8.976 -1.7648 -1.2363  0.9137
 5526SOL     OW28036   2.137   2.039   3.091  0.0717 -0.3771 -0.1664
 5526SOL    HW128037   2.184   2.123   3.084  0.2538 -0.1670  3.6492
 5526SOL    HW228038   2.108   2.030   3.182 -0.9103 -2.0371 -0.6479
 5527SOL     OW28039   3.862   0.275   6.586 -0.4969 -0.3792  0.4493
 5527SOL    HW128040   3.911   0.234   6.657  0.6293  3.2371  1.7704
 5527SOL    HW228041   3.815   0.348   6.626 -2.2671 -1.3685  0.1645
 5528SOL     OW28042   1.267   3.488   7.625  0.1919 -0.2852 -0.7194
 5528SOL    HW128043   1.352   3.518   7.657 -1.2228  0.8044  1.9993
 5528SOL    HW228044   1.201   3.526   7.683 -0.1206  0.1236 -1.3372
 5529SOL     OW28045   4.216   4.152   8.901 -0.2654  0.4148 -0.1157
 5529SOL    HW128046   4.281   4.221   8.915  0.4211 -0.1687 -0.4041
 5529SOL    HW228047   4.138   4.184   8.946 -1.1839 -1.2018 -0.5686
 5530SOL     OW28048   2.572   3.484   2.945 -0.7888 -0.1078  0.2624
 5530SOL    HW128049   2.487   3.499   2.987  0.2388  0.3889  2.1567
 5530SOL    HW228050   2.570   3.528   2.860 -0.5377  0.8180  0.7390
 5531SOL     OW28051   4.318   0.417   3.730 -0.2087 -0.5375 -0.1630
 5531SOL    HW128052   4.374   0.433   3.806 -1.7744  0.6408  0.7340
 5531SOL    HW228053   4.381   0.425   3.658 -2.0216  0.0119 -1.7077
 5532SOL     OW28054   0.958   4.419   6.088  0.0385 -0.2089 -0.2618
 5532SOL    HW128055   1.001   4.496   6.126 -1.2278  0.5986 -0.4543
 5532SOL    HW228056   0.896   4.463   6.029 -1.3601 -2.5177 -0.5039
 5533SOL     OW28057   0.929   0.100   6.900 -0.0715 -0.5690 -0.2322
 5533SOL    HW128058   0.983   0.030   6.863 -0.3854  0.1043 -1.9812
 5533SOL    HW228059   0.846   0.093   6.853  0.7054 -2.4798 -1.2943
 5534SOL     OW28060   2.985   4.512   9.773 -0.0412 -0.6438 -0.4625
 5534SOL    HW128061   3.002   4.527   9.866  2.4742 -1.2674 -0.8403
 5534SOL    HW228062   2.916   4.446   9.783 -0.4664  0.0725  1.3323
 5535SOL     OW28063   0.216   1.036  15.889 -0.4304  0.1565  0.7674
 5535SOL    HW128064   0.304   1.009  15.912 -0.4780 -1.4617 -1.0387
 5535SOL    HW228065   0.170   0.958  15.858  0.6748  0.2507 -1.0713
 5536SOL     OW28066   3.323   2.674   8.429  0.3201  0.2602 -0.0725
 5536SOL    HW128067   3.361   2.591   8.401  0.7935  1.2613 -2.4022
 5536SOL    HW228068   3.365   2.738   8.372  1.4380  0.7858  1.3479
 5537SOL     OW28069   0.936   1.390   0.486  0.3081 -0.2054 -0.1082
 5537SOL    HW128070   0.996   1.337   0.434 -0.7105 -0.3589 -1.1275
 5537SOL    HW228071   0.854   1.384   0.437  1.0033 -2.7599 -0.9431
 5538SOL     OW28072   0.563   4.584  13.780  0.1262 -0.3541  0.6092
 5538SOL    HW128073   0.614   4.658  13.814  1.1824 -0.6685 -0.2590
 5538SOL    HW228074   0.556   4.538  13.863  0.2202  0.2909  0.9726
 5539SOL     OW28075   1.316   0.061   9.246  0.1137  0.4183 -0.2086
 5539SOL    HW128076   1.242   0.017   9.204  0.0467  1.1805 -0.8880
 5539SOL    HW228077   1.282   0.089   9.331  0.3237  1.3492 -0.4368
 5540SOL     OW28078   0.083   4.337   0.517  0.2689  0.1448  0.4441
 5540SOL    HW128079   0.024   4.366   0.447 -0.5626 -0.5526  0.8581
 5540SOL    HW228080   0.089   4.246   0.488  0.9678 -0.4891  2.6094
 5541SOL     OW28081   1.475   0.663   5.729  0.1450 -0.2313 -0.0238
 5541SOL    HW128082   1.522   0.622   5.802  1.0943  1.0349  0.0897
 5541SOL    HW228083   1.552   0.677   5.673 -0.2787  2.8549  0.1301
 5542SOL     OW28084   2.256   3.186  17.195  0.1475  0.2977 -0.0412
 5542SOL    HW128085   2.188   3.176  17.129  2.0438 -2.7872 -1.5050
 5542SOL    HW228086   2.218   3.142  17.271  1.4866 -0.3061  0.2779
 5543SOL     OW28087   2.672   4.360  16.568 -0.4410 -0.6730  0.1179
 5543SOL    HW128088   2.612   4.287  16.581  2.1331 -2.5079  1.9362
 5543SOL    HW228089   2.639   4.416  16.498  0.5007  1.1975  1.1407
 5544SOL     OW28090   2.679   0.770   7.937  0.0428  0.5353  0.3785
 5544SOL    HW128091   2.683   0.830   8.011 -0.2640  1.6273 -0.4869
 5544SOL    HW228092   2.596   0.800   7.899  0.7138 -0.4794 -1.8927
 5545SOL     OW28093   1.599   0.755   8.847  0.3902  0.4992  0.4119
 5545SOL    HW128094   1.546   0.683   8.882  0.8802 -1.2956 -2.5915
 5545SOL    HW228095   1.685   0.724   8.875  1.2399  0.5827 -2.1683
 5546SOL     OW28096   4.107   0.491   6.377  0.2431 -0.2771  0.1740
 5546SOL    HW128097   4.167   0.439   6.323 -1.3843 -2.7043  0.7084
 5546SOL    HW228098   4.157   0.503   6.457  0.2631  1.2878 -0.0609
 5547SOL     OW28099   4.664   0.221   3.414 -0.0550  0.5006  0.0385
 5547SOL    HW128100   4.696   0.131   3.405  0.8857  0.9308 -0.9600
 5547SOL    HW228101   4.619   0.231   3.330  0.1001  1.6162  0.0883
 5548SOL     OW28102   2.040   0.078   0.158 -0.1978 -0.6974 -0.2687
 5548SOL    HW128103   1.979   0.142   0.122  0.4094  0.1057  0.1536
 5548SOL    HW228104   1.986   4.723   0.164 -2.1578  0.7816  1.2688
 5549SOL     OW28105   0.011   1.629   1.529 -0.1070  0.6265 -0.1254
 5549SOL    HW128106   4.673   1.701   1.517  1.9695  2.5947  0.9740
 5549SOL    HW228107   0.098   1.669   1.518  0.5572 -1.1153 -1.1992
 5550SOL     OW28108   2.216   4.381  15.349 -0.0504  0.5291  0.3362
 5550SOL    HW128109   2.219   4.285  15.356 -2.8557  0.4552  0.7312
 5550SOL    HW228110   2.307   4.398  15.324  0.2029 -0.5813  0.4950
 5551SOL     OW28111   1.035   2.193   2.376 -0.6668 -0.2734 -0.0945
 5551SOL    HW128112   1.078   2.109   2.365 -0.4605 -0.1349 -0.3486
 5551SOL    HW228113   0.988   2.173   2.457 -1.2928  1.3405 -0.0589
 5552SOL     OW28114   0.453   1.547   8.031  0.1352  0.1052  0.3144
 5552SOL    HW128115   0.397   1.608   7.982 -1.3284 -0.5562  1.1954
 5552SOL    HW228116   0.391   1.489   8.074  0.4843 -0.2283  0.3604
 5553SOL     OW28117   1.227   4.706  10.810 -0.0795 -0.7287 -0.1759
 5553SOL    HW128118   1.142   4.671  10.839  0.0745  0.0119  1.1783
 5553SOL    HW228119   1.292   4.667  10.867 -0.7584 -2.6413 -0.7076
 5554SOL     OW28120   1.889   2.217   0.117 -0.1592 -0.5495 -0.3006
 5554SOL    HW128121   1.980   2.205   0.087 -0.2942 -0.7237 -0.6405
 5554SOL    HW228122   1.853   2.277   0.052 -0.1148  0.0530  0.2252
 5555SOL     OW28123   2.889   2.040   4.968  0.2686 -0.5008 -0.2075
 5555SOL    HW128124   2.876   1.967   5.029 -0.3101  0.1259  0.4190
 5555SOL    HW228125   2.805   2.030   4.923 -0.3403 -0.0028  0.8070
 5556SOL     OW28126   3.789   3.222  11.912  0.2907 -0.2544 -0.2614
 5556SOL    HW128127   3.698   3.192  11.908  0.6535 -1.4824  0.8788
 5556SOL    HW228128   3.795   3.282  11.837  1.3642 -0.9232 -0.7101
 5557SOL     OW28129   2.986   3.712  17.639  0.1087 -0.1534 -0.0517
 5557SOL    HW128130   3.055   3.655  17.607  0.0826 -1.4012  2.1209
 5557SOL    HW228131   2.945   3.668   0.019 -0.2349  1.8663  0.9538
 5558SOL     OW28132   0.505   0.231  10.215  0.1180 -0.2912 -0.0875
 5558SOL    HW128133   0.585   0.184  10.192 -0.0708 -0.3026 -0.7305
 5558SOL    HW228134   0.534   0.279  10.292 -0.2814  0.8909 -0.6708
 5559SOL     OW28135   0.768   4.531   0.412 -0.2895  0.0023  0.5371
 5559SOL    HW128136   0.782   4.569   0.325  2.5382 -1.8904  0.1574
 5559SOL    HW228137   0.840   4.467   0.413 -1.4695 -1.3531 -1.0344
 5560SOL     OW28138   1.476   1.002  16.929 -0.1900 -0.1023 -0.1881
 5560SOL    HW128139   1.535   0.969  16.861 -1.3985 -2.2828 -0.1739
 5560SOL    HW228140   1.394   0.975  16.886  0.3372 -2.5533  0.3473
 5561SOL     OW28141   0.773   3.256  15.145  0.9821 -0.2392 -0.5122
 5561SOL    HW128142   0.713   3.331  15.142  0.0632 -1.0020 -1.2330
 5561SOL    HW228143   0.803   3.239  15.056 -0.4801 -1.3106 -0.7964
 5562SOL     OW28144   2.362   1.870   2.301  0.3716  0.0490  0.3928
 5562SOL    HW128145   2.446   1.844   2.263 -0.0981 -0.3760 -0.3616
 5562SOL    HW228146   2.307   1.796   2.274  0.5185  1.0256 -2.5785
 5563SOL     OW28147   1.572   3.639   9.403 -0.3476  0.3919  0.8471
 5563SOL    HW128148   1.582   3.682   9.318 -1.2129  2.2308  1.6786
 5563SOL    HW228149   1.559   3.550   9.370 -1.1997  0.2284  1.6222
 5564SOL     OW28150   0.953   2.887   4.400 -0.5646  0.4921  0.0600
 5564SOL    HW128151   0.948   2.866   4.493 -2.3305  1.1589  0.1281
 5564SOL    HW228152   0.947   2.983   4.401 -1.7532  0.4318 -0.6207
 5565SOL     OW28153   4.513   1.801   9.012  0.0711  0.7099 -0.3199
 5565SOL    HW128154   4.527   1.860   9.085 -2.2111  0.5966  0.1937
 5565SOL    HW228155   4.514   1.714   9.053 -1.6246  1.1166  0.5615
 5566SOL     OW28156   4.429   4.317  14.492  0.1050 -0.1640 -0.3342
 5566SOL    HW128157   4.425   4.352  14.581  3.2726  0.6602 -0.5102
 5566SOL    HW228158   4.337   4.306  14.467 -0.1993  1.1750  0.1979
 5567SOL     OW28159   0.192   2.101  10.698  0.1931 -0.4510  0.2968
 5567SOL    HW128160   0.220   2.047  10.624 -0.2843  1.2884 -1.1694
 5567SOL    HW228161   0.273   2.124  10.743  0.0157 -4.4946  2.7318
 5568SOL     OW28162   1.747   0.839  15.078  1.3036 -0.9237 -0.2601
 5568SOL    HW128163   1.838   0.821  15.098  0.9031 -1.7895  0.7838
 5568SOL    HW228164   1.713   0.779  15.144  0.9851 -2.3389 -1.7062
 5569SOL     OW28165   1.602   1.294  13.248 -0.5194  0.1584 -0.0770
 5569SOL    HW128166   1.518   1.330  13.276 -0.8278 -0.4395 -0.2204
 5569SOL    HW228167   1.661   1.335  13.310 -0.3961 -0.0277 -0.0711
 5570SOL     OW28168   2.618   1.771   0.565 -0.1976  0.1007  0.3318
 5570SOL    HW128169   2.554   1.819   0.618 -3.4994 -1.4878 -2.2749
 5570SOL    HW228170   2.639   1.707   0.633 -1.5258  0.2641  0.8813
 5571SOL     OW28171   2.641   4.102   5.025  0.1510 -0.2689 -0.4090
 5571SOL    HW128172   2.561   4.125   5.071  0.0999 -1.8555  0.2956
 5571SOL    HW228173   2.712   4.140   5.077  0.4360  0.1482 -1.1042
 5572SOL     OW28174   4.684   3.592  11.420  0.0681  0.3868 -0.8943
 5572SOL    HW128175   4.680   3.613  11.513 -1.3300 -3.2203 -0.1464
 5572SOL    HW228176   4.701   3.674  11.375 -0.2376  0.4046 -0.9724
 5573SOL     OW28177   0.298   0.415  12.988  0.5516  0.6522  0.2002
 5573SOL    HW128178   0.209   0.419  13.023  0.3511  3.2318 -0.6040
 5573SOL    HW228179   0.294   0.459  12.903 -2.0216 -1.6666 -0.8643
 5574SOL     OW28180   1.850   2.170  10.905  0.1032  0.1133 -0.1879
 5574SOL    HW128181   1.924   2.193  10.961 -0.0580  0.5063 -0.1389
 5574SOL    HW228182   1.812   2.257  10.895  1.6525  0.5787 -2.0952
 5575SOL     OW28183   4.054   1.981  11.106  0.1998  0.6759 -0.0343
 5575SOL    HW128184   4.138   2.016  11.135  1.4048 -1.2323 -1.2238
 5575SOL    HW228185   4.084   1.927  11.033  0.9523  1.6540 -0.4539
 5576SOL     OW28186   0.094   2.546   6.534 -0.7501 -0.5662  0.0908
 5576SOL    HW128187   0.004   2.572   6.555 -0.6779  0.0346 -0.3291
 5576SOL    HW228188   0.085   2.485   6.461 -2.3358  0.4078 -0.5319
 5577SOL     OW28189   1.550   0.616  16.094  0.6568  0.0704 -0.2794
 5577SOL    HW128190   1.639   0.619  16.128  0.9642  1.6580 -1.2321
 5577SOL    HW228191   1.570   0.593  16.003 -2.3334  1.0180 -1.1964
 5578SOL     OW28192   1.196   1.852   7.134 -0.4572  0.5801 -0.1809
 5578SOL    HW128193   1.237   1.766   7.119  1.5646  1.6411 -0.6755
 5578SOL    HW228194   1.103   1.834   7.119 -0.3161  0.2581 -0.6760
 5579SOL     OW28195   3.942   3.154   6.086 -0.2286  0.5205  0.0907
 5579SOL    HW128196   3.944   3.118   5.997  0.5597  1.9332 -0.4521
 5579SOL    HW228197   3.879   3.225   6.086  1.1825  1.7732  3.5544
 5580SOL     OW28198   3.403   3.034   7.132 -0.8796 -0.2087 -0.3574
 5580SOL    HW128199   3.370   2.991   7.211 -0.7933 -2.1472 -1.3531
 5580SOL    HW228200   3.340   2.996   7.070  0.1743 -1.0075 -0.9317
 5581SOL     OW28201   3.303   3.542   9.845  0.1447  0.0519 -0.0232
 5581SOL    HW128202   3.375   3.523   9.905  1.0622  0.9016 -0.8538
 5581SOL    HW228203   3.282   3.630   9.876 -1.0620  0.0897 -0.9245
 5582SOL     OW28204   1.638   0.777   1.302 -0.2557  0.3263  0.2311
 5582SOL    HW128205   1.604   0.696   1.264 -0.1772  1.3757 -2.0463
 5582SOL    HW228206   1.624   0.764   1.396 -2.5730 -1.4882 -0.3664
 5583SOL     OW28207   4.101   3.099   3.860 -0.5453 -0.3003 -0.1364
 5583SOL    HW128208   4.131   3.010   3.881  0.7323  0.9617  3.2842
 5583SOL    HW228209   4.019   3.092   3.910 -2.3816  0.6124 -3.0265
 5584SOL     OW28210   0.616   1.299   4.854 -0.6697 -0.2870  0.4177
 5584SOL    HW128211   0.578   1.231   4.909 -0.3334 -0.2408  0.7009
 5584SOL    HW228212   0.594   1.278   4.763 -1.4186 -1.4328  0.8671
 5585SOL     OW28213   3.896   3.134   3.483 -0.1897  0.3944 -0.0130
 5585SOL    HW128214   3.804   3.109   3.478 -0.0457 -0.3014  0.8773
 5585SOL    HW228215   3.910   3.173   3.396 -1.3150  1.5618  0.3298
 5586SOL     OW28216   4.719   4.274   2.493  0.0463  0.1666  0.4939
 5586SOL    HW128217   0.010   4.363   2.525  3.5382 -1.0148  2.2148
 5586SOL    HW228218   4.654   4.292   2.424 -0.2857 -2.5619  0.1043
 5587SOL     OW28219   0.433   3.526  12.114 -0.3047  0.9765  0.1448
 5587SOL    HW128220   0.526   3.512  12.132 -0.0743  4.3142  1.6421
 5587SOL    HW228221   0.430   3.619  12.094  0.0405  0.5787 -1.7382
 5588SOL     OW28222   3.923   4.233   7.798  0.0558  0.6468  0.1496
 5588SOL    HW128223   3.923   4.329   7.792  0.7157  0.6955  0.9648
 5588SOL    HW228224   3.832   4.221   7.771 -0.1403  1.4419  0.4570
 5589SOL     OW28225   3.633   3.691  16.183 -0.5607 -0.5471 -0.0119
 5589SOL    HW128226   3.541   3.715  16.181 -1.2877 -3.2168  0.4341
 5589SOL    HW228227   3.682   3.765  16.219 -1.6831 -0.2936  1.0032
 5590SOL     OW28228   4.028   4.137   2.271  0.3575  0.0193 -0.5953
 5590SOL    HW128229   3.975   4.083   2.330 -0.0179 -2.0448 -2.8061
 5590SOL    HW228230   4.111   4.126   2.317  0.5151 -0.1019 -0.9049
 5591SOL     OW28231   1.606   1.275   2.799  0.0914 -0.0524 -0.0194
 5591SOL    HW128232   1.609   1.350   2.859 -0.9455  0.0690 -0.1046
 5591SOL    HW228233   1.690   1.291   2.757 -0.5416 -0.6953 -1.5613
 5592SOL     OW28234   0.662   4.512   0.670  0.3887 -0.3624  0.0203
 5592SOL    HW128235   0.714   4.584   0.706 -0.0058  1.1135 -2.4032
 5592SOL    HW228236   0.690   4.518   0.579 -0.4379 -0.2973 -0.2286
 5593SOL     OW28237   4.624   4.569   0.958 -0.0513  0.3670 -0.4522
 5593SOL    HW128238   4.545   4.623   0.956  0.2206  0.8130  0.5259
 5593SOL    HW228239   4.626   4.535   0.869  1.9719  1.3487 -0.7888
 5594SOL     OW28240   3.881   0.832   3.399 -0.1893 -0.1661 -0.0161
 5594SOL    HW128241   3.804   0.825   3.456 -1.0466 -1.3392 -1.3301
 5594SOL    HW228242   3.887   0.747   3.356  0.3759  0.3048 -0.8680
 5595SOL     OW28243   0.904   1.991   5.482  0.3030  0.0508  0.0903
 5595SOL    HW128244   0.900   1.895   5.489 -1.3983 -0.0191 -1.7651
 5595SOL    HW228245   0.941   2.010   5.395 -2.7970 -0.0645 -1.2430
 5596SOL     OW28246   3.375   4.685   8.271  0.5124 -0.2240  0.1644
 5596SOL    HW128247   3.386   0.050   8.234  1.2626  0.0450  1.0363
 5596SOL    HW228248   3.450   4.635   8.238  0.2132  1.0124 -2.4222
 5597SOL     OW28249   1.785   0.024  11.105 -0.1011 -0.0073 -0.1468
 5597SOL    HW128250   1.874   0.041  11.076  0.3086 -0.5378  0.7972
 5597SOL    HW228251   1.744   0.004  11.021 -0.8549  0.3790  0.1298
 5598SOL     OW28252   2.413   2.829   8.453 -0.0154  0.1192  0.7287
 5598SOL    HW128253   2.482   2.780   8.499  0.9112  1.1917  0.4848
 5598SOL    HW228254   2.449   2.917   8.462  1.6749 -0.5212  0.2043
 5599SOL     OW28255   0.982   4.105   1.191  0.4185  0.1201 -0.5809
 5599SOL    HW128256   1.024   4.112   1.277  0.4248  0.4934 -0.6128
 5599SOL    HW228257   0.943   4.019   1.205 -1.4721  1.2709  1.1688
 5600SOL     OW28258   0.674   2.745  11.642  0.2387  0.7841  0.0395
 5600SOL    HW128259   0.653   2.658  11.676  0.2839  0.8642  0.2694
 5600SOL    HW228260   0.759   2.726  11.602 -0.2709 -0.4953 -0.4414
 5601SOL     OW28261   0.363   4.126  12.270  0.0559 -0.0885  0.5112
 5601SOL    HW128262   0.294   4.089  12.214 -1.7281  2.6598  0.8956
 5601SOL    HW228263   0.412   4.044  12.265  0.8419  0.3616  0.8766
 5602SOL     OW28264   2.211   1.536   5.045 -0.5741 -0.3077 -0.7694
 5602SOL    HW128265   2.251   1.474   4.984 -0.4568 -2.9610  2.0107
 5602SOL    HW228266   2.165   1.473   5.101  1.0328 -1.8577 -1.1788
 5603SOL     OW28267   2.547   2.881   2.112 -0.4573  0.6211 -0.3383
 5603SOL    HW128268   2.478   2.903   2.175 -2.2637 -2.4545 -1.2658
 5603SOL    HW228269   2.509   2.806   2.066 -2.3191  1.4891 -0.2156
 5604SOL     OW28270   4.539   2.823   3.406  0.1669  0.1246  0.3397
 5604SOL    HW128271   4.556   2.729   3.409 -0.2850  0.0932  2.4054
 5604SOL    HW228272   4.597   2.876   3.462  0.1830 -1.7058  2.0601
 5605SOL     OW28273   0.089   3.368   6.632  0.1636  0.7078 -0.2651
 5605SOL    HW128274   0.088   3.419   6.713  0.5050 -1.0365  0.8541
 5605SOL    HW228275   0.183   3.375   6.613  0.1538  3.0392  0.5883
 5606SOL     OW28276   1.121   3.942   9.714  0.4710 -0.3637  0.3232
 5606SOL    HW128277   1.104   3.944   9.808 -0.7092 -1.3071  0.1352
 5606SOL    HW228278   1.177   4.019   9.703 -0.5202  0.4914  1.1585
 5607SOL     OW28279   1.359   1.199  17.369  0.8464 -0.1272  0.0559
 5607SOL    HW128280   1.327   1.289  17.381 -3.5696 -1.4157 -2.1780
 5607SOL    HW228281   1.338   1.154  17.450  2.2619 -1.7584 -0.4761
 5608SOL     OW28282   2.955   3.226   4.614 -0.2508  0.0714 -0.0416
 5608SOL    HW128283   2.903   3.149   4.594 -0.8061  0.2254  0.8307
 5608SOL    HW228284   3.020   3.173   4.660  0.0648  0.3995 -0.1101
 5609SOL     OW28285   2.191   3.368  16.543 -0.0543  0.4468  0.8566
 5609SOL    HW128286   2.113   3.412  16.509 -0.2678 -1.0687 -0.5934
 5609SOL    HW228287   2.247   3.430  16.495 -0.6547  0.7559  0.5567
 5610SOL     OW28288   1.742   0.772   5.897  0.5224 -0.1862  0.6073
 5610SOL    HW128289   1.690   0.841   5.855  0.5487  0.0753  0.9958
 5610SOL    HW228290   1.809   0.828   5.935  0.7222 -1.3653  1.9970
 5611SOL     OW28291   1.137   3.526   5.548 -0.0726  0.2977 -0.1453
 5611SOL    HW128292   1.195   3.457   5.515  0.1637  0.3083  0.2401
 5611SOL    HW228293   1.194   3.603   5.542 -0.5141  0.6466  0.0903
 5612SOL     OW28294   0.156   4.031   2.448 -0.3539 -0.1134  0.0952
 5612SOL    HW128295   0.131   4.112   2.403 -0.3870 -2.3129 -3.8287
 5612SOL    HW228296   0.133   4.052   2.538  4.0464  1.3511  0.8613
 5613SOL     OW28297   4.383   3.763   0.561  0.1637 -0.0061 -0.2389
 5613SOL    HW128298   4.436   3.718   0.495  0.6889  0.7964 -0.3570
 5613SOL    HW228299   4.448   3.825   0.593 -0.1771 -0.1234  0.6783
 5614SOL     OW28300   0.819   3.544   5.765  0.1051 -0.2618  0.0800
 5614SOL    HW128301   0.757   3.489   5.815 -0.1752  0.7425  0.8456
 5614SOL    HW228302   0.754   3.585   5.708 -0.0056 -0.1365  0.2938
 5615SOL     OW28303   0.128   0.468  13.959  0.5030  0.2942  0.3506
 5615SOL    HW128304   0.047   0.476  13.908  0.1211  1.0377  1.0766
 5615SOL    HW228305   0.092   0.436  14.042 -0.2996  1.3028  0.3860
 5616SOL     OW28306   2.691   2.565   2.898  0.0156 -0.3464  0.8588
 5616SOL    HW128307   2.695   2.528   2.986  0.4963  0.7977  1.3220
 5616SOL    HW228308   2.686   2.657   2.923 -2.0053 -0.2448  0.0668
 5617SOL     OW28309   0.891   0.754  14.729 -0.4992 -0.2092 -0.3434
 5617SOL    HW128310   0.975   0.777  14.768 -0.7334 -0.6835  0.4412
 5617SOL    HW228311   0.842   0.835  14.741  0.3860  0.2264  0.3232
 5618SOL     OW28312   2.750   4.138   3.648 -0.2624 -0.0797  0.4875
 5618SOL    HW128313   2.748   4.048   3.615 -1.9639 -0.4844  1.6574
 5618SOL    HW228314   2.760   4.119   3.741  0.9098 -1.4995  0.0699
 5619SOL     OW28315   2.607   4.606   7.647 -0.4044  0.1224 -0.2505
 5619SOL    HW128316   2.669   4.535   7.663 -0.1837  0.4494  0.3580
 5619SOL    HW228317   2.632   4.647   7.730 -0.2396 -2.3351  0.9178
 5620SOL     OW28318   0.406   0.730   2.552 -0.1775  0.5069 -0.2149
 5620SOL    HW128319   0.392   0.636   2.558 -1.8858  0.7525 -0.2531
 5620SOL    HW228320   0.501   0.733   2.541 -0.2827  0.2371 -1.2208
 5621SOL     OW28321   3.216   3.095   8.361 -0.2532  0.5164 -0.3452
 5621SOL    HW128322   3.212   3.073   8.454  0.6454  0.4855 -0.3100
 5621SOL    HW228323   3.288   3.158   8.357  1.2487 -1.1425  0.4079
 5622SOL     OW28324   0.651   4.485  14.239 -0.1153  0.3309  0.3029
 5622SOL    HW128325   0.609   4.521  14.317  1.1650 -1.1858  1.6975
 5622SOL    HW228326   0.723   4.547  14.246 -0.1918  0.4311  0.2035
 5623SOL     OW28327   0.313   4.376   6.694  0.3257 -0.3369 -0.3053
 5623SOL    HW128328   0.368   4.306   6.730 -0.8752 -0.4360  1.3354
 5623SOL    HW228329   0.254   4.392   6.768 -1.0714 -1.9961 -1.0588
 5624SOL     OW28330   2.085   3.423   4.907 -0.5018  0.5656  0.0586
 5624SOL    HW128331   2.106   3.515   4.888  1.6518  0.4942  2.0458
 5624SOL    HW228332   1.999   3.439   4.946 -0.5887  2.7329 -1.0165
 5625SOL     OW28333   2.667   0.073  16.007  0.4648 -0.0355  0.1616
 5625SOL    HW128334   2.701   4.714  15.970 -2.7596 -1.2125 -0.1956
 5625SOL    HW228335   2.724   0.068  16.084 -0.6201 -0.4414  0.9306
 5626SOL     OW28336   0.540   2.789   4.349  0.4113  0.0475 -0.3316
 5626SOL    HW128337   0.528   2.831   4.434 -0.8254  1.1608 -1.0600
 5626SOL    HW228338   0.635   2.796   4.340  0.6321 -2.5795 -0.0227
 5627SOL     OW28339   4.620   2.869   6.477 -0.0789  0.5711 -0.5173
 5627SOL    HW128340   4.715   2.876   6.472 -0.1009  1.2335  0.0151
 5627SOL    HW228341   4.605   2.815   6.399  0.8199 -0.5573  0.0787
 5628SOL     OW28342   1.789   1.121   9.421  0.5157  0.7129  0.2909
 5628SOL    HW128343   1.805   1.178   9.496 -0.5008 -1.3213  2.0646
 5628SOL    HW228344   1.732   1.052   9.454  1.6016  0.4071  1.5402
 5629SOL     OW28345   2.492   4.034   4.001 -0.6589  0.3337 -0.2507
 5629SOL    HW128346   2.525   3.963   4.056 -0.0831  0.9370  0.1893
 5629SOL    HW228347   2.568   4.069   3.954  1.9984 -1.3323  2.8354
 5630SOL     OW28348   1.913   2.942   6.730  0.0220  0.3802  1.0186
 5630SOL    HW128349   1.996   2.956   6.685  0.3853  0.5217  1.7228
 5630SOL    HW228350   1.846   3.000   6.694  2.2490  2.1748 -0.2259
 5631SOL     OW28351   3.498   1.597   9.563  0.1140 -0.0506 -0.4989
 5631SOL    HW128352   3.591   1.574   9.563 -0.4243 -2.2692 -2.3065
 5631SOL    HW228353   3.471   1.582   9.473 -1.2632  0.0034 -0.0862
 5632SOL     OW28354   4.355   1.350   0.755  0.1311 -0.4367  0.5379
 5632SOL    HW128355   4.310   1.429   0.723  0.8184 -1.0033 -1.8481
 5632SOL    HW228356   4.446   1.370   0.733 -0.3100  0.7693 -0.1989
 5633SOL     OW28357   0.646   3.924   5.371  0.0501  0.0848  0.2138
 5633SOL    HW128358   0.676   3.983   5.302  1.0092  0.2043  0.7296
 5633SOL    HW228359   0.552   3.938   5.364  0.1620  0.5481 -0.3934
 5634SOL     OW28360   2.083   3.896   4.263  0.0961 -0.2050 -0.3504
 5634SOL    HW128361   2.072   3.990   4.282  0.7176  0.2810 -2.3620
 5634SOL    HW228362   2.166   3.871   4.305 -0.8221  1.3894  2.4510
 5635SOL     OW28363   3.423   3.353   9.576  0.6798  0.0457 -0.3965
 5635SOL    HW128364   3.508   3.369   9.617  0.4311 -0.3437  0.2562
 5635SOL    HW228365   3.366   3.395   9.639 -0.7258 -1.6451 -0.5408
 5636SOL     OW28366   1.159   3.907   6.051 -0.1270  0.1555  0.0039
 5636SOL    HW128367   1.114   3.979   6.007 -2.9225 -1.2145  0.6040
 5636SOL    HW228368   1.204   3.962   6.116 -0.8858 -0.7030  1.2584
 5637SOL     OW28369   3.015   0.264  13.069 -0.1252 -0.1669 -0.5009
 5637SOL    HW128370   3.062   0.322  13.009  0.0849  1.7255  1.4861
 5637SOL    HW228371   3.078   0.253  13.140  1.1859  1.1086 -1.4841
 5638SOL     OW28372   0.812   1.706   7.490 -0.1935 -0.5060  0.1132
 5638SOL    HW128373   0.858   1.790   7.477 -0.5745 -0.2365  0.4983
 5638SOL    HW228374   0.800   1.715   7.585 -1.1731 -0.8427  0.0179
 5639SOL     OW28375   4.699   3.299   8.735 -0.0878 -0.0906  0.1648
 5639SOL    HW128376   4.697   3.310   8.640  0.2412 -2.2559 -0.0805
 5639SOL    HW228377   4.713   3.206   8.752 -0.8030 -0.4886 -1.5105
 5640SOL     OW28378   1.227   2.111  11.440  0.1116  0.2348  0.1487
 5640SOL    HW128379   1.264   2.128  11.527  1.4311  2.4736 -0.8737
 5640SOL    HW228380   1.281   2.038  11.409  0.5472  0.1899  1.0115
 5641SOL     OW28381   1.700   3.359   2.102 -0.0233  0.4554 -0.1516
 5641SOL    HW128382   1.680   3.265   2.095 -1.6924  0.7716  0.2436
 5641SOL    HW228383   1.795   3.357   2.104 -0.0691  0.3773  1.5243
 5642SOL     OW28384   0.235   2.744   8.459  0.4015  0.5350  0.1317
 5642SOL    HW128385   0.275   2.830   8.444 -0.1804  0.5086 -1.5421
 5642SOL    HW228386   0.288   2.706   8.529 -2.7707 -1.8010  1.2791
 5643SOL     OW28387   3.440   2.739   3.845 -0.3578  0.6179 -0.4518
 5643SOL    HW128388   3.389   2.801   3.792 -0.1343  0.9250 -0.3093
 5643SOL    HW228389   3.384   2.735   3.923 -0.0574  0.0837 -0.2644
 5644SOL     OW28390   4.044   1.047  14.401 -0.1196  0.3142 -0.0797
 5644SOL    HW128391   4.130   1.082  14.423  0.7354 -0.4783 -2.1662
 5644SOL    HW228392   4.048   1.048  14.306  0.3507 -0.0189 -0.0604
 5645SOL     OW28393   2.511   2.811   6.833 -0.4792  0.2492  0.2960
 5645SOL    HW128394   2.435   2.754   6.826  0.2092 -0.4620 -1.4288
 5645SOL    HW228395   2.564   2.780   6.760  0.1162 -1.3047  1.4014
 5646SOL     OW28396   3.531   4.103   1.901 -0.6006  0.2520 -0.0539
 5646SOL    HW128397   3.532   4.047   1.823 -1.4414  0.2147 -0.0379
 5646SOL    HW228398   3.593   4.057   1.958 -0.4616  1.1660  0.5425
 5647SOL     OW28399   4.076   1.982   0.695 -0.2191  0.3621 -0.1937
 5647SOL    HW128400   4.140   1.947   0.757 -1.0771 -1.5103 -0.3721
 5647SOL    HW228401   4.034   2.045   0.753 -1.0292  0.1734 -0.5821
 5648SOL     OW28402   4.420   0.045   5.710  0.6760 -0.2972  0.0870
 5648SOL    HW128403   4.478   0.110   5.751  0.9323 -0.1147 -0.5501
 5648SOL    HW228404   4.440   4.690   5.761 -0.7423 -0.6317  0.1150
 5649SOL     OW28405   1.522   1.309   6.542  0.1312 -0.1716  0.6364
 5649SOL    HW128406   1.573   1.278   6.617 -0.5826 -0.1958  1.1076
 5649SOL    HW228407   1.429   1.305   6.566  0.0432 -0.2946  0.2717
 5650SOL     OW28408   2.286   1.363  13.115 -0.4498 -0.4470  0.3107
 5650SOL    HW128409   2.379   1.382  13.099 -0.3338  0.6788  2.2258
 5650SOL    HW228410   2.275   1.268  13.126 -1.2162 -0.1094  2.5155
 5651SOL     OW28411   4.319   0.140   3.201 -0.3802  0.4189  0.7076
 5651SOL    HW128412   4.401   0.168   3.160  0.0646 -1.9554  0.0050
 5651SOL    HW228413   4.351   0.106   3.285 -1.1481 -2.1593 -0.0492
 5652SOL     OW28414   3.888   0.633   5.006 -0.5683 -0.1317 -0.4504
 5652SOL    HW128415   3.845   0.557   4.966 -0.9804 -0.6551  1.0128
 5652SOL    HW228416   3.809   0.686   5.012 -1.5951 -1.5145 -1.6934
 5653SOL     OW28417   1.786   2.725   6.808 -0.2140  0.0739 -0.2057
 5653SOL    HW128418   1.837   2.788   6.758 -1.3618  1.1111 -0.0808
 5653SOL    HW228419   1.699   2.764   6.813 -0.8286 -1.2313 -0.6980
 5654SOL     OW28420   2.611   1.223  13.673  0.2941  0.2242  0.2196
 5654SOL    HW128421   2.571   1.287  13.732 -0.3372 -1.3894  1.5427
 5654SOL    HW228422   2.617   1.158  13.743 -2.4877 -0.5839 -0.2930
 5655SOL     OW28423   0.252   1.749   6.950  0.4978 -0.3200 -0.2296
 5655SOL    HW128424   0.220   1.832   6.987 -2.7261 -1.7870  0.3149
 5655SOL    HW228425   0.164   1.714   6.931  0.2043 -0.0381  0.6181
 5656SOL     OW28426   4.525   3.351   3.992 -0.5302 -0.1181  0.6845
 5656SOL    HW128427   4.537   3.296   4.070 -1.7678 -1.6462 -0.2050
 5656SOL    HW228428   4.449   3.315   3.947  1.3794 -1.2012 -1.6815
 5657SOL     OW28429   0.747   0.469   1.608 -0.3607  0.0116 -0.6187
 5657SOL    HW128430   0.701   0.536   1.658 -0.2234  0.3156 -0.8990
 5657SOL    HW228431   0.790   0.517   1.537 -0.6835 -0.0709 -0.8721
 5658SOL     OW28432   0.299   2.854   5.600 -0.0408 -0.3259  0.0613
 5658SOL    HW128433   0.228   2.792   5.621  0.4284 -1.4817 -1.7908
 5658SOL    HW228434   0.304   2.842   5.505 -0.5427 -3.2099  0.3786
 5659SOL     OW28435   4.502   2.551  11.178  0.0754 -0.1487 -0.0316
 5659SOL    HW128436   4.467   2.496  11.248  1.1103 -0.8167 -0.0342
 5659SOL    HW228437   4.517   2.638  11.215  0.4867 -0.4132  0.4296
 5660SOL     OW28438   1.750   3.248   3.549  1.1003  0.2355 -0.3428
 5660SOL    HW128439   1.662   3.236   3.584  2.0993 -1.7163  1.4865
 5660SOL    HW228440   1.797   3.178   3.592 -0.8025 -1.7244 -1.4628
 5661SOL     OW28441   4.050   4.101   3.291 -0.3848  0.0946 -0.5408
 5661SOL    HW128442   4.015   4.021   3.252 -0.2771 -0.5896  0.7616
 5661SOL    HW228443   3.973   4.148   3.323 -1.0007 -0.7003 -0.8576
 5662SOL     OW28444   4.516   3.233  10.162  0.0276 -0.3875  0.5914
 5662SOL    HW128445   4.534   3.297  10.093 -1.1859 -1.3317 -0.6025
 5662SOL    HW228446   4.607   3.208  10.181  0.4520 -0.3698 -1.4252
 5663SOL     OW28447   4.597   3.259   7.880 -0.1836  0.5856  0.0421
 5663SOL    HW128448   4.593   3.170   7.915 -1.1912 -0.5142 -2.8250
 5663SOL    HW228449   4.574   3.249   7.787 -0.4622 -1.1404  0.2974
 5664SOL     OW28450   0.119   0.629   6.395  0.0226  0.2797  0.2223
 5664SOL    HW128451   0.050   0.600   6.455  1.0002 -0.1060  1.1673
 5664SOL    HW228452   0.138   0.715   6.432  0.4870  1.0225 -1.7505
 5665SOL     OW28453   1.062   1.213   8.511  0.1947  0.0627 -0.2436
 5665SOL    HW128454   1.078   1.154   8.585  0.1352  1.1250  0.6187
 5665SOL    HW228455   1.154   1.229   8.489  0.8180 -3.4915 -0.1437
 5666SOL     OW28456   3.117   3.213   7.953 -0.4938 -0.2539 -0.2810
 5666SOL    HW128457   3.057   3.189   8.023  3.1970 -0.2779  2.8546
 5666SOL    HW228458   3.161   3.285   7.998  0.2605 -0.0059 -1.4056
 5667SOL     OW28459   3.008   3.653   4.486 -0.1117 -0.0670 -0.2236
 5667SOL    HW128460   3.068   3.579   4.494  0.0338  0.0389 -0.3403
 5667SOL    HW228461   3.064   3.730   4.478  0.3473 -0.3142  0.6542
 5668SOL     OW28462   3.923   2.989   7.020 -0.3600 -0.1994 -0.0942
 5668SOL    HW128463   3.840   3.032   7.037  1.5173  1.7951  3.9810
 5668SOL    HW228464   3.951   2.979   7.111  0.5137  0.8576 -0.2535
 5669SOL     OW28465   4.680   0.487  17.476 -0.3422  0.4675 -0.1289
 5669SOL    HW128466   0.019   0.512  17.545  0.8246 -2.3289 -0.1886
 5669SOL    HW228467   4.669   0.568  17.426 -1.0504 -0.0762 -0.8402
 5670SOL     OW28468   3.990   3.520   2.381  0.1782  0.1109 -0.4362
 5670SOL    HW128469   3.895   3.513   2.394  0.1691  2.0873  0.5513
 5670SOL    HW228470   4.003   3.490   2.471 -1.6309 -1.6798 -0.7650
 5671SOL     OW28471   1.285   4.106  15.171  0.6871 -0.2051 -0.0396
 5671SOL    HW128472   1.246   4.034  15.121  0.0353  0.1537 -0.0586
 5671SOL    HW228473   1.323   4.059  15.245 -0.3857 -0.0082  0.6427
 5672SOL     OW28474   1.474   0.392  16.250  0.2879 -0.7980  0.2854
 5672SOL    HW128475   1.561   0.354  16.264  0.3342  0.1184  2.5573
 5672SOL    HW228476   1.496   0.471  16.200 -0.1332 -0.4085  0.7144
 5673SOL     OW28477   1.085   3.333   3.308  0.1411  0.6088  0.1420
 5673SOL    HW128478   1.032   3.403   3.270  0.1325  0.5465  0.0371
 5673SOL    HW228479   1.127   3.307   3.226  1.2412 -1.7065  1.4342
 5674SOL     OW28480   2.232   2.183   1.740 -0.2685 -0.1575  0.0450
 5674SOL    HW128481   2.197   2.116   1.681  0.5056  0.4739 -1.1527
 5674SOL    HW228482   2.231   2.140   1.825  0.2156  2.2145  1.2445
 5675SOL     OW28483   3.970   1.669   1.953 -0.1452  0.4863 -0.4092
 5675SOL    HW128484   3.963   1.739   2.018 -0.0501 -1.9893  2.2717
 5675SOL    HW228485   3.876   1.652   1.943  0.0121  0.6364 -2.2586
 5676SOL     OW28486   3.405   3.952   9.000  0.1489 -0.1137  0.2297
 5676SOL    HW128487   3.485   3.906   8.975  1.4944  1.7834  1.0069
 5676SOL    HW228488   3.429   4.036   8.960  0.1722 -0.6724 -0.9586
 5677SOL     OW28489   3.231   3.799  13.516 -0.6792  0.5378 -0.4541
 5677SOL    HW128490   3.253   3.817  13.607  1.5325 -3.3892 -0.2492
 5677SOL    HW228491   3.294   3.854  13.469  1.9203 -0.3227  2.0672
 5678SOL     OW28492   2.553   4.147   8.628 -0.0333 -0.0784 -0.5108
 5678SOL    HW128493   2.599   4.192   8.699 -2.6785 -1.7281  2.2681
 5678SOL    HW228494   2.490   4.216   8.607  0.7884  0.7557 -0.2250
 5679SOL     OW28495   3.628   2.043   7.103 -0.4487 -0.1452 -0.1893
 5679SOL    HW128496   3.606   2.110   7.038  2.1396 -0.8722 -1.8284
 5679SOL    HW228497   3.708   2.006   7.067 -0.0833  0.3222  0.1391
 5680SOL     OW28498   2.122   4.364   2.444 -0.0447  0.3065 -0.2738
 5680SOL    HW128499   2.076   4.427   2.388  0.8863 -1.4743 -2.9935
 5680SOL    HW228500   2.066   4.363   2.522 -0.2055 -2.7701 -0.4433
 5681SOL     OW28501   2.291   3.294   4.792  0.4398 -0.1282 -0.2626
 5681SOL    HW128502   2.220   3.316   4.852 -0.0776 -0.9222 -0.5887
 5681SOL    HW228503   2.298   3.368   4.731 -1.5221  1.3989  1.3559
 5682SOL     OW28504   1.215   0.865  14.783 -0.3545 -0.4738 -0.3753
 5682SOL    HW128505   1.236   0.923  14.710  0.0680  0.6318  0.6291
 5682SOL    HW228506   1.302   0.828  14.801 -0.4416 -1.1540 -1.3335
 5683SOL     OW28507   1.171   4.384   8.395 -0.4433  0.1898  0.1325
 5683SOL    HW128508   1.103   4.343   8.342 -0.5363  2.7953 -1.7266
 5683SOL    HW228509   1.239   4.334   8.349 -2.5100 -2.6468  0.1280
 5684SOL     OW28510   1.522   2.019   6.118 -1.0889  0.1679 -0.0467
 5684SOL    HW128511   1.522   1.999   6.024 -1.8715 -1.8245  0.3837
 5684SOL    HW228512   1.433   2.052   6.127 -1.1863  0.2210 -1.1615
 5685SOL     OW28513   2.664   4.492  11.419  0.1285  0.5350 -0.3081
 5685SOL    HW128514   2.608   4.435  11.473  0.3136 -0.3966 -1.1010
 5685SOL    HW228515   2.678   4.435  11.344  0.6346  0.6038 -0.2666
 5686SOL     OW28516   3.424   1.906   3.579 -0.0715  0.2644  0.0183
 5686SOL    HW128517   3.381   1.935   3.499 -1.5610 -0.9381  0.3970
 5686SOL    HW228518   3.380   1.957   3.647  0.0171 -1.1124  1.0975
 5687SOL     OW28519   0.425   2.302   6.110  0.2066 -0.4979 -0.5832
 5687SOL    HW128520   0.446   2.364   6.180  1.0618 -0.7581 -0.6069
 5687SOL    HW228521   0.503   2.247   6.109  0.3929 -0.2702  1.1713
 5688SOL     OW28522   4.030   0.313   5.364  0.1215  0.4597 -0.2776
 5688SOL    HW128523   3.969   0.337   5.433  1.3757 -2.6217  1.9334
 5688SOL    HW228524   4.037   0.390   5.308  0.4231  0.2395 -0.5475
 5689SOL     OW28525   3.271   1.932   1.125 -0.1796 -0.0303 -0.1981
 5689SOL    HW128526   3.236   1.985   1.196  0.3026 -1.6450  1.2239
 5689SOL    HW228527   3.340   1.996   1.103 -0.8056  0.6667 -0.1507
 5690SOL     OW28528   4.079   1.166   5.640 -0.0392 -0.7345 -0.4100
 5690SOL    HW128529   4.073   1.140   5.731  1.6210  0.4862  0.0353
 5690SOL    HW228530   4.026   1.245   5.628  2.1536  1.0448  1.7690
 5691SOL     OW28531   1.472   4.527  14.581 -0.2165 -0.1700  0.2705
 5691SOL    HW128532   1.385   4.563  14.597 -0.4704 -0.0605 -1.3458
 5691SOL    HW228533   1.510   4.599  14.531 -0.0264  0.5538  1.4443
 5692SOL     OW28534   1.461   3.780   8.501  0.2212  0.2561 -0.0363
 5692SOL    HW128535   1.442   3.872   8.518  1.1398  0.6104 -0.8766
 5692SOL    HW228536   1.395   3.739   8.556  1.1796  2.2631  2.6062
 5693SOL     OW28537   2.511   2.308   3.386 -0.2075  0.5166  0.2574
 5693SOL    HW128538   2.418   2.317   3.410 -0.3880  0.9217 -0.6213
 5693SOL    HW228539   2.546   2.396   3.393  1.4671 -0.0998 -0.5938
 5694SOL     OW28540   1.072   2.661  14.733  0.1280 -0.1490 -0.0782
 5694SOL    HW128541   1.135   2.722  14.772  0.4764 -0.4523 -0.1721
 5694SOL    HW228542   1.126   2.587  14.706 -1.8037 -1.0088 -1.5610
 5695SOL     OW28543   4.282   0.399   7.180 -0.5547  0.0432  0.3839
 5695SOL    HW128544   4.274   0.459   7.254  0.0838  1.6612 -0.8706
 5695SOL    HW228545   4.375   0.394   7.160 -0.9223  0.9338 -1.5671
 5696SOL     OW28546   0.196   3.864   0.384 -0.3977  0.0328  0.1978
 5696SOL    HW128547   0.168   3.775   0.405 -1.5907  0.2268 -0.5253
 5696SOL    HW228548   0.273   3.836   0.334 -0.5110 -1.1323  0.6778
 5697SOL     OW28549   0.795   1.700   4.066 -0.3207  0.1222 -0.1426
 5697SOL    HW128550   0.805   1.660   4.152 -0.5814  0.9859  0.2976
 5697SOL    HW228551   0.710   1.744   4.072 -0.8100 -0.7498 -0.7022
 5698SOL     OW28552   2.394   2.029   7.960  0.1565 -0.0848  0.2959
 5698SOL    HW128553   2.416   2.101   8.019 -1.6316  1.5567 -1.0646
 5698SOL    HW228554   2.426   1.957   8.015 -1.4159 -0.8530  0.1987
 5699SOL     OW28555   4.670   1.426   7.710  0.2645  0.0013  0.0180
 5699SOL    HW128556   4.631   1.495   7.765 -0.2244  0.0543 -0.3995
 5699SOL    HW228557   0.033   1.445   7.748  1.0253  1.7942 -2.6422
 5700SOL     OW28558   2.719   0.803   3.263 -0.4616  0.7780 -0.0055
 5700SOL    HW128559   2.631   0.837   3.281 -1.1718 -1.2377  0.2609
 5700SOL    HW228560   2.769   0.876   3.301 -2.2497  1.1071  1.7145
 5701SOL     OW28561   4.555   0.421   5.126 -0.4254 -0.0157  0.5543
 5701SOL    HW128562   4.632   0.473   5.103  0.4555 -0.0809  3.2805
 5701SOL    HW228563   4.570   0.403   5.219 -0.1808  0.8470  0.6900
 5702SOL     OW28564   4.050   1.326  15.221  0.1205  0.0007  0.0188
 5702SOL    HW128565   4.102   1.350  15.297  0.6136 -2.6655  0.5411
 5702SOL    HW228566   4.094   1.245  15.194  0.6663  0.1869  0.3478
 5703SOL     OW28567   4.350   4.042   7.962 -0.0011 -1.1722 -0.0158
 5703SOL    HW128568   4.396   4.001   8.036 -1.0745 -1.4083  0.5208
 5703SOL    HW228569   4.291   4.102   8.007 -1.5578 -1.5761 -1.5344
 5704SOL     OW28570   3.837   3.501   4.680 -0.6663  0.0105 -0.2884
 5704SOL    HW128571   3.896   3.470   4.749 -1.5855  1.6554  1.2299
 5704SOL    HW228572   3.898   3.558   4.634 -4.5654  2.6689 -2.1133
 5705SOL     OW28573   1.140   2.661   2.319  0.1281  0.1281  0.1141
 5705SOL    HW128574   1.177   2.724   2.381  1.1279 -0.9819  0.6294
 5705SOL    HW228575   1.050   2.642   2.343 -0.3661  0.2621 -1.5944
 5706SOL     OW28576   4.616   1.118   5.592 -0.2951 -0.0838 -0.1593
 5706SOL    HW128577   4.645   1.028   5.582  0.3912  0.2222 -0.8994
 5706SOL    HW228578   4.543   1.134   5.532  0.1033 -1.2316 -0.9537
 5707SOL     OW28579   0.475   3.794  12.782  0.4212 -0.2515  0.1509
 5707SOL    HW128580   0.535   3.789  12.707 -1.9378  0.0124 -1.7309
 5707SOL    HW228581   0.497   3.710  12.823  0.4063 -1.6002 -2.5281
 5708SOL     OW28582   0.274   3.395  11.641  0.1967  0.2324 -0.2069
 5708SOL    HW128583   0.263   3.322  11.580  1.6873  1.3247 -1.7469
 5708SOL    HW228584   0.192   3.382  11.690 -0.3179  0.1822 -1.0746
 5709SOL     OW28585   1.376   2.654  12.449 -0.5564  0.0479  0.1875
 5709SOL    HW128586   1.344   2.744  12.441  0.2399  0.5546  2.4173
 5709SOL    HW228587   1.333   2.605  12.380 -2.3572  2.4391 -0.3850
 5710SOL     OW28588   1.717   2.051  17.592  0.4283  0.2169  0.0594
 5710SOL    HW128589   1.715   2.012  17.504 -0.9621  1.6036 -0.5309
 5710SOL    HW228590   1.755   2.137  17.573  1.7234 -0.3915 -0.1221
 5711SOL     OW28591   4.104   3.451   3.967 -0.6972 -0.1675  0.2718
 5711SOL    HW128592   4.174   3.393   3.937  0.2592  1.6613 -0.9933
 5711SOL    HW228593   4.101   3.512   3.894  2.3887 -1.4565 -0.9384
 5712SOL     OW28594   0.157   2.039  14.870  0.3004 -0.0582 -0.5437
 5712SOL    HW128595   0.082   1.979  14.863 -0.0287 -0.0133  2.4324
 5712SOL    HW228596   0.207   2.026  14.790 -0.7586 -1.9067 -0.9030
 5713SOL     OW28597   3.846   0.727   9.503 -0.2143 -0.4393 -0.1014
 5713SOL    HW128598   3.837   0.779   9.423  0.4939 -2.4488 -1.4842
 5713SOL    HW228599   3.756   0.730   9.533 -0.2830 -2.2611 -0.1092
 5714SOL     OW28600   0.758   3.137   2.821 -0.2107  0.4518 -0.0447
 5714SOL    HW128601   0.794   3.174   2.740  0.2718 -2.1994 -1.0287
 5714SOL    HW228602   0.728   3.056   2.781 -0.2689  0.7615 -0.6337
 5715SOL     OW28603   3.962   4.382   7.213  0.4027  0.5189 -0.0419
 5715SOL    HW128604   4.014   4.453   7.176 -0.2116  1.5248  1.0009
 5715SOL    HW228605   3.899   4.432   7.265 -0.2802  0.8186 -1.1698
 5716SOL     OW28606   0.073   1.638   2.169  0.1294  0.5145  0.2898
 5716SOL    HW128607   4.720   1.614   2.116  0.1743  1.5876 -0.2434
 5716SOL    HW228608   0.148   1.601   2.122 -0.9152 -1.1941 -0.0484
 5717SOL     OW28609   2.668   1.801   2.337 -0.6994  0.2341 -0.1288
 5717SOL    HW128610   2.663   1.709   2.312 -2.1029 -0.0029  1.0193
 5717SOL    HW228611   2.682   1.844   2.253  0.8134 -1.3874 -0.6920
 5718SOL     OW28612   0.396   3.439   7.665  0.2020  0.0380  0.3942
 5718SOL    HW128613   0.432   3.357   7.697  0.1101  1.1789  3.3649
 5718SOL    HW228614   0.356   3.417   7.580 -0.1155 -1.5579  0.9607
 5719SOL     OW28615   2.410   3.346   6.765 -0.4795 -0.5943 -0.1449
 5719SOL    HW128616   2.347   3.371   6.698 -0.6162 -0.8380 -0.1049
 5719SOL    HW228617   2.377   3.399   6.838  1.4548 -0.8788  0.9407
 5720SOL     OW28618   2.211   3.375  13.565  0.3512  0.2004  0.4782
 5720SOL    HW128619   2.295   3.405  13.599 -0.4754 -1.1424  3.6696
 5720SOL    HW228620   2.194   3.294  13.613  1.3964  0.0442  0.5647
 5721SOL     OW28621   0.670   0.464   5.184  0.5915  0.6910 -1.0240
 5721SOL    HW128622   0.667   0.374   5.218 -0.5734  1.1815  0.1186
 5721SOL    HW228623   0.739   0.442   5.121  0.3172  0.0375 -1.1048
 5722SOL     OW28624   4.081   3.672   4.924 -0.3376  0.3995  0.3200
 5722SOL    HW128625   4.171   3.704   4.915 -0.2457  0.3655  1.1020
 5722SOL    HW228626   4.040   3.747   4.967  1.5630  1.8063 -0.3300
 5723SOL     OW28627   0.086   0.862   1.984 -0.5323 -0.1258  0.0410
 5723SOL    HW128628   0.033   0.786   1.957  0.4092 -0.6601 -0.3199
 5723SOL    HW228629   0.018   0.928   1.971  0.8613  0.8871 -2.1184
 5724SOL     OW28630   0.488   3.510  15.880  0.6984  0.0435 -0.0325
 5724SOL    HW128631   0.441   3.528  15.799 -0.9644 -0.7597  0.7491
 5724SOL    HW228632   0.463   3.418  15.894 -1.8239  0.4732 -1.7822
 5725SOL     OW28633   1.663   3.806   1.516  0.0352 -0.3188 -0.2953
 5725SOL    HW128634   1.643   3.810   1.423  1.6619 -2.5798 -0.7389
 5725SOL    HW228635   1.710   3.888   1.529 -1.0974  0.3236 -0.1991
 5726SOL     OW28636   4.290   1.242  11.171 -0.2024  0.1724  0.5383
 5726SOL    HW128637   4.254   1.308  11.229  2.5003 -0.6167  3.1310
 5726SOL    HW228638   4.347   1.290  11.111  0.8800 -1.0463  0.5982
 5727SOL     OW28639   4.622   3.017   8.015  0.6450 -0.5732  0.3267
 5727SOL    HW128640   4.706   3.012   8.060  0.8843 -0.1343 -0.0755
 5727SOL    HW228641   4.573   2.964   8.079  0.8395 -0.6515  0.4106
 5728SOL     OW28642   3.582   2.737   5.817  0.3521  0.0186  0.1321
 5728SOL    HW128643   3.520   2.689   5.871 -0.4131  0.3342 -0.4639
 5728SOL    HW228644   3.665   2.688   5.820  1.0966  1.1251 -2.3688
 5729SOL     OW28645   2.580   1.934  10.304 -0.2080  0.0808 -0.4045
 5729SOL    HW128646   2.493   1.946  10.267 -0.3623 -1.4707 -0.5317
 5729SOL    HW228647   2.561   1.852  10.349 -0.2058  0.3568  0.0966
 5730SOL     OW28648   3.298   3.433   8.004  1.2544  0.1612  0.4141
 5730SOL    HW128649   3.385   3.466   7.983  1.7021  0.0637  2.1984
 5730SOL    HW228650   3.285   3.488   8.080 -1.0074 -0.8459  0.7528
 5731SOL     OW28651   3.593   3.761   3.323  0.1831 -0.1041 -0.1384
 5731SOL    HW128652   3.534   3.686   3.326  2.3096 -1.5751  4.1048
 5731SOL    HW228653   3.674   3.721   3.355 -1.0137 -0.3962  2.5013
 5732SOL     OW28654   2.835   2.443  16.174 -0.2265  0.3798  0.4081
 5732SOL    HW128655   2.740   2.431  16.171 -0.1574 -0.5917  2.2175
 5732SOL    HW228656   2.852   2.381  16.245  0.4456  0.5228  0.3781
 5733SOL     OW28657   0.864   1.876   6.240 -0.2184 -0.4635  0.7527
 5733SOL    HW128658   0.895   1.941   6.302  0.8562  1.7785 -2.1160
 5733SOL    HW228659   0.942   1.875   6.185 -1.5931  2.0870 -1.2325
 5734SOL     OW28660   1.244   4.177   4.489 -0.1404  0.0663  0.1428
 5734SOL    HW128661   1.289   4.249   4.534  0.2753  0.3381 -0.7094
 5734SOL    HW228662   1.157   4.217   4.484  0.7415  1.7448 -1.9534
 5735SOL     OW28663   0.378   0.143   8.171 -0.2917  0.4729 -0.2812
 5735SOL    HW128664   0.283   0.140   8.161 -0.4449 -0.1605  1.4864
 5735SOL    HW228665   0.398   0.144   8.077 -0.4821 -3.4565 -0.3810
 5736SOL     OW28666   2.855   3.396   9.161  0.0731  0.0087  0.3213
 5736SOL    HW128667   2.929   3.363   9.210  0.3759 -2.5219 -1.7950
 5736SOL    HW228668   2.859   3.482   9.203 -2.9450  0.2054  0.2343
 5737SOL     OW28669   0.537   4.718   3.122 -0.3794 -0.5111  0.1211
 5737SOL    HW128670   0.541   4.642   3.064  2.2062  1.0552 -1.7109
 5737SOL    HW228671   0.630   0.011   3.138 -0.8798  1.8483  0.7058
 5738SOL     OW28672   1.462   3.692   6.278  0.1980  0.7881 -0.2013
 5738SOL    HW128673   1.390   3.693   6.342 -0.6305 -0.2117 -1.1048
 5738SOL    HW228674   1.485   3.600   6.264 -0.9755  0.9421 -3.2561
 5739SOL     OW28675   0.363   0.306   3.201  0.3194 -0.2684  0.0380
 5739SOL    HW128676   0.425   0.320   3.273 -2.9376  0.1740  2.7550
 5739SOL    HW228677   0.394   0.224   3.162 -0.3101 -0.4900  0.0117
 5740SOL     OW28678   3.138   0.205   0.999  0.5895 -0.6133 -0.7119
 5740SOL    HW128679   3.132   0.300   0.993 -0.2020 -0.7104 -1.5982
 5740SOL    HW228680   3.056   0.182   1.043 -0.3921  1.3647 -1.5245
 5741SOL     OW28681   1.536   3.721   0.600 -0.2943  0.0846 -0.4108
 5741SOL    HW128682   1.492   3.709   0.516 -2.7782 -0.4452  0.9350
 5741SOL    HW228683   1.465   3.757   0.654  0.1180 -0.0353  0.2187
 5742SOL     OW28684   1.216   0.025  10.547  0.2181 -0.2144  0.4314
 5742SOL    HW128685   1.229   0.011  10.640  1.5156  1.2225  0.4611
 5742SOL    HW228686   1.165   4.669  10.529  0.6845 -0.8451  1.9572
 5743SOL     OW28687   3.166   2.271   7.388  0.1768 -0.2683 -0.2184
 5743SOL    HW128688   3.095   2.276   7.324  0.5333  0.0741 -0.5833
 5743SOL    HW228689   3.170   2.357   7.431  0.3798 -1.1830  1.5808
 5744SOL     OW28690   3.533   0.623   6.909 -0.1364  0.5226 -0.3283
 5744SOL    HW128691   3.491   0.547   6.949  2.8188 -0.6727  0.4471
 5744SOL    HW228692   3.462   0.674   6.870 -1.8785 -0.5226  1.4446
 5745SOL     OW28693   2.277   2.546   1.369 -0.2261 -0.0796  0.0102
 5745SOL    HW128694   2.333   2.492   1.313  1.5851 -0.4548  2.2296
 5745SOL    HW228695   2.235   2.608   1.310  3.3242  1.7581 -0.5845
 5746SOL     OW28696   1.170   0.388   4.498  0.6217  0.6149 -0.6631
 5746SOL    HW128697   1.195   0.309   4.449 -0.2182 -1.2591  1.9264
 5746SOL    HW228698   1.250   0.434   4.521 -0.5206  2.4809 -0.4240
 5747SOL     OW28699   3.026   0.496  16.055 -0.5136 -0.3738 -0.1967
 5747SOL    HW128700   2.945   0.490  16.004 -0.0043  1.5737 -1.2285
 5747SOL    HW228701   3.013   0.574  16.108 -0.5492  0.7998 -1.9327
 5748SOL     OW28702   3.338   1.428   8.585  0.6853 -0.1673  0.2382
 5748SOL    HW128703   3.256   1.467   8.613 -0.1262  0.9185 -3.7319
 5748SOL    HW228704   3.328   1.453   8.493 -0.1607 -0.5520  0.2267
 5749SOL     OW28705   2.943   0.898   8.462  0.4761  0.3767 -0.4068
 5749SOL    HW128706   2.904   0.986   8.462 -1.8498 -0.6551  0.6234
 5749SOL    HW228707   2.995   0.910   8.541  1.4446  1.1155 -1.1497
 5750SOL     OW28708   1.520   0.265   8.919 -0.1971 -0.7762 -0.5196
 5750SOL    HW128709   1.451   0.295   8.979  0.1993  1.8953 -1.4209
 5750SOL    HW228710   1.498   0.318   8.843 -0.3048  1.1760  0.8595
 5751SOL     OW28711   1.675   1.001   1.157 -0.1143 -0.4615  0.0838
 5751SOL    HW128712   1.652   0.926   1.212  0.6314 -2.2275 -2.0332
 5751SOL    HW228713   1.641   0.977   1.071  0.2659  0.7329 -0.4057
 5752SOL     OW28714   0.539   2.777   2.266  0.0548  0.5046 -0.0168
 5752SOL    HW128715   0.470   2.763   2.331  0.8300 -0.3273  0.6199
 5752SOL    HW228716   0.541   2.871   2.248  0.7187  0.7519  1.3291
 5753SOL     OW28717   0.932   1.994   9.927 -0.1652 -0.4565 -0.4082
 5753SOL    HW128718   0.846   1.986   9.968  0.7900  0.4535  1.7474
 5753SOL    HW228719   0.992   1.970   9.997  0.5255 -2.3791 -1.6408
 5754SOL     OW28720   4.528   3.717   7.144 -0.3157  0.3761 -0.8884
 5754SOL    HW128721   4.457   3.682   7.091 -1.8734  2.9692 -0.5224
 5754SOL    HW228722   4.488   3.724   7.230 -1.1941 -0.6157 -1.2134
 5755SOL     OW28723   0.130   3.645   4.901 -0.1549  0.2014 -0.2359
 5755SOL    HW128724   0.167   3.559   4.881  1.2152  0.9684 -0.9410
 5755SOL    HW228725   0.039   3.617   4.912 -0.9767  1.9680 -2.5028
 5756SOL     OW28726   0.033   3.618   0.934  0.2238 -0.2601 -0.4169
 5756SOL    HW128727   4.682   3.584   0.883 -0.5883 -1.0891  1.3033
 5756SOL    HW228728   4.721   3.617   1.023  4.3392 -2.9794  1.1514
 5757SOL     OW28729   1.875   3.167   1.026 -0.0048 -0.3112 -0.7851
 5757SOL    HW128730   1.858   3.203   0.939 -0.0192  0.6884 -0.3625
 5757SOL    HW228731   1.841   3.077   1.030 -0.6339 -0.0516 -0.3418
 5758SOL     OW28732   4.483   4.616   3.114  0.3709 -0.0172 -0.3650
 5758SOL    HW128733   4.397   4.592   3.149  1.5992 -1.4110  1.6994
 5758SOL    HW228734   4.454   4.662   3.035 -0.3790 -0.1157 -0.1476
 5759SOL     OW28735   4.542   0.673   3.501  0.1873 -0.3153 -0.0719
 5759SOL    HW128736   4.600   0.732   3.453 -0.6569  1.2658  0.8675
 5759SOL    HW228737   4.574   0.678   3.591 -0.2982 -0.1186  0.0903
 5760SOL     OW28738   1.712   4.554  16.949  0.1454 -0.2964  0.2418
 5760SOL    HW128739   1.711   4.473  16.898 -0.2291 -1.2104  1.6904
 5760SOL    HW228740   1.650   4.601  16.893  2.1453  1.6708 -0.3329
 5761SOL     OW28741   3.467   4.608  14.587  0.3257  0.2023  0.0575
 5761SOL    HW128742   3.382   4.644  14.561  0.0408  0.7989  1.7964
 5761SOL    HW228743   3.469   4.652  14.672 -1.0264  0.4075 -0.0137
 5762SOL     OW28744   3.375   1.021   2.058 -0.3271 -1.1171  0.1626
 5762SOL    HW128745   3.373   1.080   1.983  0.1830 -0.6003  0.5543
 5762SOL    HW228746   3.351   1.088   2.123  1.4683  1.6537 -2.0354
 5763SOL     OW28747   3.734   4.114   1.425  0.4020  0.3312  0.2428
 5763SOL    HW128748   3.683   4.093   1.503 -1.0810 -0.2966 -0.8930
 5763SOL    HW228749   3.720   4.032   1.377  1.8293  0.3183 -0.1339
 5764SOL     OW28750   4.157   2.080   9.114 -0.1006  0.2466  0.1968
 5764SOL    HW128751   4.079   2.111   9.068  0.7720  1.4033 -0.5180
 5764SOL    HW228752   4.219   2.153   9.105  1.1866 -0.4466  3.3326
 5765SOL     OW28753   1.220   1.977  12.391 -0.7657  0.3543 -0.0833
 5765SOL    HW128754   1.252   1.894  12.426 -0.7044  0.6041  0.4635
 5765SOL    HW228755   1.259   1.978  12.304 -0.7633  0.3147 -0.0829
 5766SOL     OW28756   3.374   3.222  15.528  0.2384  0.3550 -0.0052
 5766SOL    HW128757   3.416   3.254  15.448 -0.6765 -0.5383 -0.8370
 5766SOL    HW228758   3.372   3.127  15.520  0.3015  0.2235  1.4208
 5767SOL     OW28759   1.806   1.697   0.464 -0.0348 -0.1031  0.1334
 5767SOL    HW128760   1.714   1.697   0.490 -0.3149 -0.4630 -0.8648
 5767SOL    HW228761   1.801   1.697   0.369 -3.9584 -0.4049  0.3585
 5768SOL     OW28762   3.099   0.189   0.515  0.2320  0.2522  0.6843
 5768SOL    HW128763   3.120   0.097   0.529 -0.3483  0.0222  0.0734
 5768SOL    HW228764   3.031   0.183   0.447 -0.2091  1.0914  1.0374
 5769SOL     OW28765   0.685   4.095  11.432  0.0350  0.0566  0.6479
 5769SOL    HW128766   0.590   4.082  11.431  0.0080  0.3184 -1.5253
 5769SOL    HW228767   0.702   4.174  11.483  0.3278 -0.6450  1.6347
 5770SOL     OW28768   1.569   4.146   4.971  0.6713 -0.0761 -0.1479
 5770SOL    HW128769   1.530   4.102   5.046  0.1959  2.6793  1.2311
 5770SOL    HW228770   1.522   4.097   4.903  0.1016  1.0959 -0.6107
 5771SOL     OW28771   0.366   2.273   8.967 -0.4033  0.2811 -0.4190
 5771SOL    HW128772   0.379   2.297   8.875 -1.1264  2.0640 -0.0544
 5771SOL    HW228773   0.296   2.208   8.956  0.3190 -0.8860  2.0176
 5772SOL     OW28774   1.063   3.283  14.328 -0.2471 -0.3010 -0.1623
 5772SOL    HW128775   1.099   3.202  14.363  0.1147  1.1446  2.8445
 5772SOL    HW228776   1.124   3.343  14.372 -1.6964  0.5840  0.6390
 5773SOL     OW28777   0.501   1.464  17.011  0.1285 -0.2324  0.3939
 5773SOL    HW128778   0.512   1.540  16.954  2.5934 -0.1741  0.9278
 5773SOL    HW228779   0.497   1.393  16.946  3.1879 -0.8353  0.8484
 5774SOL     OW28780   1.237   4.283   9.114 -0.1863  0.5923 -0.3939
 5774SOL    HW128781   1.253   4.368   9.073 -0.1578  0.1488 -1.2889
 5774SOL    HW228782   1.257   4.298   9.207 -1.2265  2.4551 -0.4792
 5775SOL     OW28783   1.833   2.444   2.605 -0.2783  0.4579  0.0436
 5775SOL    HW128784   1.794   2.383   2.542  0.3275  0.2432 -0.1216
 5775SOL    HW228785   1.866   2.508   2.542  1.1138 -0.8058 -0.5152
 5776SOL     OW28786   1.288   2.179   7.043  0.4098  0.3386  0.0167
 5776SOL    HW128787   1.196   2.190   7.020  0.0149 -1.4229  0.7453
 5776SOL    HW228788   1.274   2.147   7.132 -0.9296  1.7102  0.2929
 5777SOL     OW28789   1.199   1.419   3.557 -0.0178  0.3141  0.2662
 5777SOL    HW128790   1.262   1.373   3.613 -0.5183  1.4503  1.7649
 5777SOL    HW228791   1.122   1.364   3.570  0.5825  0.0343  2.5880
 5778SOL     OW28792   0.635   1.348   5.943  0.0003  0.1354  0.3718
 5778SOL    HW128793   0.572   1.420   5.949 -0.0861  0.1910 -1.2217
 5778SOL    HW228794   0.629   1.319   5.852 -0.6803 -2.0111  1.0878
 5779SOL     OW28795   1.174   1.088  12.507 -0.1181  0.2239 -0.1988
 5779SOL    HW128796   1.248   1.035  12.478 -0.7540  0.3791 -2.1193
 5779SOL    HW228797   1.216   1.158  12.557  0.8165  0.1260 -0.8428
 5780SOL     OW28798   2.803   1.482   5.963  0.7466  0.5426 -0.0252
 5780SOL    HW128799   2.890   1.500   5.999  0.7208 -0.2674  0.4419
 5780SOL    HW228800   2.818   1.484   5.868 -0.3176 -1.6044 -0.2291
 5781SOL     OW28801   2.720   0.025   7.384  0.3133  0.5374  0.0390
 5781SOL    HW128802   2.644   0.065   7.426 -0.2606 -0.0627 -0.4366
 5781SOL    HW228803   2.705   4.656   7.402  0.9357 -0.1683 -2.9720
 5782SOL     OW28804   0.141   2.765   8.830 -0.4328 -0.6226 -0.2765
 5782SOL    HW128805   0.229   2.788   8.858 -0.2231  1.2254 -2.4457
 5782SOL    HW228806   0.089   2.769   8.910  2.6587  1.4005  1.6269
 5783SOL     OW28807   3.775   2.703   9.660 -0.0588 -0.7880 -0.2373
 5783SOL    HW128808   3.857   2.691   9.707  0.5791 -3.4176 -1.9993
 5783SOL    HW228809   3.786   2.796   9.643 -1.3944 -0.7940 -1.1536
 5784SOL     OW28810   1.331   3.064   7.539 -0.3632 -0.3102 -0.4220
 5784SOL    HW128811   1.389   3.108   7.601 -0.7636 -0.8641  0.3464
 5784SOL    HW228812   1.297   2.997   7.599  1.5780 -0.4398  0.5188
 5785SOL     OW28813   3.316   1.638  15.545 -0.2719 -0.5185 -0.2491
 5785SOL    HW128814   3.389   1.677  15.593 -0.9107 -1.4358  1.4481
 5785SOL    HW228815   3.334   1.660  15.453 -2.3440 -2.1329 -1.0357
 5786SOL     OW28816   3.147   3.972   8.646 -0.3133 -0.2738 -0.0556
 5786SOL    HW128817   3.227   3.921   8.635  0.2530  0.3259  1.2299
 5786SOL    HW228818   3.102   3.928   8.718 -0.6801  0.2601  0.0423
 5787SOL     OW28819   0.720   4.507   6.462 -0.6665 -0.0306  0.6621
 5787SOL    HW128820   0.716   4.594   6.424  0.4175 -0.4821 -0.4815
 5787SOL    HW228821   0.748   4.450   6.391 -1.6803  0.2327  0.0472
 5788SOL     OW28822   2.425   4.501  15.981  0.2397 -0.5414 -0.4326
 5788SOL    HW128823   2.517   4.486  16.002 -0.3726 -0.9752  1.9570
 5788SOL    HW228824   2.446   4.502  15.888 -0.2629 -1.9644 -0.5601
 5789SOL     OW28825   3.469   1.454   1.154  0.9569 -0.4222  0.0939
 5789SOL    HW128826   3.558   1.436   1.183  0.8839  0.0069  0.5757
 5789SOL    HW228827   3.415   1.469   1.231  1.6664  1.6590  0.1998
 5790SOL     OW28828   3.792   2.431  14.561 -0.3852 -0.3756  0.3536
 5790SOL    HW128829   3.749   2.468  14.485 -1.4611  1.0396  1.6528
 5790SOL    HW228830   3.771   2.495  14.629 -2.1150  0.9463 -1.4336
 5791SOL     OW28831   4.166   2.030   8.100 -0.2763 -0.1815 -0.2535
 5791SOL    HW128832   4.094   2.073   8.055  0.7420 -1.0186 -2.6574
 5791SOL    HW228833   4.188   1.965   8.033  0.5670  0.8960 -1.0152
 5792SOL     OW28834   1.450   1.597   6.300 -0.2018  0.2777 -0.0835
 5792SOL    HW128835   1.532   1.558   6.331  0.8354  0.5694 -2.5263
 5792SOL    HW228836   1.386   1.577   6.368  1.0404  1.2022  1.3737
 5793SOL     OW28837   4.055   1.153   6.679  0.1011 -0.1348  0.2195
 5793SOL    HW128838   4.121   1.116   6.620 -1.7554 -1.2733 -1.1415
 5793SOL    HW228839   4.051   1.076   6.735 -1.8950 -1.0279 -1.1717
 5794SOL     OW28840   0.833   4.645  11.032 -0.0814  0.1353  0.4782
 5794SOL    HW128841   0.747   4.683  11.049  0.1167  0.1426  1.4558
 5794SOL    HW228842   0.879   4.668  11.113 -1.0761  0.1242  1.0423
 5795SOL     OW28843   0.945   0.471   5.949  0.0687 -0.1480 -0.6402
 5795SOL    HW128844   0.944   0.379   5.975  0.5144 -0.1174 -0.5290
 5795SOL    HW228845   0.864   0.489   5.899 -0.9645 -0.7930  0.8071
 5796SOL     OW28846   2.908   1.640   1.775  0.2854 -0.0166  0.4147
 5796SOL    HW128847   2.918   1.566   1.835  0.7823  1.0763  1.6707
 5796SOL    HW228848   2.914   1.592   1.692  1.1078 -0.5059  0.7585
 5797SOL     OW28849   3.811   2.626  15.016  0.4131  0.5027  0.1480
 5797SOL    HW128850   3.851   2.539  15.018 -3.5120 -1.3109 -0.5210
 5797SOL    HW228851   3.874   2.674  14.963  0.1390  0.2080 -0.4411
 5798SOL     OW28852   3.430   3.289   7.788  0.4473  0.2817  0.7822
 5798SOL    HW128853   3.423   3.359   7.724  0.0301 -1.2377 -0.8484
 5798SOL    HW228854   3.341   3.288   7.825 -0.2424 -0.3535 -0.8782
 5799SOL     OW28855   2.453   0.060   4.051  0.4092  0.2036 -0.3073
 5799SOL    HW128856   2.544   0.042   4.075 -0.0999 -3.0292 -0.7946
 5799SOL    HW228857   2.423   0.094   4.136  1.3612  0.8389 -0.2213
 5800SOL     OW28858   2.743   3.155  10.970  0.0123 -0.2408 -0.1987
 5800SOL    HW128859   2.774   3.072  10.931 -1.4353 -1.2244  0.7392
 5800SOL    HW228860   2.808   3.211  10.928 -0.6957  0.9033  0.2643
 5801SOL     OW28861   0.409   3.266   4.483  0.0070 -0.1546  0.0721
 5801SOL    HW128862   0.464   3.279   4.560 -1.1290 -3.1295  1.3796
 5801SOL    HW228863   0.332   3.307   4.522 -0.3738 -1.0635  0.2612
 5802SOL     OW28864   4.284   2.986  10.779  0.0659 -0.2870  0.3065
 5802SOL    HW128865   4.331   2.969  10.698  0.8610 -4.0479  1.5434
 5802SOL    HW228866   4.281   3.081  10.785 -0.1214 -0.2535 -0.3579
 5803SOL     OW28867   3.443   3.538   7.601 -0.2360  0.2351  0.3500
 5803SOL    HW128868   3.469   3.604   7.665 -0.3004 -0.7836  1.4089
 5803SOL    HW228869   3.371   3.581   7.555  0.6631 -0.3733 -1.6390
 5804SOL     OW28870   2.558   2.741  16.283  0.0858  0.2858 -0.1980
 5804SOL    HW128871   2.515   2.665  16.245 -0.2304 -1.2778  3.3024
 5804SOL    HW228872   2.497   2.811  16.259 -1.4927 -0.7834  0.6702
 5805SOL     OW28873   0.675   0.662   6.781  0.7371 -0.3736 -0.0735
 5805SOL    HW128874   0.580   0.655   6.795  0.5526  1.5762 -0.3894
 5805SOL    HW228875   0.707   0.684   6.869 -0.5620 -2.4075  0.9201
 5806SOL     OW28876   3.788   2.079   3.568  0.3750 -0.3288  0.1049
 5806SOL    HW128877   3.819   2.019   3.500 -3.0200 -2.7997  0.6965
 5806SOL    HW228878   3.793   2.024   3.646 -0.8350  0.0027  0.4113
 5807SOL     OW28879   4.621   3.784   4.600  0.1624 -0.6013  0.1524
 5807SOL    HW128880   4.580   3.859   4.644  0.8270 -0.5908  0.7591
 5807SOL    HW228881   4.579   3.785   4.514  1.6570 -0.3907 -0.5730
 5808SOL     OW28882   0.359   3.516  13.320 -0.3391  0.0379  0.2966
 5808SOL    HW128883   0.323   3.547  13.402 -2.9380 -3.8552  0.6253
 5808SOL    HW228884   0.441   3.561  13.299 -0.0827 -1.4025 -1.7827
 5809SOL     OW28885   4.592   1.198   7.458 -0.0482 -0.3189  0.6254
 5809SOL    HW128886   4.652   1.273   7.454  2.5820 -2.4142  0.8129
 5809SOL    HW228887   4.646   1.119   7.461  0.7020  0.2634  2.2783
 5810SOL     OW28888   0.560   4.564   7.082 -0.2217 -0.2238  0.4515
 5810SOL    HW128889   0.482   4.530   7.037  0.2445  1.6030 -1.7636
 5810SOL    HW228890   0.631   4.516   7.038  0.3519  0.3898  0.7090
 5811SOL     OW28891   1.684   3.837   9.741  0.1602  0.4076 -0.0325
 5811SOL    HW128892   1.715   3.818   9.653  0.4361 -1.6293  0.5110
 5811SOL    HW228893   1.634   3.914   9.715  0.9145  0.2775 -1.8328
 5812SOL     OW28894   4.462   0.552   6.872 -0.0838  0.0296 -0.1123
 5812SOL    HW128895   4.539   0.599   6.841 -0.0313 -0.3343 -0.5290
 5812SOL    HW228896   4.496   0.471   6.909 -1.7285 -1.3847 -1.6975
 5813SOL     OW28897   4.122   4.431   7.931 -0.1695  0.0822  0.4432
 5813SOL    HW128898   4.170   4.514   7.928 -1.0357  0.6225  1.4924
 5813SOL    HW228899   4.166   4.376   7.866  0.2968  3.0384 -1.7385
 5814SOL     OW28900   2.874   0.469   7.072 -0.2839 -0.0859  0.6105
 5814SOL    HW128901   2.948   0.507   7.120  0.5444 -0.1373 -0.6146
 5814SOL    HW228902   2.799   0.523   7.097 -1.3872 -0.5961 -1.5311
 5815SOL     OW28903   1.213   0.665   8.060  0.0136  0.1876  0.1692
 5815SOL    HW128904   1.178   0.751   8.035  0.0609  0.2752  0.4125
 5815SOL    HW228905   1.215   0.680   8.154  0.2711  0.7062  0.0809
 5816SOL     OW28906   0.540   3.752   8.402 -0.4290 -0.6189 -0.7353
 5816SOL    HW128907   0.501   3.828   8.360 -0.5960 -0.2789  0.0357
 5816SOL    HW228908   0.557   3.795   8.486 -2.2759 -1.2923 -0.0143
 5817SOL     OW28909   2.827   3.584  11.178  0.5292 -0.1488  0.1090
 5817SOL    HW128910   2.757   3.637  11.138 -0.1368 -1.2794 -0.2146
 5817SOL    HW228911   2.779   3.525  11.236  0.4559  0.7205  0.9392
 5818SOL     OW28912   0.176   0.671   3.350 -0.3092 -0.4234  0.1638
 5818SOL    HW128913   0.144   0.582   3.366 -1.8559 -0.2514 -1.9086
 5818SOL    HW228914   0.149   0.688   3.260  0.6044  2.4391  0.4375
 5819SOL     OW28915   3.855   1.639   9.205  0.1041  0.2381 -0.1067
 5819SOL    HW128916   3.842   1.703   9.135 -0.9288  1.1261  0.8652
 5819SOL    HW228917   3.898   1.567   9.160 -1.9159 -0.7132 -0.4935
 5820SOL     OW28918   3.059   0.926   8.710  0.5235  0.0752 -0.1618
 5820SOL    HW128919   2.982   0.905   8.763  0.6645  0.4269  0.1852
 5820SOL    HW228920   3.114   0.922   8.789  0.3851  0.7032 -0.0343
 5821SOL     OW28921   1.940   2.056   7.515 -0.3101  0.0378  0.2784
 5821SOL    HW128922   1.877   1.990   7.488  2.8156 -2.5289 -0.7893
 5821SOL    HW228923   1.933   2.133   7.459  2.5002  0.5316  0.5707
 5822SOL     OW28924   3.169   2.722  11.757  0.1631 -0.3351 -0.1428
 5822SOL    HW128925   3.141   2.810  11.782  0.4287 -0.7638  1.6286
 5822SOL    HW228926   3.175   2.742  11.663 -1.9378 -2.6396 -0.7720
 5823SOL     OW28927   0.819   1.733   8.921  0.3762  0.1939 -0.3597
 5823SOL    HW128928   0.762   1.755   8.848  2.5767  1.2276 -1.7539
 5823SOL    HW228929   0.878   1.808   8.917 -1.4355  1.6904  1.1722
 5824SOL     OW28930   0.369   0.900   1.988  1.0274  0.2518 -0.3283
 5824SOL    HW128931   0.356   0.826   1.928  1.4500 -1.0915  1.2188
 5824SOL    HW228932   0.282   0.939   1.987  1.6168  1.5690 -1.2653
 5825SOL     OW28933   1.144   0.138   7.306  0.1919 -0.1375  0.2016
 5825SOL    HW128934   1.069   0.191   7.333 -0.1023  0.4429 -1.7420
 5825SOL    HW228935   1.182   0.176   7.227  0.5151 -0.4619  0.1994
 5826SOL     OW28936   2.919   0.886   7.838  0.7587  0.4611  0.4065
 5826SOL    HW128937   2.841   0.831   7.831 -0.3198  1.7391  2.2453
 5826SOL    HW228938   2.912   0.948   7.765  2.5352 -0.6251 -0.7008
 5827SOL     OW28939   0.418   3.089   5.275  0.0905  0.3076  0.1812
 5827SOL    HW128940   0.441   2.996   5.271  0.2488  0.2721  1.9697
 5827SOL    HW228941   0.501   3.129   5.299 -0.1573 -0.2633  1.9943
 5828SOL     OW28942   0.647   1.910   3.634 -0.4446 -0.3463  0.1703
 5828SOL    HW128943   0.605   1.849   3.695  0.9220 -1.3346  0.1326
 5828SOL    HW228944   0.663   1.982   3.695 -1.0670 -0.1419  0.0970
 5829SOL     OW28945   2.394   1.852   1.647  0.7260 -0.0556 -0.0552
 5829SOL    HW128946   2.315   1.891   1.610  1.3909 -0.0650 -1.4662
 5829SOL    HW228947   2.362   1.831   1.735  0.5573  2.0700  0.3936
 5830SOL     OW28948   1.659   2.453  15.260 -0.2819 -0.4207  0.0222
 5830SOL    HW128949   1.571   2.425  15.235 -0.1135  0.5310 -1.6094
 5830SOL    HW228950   1.685   2.471  15.170  0.0745 -0.3076  0.1473
 5831SOL     OW28951   1.927   1.583   2.657 -0.7864 -0.2459  0.2552
 5831SOL    HW128952   1.924   1.587   2.562 -0.9228 -0.2962  0.2562
 5831SOL    HW228953   2.020   1.598   2.671 -1.1257 -0.8428  3.1259
 5832SOL     OW28954   4.162   3.146  11.610 -0.0931 -0.2956 -0.7157
 5832SOL    HW128955   4.100   3.193  11.554  0.3611 -1.8931 -2.5543
 5832SOL    HW228956   4.113   3.145  11.693 -1.5408 -1.8671 -1.6141
 5833SOL     OW28957   4.490   3.519   8.439  0.2276 -0.1729  0.4270
 5833SOL    HW128958   4.581   3.491   8.440 -0.2312 -1.6427  1.3496
 5833SOL    HW228959   4.483   3.590   8.503 -0.0900  0.6046 -0.4679
 5834SOL     OW28960   3.373   0.445  15.188  0.0236 -0.2127 -0.6298
 5834SOL    HW128961   3.367   0.463  15.094 -0.2372  1.1233 -0.3596
 5834SOL    HW228962   3.452   0.499  15.199  1.8660 -2.7830 -1.2235
 5835SOL     OW28963   2.444   1.033   6.863 -0.1712 -0.1181  0.1739
 5835SOL    HW128964   2.427   1.084   6.783  1.7411  0.4528  0.1470
 5835SOL    HW228965   2.536   1.042   6.885 -0.4222 -0.9770  1.6143
 5836SOL     OW28966   2.869   2.980   5.155  0.2123 -0.0007 -0.4895
 5836SOL    HW128967   2.910   2.954   5.237 -1.8190  0.2014  0.5727
 5836SOL    HW228968   2.809   3.049   5.182  0.9372  0.1143  0.8225
 5837SOL     OW28969   0.096   3.931   5.343 -0.3379  0.1424 -0.0748
 5837SOL    HW128970   0.125   3.864   5.282  0.5201  0.4618 -0.0118
 5837SOL    HW228971   0.156   4.005   5.336  2.4940 -2.0274  1.5831
 5838SOL     OW28972   0.745   4.654  12.026 -0.3377  0.1525  0.2965
 5838SOL    HW128973   0.798   4.722  12.067 -0.7283 -0.4105  1.7498
 5838SOL    HW228974   0.737   4.694  11.940 -1.7062  0.7799  0.6997
 5839SOL     OW28975   4.094   4.620  12.719 -0.0323  0.4175  0.4096
 5839SOL    HW128976   4.039   4.625  12.797  1.2131  1.9065  1.1827
 5839SOL    HW228977   4.177   4.646  12.758 -1.4832  1.9136  2.5095
 5840SOL     OW28978   0.907   0.912  12.749 -0.1000 -0.1488  0.4566
 5840SOL    HW128979   0.993   0.873  12.733 -0.5989 -1.0127 -0.0388
 5840SOL    HW228980   0.922   1.004  12.724 -2.3426 -0.1488 -0.8006
 5841SOL     OW28981   0.883   4.238   4.750 -0.6008 -0.6822 -0.0367
 5841SOL    HW128982   0.852   4.328   4.755  0.5716 -0.2690 -0.0797
 5841SOL    HW228983   0.918   4.238   4.661 -1.1484 -0.4274 -0.2502
 5842SOL     OW28984   3.204   0.612  15.749  0.1295 -0.1918 -0.3620
 5842SOL    HW128985   3.140   0.664  15.797  0.0827  0.1310 -0.7734
 5842SOL    HW228986   3.282   0.609  15.805 -0.2315  0.3526  0.1801
 5843SOL     OW28987   3.461   1.660   1.854 -0.1693 -0.6711  0.4146
 5843SOL    HW128988   3.391   1.654   1.920  0.9461  1.3522  1.7913
 5843SOL    HW228989   3.433   1.732   1.798  3.3769 -0.3874 -0.9917
 5844SOL     OW28990   2.221   2.764   9.001 -0.3007 -0.1744  0.1933
 5844SOL    HW128991   2.282   2.693   9.020  0.0723 -0.4839 -2.1296
 5844SOL    HW228992   2.194   2.797   9.087 -0.7513 -1.2087  0.4459
 5845SOL     OW28993   4.250   4.544   5.180 -0.1626  0.1295  0.5892
 5845SOL    HW128994   4.303   4.526   5.257 -0.9398 -0.5038  0.9842
 5845SOL    HW228995   4.214   4.631   5.195  1.5259  1.0475 -0.6944
 5846SOL     OW28996   2.188   0.279  11.540 -1.0751 -0.2047 -0.2251
 5846SOL    HW128997   2.160   0.327  11.618  1.0891  0.3595  0.1897
 5846SOL    HW228998   2.147   0.330  11.470 -0.9504 -0.1735 -0.2737
 5847SOL     OW28999   0.008   3.067  17.597  0.5395  0.4238 -0.5646
 5847SOL    HW129000   4.659   3.075  17.536  0.5405 -1.1832 -0.7718
 5847SOL    HW229001   4.676   3.029  17.665 -0.8172 -0.4168 -2.1823
 5848SOL     OW29002   3.950   2.184   8.984 -0.0209  0.1961  0.1098
 5848SOL    HW129003   3.974   2.276   8.972  0.2272  0.4361  2.4682
 5848SOL    HW229004   3.855   2.189   8.996  0.0099  0.2650  0.3228
 5849SOL     OW29005   3.496   3.706   3.663 -0.2745 -0.1733  0.0138
 5849SOL    HW129006   3.543   3.629   3.695 -0.1443 -0.2431 -0.3533
 5849SOL    HW229007   3.551   3.771   3.707  0.8581  0.1909 -1.9626
 5850SOL     OW29008   4.476   4.563   5.893 -0.4276 -0.4732 -0.0494
 5850SOL    HW129009   4.552   4.599   5.938 -0.0592 -0.7991 -0.4105
 5850SOL    HW229010   4.496   4.469   5.891 -0.1019 -0.4517  2.3739
 5851SOL     OW29011   4.329   4.527  14.681 -0.4249  0.0593  0.1576
 5851SOL    HW129012   4.235   4.544  14.684 -0.5612 -0.4730 -1.3951
 5851SOL    HW229013   4.362   4.577  14.607  0.4901 -0.8464 -0.0488
 5852SOL     OW29014   2.928   4.473   9.388  0.1398  0.7719 -0.4527
 5852SOL    HW129015   2.951   4.380   9.396  0.9328  1.4088  4.2149
 5852SOL    HW229016   2.980   4.518   9.454  1.2582 -1.7193  0.3436
 5853SOL     OW29017   1.452   1.203   4.594 -0.3438 -0.2337 -0.0188
 5853SOL    HW129018   1.371   1.226   4.547 -1.2122 -0.9383  1.1210
 5853SOL    HW229019   1.422   1.130   4.648 -1.9672  0.4593  0.0097
 5854SOL     OW29020   1.552   0.015   5.192 -0.8093 -0.6761 -0.2128
 5854SOL    HW129021   1.604   0.095   5.190 -0.9183 -0.5527  1.4021
 5854SOL    HW229022   1.571   4.709   5.281 -2.3150 -0.5134  0.1685
 5855SOL     OW29023   3.395   4.138  14.144 -0.4014 -0.3781  0.5151
 5855SOL    HW129024   3.417   4.125  14.052  2.5428  1.5267  0.9622
 5855SOL    HW229025   3.299   4.134  14.140 -0.3379 -0.2081 -1.1949
 5856SOL     OW29026   2.891   2.033  10.858  0.0364 -0.3020 -0.2254
 5856SOL    HW129027   2.905   2.069  10.771 -0.8274 -0.8639 -0.6006
 5856SOL    HW229028   2.850   1.946  10.851 -0.1615  0.0439 -3.2331
 5857SOL     OW29029   2.506   3.542   5.978  0.1818 -0.2803  0.0966
 5857SOL    HW129030   2.434   3.595   6.013 -0.8449 -0.5908 -1.5161
 5857SOL    HW229031   2.481   3.522   5.887 -1.0090 -0.3413  0.4387
 5858SOL     OW29032   1.501   4.474  11.182 -0.2898 -0.5818  0.3460
 5858SOL    HW129033   1.431   4.472  11.248 -0.9809  0.9903 -0.3278
 5858SOL    HW229034   1.449   4.442  11.108  1.2025 -4.8952  1.1779
 5859SOL     OW29035   0.697   1.391   7.679  0.7502  0.5892 -0.1381
 5859SOL    HW129036   0.707   1.486   7.684  0.6851  0.5263  1.1739
 5859SOL    HW229037   0.643   1.362   7.752  0.4851 -1.2987 -1.0933
 5860SOL     OW29038   2.705   3.292   7.677 -0.2867 -0.0702 -1.1299
 5860SOL    HW129039   2.661   3.373   7.652  0.8796  0.6824 -0.7526
 5860SOL    HW229040   2.642   3.253   7.737  3.1359 -0.3780  2.2804
 5861SOL     OW29041   2.042   2.165   9.791  0.5110  0.5133  0.2696
 5861SOL    HW129042   2.055   2.246   9.840  2.9622  0.3811 -0.1256
 5861SOL    HW229043   2.095   2.119   9.856  0.1515  0.1603  0.3171
 5862SOL     OW29044   2.959   2.788   8.689  0.1672  0.0779 -0.8030
 5862SOL    HW129045   2.896   2.716   8.687  1.1817 -0.8338  0.5893
 5862SOL    HW229046   3.040   2.741   8.669  0.6389  0.5978 -0.1065
 5863SOL     OW29047   0.643   2.572  16.509  0.4206  0.5738  0.0041
 5863SOL    HW129048   0.641   2.668  16.505 -1.9739  0.5160  0.1195
 5863SOL    HW229049   0.552   2.547  16.498  0.0179  0.8196  2.7956
 5864SOL     OW29050   1.090   0.045   6.634  0.4861  0.8006  0.6733
 5864SOL    HW129051   1.016   4.708   6.620  3.0976 -1.8068 -1.7072
 5864SOL    HW229052   1.159   4.707   6.657 -0.2784  0.3843  1.8518
 5865SOL     OW29053   3.120   4.576   9.546 -0.0705  0.2439  0.0618
 5865SOL    HW129054   3.161   4.662   9.556 -0.0862  0.2293  0.2467
 5865SOL    HW229055   3.064   4.575   9.623 -1.1519 -0.7141 -0.7301
 5866SOL     OW29056   2.280   1.387   9.037  0.0152  0.3556  0.0189
 5866SOL    HW129057   2.205   1.397   9.097  1.2442  0.4808  1.5358
 5866SOL    HW229058   2.342   1.445   9.081 -0.6609  0.2185  1.1630
 5867SOL     OW29059   3.994   1.870   6.127  0.2632 -0.1701  0.2489
 5867SOL    HW129060   3.944   1.933   6.179  1.0956  1.3951 -0.8452
 5867SOL    HW229061   3.986   1.906   6.039 -0.4470 -1.6468 -0.2875
 5868SOL     OW29062   4.040   4.393  17.348  0.2203  0.0244  0.4198
 5868SOL    HW129063   4.119   4.436  17.316 -0.0019 -0.3261 -0.6024
 5868SOL    HW229064   3.995   4.457  17.402  0.2109  0.9287 -0.6579
 5869SOL     OW29065   3.507   0.410   5.777  0.2111 -0.4901 -0.0464
 5869SOL    HW129066   3.487   0.321   5.805  1.4797  0.0314  2.5620
 5869SOL    HW229067   3.418   0.440   5.759  0.8852 -0.5115 -3.3690
 5870SOL     OW29068   4.426   3.871  10.457  0.6418 -0.2117 -0.0310
 5870SOL    HW129069   4.453   3.848  10.368  0.5095  0.3864 -0.2251
 5870SOL    HW229070   4.342   3.912  10.436  1.4411  0.6882 -1.5153
 5871SOL     OW29071   1.812   3.122  11.840 -0.1141 -0.0326  0.1255
 5871SOL    HW129072   1.812   3.150  11.748 -2.5846 -0.5960 -0.0521
 5871SOL    HW229073   1.905   3.134  11.860 -0.0574 -1.3621  0.6810
 5872SOL     OW29074   2.953   1.194   7.002 -0.2423 -0.0739  0.6262
 5872SOL    HW129075   3.013   1.146   6.944 -0.1306 -1.5432  1.9643
 5872SOL    HW229076   2.977   1.169   7.092  0.8664 -2.3400 -0.2737
 5873SOL     OW29077   0.486   3.882   4.991  0.0430  0.0001  0.0078
 5873SOL    HW129078   0.428   3.807   4.980  1.7794 -0.8208 -3.6119
 5873SOL    HW229079   0.488   3.925   4.905  0.6422 -2.4695 -1.2117
 5874SOL     OW29080   3.743   1.894   5.128 -0.4288 -0.0985  0.2855
 5874SOL    HW129081   3.809   1.944   5.080 -1.9219 -0.7320 -2.3800
 5874SOL    HW229082   3.689   1.874   5.052  0.1634  1.0829 -0.4400
 5875SOL     OW29083   2.653   4.457   5.090  0.4976 -0.2850 -0.0131
 5875SOL    HW129084   2.561   4.477   5.106  0.4163 -0.4408 -0.2835
 5875SOL    HW229085   2.685   4.428   5.176 -0.2283 -1.2104 -0.0607
 5876SOL     OW29086   1.840   1.272   1.497 -0.9438 -0.1225 -0.2174
 5876SOL    HW129087   1.796   1.189   1.513 -0.8798 -0.0287  0.4482
 5876SOL    HW229088   1.789   1.302   1.422 -0.1430  0.3105 -0.5956
 5877SOL     OW29089   3.692   0.917  10.561  0.7336 -0.3615  0.6822
 5877SOL    HW129090   3.713   0.826  10.540  1.8842 -0.4448  2.1711
 5877SOL    HW229091   3.713   0.953  10.475 -2.0609 -1.2922 -0.3809
 5878SOL     OW29092   4.297   0.729   2.310  0.1018 -0.3269  0.2227
 5878SOL    HW129093   4.305   0.760   2.401  0.5959 -0.0307  0.0786
 5878SOL    HW229094   4.272   0.637   2.317 -1.7751  0.2875  1.5136
 5879SOL     OW29095   3.762   1.119   3.907  0.2715 -0.1445 -0.3589
 5879SOL    HW129096   3.759   1.121   4.003  0.2564 -1.1696 -0.3305
 5879SOL    HW229097   3.703   1.050   3.876 -1.1259  0.1121  1.7008
 5880SOL     OW29098   2.592   0.681   7.530  0.1121  0.1978 -0.0585
 5880SOL    HW129099   2.510   0.712   7.567  0.3130  0.7071 -0.0369
 5880SOL    HW229100   2.584   0.690   7.435  4.3631  1.8611 -0.2545
 5881SOL     OW29101   2.043   3.000  13.274 -0.5382  0.4849 -0.1332
 5881SOL    HW129102   1.947   2.998  13.274 -0.5558  1.7581  2.7683
 5881SOL    HW229103   2.066   2.932  13.211 -0.3564  0.5210 -0.1060
 5882SOL     OW29104   3.786   0.664   7.029 -0.2830 -0.3113  0.2530
 5882SOL    HW129105   3.742   0.677   7.113 -0.4823 -3.1492  0.5953
 5882SOL    HW229106   3.707   0.642   6.980 -0.4400  0.6557  0.0847
 5883SOL     OW29107   3.014   2.221   2.083  0.2483  0.3583 -0.3000
 5883SOL    HW129108   2.998   2.177   1.999  2.4858 -0.1393 -0.4733
 5883SOL    HW229109   2.924   2.221   2.114  0.7647 -1.0120  1.2252
 5884SOL     OW29110   0.049   3.642   3.901  0.1920  0.8052 -0.1062
 5884SOL    HW129111   0.092   3.679   3.824 -1.1314  0.4423 -1.0098
 5884SOL    HW229112   0.090   3.557   3.915 -2.2584 -0.2641  0.3809
 5885SOL     OW29113   2.331   2.974   1.154  0.5360  0.1536  0.4501
 5885SOL    HW129114   2.272   2.989   1.080  1.2753  0.8240 -0.0065
 5885SOL    HW229115   2.360   3.065   1.166 -1.1836  0.4189  2.4925
 5886SOL     OW29116   0.485   1.186   0.999  0.0663 -0.8625  0.0330
 5886SOL    HW129117   0.415   1.153   1.055 -0.4220 -0.9942 -0.6503
 5886SOL    HW229118   0.526   1.106   0.965 -0.6470 -1.3771  0.3730
 5887SOL     OW29119   0.237   0.152   8.473 -0.6228 -0.0872  0.0037
 5887SOL    HW129120   0.293   0.081   8.443  1.0444  1.4870 -0.5681
 5887SOL    HW229121   0.276   0.227   8.429  0.3646 -1.5179 -1.5498
 5888SOL     OW29122   0.681   1.104   7.742  0.2015  0.6561 -0.4040
 5888SOL    HW129123   0.673   1.148   7.658 -1.6721  0.3445 -0.3841
 5888SOL    HW229124   0.701   1.183   7.791 -0.5499  2.5652 -3.2227
 5889SOL     OW29125   1.755   0.712  14.816  0.3936 -0.0948 -0.0834
 5889SOL    HW129126   1.776   0.788  14.762 -0.1527  1.0718  1.3535
 5889SOL    HW229127   1.768   0.749  14.903  0.8886  1.1931 -0.7092
 5890SOL     OW29128   0.558   3.683   9.116  0.0024 -0.2304 -0.5134
 5890SOL    HW129129   0.510   3.625   9.058 -0.9040 -0.2687  0.2753
 5890SOL    HW229130   0.575   3.615   9.182 -0.9662 -2.6357 -2.7748
 5891SOL     OW29131   1.755   1.630  10.806 -0.2034  0.0155 -0.5348
 5891SOL    HW129132   1.839   1.616  10.850 -1.0844 -0.1030  1.1146
 5891SOL    HW229133   1.710   1.665  10.883 -0.9733 -0.2284 -0.8822
 5892SOL     OW29134   3.565   0.917  15.273 -0.1865 -0.6332  0.1844
 5892SOL    HW129135   3.508   0.901  15.349  0.2609 -0.3378  0.5831
 5892SOL    HW229136   3.634   0.965  15.320  0.0030  0.2151 -0.9801
 5893SOL     OW29137   0.734   4.391   6.949  0.0421 -0.3850 -0.0629
 5893SOL    HW129138   0.743   4.348   6.864 -0.3930 -2.2821  0.8561
 5893SOL    HW229139   0.686   4.326   7.000  0.4326 -1.2859 -0.8363
 5894SOL     OW29140   2.827   2.980   7.888 -0.0139  0.3014 -0.4290
 5894SOL    HW129141   2.896   2.986   7.954  0.3084 -1.7727 -0.5562
 5894SOL    HW229142   2.881   2.926   7.830 -0.6051  0.1578 -0.8485
 5895SOL     OW29143   0.325   1.268  17.129  0.3582  0.5568  0.2085
 5895SOL    HW129144   0.360   1.179  17.121 -1.0547  0.2088 -1.9854
 5895SOL    HW229145   0.364   1.309  17.052  2.2002 -0.5292  0.5604
 5896SOL     OW29146   1.881   0.631   6.820 -0.0747 -0.1072  0.7211
 5896SOL    HW129147   1.825   0.602   6.892 -1.0154  1.6454  0.6977
 5896SOL    HW229148   1.876   0.549   6.770 -0.1141 -0.4487  1.2864
 5897SOL     OW29149   0.653   2.124   3.801 -0.0925  0.3019 -0.5863
 5897SOL    HW129150   0.623   2.210   3.773 -0.8506  0.1940 -0.0959
 5897SOL    HW229151   0.709   2.130   3.878  0.6377  2.0888 -1.2628
 5898SOL     OW29152   3.817   0.344   0.195  0.4527  0.1139  0.4531
 5898SOL    HW129153   3.844   0.254   0.176  0.9089  0.2481  0.4519
 5898SOL    HW229154   3.897   0.387   0.163  0.2349  1.3021  1.5396
 5899SOL     OW29155   2.291   2.948   7.249 -0.5975 -0.1166  0.1558
 5899SOL    HW129156   2.385   2.932   7.250 -0.3736  1.2004 -0.2303
 5899SOL    HW229157   2.273   2.923   7.159  4.0067  0.2877 -0.8705
 5900SOL     OW29158   4.165   2.078  12.068 -0.2159 -0.0495  0.1126
 5900SOL    HW129159   4.173   2.012  12.136 -2.1143  0.4086  0.7626
 5900SOL    HW229160   4.085   2.049  12.024 -1.1866 -0.3294  2.0893
 5901SOL     OW29161   3.658   2.043   7.664  0.7501 -0.5467  0.0398
 5901SOL    HW129162   3.674   2.035   7.570  1.7335  0.3910  0.1308
 5901SOL    HW229163   3.733   1.988   7.686  1.6541  0.0705 -1.5463
 5902SOL     OW29164   0.958   1.646   3.352  0.5541  0.1357  0.2346
 5902SOL    HW129165   0.913   1.596   3.284  1.2212 -0.9989  0.6137
 5902SOL    HW229166   1.040   1.595   3.349  0.5737  0.1005  1.2700
 5903SOL     OW29167   4.157   1.406   9.421  0.2307  0.2731  0.0591
 5903SOL    HW129168   4.085   1.354   9.458 -1.2649  1.5233 -1.1237
 5903SOL    HW229169   4.158   1.480   9.481  1.1823 -0.3099  0.7634
 5904SOL     OW29170   1.533   0.305   6.878 -0.3554  0.5413  0.2401
 5904SOL    HW129171   1.563   0.237   6.938 -0.3359 -0.4275 -0.8799
 5904SOL    HW229172   1.487   0.257   6.809 -0.1594  0.6148  0.0556
 5905SOL     OW29173   2.753   1.763  17.299  0.0654  0.2624 -0.0276
 5905SOL    HW129174   2.838   1.744  17.260  0.1999 -1.0495  0.8981
 5905SOL    HW229175   2.780   1.760  17.391 -2.0632  0.6644  0.6197
 5906SOL     OW29176   0.668   1.934   9.148  0.6354 -0.2076  0.0548
 5906SOL    HW129177   0.621   1.888   9.217 -0.4284 -1.5870 -1.5831
 5906SOL    HW229178   0.611   2.011   9.141 -2.0777 -2.0519  1.8744
 5907SOL     OW29179   0.169   2.163   0.818 -0.4794 -0.1722 -0.2541
 5907SOL    HW129180   0.240   2.192   0.760  2.0707 -1.0578  2.4459
 5907SOL    HW229181   0.121   2.246   0.820 -0.7400 -0.3145 -0.4771
 5908SOL     OW29182   0.436   4.212  15.023  0.2465 -0.1994  0.4372
 5908SOL    HW129183   0.507   4.275  15.013  0.2178 -0.3119 -0.4585
 5908SOL    HW229184   0.475   4.133  14.985 -0.7558 -1.7888  2.7315
 5909SOL     OW29185   3.476   3.503  12.060  0.3405  0.4905  0.3082
 5909SOL    HW129186   3.532   3.479  11.986 -1.3591 -1.5690 -0.3143
 5909SOL    HW229187   3.492   3.431  12.121 -0.0236  2.9660  3.2966
 5910SOL     OW29188   3.827   2.686  11.455 -0.1831  0.2130  0.7841
 5910SOL    HW129189   3.873   2.757  11.411 -0.6797  1.0298  1.5934
 5910SOL    HW229190   3.765   2.736  11.508 -0.2764  0.8076  0.1119
 5911SOL     OW29191   2.841   3.721   1.964  0.2649  0.3576 -0.3270
 5911SOL    HW129192   2.923   3.765   1.987  0.3554 -0.4993  1.0483
 5911SOL    HW229193   2.807   3.693   2.049  0.1142  1.3597 -0.0613
 5912SOL     OW29194   1.477   3.067   6.417 -0.2814  0.3221  0.9944
 5912SOL    HW129195   1.428   2.986   6.431 -3.4435  1.9272 -0.6746
 5912SOL    HW229196   1.442   3.109   6.338 -0.3172  1.4759  1.6278
 5913SOL     OW29197   4.111   3.408  16.043  0.0366  0.1489  0.6753
 5913SOL    HW129198   4.130   3.459  16.121  0.4155  1.2443 -0.1342
 5913SOL    HW229199   4.053   3.337  16.072  3.0217 -1.5021  2.6351
 5914SOL     OW29200   0.815   4.104  14.829  0.3966  0.3386  0.1873
 5914SOL    HW129201   0.852   4.155  14.900 -0.4757  1.8253 -0.3998
 5914SOL    HW229202   0.877   4.121  14.758  1.4468  2.9724  1.7201
 5915SOL     OW29203   1.222   4.436   3.428 -0.3885 -0.2650 -0.0071
 5915SOL    HW129204   1.260   4.430   3.516 -2.3335  1.9032  0.9767
 5915SOL    HW229205   1.251   4.525   3.408  0.4155 -0.3955  0.5895
 5916SOL     OW29206   2.160   4.034   2.060 -0.0230  0.5799 -0.2128
 5916SOL    HW129207   2.140   3.987   2.141  1.3130  1.9025  0.8770
 5916SOL    HW229208   2.220   3.971   2.020 -0.3853  0.8503 -1.1967
 5917SOL     OW29209   0.474   2.602  16.138 -0.8143 -0.4369 -0.0512
 5917SOL    HW129210   0.452   2.520  16.095 -1.7178 -0.2203 -0.0185
 5917SOL    HW229211   0.394   2.652  16.120 -0.7223 -0.7187 -1.2716
 5918SOL     OW29212   3.438   3.891  13.029  0.0974  0.0228  0.1184
 5918SOL    HW129213   3.516   3.940  13.003 -1.5250  0.6611 -3.5074
 5918SOL    HW229214   3.399   3.866  12.946  2.1089 -1.0618 -0.4993
 5919SOL     OW29215   3.731   2.161   5.600  0.0095 -1.0314 -0.2086
 5919SOL    HW129216   3.698   2.091   5.657  2.5469 -0.2201  2.2530
 5919SOL    HW229217   3.814   2.120   5.577  1.2778  1.0147  0.6747
 5920SOL     OW29218   4.306   2.117   5.144  0.0292 -0.2413  0.1383
 5920SOL    HW129219   4.340   2.057   5.078 -0.2847  0.4424 -0.6574
 5920SOL    HW229220   4.217   2.086   5.155 -0.2377  0.7101  0.6951
 5921SOL     OW29221   0.991   3.070   5.970 -0.4877  0.2891  0.9157
 5921SOL    HW129222   0.914   3.063   5.913  0.6803  2.1325 -0.9072
 5921SOL    HW229223   0.954   3.025   6.045  0.0403  0.5103  1.3110
 5922SOL     OW29224   0.385   2.802   8.954 -0.6483  0.0557 -0.4802
 5922SOL    HW129225   0.381   2.713   8.987  1.1334  0.1543  0.0010
 5922SOL    HW229226   0.334   2.850   9.020 -0.1446  0.4293 -0.3645
 5923SOL     OW29227   4.325   3.153  11.358 -0.1523 -0.1489  0.3520
 5923SOL    HW129228   4.274   3.075  11.335 -1.6926  0.5456  1.4053
 5923SOL    HW229229   4.294   3.143  11.448 -0.0613  1.4966  0.5582
 5924SOL     OW29230   2.266   2.439   1.871  0.4195  0.3991  0.5203
 5924SOL    HW129231   2.242   2.379   1.801  3.0849 -0.0908  0.0319
 5924SOL    HW229232   2.338   2.393   1.914  1.5157 -0.1055 -1.8903
 5925SOL     OW29233   4.279   4.242  12.921  0.0519 -0.3988  0.2450
 5925SOL    HW129234   4.196   4.291  12.916  0.6787  0.4416 -2.2485
 5925SOL    HW229235   4.334   4.320  12.913 -2.2671  1.1176 -1.3112
 5926SOL     OW29236   3.649   1.972   0.272 -0.2672  0.1603  0.3183
 5926SOL    HW129237   3.579   2.036   0.269 -0.0122  0.4547  0.6297
 5926SOL    HW229238   3.640   1.945   0.181 -1.8691 -0.0046  0.5176
 5927SOL     OW29239   2.269   1.798   3.074  0.4494  0.0456  0.5374
 5927SOL    HW129240   2.236   1.851   3.001  2.0066  0.7531  0.3605
 5927SOL    HW229241   2.244   1.709   3.047  1.5549 -0.1815  0.2426
 5928SOL     OW29242   3.160   2.680   3.207 -0.0213  0.0055  0.1266
 5928SOL    HW129243   3.118   2.661   3.123 -0.2334 -0.6265  0.3719
 5928SOL    HW229244   3.189   2.590   3.223 -1.3313 -0.4043  0.2086
 5929SOL     OW29245   0.829   2.419  16.411 -0.0346 -0.1223 -0.2306
 5929SOL    HW129246   0.878   2.501  16.418 -4.4039  2.4668 -0.3113
 5929SOL    HW229247   0.744   2.458  16.429  0.8615  0.9182  1.7727
 5930SOL     OW29248   3.832   1.196   0.506 -0.2233  0.4038  0.0748
 5930SOL    HW129249   3.821   1.272   0.564  4.2599  2.4701 -1.8528
 5930SOL    HW229250   3.755   1.206   0.450 -0.8439  0.5215  0.9470
 5931SOL     OW29251   0.300   3.738   3.182 -0.5759 -0.2612  0.6671
 5931SOL    HW129252   0.252   3.665   3.220  2.4859 -2.2390  0.7609
 5931SOL    HW229253   0.235   3.775   3.122 -0.7180 -0.1551  0.8852
 5932SOL     OW29254   0.720   1.171   0.619  0.1471  0.5667 -0.6421
 5932SOL    HW129255   0.800   1.119   0.609 -0.4791 -0.3437 -0.8754
 5932SOL    HW229256   0.712   1.230   0.544  0.5228  2.3823  0.7409
 5933SOL     OW29257   1.589   1.514  13.659 -0.1178 -0.4112  0.8431
 5933SOL    HW129258   1.604   1.510  13.753  1.0240  0.5664  0.6997
 5933SOL    HW229259   1.494   1.527  13.662  0.2545  2.6855 -1.2884
 5934SOL     OW29260   0.133   0.809  14.481  0.0838  0.3715 -0.0829
 5934SOL    HW129261   0.061   0.854  14.438  1.2471  1.3888 -0.9645
 5934SOL    HW229262   0.130   0.717  14.454 -1.0283  0.9837 -2.0351
 5935SOL     OW29263   0.213   1.257   6.059  0.3341 -0.4079 -0.3087
 5935SOL    HW129264   0.144   1.251   5.992 -1.2823 -1.5344  1.4470
 5935SOL    HW229265   0.234   1.165   6.077  0.2363 -0.2819  0.4517
 5936SOL     OW29266   4.414   1.436   6.477  0.1363  0.2149  0.3444
 5936SOL    HW129267   4.495   1.469   6.438  0.6407 -1.2978  0.1109
 5936SOL    HW229268   4.398   1.504   6.544  4.1549  1.0707  0.4499
 5937SOL     OW29269   0.815   1.402   9.342 -0.4018 -1.0223 -0.2223
 5937SOL    HW129270   0.761   1.345   9.397 -1.7400 -0.0672 -0.5667
 5937SOL    HW229271   0.854   1.331   9.290 -2.1106 -1.2904 -1.1227
 5938SOL     OW29272   0.967   2.785   6.860 -0.4719 -0.0213 -0.0990
 5938SOL    HW129273   0.899   2.747   6.916 -1.4791  1.6752 -0.1552
 5938SOL    HW229274   0.952   2.879   6.869  0.7298  0.2122 -0.6081
 5939SOL     OW29275   1.021   4.494  11.941  0.1778  0.0631  0.4675
 5939SOL    HW129276   1.088   4.426  11.931  1.8759  1.8738 -0.3714
 5939SOL    HW229277   1.050   4.546  11.867 -2.6195  1.9979  0.7355
 5940SOL     OW29278   3.826   0.836  10.140 -0.1081 -0.0072  0.2079
 5940SOL    HW129279   3.849   0.751  10.177  0.2191 -0.3789 -0.8585
 5940SOL    HW229280   3.801   0.819  10.049 -3.6657  1.5513  0.8913
 5941SOL     OW29281   0.202   0.512   7.049 -0.4957  0.3237 -0.2147
 5941SOL    HW129282   0.140   0.447   7.015 -1.1813  0.3769  0.9289
 5941SOL    HW229283   0.283   0.466   7.029 -0.3214  0.9631 -0.9651
 5942SOL     OW29284   0.539   0.115   8.683  0.7026 -0.4021  0.3000
 5942SOL    HW129285   0.457   0.127   8.730  1.8580  3.1109  1.4513
 5942SOL    HW229286   0.567   0.025   8.701 -0.2395 -0.9418 -0.9793
 5943SOL     OW29287   2.014   2.259  13.733  0.3004  0.1661  0.1966
 5943SOL    HW129288   2.057   2.179  13.762  0.2819 -0.1476 -0.6301
 5943SOL    HW229289   2.055   2.277  13.648 -0.1762 -2.4498 -0.5833
 5944SOL     OW29290   2.434   2.529   6.488  0.1089  0.3445 -0.3608
 5944SOL    HW129291   2.351   2.499   6.525 -0.4222  0.5935 -1.3497
 5944SOL    HW229292   2.415   2.623   6.484 -3.1929 -0.3441 -0.4652
 5945SOL     OW29293   0.237   1.550   2.922 -0.0813 -0.4419 -0.1580
 5945SOL    HW129294   0.301   1.494   2.967 -1.9882 -0.9584  1.9236
 5945SOL    HW229295   0.154   1.511   2.949 -0.4700  1.1393  0.9182
 5946SOL     OW29296   1.948   3.015   0.476 -0.3513  1.0949  0.0932
 5946SOL    HW129297   1.896   3.093   0.494  0.2454  1.2192  1.3426
 5946SOL    HW229298   1.875   2.973   0.431  0.9513 -5.9097  4.3728
 5947SOL     OW29299   0.470   0.405   7.041  0.0405  0.1272  0.2202
 5947SOL    HW129300   0.431   0.360   6.966  0.2961 -0.8188  0.6592
 5947SOL    HW229301   0.488   0.323   7.087 -1.2232 -1.2200 -1.6433
 5948SOL     OW29302   1.320   4.591   7.641 -0.6122 -0.2281 -0.3979
 5948SOL    HW129303   1.318   4.672   7.692  0.4776 -0.0541 -0.6311
 5948SOL    HW229304   1.265   4.531   7.691 -2.5157  2.0917  0.2785
 5949SOL     OW29305   1.817   4.007   0.473 -0.9294  0.0220  0.2573
 5949SOL    HW129306   1.784   3.942   0.534 -3.7409  0.6469 -0.5805
 5949SOL    HW229307   1.848   3.959   0.396  2.4594  2.1705  0.2653
 5950SOL     OW29308   4.401   4.112   4.301 -0.0962 -0.2940  0.2430
 5950SOL    HW129309   4.378   4.170   4.229  0.0235 -0.3911  0.1245
 5950SOL    HW229310   4.466   4.062   4.250  1.1168 -2.0261  3.5249
 5951SOL     OW29311   1.777   3.947  13.466  0.6028 -0.2142 -0.2758
 5951SOL    HW129312   1.763   4.026  13.414 -0.0483  0.1243  0.4214
 5951SOL    HW229313   1.828   3.897  13.402 -0.5803 -1.5762 -0.1645
 5952SOL     OW29314   1.020   4.164   7.565 -0.4210  0.1058  0.4665
 5952SOL    HW129315   0.999   4.254   7.540  0.3614 -0.1245 -1.0421
 5952SOL    HW229316   1.081   4.182   7.637  0.6149  1.8204 -0.8399
 5953SOL     OW29317   1.916   3.349  13.520  0.7112 -0.5188  0.4774
 5953SOL    HW129318   1.848   3.291  13.485 -0.0332  0.4987  0.2213
 5953SOL    HW229319   1.970   3.282  13.562 -0.6608 -1.1256  1.2665
 5954SOL     OW29320   3.757   4.614   8.368  0.2136 -0.0936 -0.1775
 5954SOL    HW129321   3.745   4.700   8.327  0.7878  0.8287  1.5867
 5954SOL    HW229322   3.845   4.598   8.336  0.8870  1.8075  0.7491
 5955SOL     OW29323   3.294   4.373  13.843  0.7161  0.5484  0.1889
 5955SOL    HW129324   3.358   4.351  13.774  1.2134  0.6849  0.6064
 5955SOL    HW229325   3.350   4.410  13.911  0.4145 -1.8891  1.7404
 5956SOL     OW29326   4.015   3.088   8.606 -0.4898  0.1476 -0.5993
 5956SOL    HW129327   4.060   3.010   8.575 -2.0429 -1.1828  0.4902
 5956SOL    HW229328   4.055   3.119   8.687 -0.3183  0.1923 -0.7022
 5957SOL     OW29329   0.316   2.817   3.451 -0.0706  0.2173  0.0802
 5957SOL    HW129330   0.258   2.788   3.520 -0.2516 -0.6328 -0.4262
 5957SOL    HW229331   0.289   2.767   3.374  0.5711  0.4931 -0.3340
 5958SOL     OW29332   0.260   3.803   2.620  0.8301 -0.4848 -0.6181
 5958SOL    HW129333   0.209   3.848   2.552  0.9320 -1.9708 -1.6810
 5958SOL    HW229334   0.279   3.718   2.580  0.5471 -0.2937 -1.1601
 5959SOL     OW29335   3.282   1.629   4.007 -0.1206 -0.0718 -0.0362
 5959SOL    HW129336   3.368   1.596   3.979 -0.1451 -0.2276  0.0766
 5959SOL    HW229337   3.320   1.702   4.056 -0.0291 -1.6829  2.2768
 5960SOL     OW29338   2.622   1.678   5.552 -0.2640  0.5376 -0.1973
 5960SOL    HW129339   2.634   1.754   5.496 -0.7669  1.4257  0.9141
 5960SOL    HW229340   2.541   1.647   5.511 -0.5448  1.7632 -0.5540
 5961SOL     OW29341   3.250   4.544   2.814 -0.4952  0.0651 -0.1901
 5961SOL    HW129342   3.294   4.490   2.880  0.7548  0.0204 -1.0706
 5961SOL    HW229343   3.196   4.472   2.780  0.2122 -0.8420  0.6194
 5962SOL     OW29344   3.597   1.718  17.192  0.4728  0.7970 -0.1136
 5962SOL    HW129345   3.684   1.727  17.153 -1.0554  0.6706 -3.5330
 5962SOL    HW229346   3.616   1.633  17.230 -0.5764  0.9432  0.7154
 5963SOL     OW29347   2.944   2.058  13.357 -0.1066 -0.5809  0.8285
 5963SOL    HW129348   2.876   2.025  13.415 -0.5321 -2.3775 -0.6864
 5963SOL    HW229349   2.949   2.149  13.384 -0.8638 -0.8098  1.7360
 5964SOL     OW29350   0.498   2.039   5.508 -0.2424  0.0737 -0.4129
 5964SOL    HW129351   0.485   2.032   5.602 -0.5089 -0.8791 -0.5250
 5964SOL    HW229352   0.592   2.054   5.504  0.0206 -1.2619  0.9619
 5965SOL     OW29353   4.339   1.458  11.764  0.3936 -0.0642 -0.0132
 5965SOL    HW129354   4.303   1.547  11.758 -0.2028 -0.3165 -0.1933
 5965SOL    HW229355   4.304   1.428  11.848  3.0359  0.0188  1.1050
 5966SOL     OW29356   2.548   4.688   6.421  0.6808  0.3865 -0.4694
 5966SOL    HW129357   2.544   0.033   6.355 -0.4554  1.6297  0.8796
 5966SOL    HW229358   2.627   4.700   6.473  0.9966  0.0043 -0.8617
 5967SOL     OW29359   0.010   1.250   6.573 -0.2196 -0.3728  0.2993
 5967SOL    HW129360   4.712   1.257   6.667  0.3165 -0.2225  0.4084
 5967SOL    HW229361   0.093   1.297   6.572  0.3436 -1.3880 -0.1479
 5968SOL     OW29362   2.683   2.020   4.785  0.4205 -0.0663 -0.3463
 5968SOL    HW129363   2.692   1.974   4.701  1.2148 -0.9642  0.2327
 5968SOL    HW229364   2.596   2.060   4.777 -0.1293 -0.6585  2.6282
 5969SOL     OW29365   1.251   2.102  11.755  0.2931 -0.2647  0.2644
 5969SOL    HW129366   1.190   2.032  11.732  1.1069 -0.3593 -1.5672
 5969SOL    HW229367   1.237   2.124  11.847  1.1954 -0.9737  0.5707
 5970SOL     OW29368   3.666   1.607  15.434 -0.4474  0.2371  0.2126
 5970SOL    HW129369   3.625   1.651  15.508 -0.2654  1.8060 -0.6194
 5970SOL    HW229370   3.615   1.527  15.419 -0.4316  0.6309 -1.9889
 5971SOL     OW29371   2.899   2.402   2.433 -0.0992 -0.5171  0.9613
 5971SOL    HW129372   2.874   2.390   2.525  1.2165  0.6896  1.4709
 5971SOL    HW229373   2.976   2.457   2.443  2.5119 -3.7881 -1.2414
 5972SOL     OW29374   2.212   2.549   4.509 -0.0866 -0.6873 -0.2350
 5972SOL    HW129375   2.206   2.631   4.558  2.5726  0.3415 -1.6226
 5972SOL    HW229376   2.124   2.514   4.520 -0.2366 -0.2001  0.0583
 5973SOL     OW29377   3.795   3.423  11.171  0.3830  0.2539 -0.3682
 5973SOL    HW129378   3.707   3.444  11.138  1.4610  1.0611 -2.7584
 5973SOL    HW229379   3.803   3.501  11.227  0.4509 -1.3605  1.8578
 5974SOL     OW29380   1.118   4.581   9.318 -0.4878 -0.3608 -0.4081
 5974SOL    HW129381   1.195   4.538   9.354 -0.5236  1.2572  1.5728
 5974SOL    HW229382   1.053   4.557   9.384 -0.3127  0.5100  0.0769
 5975SOL     OW29383   1.615   2.492   3.522  0.6001  0.3647  0.4380
 5975SOL    HW129384   1.675   2.504   3.449  1.3681  0.7656  1.1447
 5975SOL    HW229385   1.577   2.580   3.527  0.4759  0.3890 -0.8608
 5976SOL     OW29386   4.152   3.976  13.477 -0.1203 -0.6872 -0.2538
 5976SOL    HW129387   4.164   3.882  13.488  1.8131 -0.4427 -0.4164
 5976SOL    HW229388   4.169   4.009  13.566 -0.8341 -3.1174  0.8008
 5977SOL     OW29389   3.880   2.808   8.487 -0.0470 -0.0004  0.1074
 5977SOL    HW129390   3.945   2.835   8.423 -0.8632 -0.1004 -0.7592
 5977SOL    HW229391   3.818   2.769   8.425 -0.3694  3.2228 -1.5886
 5978SOL     OW29392   1.561   3.546   4.799 -1.0072  0.2787  0.4652
 5978SOL    HW129393   1.634   3.561   4.738 -0.1158 -1.9945  0.9772
 5978SOL    HW229394   1.564   3.618   4.862  0.5281  0.6960 -0.0806
 5979SOL     OW29395   1.547   3.520   8.981 -0.3968  0.5855  0.6861
 5979SOL    HW129396   1.569   3.612   8.971 -2.5189  1.1815  1.3409
 5979SOL    HW229397   1.501   3.486   8.904  0.6486  0.4343  0.1357
 5980SOL     OW29398   1.106   2.023   2.728  0.2744 -0.0163  0.3690
 5980SOL    HW129399   1.044   2.072   2.674  2.6857  0.1912 -2.1832
 5980SOL    HW229400   1.046   1.962   2.773 -0.3488 -0.0613 -0.5221
 5981SOL     OW29401   0.175   0.351  11.658 -0.1502 -0.2898  0.2803
 5981SOL    HW129402   0.266   0.383  11.664 -0.2024  0.2805 -1.9920
 5981SOL    HW229403   0.142   0.433  11.622 -1.2390 -0.8844 -0.0465
 5982SOL     OW29404   2.016   4.095   5.050 -0.2464 -0.7843 -0.1813
 5982SOL    HW129405   2.049   4.185   5.057 -0.8482 -0.6319  0.5790
 5982SOL    HW229406   2.084   4.055   4.995  0.4705  1.0592 -0.6690
 5983SOL     OW29407   0.675   1.855   4.939  0.3329 -0.2579 -0.1782
 5983SOL    HW129408   0.742   1.849   4.871  2.1987 -0.8479  1.6932
 5983SOL    HW229409   0.658   1.763   4.962 -1.3344  0.2962  0.8028
 5984SOL     OW29410   3.641   4.438   1.475 -0.0621 -0.6223  0.0371
 5984SOL    HW129411   3.676   4.526   1.486  0.5236 -0.7107 -1.1304
 5984SOL    HW229412   3.600   4.420   1.560 -2.1382 -0.2714 -0.8950
 5985SOL     OW29413   1.363   0.284   5.168  0.1282 -0.4248 -0.2741
 5985SOL    HW129414   1.432   0.258   5.229  0.7423  1.0787 -0.3382
 5985SOL    HW229415   1.308   0.206   5.161  0.7837 -0.6459 -2.9742
 5986SOL     OW29416   1.196   4.320  16.416  0.6561  0.1255  0.2465
 5986SOL    HW129417   1.147   4.395  16.449 -1.2634 -0.8192 -0.4478
 5986SOL    HW229418   1.190   4.332  16.321 -1.2137 -2.8359 -0.0300
 5987SOL     OW29419   1.151   0.954   5.079  0.2625 -0.3748 -0.4504
 5987SOL    HW129420   1.178   0.975   4.990  2.8418 -1.5293  0.0809
 5987SOL    HW229421   1.057   0.974   5.079  0.6225  1.3330  0.9756
 5988SOL     OW29422   3.960   0.165   0.617  0.1420 -0.0334 -0.4476
 5988SOL    HW129423   3.891   0.152   0.682  0.9985  1.0942  0.6861
 5988SOL    HW229424   3.919   0.141   0.534 -1.8052 -1.1601  0.8416
 5989SOL     OW29425   1.541   3.718   2.968 -0.2234 -0.2240 -0.6723
 5989SOL    HW129426   1.615   3.728   3.028 -0.6032 -1.8566  0.0782
 5989SOL    HW229427   1.506   3.807   2.967 -1.5609 -0.7393 -0.2683
 5990SOL     OW29428   2.593   2.106   3.556 -0.6935  0.1382 -0.2797
 5990SOL    HW129429   2.501   2.078   3.557  0.6224 -4.0795 -0.1535
 5990SOL    HW229430   2.581   2.165   3.481 -0.8444 -0.3905 -0.6661
 5991SOL     OW29431   0.978   4.038   4.076  0.3498  0.1489 -0.1757
 5991SOL    HW129432   0.986   3.953   4.034 -0.7679 -0.7166  1.3748
 5991SOL    HW229433   0.960   4.085   3.994  2.1054  1.3715  0.1510
 5992SOL     OW29434   2.169   3.681   8.181 -0.1906  0.1103  0.1966
 5992SOL    HW129435   2.253   3.638   8.197 -1.0333 -1.4759  0.3363
 5992SOL    HW229436   2.118   3.600   8.184 -0.5375  0.3823  2.3967
 5993SOL     OW29437   1.706   0.022   2.321  0.1934  0.2324 -0.7976
 5993SOL    HW129438   1.693   4.671   2.380  1.3360 -1.4484 -2.6792
 5993SOL    HW229439   1.691   4.704   2.237 -1.6674 -1.6049  0.4323
 5994SOL     OW29440   3.575   1.907   3.981 -0.1029 -0.4582  0.0145
 5994SOL    HW129441   3.612   1.842   3.921  0.9025  1.5958 -1.5866
 5994SOL    HW229442   3.546   1.859   4.059  0.6851 -1.0846 -0.0712
 5995SOL     OW29443   1.902   1.950   2.259  0.3046  0.3451  0.4395
 5995SOL    HW129444   1.830   1.987   2.311 -0.5812 -1.3052  0.3723
 5995SOL    HW229445   1.865   1.933   2.173 -0.9430 -1.9152  1.4200
 5996SOL     OW29446   3.021   3.004   8.102  0.1726  0.1310  0.3151
 5996SOL    HW129447   3.020   3.077   8.164  0.5111  0.8660 -0.5295
 5996SOL    HW229448   3.035   2.930   8.161  0.4720  0.2337  0.3732
 5997SOL     OW29449   0.393   2.652   2.063 -0.1716 -1.2733  0.1244
 5997SOL    HW129450   0.379   2.569   2.110 -2.3145 -1.0149 -0.0303
 5997SOL    HW229451   0.438   2.707   2.127  0.8649 -0.9250 -0.9184
 5998SOL     OW29452   0.843   3.193   7.097  0.6964  0.0645 -0.0386
 5998SOL    HW129453   0.784   3.133   7.051 -1.8445  0.5665  2.5544
 5998SOL    HW229454   0.820   3.175   7.188 -1.8770  0.5933 -0.5921
 5999SOL     OW29455   1.567   1.472  13.946  0.0999  0.2779  0.2455
 5999SOL    HW129456   1.541   1.513  14.029 -2.4715  1.0231 -0.9190
 5999SOL    HW229457   1.513   1.395  13.927  2.3120 -0.7168 -1.9826
 6000SOL     OW29458   1.492   2.377   7.083  0.1319 -0.4878 -0.5736
 6000SOL    HW129459   1.416   2.323   7.060 -1.5143  0.8989  1.5950
 6000SOL    HW229460   1.484   2.454   7.026 -0.4426 -0.5730 -0.6024
 6001SOL     OW29461   1.882   3.131  15.800  0.2835 -0.1943 -0.0110
 6001SOL    HW129462   1.793   3.122  15.834  0.8901 -0.0637  1.6356
 6001SOL    HW229463   1.902   3.215  15.842  0.7710  1.3151 -3.2931
 6002SOL     OW29464   0.313   4.083   6.242  0.2608 -0.0003  0.0921
 6002SOL    HW129465   0.355   3.997   6.251  1.7865  0.9219  1.8699
 6002SOL    HW229466   0.383   4.148   6.251 -0.3746  0.6520  0.3773
 6003SOL     OW29467   3.474   4.379  17.263 -0.0375  0.2072  0.2191
 6003SOL    HW129468   3.433   4.362  17.178 -2.6495 -1.0410  1.7556
 6003SOL    HW229469   3.513   4.293  17.279 -0.6616 -0.6406 -2.6279
 6004SOL     OW29470   2.577   0.967   8.125  0.6518  0.4017 -0.2901
 6004SOL    HW129471   2.536   1.015   8.198  2.0692 -2.0821  2.1119
 6004SOL    HW229472   2.535   0.882   8.120  1.1446  0.1310  0.2789
 6005SOL     OW29473   0.546   0.578  15.619 -0.5524  0.4429 -0.2490
 6005SOL    HW129474   0.602   0.563  15.543 -1.2455 -1.4850 -0.3933
 6005SOL    HW229475   0.462   0.554  15.578 -0.9888 -0.5952  1.2359
 6006SOL     OW29476   2.685   3.796  11.389  0.2479 -0.1752  0.0335
 6006SOL    HW129477   2.716   3.886  11.396  1.1826 -0.5001  0.2374
 6006SOL    HW229478   2.679   3.796  11.294 -0.5538  0.0697  0.0894
 6007SOL     OW29479   4.365   1.332  14.758  0.1279 -0.1720  0.0231
 6007SOL    HW129480   4.284   1.355  14.713  0.2170 -4.0150 -2.1120
 6007SOL    HW229481   4.338   1.300  14.845  2.8094 -1.7283  0.2826
 6008SOL     OW29482   1.498   1.336   8.448  0.0401 -0.0896  0.2344
 6008SOL    HW129483   1.525   1.351   8.539 -0.9200  1.6288  0.2211
 6008SOL    HW229484   1.488   1.240   8.446 -1.3457  0.0678 -0.1513
 6009SOL     OW29485   3.232   3.668   0.574 -0.1256 -0.0076  0.2217
 6009SOL    HW129486   3.256   3.736   0.511  0.2625 -0.9381 -0.6245
 6009SOL    HW229487   3.310   3.652   0.626 -0.4238 -0.1614  0.6275
 6010SOL     OW29488   1.771   4.372  10.614  0.3904  0.1030  0.1781
 6010SOL    HW129489   1.694   4.316  10.602  1.8270 -1.6159 -0.9817
 6010SOL    HW229490   1.775   4.371  10.710  0.9325  1.7212  0.1715
 6011SOL     OW29491   3.699   0.661  12.318  0.3519  0.3064  0.4113
 6011SOL    HW129492   3.781   0.685  12.273 -1.0857  1.4073 -1.6066
 6011SOL    HW229493   3.711   0.567  12.333 -2.6446  0.2769  2.5584
 6012SOL     OW29494   0.123   3.495   6.877  0.0736 -0.1768 -0.5204
 6012SOL    HW129495   0.182   3.570   6.867 -0.9061  0.6272 -0.3351
 6012SOL    HW229496   0.128   3.482   6.972 -1.2701 -1.0725 -0.5862
 6013SOL     OW29497   2.734   0.509   2.926 -0.2208 -0.4086  0.3453
 6013SOL    HW129498   2.702   0.425   2.959  0.7769 -1.1142 -0.4762
 6013SOL    HW229499   2.688   0.519   2.842  0.2950 -2.4922 -0.2031
 6014SOL     OW29500   3.812   4.624   4.032 -0.2355 -0.7648  0.4421
 6014SOL    HW129501   3.755   4.689   4.073 -0.2300 -1.3787  1.4505
 6014SOL    HW229502   3.886   4.677   4.003 -1.0592  0.4993  0.6414
 6015SOL     OW29503   4.376   2.102   4.208  0.3962  0.2504  0.5700
 6015SOL    HW129504   4.365   2.012   4.241 -1.8592 -0.2036 -1.3978
 6015SOL    HW229505   4.317   2.157   4.259  1.4891 -0.0472  2.1313
 6016SOL     OW29506   2.978   1.690   8.527  0.2313 -0.2075 -1.0757
 6016SOL    HW129507   2.971   1.652   8.439  1.1194 -0.3495 -1.0797
 6016SOL    HW229508   2.961   1.780   8.499 -0.7230 -0.1999 -0.4629
 6017SOL     OW29509   0.184   4.689   4.087  0.0788 -0.2288 -0.1011
 6017SOL    HW129510   0.170   4.705   4.181  0.9828 -0.8516  0.1410
 6017SOL    HW229511   0.155   0.050   4.052  0.2445  0.0815  0.5052
 6018SOL     OW29512   4.160   2.776  16.383  0.0300 -0.6143 -0.1957
 6018SOL    HW129513   4.254   2.772  16.365  0.2248  2.3917  0.2183
 6018SOL    HW229514   4.155   2.692  16.428 -2.4587 -0.0892  0.5375
 6019SOL     OW29515   0.036   3.330   8.099  0.4493  0.3760 -0.1502
 6019SOL    HW129516   0.102   3.353   8.035  0.5894 -0.5251 -0.3381
 6019SOL    HW229517   4.694   3.297   8.037 -1.2728  1.9209  0.8424
 6020SOL     OW29518   4.535   1.471   0.225  0.2555  0.3076 -0.3411
 6020SOL    HW129519   4.458   1.460   0.281  0.9827 -0.3843  0.5135
 6020SOL    HW229520   4.527   1.563   0.201  0.7706  0.0572 -1.5171
 6021SOL     OW29521   3.764   1.106  10.251  0.1439 -0.0756 -0.3344
 6021SOL    HW129522   3.818   1.178  10.283  0.8211 -1.4065  1.5084
 6021SOL    HW229523   3.824   1.031  10.248  3.3802  2.5325 -0.1129
 6022SOL     OW29524   4.425   3.205  13.229 -0.5313  0.2156 -0.0550
 6022SOL    HW129525   4.348   3.148  13.218  0.3959 -1.1535  0.6281
 6022SOL    HW229526   4.387   3.290  13.207 -2.0123 -0.5147 -0.3592
 6023SOL     OW29527   0.675   4.144   6.489 -0.4067 -0.3152  0.0663
 6023SOL    HW129528   0.635   4.098   6.415 -0.3018  1.0475 -0.8316
 6023SOL    HW229529   0.749   4.184   6.444 -0.8782  0.5064  0.0072
 6024SOL     OW29530   3.096   2.132  12.366 -0.5887 -0.0351  0.0273
 6024SOL    HW129531   3.125   2.183  12.291  2.3081 -1.7612 -0.0082
 6024SOL    HW229532   3.006   2.124  12.335 -0.2962  3.5835 -1.7963
 6025SOL     OW29533   1.552   4.520   3.946 -0.1649  0.8190 -0.4896
 6025SOL    HW129534   1.584   4.508   4.036 -1.0902 -0.6328 -0.3537
 6025SOL    HW229535   1.491   4.447   3.933 -0.6025  0.7264  2.0950
 6026SOL     OW29536   1.506   2.858  13.168 -0.6570  0.0478 -1.0701
 6026SOL    HW129537   1.412   2.864  13.185 -0.9421 -0.7417 -2.4227
 6026SOL    HW229538   1.530   2.774  13.207 -0.4052  0.6487  0.0931
 6027SOL     OW29539   4.599   4.144   3.501 -0.1731  0.3495 -0.8729
 6027SOL    HW129540   4.536   4.137   3.430 -0.4556  1.1605 -0.7074
 6027SOL    HW229541   4.550   4.133   3.582  0.5079  1.4978 -0.3101
 6028SOL     OW29542   4.549   0.210   4.662  0.0907 -0.5910 -0.3249
 6028SOL    HW129543   4.526   0.253   4.745  1.0608  0.4926 -0.6192
 6028SOL    HW229544   4.642   0.213   4.681 -0.0209  1.7477 -0.1437
 6029SOL     OW29545   3.154   1.122   6.460  0.0722  0.2913 -0.2995
 6029SOL    HW129546   3.133   1.116   6.553  3.0061 -0.3309  0.3239
 6029SOL    HW229547   3.068   1.134   6.420 -0.0147 -2.8376 -1.0861
 6030SOL     OW29548   2.468   1.160   5.867 -0.1907 -0.5723  0.1576
 6030SOL    HW129549   2.428   1.153   5.954 -0.0690 -2.1880  0.0935
 6030SOL    HW229550   2.556   1.185   5.895  0.8692 -2.9745 -1.0096
 6031SOL     OW29551   2.481   4.311  11.542  0.1169  0.2157  0.3179
 6031SOL    HW129552   2.411   4.364  11.581  0.3681  0.2395  0.7388
 6031SOL    HW229553   2.443   4.224  11.555  0.3174  0.8342  4.9773
 6032SOL     OW29554   0.274   4.672   7.078 -0.3047  0.4678  0.2592
 6032SOL    HW129555   0.216   4.694   7.151  0.4441 -0.7886  1.2349
 6032SOL    HW229556   0.341   4.624   7.126 -0.1752 -1.3629 -1.8013
 6033SOL     OW29557   3.175   3.722   3.173  0.4665 -0.5723 -0.3786
 6033SOL    HW129558   3.156   3.628   3.169 -0.4534 -0.4173  0.3079
 6033SOL    HW229559   3.235   3.728   3.099 -0.9949 -3.4438 -1.8144
 6034SOL     OW29560   1.830   0.161  14.393 -0.5048  0.1176  0.5020
 6034SOL    HW129561   1.839   0.256  14.401 -1.5502  0.1296  1.4996
 6034SOL    HW229562   1.739   0.150  14.422 -0.5735  1.4801  0.7818
 6035SOL     OW29563   1.973   0.407   5.262 -0.0428 -0.0989 -0.3361
 6035SOL    HW129564   2.011   0.427   5.176 -2.5542  1.2693 -1.1435
 6035SOL    HW229565   2.050   0.380   5.312  0.5109 -2.4641 -2.4655
 6036SOL     OW29566   1.612   0.836  16.728  0.0142 -0.1237 -0.2843
 6036SOL    HW129567   1.636   0.743  16.730  0.3553  0.0109  1.8852
 6036SOL    HW229568   1.687   0.874  16.683  1.8750 -0.4439  2.5463
 6037SOL     OW29569   1.759   1.445   7.605  0.2554  0.3285 -0.2061
 6037SOL    HW129570   1.714   1.529   7.615 -1.5639 -0.6813  0.1041
 6037SOL    HW229571   1.709   1.410   7.531 -1.5931  1.6163  0.4425
 6038SOL     OW29572   1.073   1.213   1.202  0.7592  0.2136 -0.5345
 6038SOL    HW129573   1.074   1.213   1.297  0.4397 -0.7205 -0.5353
 6038SOL    HW229574   1.104   1.303   1.193  1.0398 -0.0419 -2.0950
 6039SOL     OW29575   1.946   0.058  15.251 -0.2290 -0.0557  0.2743
 6039SOL    HW129576   1.997   4.704  15.275 -0.2986 -0.7593 -1.8766
 6039SOL    HW229577   1.862   0.014  15.236 -1.3182  1.6845  1.2662
 6040SOL     OW29578   0.898   3.160   4.303  0.5005 -0.5059 -0.0688
 6040SOL    HW129579   0.958   3.228   4.333 -0.9961  2.4274 -3.7168
 6040SOL    HW229580   0.824   3.174   4.362  0.9378  1.3919  0.0170
 6041SOL     OW29581   1.249   2.066   4.906 -0.2702  0.1016  0.5701
 6041SOL    HW129582   1.157   2.090   4.914 -0.8732 -2.4235  1.0365
 6041SOL    HW229583   1.266   2.086   4.814 -1.7078  0.7709  0.4512
 6042SOL     OW29584   3.083   4.155   7.346  0.5551  0.6279  0.3692
 6042SOL    HW129585   3.140   4.143   7.422 -0.7263  0.4624  1.3126
 6042SOL    HW229586   3.034   4.073   7.352 -2.5541  2.2341 -3.1140
 6043SOL     OW29587   2.886   4.581   5.448 -0.3065  0.0908 -0.2152
 6043SOL    HW129588   2.917   4.672   5.451  1.1843 -0.4651  1.5710
 6043SOL    HW229589   2.965   4.536   5.478 -0.7059 -0.8891 -0.6388
 6044SOL     OW29590   2.267   3.722   8.643  0.7802 -0.3532  0.4950
 6044SOL    HW129591   2.340   3.669   8.611  1.1815 -1.0002  2.4754
 6044SOL    HW229592   2.191   3.674   8.608  0.4661 -0.4629  1.3354
 6045SOL     OW29593   3.819   4.509   7.690 -0.6720 -0.6106 -0.0325
 6045SOL    HW129594   3.839   4.602   7.705  0.4538 -0.8168 -0.2618
 6045SOL    HW229595   3.763   4.513   7.613 -3.1501 -0.3092  1.8027
 6046SOL     OW29596   3.149   3.919   4.787 -1.1282 -0.1240 -0.2998
 6046SOL    HW129597   3.194   3.998   4.757 -0.8065  0.1860  1.0388
 6046SOL    HW229598   3.076   3.912   4.726 -1.1585 -0.9683 -0.1732
 6047SOL     OW29599   0.419   2.416   7.611 -0.4033 -0.0984  0.4791
 6047SOL    HW129600   0.427   2.430   7.517  0.2886 -3.0287  0.0951
 6047SOL    HW229601   0.374   2.331   7.615  1.0997 -0.9428 -0.6703
 6048SOL     OW29602   3.936   1.384   7.131  0.0260  0.4102 -0.1506
 6048SOL    HW129603   3.998   1.397   7.203 -0.4699  0.4387  0.2657
 6048SOL    HW229604   3.939   1.289   7.127 -0.3444  0.4806 -2.2745
 6049SOL     OW29605   2.629   0.519  10.750  0.6684 -0.3641 -0.7988
 6049SOL    HW129606   2.663   0.513  10.840 -0.5226 -0.6320 -0.3618
 6049SOL    HW229607   2.684   0.589  10.716  1.2996 -0.1882  0.5854
 6050SOL     OW29608   4.152   0.025   2.704 -0.2120  0.2073  0.3270
 6050SOL    HW129609   4.121   0.042   2.615 -2.2292 -2.1121  0.5986
 6050SOL    HW229610   4.089   4.687   2.741  0.3471  0.9896  2.5752
 6051SOL     OW29611   3.979   2.574  12.382  0.8782  0.2579 -0.0361
 6051SOL    HW129612   3.924   2.504  12.347  1.1193  1.2929 -2.4430
 6051SOL    HW229613   4.064   2.536  12.404  0.2654  0.1216  2.1534
 6052SOL     OW29614   3.171   4.486   7.647  0.1671  0.2799  0.6178
 6052SOL    HW129615   3.124   4.544   7.707  2.6234  0.9710  1.8785
 6052SOL    HW229616   3.261   4.502   7.676  0.3081  0.6638 -0.0217
 6053SOL     OW29617   3.957   1.708  10.529  0.3174  0.6779 -0.2514
 6053SOL    HW129618   3.952   1.757  10.611 -1.1198  2.3971 -1.3518
 6053SOL    HW229619   3.972   1.620  10.564 -3.2006  0.0455 -0.3479
 6054SOL     OW29620   2.560   1.140  14.164 -0.1636  0.3067 -0.1185
 6054SOL    HW129621   2.480   1.137  14.111  0.4811  1.8502 -1.1671
 6054SOL    HW229622   2.568   1.235  14.163  0.6315  0.2345 -0.3411
 6055SOL     OW29623   4.246   0.549   2.025  0.1729 -0.6307  0.0379
 6055SOL    HW129624   4.196   0.628   2.042 -2.3103 -2.3913  1.0510
 6055SOL    HW229625   4.242   0.491   2.101 -0.7830  0.8074  1.0853
 6056SOL     OW29626   4.190   1.564  10.298  0.5076 -0.5532 -0.3135
 6056SOL    HW129627   4.238   1.586  10.218  0.0650 -2.0682 -0.9999
 6056SOL    HW229628   4.110   1.616  10.293 -0.7703 -2.2980  1.8389
 6057SOL     OW29629   0.067   0.496   3.955  0.1108  0.3177  0.2855
 6057SOL    HW129630   0.041   0.583   3.925 -0.4981 -0.2825 -0.9070
 6057SOL    HW229631   0.155   0.518   3.988  1.0880 -3.4524  0.2192
 6058SOL     OW29632   3.141   4.582  16.105  0.2670 -0.3734  0.0369
 6058SOL    HW129633   3.049   4.592  16.083  0.5317  0.7781 -0.5934
 6058SOL    HW229634   3.178   4.653  16.051 -0.0406 -1.0364 -1.0524
 6059SOL     OW29635   1.384   4.667   1.933 -0.5111  0.6118 -0.4346
 6059SOL    HW129636   1.353   4.643   1.846  2.1131  0.3601 -1.3089
 6059SOL    HW229637   1.313   0.001   1.961 -2.0535 -0.5267 -1.9995
 6060SOL     OW29638   2.132   3.811   3.082  0.3039 -0.1980 -0.1441
 6060SOL    HW129639   2.227   3.819   3.086  0.5248 -2.9496  0.1005
 6060SOL    HW229640   2.109   3.718   3.087  0.6329 -0.3093 -0.7931
 6061SOL     OW29641   0.881   3.935  16.585  0.4252  0.0173  0.2048
 6061SOL    HW129642   0.895   3.890  16.668 -3.4711 -0.3828  0.6233
 6061SOL    HW229643   0.844   4.020  16.608  2.2066  0.7345  0.4543
 6062SOL     OW29644   2.247   4.419  15.690 -0.8929  0.6399 -0.0230
 6062SOL    HW129645   2.222   4.389  15.603  1.4935  1.1019 -0.8895
 6062SOL    HW229646   2.339   4.392  15.690 -0.7305  1.1978 -0.4939
 6063SOL     OW29647   0.753   2.885   3.037  0.6283  0.6951  0.1672
 6063SOL    HW129648   0.814   2.842   3.096 -1.8604 -2.8409  0.1284
 6063SOL    HW229649   0.781   2.977   3.043 -0.0168  0.7970  1.6152
 6064SOL     OW29650   4.530   0.619   4.773 -0.2757  0.1371 -0.1544
 6064SOL    HW129651   4.603   0.580   4.820 -1.6758 -0.9759  1.1175
 6064SOL    HW229652   4.565   0.708   4.784 -0.3378  0.2759 -1.0947
 6065SOL     OW29653   2.805   3.226   3.191 -0.1270 -0.7073  0.2913
 6065SOL    HW129654   2.794   3.232   3.096  2.7834 -0.7818 -0.0461
 6065SOL    HW229655   2.873   3.290   3.214  1.9810 -2.8267 -0.0623
 6066SOL     OW29656   4.108   2.341   8.779  0.0656  0.0816  0.0254
 6066SOL    HW129657   4.088   2.383   8.863  0.6851  1.1957 -0.3916
 6066SOL    HW229658   4.136   2.411   8.720  0.4878 -1.2929 -1.4208
 6067SOL     OW29659   3.895   1.534   6.931 -0.0206 -0.3986 -0.6195
 6067SOL    HW129660   3.926   1.488   7.010  3.1755  1.8738 -0.5746
 6067SOL    HW229661   3.863   1.463   6.875  0.1241 -0.9012 -0.0782
 6068SOL     OW29662   2.141   4.686  13.423  0.4480 -0.2793  0.0744
 6068SOL    HW129663   2.096   0.003  13.349 -0.2697 -0.4859  0.4002
 6068SOL    HW229664   2.129   0.040  13.479  0.9895  0.5932 -1.0088
 6069SOL     OW29665   3.305   0.593  10.644 -0.7922  0.3349  0.2923
 6069SOL    HW129666   3.386   0.590  10.593 -0.0105 -0.3620  1.5764
 6069SOL    HW229667   3.268   0.510  10.611  1.9155 -1.2517  1.2495
 6070SOL     OW29668   2.299   1.373   6.986 -0.3048 -0.0576 -0.4003
 6070SOL    HW129669   2.285   1.466   6.968  0.0793  0.4469  1.9089
 6070SOL    HW229670   2.392   1.383   7.007 -0.9936 -0.4126  2.8400
 6071SOL     OW29671   4.581   0.233   5.417 -0.0060 -0.0608 -0.0491
 6071SOL    HW129672   4.627   0.154   5.444 -1.4452 -1.0358 -0.4036
 6071SOL    HW229673   4.534   0.193   5.344 -0.3789  1.1632 -0.4714
 6072SOL     OW29674   3.935   3.306  11.485  0.0036 -0.6857  0.0858
 6072SOL    HW129675   3.979   3.380  11.444 -0.2124 -0.3831  0.3939
 6072SOL    HW229676   3.911   3.259  11.406  2.4279 -0.3992 -0.8145
 6073SOL     OW29677   2.751   0.986   2.618  0.0929  0.8527 -0.7956
 6073SOL    HW129678   2.757   1.014   2.527 -0.5736 -0.3182 -1.2112
 6073SOL    HW229679   2.660   0.960   2.635  0.6590 -0.4675  0.1664
 6074SOL     OW29680   4.395   2.078   7.468  0.0645 -0.1683  0.2442
 6074SOL    HW129681   4.385   1.998   7.416 -2.1954 -0.0176  0.4519
 6074SOL    HW229682   4.342   2.145   7.425  0.6096  0.3316  0.3511
 6075SOL     OW29683   4.588   1.990   0.208 -0.1238 -0.1595  0.1380
 6075SOL    HW129684   4.632   2.074   0.199 -0.5127  0.1189  0.8256
 6075SOL    HW229685   4.564   1.999   0.300 -1.8551 -2.2935 -0.1148
 6076SOL     OW29686   1.352   2.751   3.397  0.0117  0.3402  0.7152
 6076SOL    HW129687   1.271   2.711   3.429 -0.3035  0.7387  0.4255
 6076SOL    HW229688   1.317   2.840   3.395 -0.8209 -0.0166 -1.9296
 6077SOL     OW29689   4.074   4.241   8.147 -0.3736  0.4975 -0.2108
 6077SOL    HW129690   4.084   4.287   8.063  0.8829  1.9460  0.7439
 6077SOL    HW229691   4.030   4.165   8.108  1.8762 -0.4846 -0.8278
 6078SOL     OW29692   3.528   2.048   2.287  0.3382  0.1166 -0.2720
 6078SOL    HW129693   3.469   2.055   2.362  0.3514  0.0094 -0.2517
 6078SOL    HW229694   3.476   2.031   2.208 -0.7147  2.2944 -0.0298
 6079SOL     OW29695   3.740   1.547   3.093 -0.9929  0.3433  0.4983
 6079SOL    HW129696   3.704   1.528   3.006  2.2251 -2.3535 -0.2568
 6079SOL    HW229697   3.705   1.475   3.147  1.5959 -2.1810 -1.1619
 6080SOL     OW29698   0.097   2.849   2.575 -0.2508  0.6702  0.1519
 6080SOL    HW129699   0.112   2.920   2.636  0.3646 -1.2572  2.2469
 6080SOL    HW229700   0.006   2.830   2.599  0.7071 -0.6255  2.7330
 6081SOL     OW29701   1.989   3.852  15.231  0.2118  0.3053  0.1134
 6081SOL    HW129702   1.981   3.927  15.173  0.1127 -1.4331 -2.1340
 6081SOL    HW229703   1.955   3.783  15.173  1.0383  1.0975 -1.3146
 6082SOL     OW29704   2.471   0.649   4.667 -0.2511  0.0376  0.1861
 6082SOL    HW129705   2.383   0.641   4.703 -0.5849 -1.3330 -0.9547
 6082SOL    HW229706   2.480   0.742   4.644  0.7297  0.0621  0.6872
 6083SOL     OW29707   3.107   3.290   5.044  0.5425  0.1742  0.1383
 6083SOL    HW129708   3.084   3.203   5.011  0.8962  0.3021 -0.4379
 6083SOL    HW229709   3.125   3.337   4.963 -3.6498  1.7868  0.1419
 6084SOL     OW29710   3.772   0.010   5.646  0.4466  0.2514  0.2348
 6084SOL    HW129711   3.824   4.669   5.598 -0.1936  0.5339 -0.8307
 6084SOL    HW229712   3.843   0.065   5.680  1.2711 -1.7551  1.7498
 6085SOL     OW29713   1.884   4.263   6.241  0.1183  0.0435  0.6075
 6085SOL    HW129714   1.808   4.290   6.189 -0.6781 -0.7660  1.3644
 6085SOL    HW229715   1.894   4.172   6.215  1.3536  0.5241 -0.6578
 6086SOL     OW29716   0.366   4.506   8.858  0.3656 -0.2154 -0.6683
 6086SOL    HW129717   0.456   4.526   8.830  0.5785  0.6065  0.6044
 6086SOL    HW229718   0.324   4.576   8.808 -1.2302  0.7911  2.1230
 6087SOL     OW29719   1.826   2.322   2.223  0.0292 -0.2810  0.3063
 6087SOL    HW129720   1.744   2.308   2.271  0.7833 -0.0757  1.6626
 6087SOL    HW229721   1.803   2.309   2.131 -0.6507  2.8378  0.0326
 6088SOL     OW29722   0.920   2.050  17.114 -0.0118  0.0680  0.1288
 6088SOL    HW129723   1.008   2.060  17.152  0.0723  1.7136 -0.4984
 6088SOL    HW229724   0.950   2.003  17.036 -0.3323  0.2103 -0.0804
 6089SOL     OW29725   1.021   3.152   8.481 -0.5902 -0.1862  0.0180
 6089SOL    HW129726   1.073   3.209   8.425 -2.0802  0.6416 -0.5242
 6089SOL    HW229727   0.931   3.167   8.452 -0.9314 -1.3128  0.4778
 6090SOL     OW29728   0.513   4.573   4.675 -0.4171  0.6831  0.1382
 6090SOL    HW129729   0.436   4.598   4.726 -1.4235 -1.6657 -0.2250
 6090SOL    HW229730   0.516   4.646   4.614 -0.5463  0.0320 -0.6408
 6091SOL     OW29731   2.072   3.549   3.074 -0.0343 -0.3269 -0.4687
 6091SOL    HW129732   2.024   3.486   3.020  1.4321 -0.5328 -1.5322
 6091SOL    HW229733   2.107   3.489   3.141  1.4594  1.4125  0.3245
 6092SOL     OW29734   2.816   0.574   3.534 -0.0378 -0.2674 -0.0385
 6092SOL    HW129735   2.909   0.563   3.513 -0.3888 -0.6195 -1.3576
 6092SOL    HW229736   2.794   0.482   3.522  1.2054 -0.3798 -1.4464
 6093SOL     OW29737   0.375   0.228   5.643 -0.6977 -0.3916 -0.8710
 6093SOL    HW129738   0.351   0.297   5.704 -1.4876 -1.5335  0.1144
 6093SOL    HW229739   0.431   0.279   5.584 -0.8788  0.9492  0.1226
 6094SOL     OW29740   2.823   1.761  10.814  0.9836  0.9665 -0.3182
 6094SOL    HW129741   2.838   1.681  10.864  3.2409  1.9235  0.5330
 6094SOL    HW229742   2.728   1.754  10.823  1.0370  0.7653  0.0912
 6095SOL     OW29743   4.078   0.826  10.801  0.3794  0.3764  0.3335
 6095SOL    HW129744   4.062   0.853  10.710  2.0652 -0.0084 -0.0930
 6095SOL    HW229745   4.029   0.744  10.808  0.2956  0.3016 -1.0855
 6096SOL     OW29746   3.770   1.576  10.904 -0.6729  0.5192  0.0153
 6096SOL    HW129747   3.675   1.564  10.899 -0.6214 -0.4996  1.5635
 6096SOL    HW229748   3.799   1.488  10.878  1.6859  1.4460 -0.4984
 6097SOL     OW29749   0.116   3.788   4.395 -0.1352 -0.6491  0.2661
 6097SOL    HW129750   0.050   3.729   4.433  1.0774 -2.6498 -0.6864
 6097SOL    HW229751   0.077   3.875   4.394  1.6035  0.1709  5.3351
 6098SOL     OW29752   0.984   3.180   6.687 -0.3997 -0.9325  0.8285
 6098SOL    HW129753   1.001   3.249   6.623 -1.3280  0.1828  1.7990
 6098SOL    HW229754   1.003   3.237   6.761 -0.7952 -1.9005  1.6654
 6099SOL     OW29755   3.039   2.936   2.479 -0.5392 -0.1478  0.4566
 6099SOL    HW129756   3.069   2.999   2.545 -1.0638  0.2681  0.3006
 6099SOL    HW229757   2.953   2.920   2.518 -2.3803  3.2453 -2.2600
 6100SOL     OW29758   3.314   2.386   1.141 -0.2638  0.9100  0.0418
 6100SOL    HW129759   3.237   2.335   1.115  0.3989 -0.6620  1.1618
 6100SOL    HW229760   3.286   2.475   1.118  2.0180  1.4949 -0.4853
 6101SOL     OW29761   0.629   4.521   2.950 -0.2937 -0.7339 -0.0785
 6101SOL    HW129762   0.701   4.473   2.992 -0.1276 -1.2250 -0.9381
 6101SOL    HW229763   0.643   4.500   2.858 -0.0626  1.1174 -0.4463
 6102SOL     OW29764   3.401   0.083   4.240 -0.1841  0.3737 -0.4455
 6102SOL    HW129765   3.374   0.174   4.257  2.1073  1.0782 -0.5376
 6102SOL    HW229766   3.494   0.103   4.227 -0.2305 -1.4509 -3.4810
 6103SOL     OW29767   0.505   0.472   0.172  0.5042 -0.3084  0.2276
 6103SOL    HW129768   0.439   0.487   0.239  0.7049 -0.4471  0.4548
 6103SOL    HW229769   0.502   0.377   0.172 -0.3173 -0.2876 -0.5218
 6104SOL     OW29770   2.921   2.485   4.533 -0.6676 -0.4198 -0.5809
 6104SOL    HW129771   2.828   2.476   4.509 -1.3397  1.3281  1.4062
 6104SOL    HW229772   2.948   2.516   4.447  2.9694 -0.4952  0.5517
 6105SOL     OW29773   4.055   0.417   0.588 -0.4544  0.3809  0.1120
 6105SOL    HW129774   4.056   0.322   0.597 -1.0185  0.2352 -1.3193
 6105SOL    HW229775   4.103   0.426   0.506  0.1090  0.8948  0.4985
 6106SOL     OW29776   3.834   4.307   2.672  0.2767 -0.2167 -0.3902
 6106SOL    HW129777   3.841   4.401   2.658 -0.9341 -0.0005  0.4811
 6106SOL    HW229778   3.750   4.293   2.628  0.9927 -0.1277 -1.7700
 6107SOL     OW29779   0.616   1.094  16.056  0.1569 -0.2443 -0.0052
 6107SOL    HW129780   0.699   1.048  16.066  0.0613 -0.1306  1.2974
 6107SOL    HW229781   0.637   1.179  16.095 -1.3295 -0.5837  1.5581
 6108SOL     OW29782   3.286   1.773   4.286 -0.5658 -0.2267  0.5290
 6108SOL    HW129783   3.287   1.866   4.306 -0.7490  0.1384 -1.1619
 6108SOL    HW229784   3.192   1.753   4.277 -0.6317 -0.1026  0.9508
 6109SOL     OW29785   2.921   3.130   7.032 -1.2976  0.6725  0.0626
 6109SOL    HW129786   2.849   3.069   7.014  0.2345 -1.1066 -0.0481
 6109SOL    HW229787   2.914   3.116   7.127 -0.8421 -0.5785 -0.0867
 6110SOL     OW29788   2.786   3.763   7.422  0.1792 -0.1175  0.3567
 6110SOL    HW129789   2.710   3.783   7.476 -1.3326  0.7134 -2.0570
 6110SOL    HW229790   2.753   3.690   7.369 -2.9492  1.7195 -0.2488
 6111SOL     OW29791   3.635   0.367   7.199  0.1376 -0.0291  0.1174
 6111SOL    HW129792   3.565   0.357   7.134 -0.9929  0.2999  1.2716
 6111SOL    HW229793   3.689   0.292   7.176  0.4889 -0.3688  2.0508
 6112SOL     OW29794   4.415   2.094   1.541  0.0471 -0.2469 -0.0545
 6112SOL    HW129795   4.340   2.153   1.536  0.8464  0.7849 -0.0264
 6112SOL    HW229796   4.458   2.118   1.623 -1.1015 -0.7444  0.6850
 6113SOL     OW29797   3.065   4.458  11.264 -0.3669 -0.2739 -0.3030
 6113SOL    HW129798   3.144   4.434  11.314 -1.0159 -0.3608  0.6839
 6113SOL    HW229799   3.091   4.546  11.236 -0.5232 -0.0732  0.1733
 6114SOL     OW29800   2.016   2.472   0.394 -0.2825 -0.2046  0.7503
 6114SOL    HW129801   2.014   2.407   0.464 -0.5481 -1.3030 -0.2797
 6114SOL    HW229802   2.106   2.504   0.406  0.8883 -3.1755 -0.0787
 6115SOL     OW29803   4.136   3.828  11.799  0.0967 -0.4539 -0.0365
 6115SOL    HW129804   4.230   3.825  11.819  0.0693  1.6057  0.4895
 6115SOL    HW229805   4.134   3.834  11.703 -1.2454  2.2178  0.1428
 6116SOL     OW29806   2.706   1.527   2.327 -0.1083  0.0685 -0.4339
 6116SOL    HW129807   2.790   1.484   2.342  0.3719  1.2166  0.1183
 6116SOL    HW229808   2.661   1.506   2.409  1.6485 -0.5749  0.3647
 6117SOL     OW29809   3.369   0.779  10.038 -0.5939 -1.0508  0.0793
 6117SOL    HW129810   3.295   0.719  10.046 -1.8061  0.1574 -2.2364
 6117SOL    HW229811   3.438   0.713  10.027  1.0944  0.5589  1.0906
 6118SOL     OW29812   3.332   4.469   7.988 -0.5453  0.3974  0.0393
 6118SOL    HW129813   3.380   4.505   8.063  0.1711 -2.8976  1.1954
 6118SOL    HW229814   3.391   4.412   7.939 -0.0811  2.1920 -1.4772
 6119SOL     OW29815   3.540   3.107   1.832 -0.3143 -0.2097 -0.3120
 6119SOL    HW129816   3.471   3.086   1.769 -1.7520  0.6293  0.9841
 6119SOL    HW229817   3.489   3.156   1.896 -0.9392  1.1717 -1.8775
 6120SOL     OW29818   2.541   0.212  10.223  0.0211  0.0223 -0.2422
 6120SOL    HW129819   2.459   0.260  10.232  0.2620 -0.0948  2.3730
 6120SOL    HW229820   2.576   0.215  10.312 -0.4220 -1.9076 -0.0069
 6121SOL     OW29821   1.683   1.295   3.468 -0.3335  0.2597 -0.6856
 6121SOL    HW129822   1.699   1.249   3.385  0.8722 -0.9923  0.2354
 6121SOL    HW229823   1.604   1.338   3.437 -0.9302  0.2601  0.8427
 6122SOL     OW29824   0.117   0.852   9.828 -0.7369 -0.3350 -1.0143
 6122SOL    HW129825   0.156   0.825   9.911 -1.2472 -0.0964 -0.7013
 6122SOL    HW229826   0.142   0.944   9.819  2.9207 -1.3276 -1.1713
 6123SOL     OW29827   4.377   0.017   7.167  0.0748  0.3180  0.2938
 6123SOL    HW129828   4.340   4.653   7.185 -1.6583  1.1183  0.5456
 6123SOL    HW229829   4.304   0.078   7.161 -0.4607 -0.1063  2.5763
 6124SOL     OW29830   0.534   4.587   4.995 -0.0779 -0.3156 -0.4552
 6124SOL    HW129831   0.473   4.573   4.923 -1.6299 -2.2011  1.2257
 6124SOL    HW229832   0.478   4.574   5.072  1.7146  1.8217  1.1967
 6125SOL     OW29833   3.131   3.025   4.156  0.0286  0.0734  0.0807
 6125SOL    HW129834   3.037   3.010   4.146 -0.2280  1.3558  0.5847
 6125SOL    HW229835   3.142   2.974   4.237 -1.4874  0.7979  0.7465
 6126SOL     OW29836   3.227   3.536   4.603  0.0013  0.3927 -0.0934
 6126SOL    HW129837   3.248   3.556   4.694  0.5888 -0.5909 -0.0161
 6126SOL    HW229838   3.301   3.482   4.576  0.1705  0.5281  0.0973
 6127SOL     OW29839   4.270   4.161   3.542 -0.5424 -0.2693  0.1701
 6127SOL    HW129840   4.309   4.212   3.613 -1.9651  2.8799 -1.3110
 6127SOL    HW229841   4.197   4.215   3.513 -2.0912 -0.7991  3.0872
 6128SOL     OW29842   0.719   0.357   9.935 -0.8371 -0.0337  0.1389
 6128SOL    HW129843   0.623   0.354   9.941 -0.8056 -0.2266  0.5361
 6128SOL    HW229844   0.726   0.273   9.888 -0.3272  1.5952 -2.7150
 6129SOL     OW29845   4.069   3.901   4.198  0.4198  0.5061 -0.3878
 6129SOL    HW129846   4.101   3.987   4.171 -0.5140  0.4893 -1.5488
 6129SOL    HW229847   3.983   3.926   4.232 -0.2838  0.1268 -1.8340
 6130SOL     OW29848   0.865   3.263   2.616 -0.1883  0.3825 -0.0883
 6130SOL    HW129849   0.884   3.334   2.554 -0.3350  0.2310 -0.3053
 6130SOL    HW229850   0.914   3.191   2.577  0.6620  0.7670  0.2602
 6131SOL     OW29851   0.948   4.292  16.670 -0.2927  0.3358 -0.0279
 6131SOL    HW129852   0.986   4.373  16.637  0.6890 -0.9975 -2.1833
 6131SOL    HW229853   0.918   4.255  16.586 -1.3958 -0.4112  0.6965
 6132SOL     OW29854   3.555   3.633   6.103 -0.1322  0.0839  0.0902
 6132SOL    HW129855   3.475   3.666   6.143 -0.0366  1.7802 -1.1330
 6132SOL    HW229856   3.534   3.657   6.013  2.2672 -0.3839 -0.6014
 6133SOL     OW29857   0.359   3.054   7.184 -0.1026 -0.2030  0.3753
 6133SOL    HW129858   0.411   3.071   7.105 -1.4216 -0.6096 -0.5760
 6133SOL    HW229859   0.276   3.079   7.144  0.0683  2.2529  1.5410
 6134SOL     OW29860   3.027   4.100   6.465  0.0668  0.0902 -0.0342
 6134SOL    HW129861   2.990   4.040   6.530 -1.7149  2.7791  1.4107
 6134SOL    HW229862   2.954   4.140   6.418  0.5214  1.0709  0.1085
 6135SOL     OW29863   3.629   3.227   7.997  0.4255 -0.1998 -0.2795
 6135SOL    HW129864   3.602   3.277   8.074 -0.5462 -0.6876 -0.3030
 6135SOL    HW229865   3.553   3.254   7.945 -0.3462 -0.8098  0.5297
 6136SOL     OW29866   4.322   2.739   8.966  0.0960  0.3780  0.2702
 6136SOL    HW129867   4.337   2.720   9.059  1.5865 -1.5906 -0.3606
 6136SOL    HW229868   4.391   2.705   8.908  0.6525  0.3097  0.9748
 6137SOL     OW29869   3.170   0.395   5.071 -0.0128 -0.4163 -0.1609
 6137SOL    HW129870   3.242   0.333   5.059  0.4311 -0.4413  2.7271
 6137SOL    HW229871   3.098   0.344   5.033  0.2312  1.8038 -3.5957
 6138SOL     OW29872   0.436   1.858   9.296 -0.5285 -0.1227 -0.6187
 6138SOL    HW129873   0.394   1.781   9.258  0.6536 -1.3973  0.6597
 6138SOL    HW229874   0.413   1.846   9.388  1.3621  2.1462  0.1811
 6139SOL     OW29875   2.836   1.268   9.204 -0.4927  0.3583  0.2649
 6139SOL    HW129876   2.914   1.243   9.253  1.5066  0.3442 -2.9099
 6139SOL    HW229877   2.863   1.357   9.179 -0.5640  0.1248 -0.6549
 6140SOL     OW29878   0.355   0.377   5.251 -0.5239 -0.0217  0.1601
 6140SOL    HW129879   0.420   0.363   5.320 -0.5604  2.8056  0.7446
 6140SOL    HW229880   0.279   0.398   5.305 -0.4009  0.6699  0.0605
 6141SOL     OW29881   0.763   0.211   0.291 -0.5034 -0.2436 -0.4812
 6141SOL    HW129882   0.785   0.267   0.216 -0.2948  0.2300 -0.0686
 6141SOL    HW229883   0.824   0.139   0.271  0.1608  0.3218 -0.5077
 6142SOL     OW29884   3.165   4.420  15.042 -0.5776  0.1278  0.1334
 6142SOL    HW129885   3.246   4.467  15.027 -0.2433 -0.6486 -0.5208
 6142SOL    HW229886   3.163   4.350  14.976 -0.0533  0.0099  0.2448
 6143SOL     OW29887   1.456   4.054   3.778 -0.4329 -0.3992 -0.0877
 6143SOL    HW129888   1.496   3.969   3.793 -0.0128 -0.2941 -0.6008
 6143SOL    HW229889   1.520   4.098   3.720 -1.7312 -0.0819 -1.2855
 6144SOL     OW29890   1.877   1.282   8.281  0.0439  0.4601 -0.1735
 6144SOL    HW129891   1.818   1.342   8.236 -0.5673 -0.3619 -0.4605
 6144SOL    HW229892   1.827   1.215   8.327  1.2926  0.4441  1.1898
 6145SOL     OW29893   4.720   2.361   8.201 -0.2168  0.1349  0.4143
 6145SOL    HW129894   4.667   2.319   8.133 -0.4849  0.0682  0.6677
 6145SOL    HW229895   0.061   2.291   8.209 -0.7324 -0.4871 -0.8664
 6146SOL     OW29896   3.208   4.497  10.491  0.2470 -0.1245  0.8266
 6146SOL    HW129897   3.145   4.427  10.476  0.5356 -0.4188  0.9738
 6146SOL    HW229898   3.233   4.511  10.400 -0.6738 -0.9441  0.4494
 6147SOL     OW29899   3.706   3.043  11.595 -0.0368 -0.0117 -0.3801
 6147SOL    HW129900   3.660   2.959  11.592  0.4965 -0.4241  2.3578
 6147SOL    HW229901   3.639   3.107  11.618  0.3737  0.4564 -0.4857
 6148SOL     OW29902   2.207   4.288  14.749 -0.0301  0.1215  0.1933
 6148SOL    HW129903   2.197   4.354  14.681 -2.9686 -1.9217 -1.3717
 6148SOL    HW229904   2.168   4.210  14.710 -0.9609  0.1169  1.1463
 6149SOL     OW29905   3.549   3.478  16.804  0.0970  0.2075 -0.1873
 6149SOL    HW129906   3.468   3.496  16.851 -0.8256  0.6372 -1.9626
 6149SOL    HW229907   3.510   3.453  16.721 -1.9294 -1.4693  1.2847
 6150SOL     OW29908   1.657   0.424   0.544  0.1977 -0.2237  0.0375
 6150SOL    HW129909   1.716   0.350   0.559 -1.8847 -2.5542 -3.2358
 6150SOL    HW229910   1.717   0.472   0.488  2.5187 -2.0358  0.9796
 6151SOL     OW29911   2.163   3.123   9.423 -0.1623 -0.4637 -0.1268
 6151SOL    HW129912   2.102   3.130   9.350  1.6725 -0.9031 -1.6968
 6151SOL    HW229913   2.246   3.127   9.375  0.4842  0.6091  1.0480
 6152SOL     OW29914   0.632   4.526   8.287  0.4283 -0.1059 -0.2081
 6152SOL    HW129915   0.669   4.511   8.374  0.8423  0.3753 -0.2965
 6152SOL    HW229916   0.712   4.536   8.234 -0.3026  1.0268 -1.1023
 6153SOL     OW29917   0.334   4.602   8.403  0.7198  0.0071  0.4870
 6153SOL    HW129918   0.425   4.610   8.374  0.3527  2.3571  0.0174
 6153SOL    HW229919   0.322   4.508   8.386  1.2409  0.1823 -0.8453
 6154SOL     OW29920   1.938   1.671  11.635  0.2556  0.1160 -0.3702
 6154SOL    HW129921   2.027   1.638  11.648 -0.0993 -0.2840  1.0796
 6154SOL    HW229922   1.961   1.750  11.586  2.6434  0.2199  0.9284
 6155SOL     OW29923   3.162   2.748  10.169 -0.6983  0.2904  0.9967
 6155SOL    HW129924   3.240   2.759  10.224  0.0400 -2.4199  0.4528
 6155SOL    HW229925   3.174   2.655  10.154 -0.0842  0.4954  0.2269
 6156SOL     OW29926   1.625   3.303   5.424 -0.1859  0.3035  0.3103
 6156SOL    HW129927   1.677   3.275   5.350 -0.3824 -0.4681  0.4659
 6156SOL    HW229928   1.687   3.310   5.497  0.0686 -1.7769  0.2901
 6157SOL     OW29929   2.061   2.317   6.235 -0.2855  0.2869  0.1955
 6157SOL    HW129930   2.012   2.395   6.261 -0.5225  1.1353 -2.8235
 6157SOL    HW229931   2.021   2.279   6.157  1.9251 -1.2954 -0.1511
 6158SOL     OW29932   0.421   3.492   3.851 -0.2370 -0.0569  0.0757
 6158SOL    HW129933   0.430   3.450   3.936  1.7160  2.8954  1.3257
 6158SOL    HW229934   0.351   3.440   3.812 -0.1751 -1.3853  1.7464
 6159SOL     OW29935   1.254   3.137   4.524 -0.7727  0.2013 -0.5879
 6159SOL    HW129936   1.237   3.211   4.465  0.5428  2.4502  1.8731
 6159SOL    HW229937   1.198   3.173   4.593 -2.4990 -1.4230 -1.1532
 6160SOL     OW29938   0.731   3.830   6.090  0.4187 -0.0255 -0.2912
 6160SOL    HW129939   0.745   3.880   6.010 -3.8946 -0.3952 -1.2641
 6160SOL    HW229940   0.702   3.748   6.050  0.7715  0.1638 -0.9283
 6161SOL     OW29941   2.012   1.579   7.495  0.5049 -0.2804  0.6614
 6161SOL    HW129942   1.930   1.549   7.535  0.2306 -1.0175 -0.4343
 6161SOL    HW229943   2.070   1.514   7.535 -0.3452 -2.2782 -1.3631
 6162SOL     OW29944   0.222   2.422  17.118  0.3318  0.4424 -0.3870
 6162SOL    HW129945   0.157   2.446  17.183  1.1132 -0.6058  0.7867
 6162SOL    HW229946   0.253   2.498  17.069 -0.5315  0.8561 -0.2825
 6163SOL     OW29947   4.398   0.368   7.902  0.2429  0.0748  0.0618
 6163SOL    HW129948   4.384   0.462   7.903 -2.0407 -0.2817  0.8454
 6163SOL    HW229949   4.318   0.342   7.947  0.5100 -0.1478  0.4143
 6164SOL     OW29950   0.548   3.034  17.201  0.2924  0.1894 -0.0695
 6164SOL    HW129951   0.622   3.058  17.146  1.4184 -0.7917  1.0204
 6164SOL    HW229952   0.572   3.040  17.294 -3.0692  3.2281  0.6348
 6165SOL     OW29953   4.115   4.645  11.317 -0.4307 -0.1917 -0.6301
 6165SOL    HW129954   4.149   4.575  11.261  1.5016  1.0512 -1.0293
 6165SOL    HW229955   4.088   4.708  11.250  0.2887  0.2765 -0.4835
 6166SOL     OW29956   4.368   3.588   9.116  0.7305 -0.0797  0.1429
 6166SOL    HW129957   4.383   3.660   9.178  1.0672  0.3812 -0.4687
 6166SOL    HW229958   4.458   3.567   9.090  0.4074  1.8515 -2.5678
 6167SOL     OW29959   4.658   4.332   3.710 -0.0587 -0.1586  0.1465
 6167SOL    HW129960   4.703   4.292   3.784 -0.7734 -1.8468 -0.3325
 6167SOL    HW229961   4.685   4.275   3.638 -2.4806 -0.4331 -0.5389
 6168SOL     OW29962   0.824   3.217   1.883  0.5957  0.7426  0.2718
 6168SOL    HW129963   0.768   3.292   1.905 -1.1071 -0.2185 -0.8761
 6168SOL    HW229964   0.797   3.159   1.954  2.5216 -1.6583 -0.9577
 6169SOL     OW29965   4.472   2.377   4.480 -0.8321  0.1725 -0.6844
 6169SOL    HW129966   4.387   2.416   4.462 -1.0742 -1.3047 -2.7969
 6169SOL    HW229967   4.451   2.339   4.565  0.6054  1.3835  0.2122
 6170SOL     OW29968   0.241   1.730   1.382 -0.0495  0.2704 -0.0764
 6170SOL    HW129969   0.231   1.792   1.310  0.7520  0.9880  0.4163
 6170SOL    HW229970   0.267   1.649   1.339  3.7309  1.2523  0.3251
 6171SOL     OW29971   3.774   3.551  15.323 -0.4770  0.1848 -0.0504
 6171SOL    HW129972   3.851   3.516  15.278 -0.6567 -0.7653  0.3891
 6171SOL    HW229973   3.768   3.497  15.401  0.1290  0.9767  0.5509
 6172SOL     OW29974   2.901   4.561   3.831 -0.3112  0.3519 -0.5980
 6172SOL    HW129975   2.959   4.561   3.755  1.8431 -0.3199  1.0628
 6172SOL    HW229976   2.927   4.484   3.881 -1.8683  0.6180  0.6098
 6173SOL     OW29977   0.579   0.030   3.989  0.1326  0.1407  0.5174
 6173SOL    HW129978   0.520   0.105   3.997 -2.4065 -1.5873 -1.9117
 6173SOL    HW229979   0.547   4.684   4.047  1.4684 -0.4667  0.5218
 6174SOL     OW29980   3.578   1.829   9.803 -0.0206 -0.4325  0.5341
 6174SOL    HW129981   3.665   1.841   9.765 -0.3482 -1.0149 -0.4063
 6174SOL    HW229982   3.593   1.796   9.891  0.0899  0.4713  0.8538
 6175SOL     OW29983   4.024   2.549  10.731  0.3163  0.7390 -0.2789
 6175SOL    HW129984   4.112   2.521  10.707  0.6488  1.1072  0.5203
 6175SOL    HW229985   4.030   2.638  10.765 -0.8944  0.9487 -0.6322
 6176SOL     OW29986   2.409   0.235  16.409 -0.2553  0.5359 -0.3290
 6176SOL    HW129987   2.388   0.315  16.458  3.8479  1.2147  0.3040
 6176SOL    HW229988   2.320   0.204  16.391 -0.6532  1.2327  0.4026
 6177SOL     OW29989   2.204   3.139   2.463 -0.1121  0.0032 -0.4159
 6177SOL    HW129990   2.294   3.171   2.451  0.1001  0.2786  2.0001
 6177SOL    HW229991   2.163   3.226   2.466  1.6227  0.8021  0.1942
 6178SOL     OW29992   3.691   1.885   6.029 -0.2968 -0.4139  0.8127
 6178SOL    HW129993   3.763   1.827   6.003  0.0037 -0.4200  1.6680
 6178SOL    HW229994   3.727   1.932   6.104 -1.2668 -2.4953  2.5953
 6179SOL     OW29995   0.291   2.664  12.699 -0.2527 -0.1769  0.8222
 6179SOL    HW129996   0.254   2.657  12.611 -0.4552 -1.0620  0.9849
 6179SOL    HW229997   0.284   2.759  12.710 -0.2995 -0.5610  4.0014
 6180SOL     OW29998   1.936   2.125   7.013 -0.1896  0.5004 -0.3339
 6180SOL    HW129999   1.890   2.086   7.088  0.8216 -1.8888 -0.9496
 6180SOL    HW230000   1.931   2.050   6.953  0.5876 -0.1885  0.4561
 6181SOL     OW30001   4.284   2.615  12.427  0.3674 -0.3511  0.5664
 6181SOL    HW130002   4.367   2.567  12.419  0.9269  0.3237  2.2857
 6181SOL    HW230003   4.258   2.615  12.335 -0.2073 -0.2479  0.7281
 6182SOL     OW30004   0.258   1.424  15.022  0.6981 -0.5028  0.2735
 6182SOL    HW130005   0.339   1.451  15.065 -0.2969  2.6942  0.2105
 6182SOL    HW230006   0.269   1.441  14.928 -1.3212 -0.7789 -0.0265
 6183SOL     OW30007   1.347   0.409   8.068 -0.2091  0.4623 -0.1182
 6183SOL    HW130008   1.328   0.492   8.111 -1.0071 -0.2797  0.9738
 6183SOL    HW230009   1.302   0.407   7.984  2.2894  0.3896 -1.4553
 6184SOL     OW30010   2.234   3.741   6.657  0.4961  0.0633 -0.1142
 6184SOL    HW130011   2.148   3.754   6.617  0.3776 -1.0664 -0.2178
 6184SOL    HW230012   2.293   3.721   6.584  2.4393  0.5567  1.3197
 6185SOL     OW30013   2.919   1.155   6.311  0.2752  0.2788  0.0145
 6185SOL    HW130014   2.905   1.198   6.227  0.3946  0.9228  0.3227
 6185SOL    HW230015   2.872   1.072   6.303  0.0082  0.5433 -1.1281
 6186SOL     OW30016   3.479   0.703   7.530  0.3866 -0.1804  0.1800
 6186SOL    HW130017   3.457   0.655   7.450  0.5451  1.2674 -0.7188
 6186SOL    HW230018   3.411   0.770   7.529 -0.4974 -1.1101 -1.6649
 6187SOL     OW30019   3.330   1.208  11.384  0.0703 -0.3113 -0.3388
 6187SOL    HW130020   3.391   1.271  11.422 -1.8841  2.0731 -1.1681
 6187SOL    HW230021   3.301   1.159  11.460 -1.0337  1.3438  0.3141
 6188SOL     OW30022   1.944   2.252  11.145  0.1474  0.1514  0.3444
 6188SOL    HW130023   2.020   2.214  11.191 -0.6530 -0.5796  1.0613
 6188SOL    HW230024   1.885   2.272  11.218  2.0047  0.0346  1.8936
 6189SOL     OW30025   2.218   3.168   3.444  0.3931 -0.1594 -0.1392
 6189SOL    HW130026   2.157   3.096   3.427  1.6912 -1.9625  2.8539
 6189SOL    HW230027   2.158   3.243   3.450  1.7359  0.7633  1.7119
 6190SOL     OW30028   0.008   3.397   3.530 -0.3003 -0.1331  0.0922
 6190SOL    HW130029   4.676   3.342   3.586  3.3956 -4.1285 -0.2367
 6190SOL    HW230030   0.017   3.341   3.453 -0.4917 -0.1331  0.0691
 6191SOL     OW30031   3.753   3.238  13.050  0.0733  0.1538 -0.7518
 6191SOL    HW130032   3.758   3.144  13.066 -0.4743 -0.0099 -1.5038
 6191SOL    HW230033   3.741   3.234  12.955 -1.3216 -0.3925 -0.5419
 6192SOL     OW30034   0.243   4.176  15.758 -0.2828  0.3239  0.0534
 6192SOL    HW130035   0.175   4.148  15.819 -1.6764 -0.5784 -1.9302
 6192SOL    HW230036   0.207   4.259  15.726  0.5131  0.6276 -0.0647
 6193SOL     OW30037   3.207   2.689   1.152  0.1262  0.0140  0.5703
 6193SOL    HW130038   3.273   2.752   1.126  1.5145 -1.3994  0.6678
 6193SOL    HW230039   3.170   2.736   1.227 -0.7731 -0.9022  0.7138
 6194SOL     OW30040   4.356   4.000   3.028  0.3708 -0.2612  0.0775
 6194SOL    HW130041   4.401   3.974   2.948  0.8507 -0.2873  0.3540
 6194SOL    HW230042   4.314   3.918   3.054 -0.6786  0.8483  1.8642
 6195SOL     OW30043   3.578   2.130   4.154  0.1546 -0.1016  0.3670
 6195SOL    HW130044   3.485   2.151   4.149  0.4661  1.3106  0.5263
 6195SOL    HW230045   3.583   2.047   4.107  0.3202  0.1316 -0.0231
 6196SOL     OW30046   0.806   3.689   3.378 -0.2899  0.0112  0.0055
 6196SOL    HW130047   0.714   3.663   3.370 -0.5243  1.2101 -1.2542
 6196SOL    HW230048   0.850   3.615   3.335  0.3699  1.4238 -1.7327
 6197SOL     OW30049   0.050   4.558   2.485  0.1448  0.1653 -0.3773
 6197SOL    HW130050   0.100   4.551   2.403  1.0582  2.1792  0.0187
 6197SOL    HW230051   0.090   4.635   2.525  0.0444  0.1554 -0.2572
 6198SOL     OW30052   4.387   1.562   1.373  0.0360 -0.5391  0.6975
 6198SOL    HW130053   4.327   1.628   1.338 -0.3051 -0.8163  0.7604
 6198SOL    HW230054   4.470   1.588   1.333 -0.7034  0.3585 -0.2545
 6199SOL     OW30055   3.060   0.039   2.556  0.0634  0.3259  0.4417
 6199SOL    HW130056   3.113   4.687   2.584 -2.5426 -0.6494  2.7239
 6199SOL    HW230057   2.995   0.031   2.625  0.5404  0.0259  0.8610
 6200SOL     OW30058   1.139   4.035   7.057 -0.2262 -0.4745 -0.1968
 6200SOL    HW130059   1.105   4.084   6.982 -2.6766  0.1612  1.3252
 6200SOL    HW230060   1.211   3.981   7.027  0.0027 -1.7418  2.6239
 6201SOL     OW30061   3.550   1.805   2.138 -0.2124 -0.6480 -0.1603
 6201SOL    HW130062   3.468   1.826   2.094 -0.5004  1.4189  1.3196
 6201SOL    HW230063   3.559   1.886   2.189  0.7651 -0.4852 -0.5872
 6202SOL     OW30064   0.489   3.563   3.080 -0.4839 -0.1356  0.2529
 6202SOL    HW130065   0.426   3.628   3.108 -0.0941  0.5390 -0.4347
 6202SOL    HW230066   0.537   3.550   3.162  0.1108  0.6258  0.0225
 6203SOL     OW30067   1.205   0.786   8.812  0.2075 -0.5198 -0.7064
 6203SOL    HW130068   1.213   0.692   8.830  1.6058 -0.0635  1.0703
 6203SOL    HW230069   1.229   0.815   8.900 -0.3280 -0.8685 -0.4491
 6204SOL     OW30070   3.017   1.829   4.289  0.5372 -0.0383 -0.0255
 6204SOL    HW130071   3.014   1.845   4.384  0.4093  1.1121 -0.2254
 6204SOL    HW230072   2.986   1.739   4.289 -0.1282  0.1948 -0.5244
 6205SOL     OW30073   2.669   3.804   0.260  0.8561 -0.0106 -0.2316
 6205SOL    HW130074   2.674   3.883   0.207 -2.0505 -0.8055 -1.6607
 6205SOL    HW230075   2.612   3.745   0.211 -0.2077  0.3508  0.5825
 6206SOL     OW30076   3.761   1.348  15.234 -0.4243  0.2525 -0.0741
 6206SOL    HW130077   3.775   1.384  15.146  0.2280 -0.0591 -0.0999
 6206SOL    HW230078   3.853   1.340  15.257 -0.2800 -0.6791 -0.9349
 6207SOL     OW30079   1.827   1.985   7.226 -0.2566 -0.3498  0.1216
 6207SOL    HW130080   1.762   2.055   7.228 -0.7531 -0.8541  1.4689
 6207SOL    HW230081   1.795   1.928   7.296  0.0181  0.6345  1.0582
 6208SOL     OW30082   1.623   4.721   5.846 -0.4793 -0.8233 -0.3377
 6208SOL    HW130083   1.672   0.060   5.793  0.2335 -0.0792  1.1898
 6208SOL    HW230084   1.681   4.697   5.919  0.0331  0.3697 -0.3638
 6209SOL     OW30085   1.790   3.322  10.455  0.0176  0.2312  0.0641
 6209SOL    HW130086   1.803   3.338  10.549 -0.8168  2.2453 -0.1616
 6209SOL    HW230087   1.764   3.230  10.453 -0.6140  0.4045  0.1929
 6210SOL     OW30088   3.972   0.122  17.522 -0.4147 -0.8779  0.8101
 6210SOL    HW130089   4.023   0.195  17.487 -0.7029 -0.8272  0.4881
 6210SOL    HW230090   3.886   0.154  17.494 -0.0571  2.1491  3.2109
 6211SOL     OW30091   2.608   1.488   6.849 -0.4314 -0.3123  0.5892
 6211SOL    HW130092   2.589   1.552   6.780 -0.3349 -1.7829 -0.7906
 6211SOL    HW230093   2.701   1.496   6.868 -0.1681  0.0033 -0.8424
 6212SOL     OW30094   0.794   3.528   6.725  0.1727  0.3594 -0.4273
 6212SOL    HW130095   0.852   3.582   6.671  1.7452 -1.0488 -0.1333
 6212SOL    HW230096   0.858   3.465   6.757 -0.5041 -0.4118 -0.5925
 6213SOL     OW30097   1.924   2.846   4.727  0.4159 -0.3590  1.0719
 6213SOL    HW130098   1.856   2.885   4.782 -0.4955  0.5745 -0.7245
 6213SOL    HW230099   1.874   2.809   4.654  2.5183 -1.3040  0.1120
 6214SOL     OW30100   3.413   0.678   0.181 -0.4516 -0.0060 -0.6570
 6214SOL    HW130101   3.413   0.702   0.088  3.3532 -1.6685 -1.0611
 6214SOL    HW230102   3.471   0.746   0.214  1.9954 -2.0698 -0.7716
 6215SOL     OW30103   1.672   2.029  11.147 -0.3477 -0.6542 -0.3854
 6215SOL    HW130104   1.593   2.049  11.096 -0.9040  0.4934  0.9512
 6215SOL    HW230105   1.650   2.077  11.227 -0.2558 -3.2566  1.1873
 6216SOL     OW30106   0.154   3.788  10.719  0.1694 -0.2131 -0.1599
 6216SOL    HW130107   0.184   3.743  10.640  0.7535 -1.4700  0.7750
 6216SOL    HW230108   0.058   3.779  10.716  0.0945  0.8559 -0.9513
 6217SOL     OW30109   2.958   3.788   6.309 -0.1527  0.1313  0.2448
 6217SOL    HW130110   3.000   3.730   6.245  1.7176  1.0233  0.6511
 6217SOL    HW230111   3.005   3.763   6.389  1.1418 -1.9249 -1.1540
 6218SOL     OW30112   2.634   2.520   1.602  0.5447 -0.2740 -0.1464
 6218SOL    HW130113   2.673   2.487   1.683  0.5226  2.7847  1.1070
 6218SOL    HW230114   2.554   2.469   1.607  0.4731 -0.1045  0.5025
 6219SOL     OW30115   1.404   3.987   8.696 -0.4382  0.1898 -0.2593
 6219SOL    HW130116   1.491   4.008   8.728 -0.7638 -1.4478  1.6807
 6219SOL    HW230117   1.356   4.063   8.729  0.2498  0.1992  0.7130
 6220SOL     OW30118   1.272   1.104   7.302 -0.1399 -0.2999  0.2665
 6220SOL    HW130119   1.343   1.040   7.310 -2.4138 -2.8587  0.0547
 6220SOL    HW230120   1.214   1.067   7.235 -2.3547  3.9182 -0.1471
 6221SOL     OW30121   2.170   3.796  14.667 -0.1059  0.2974 -0.1723
 6221SOL    HW130122   2.153   3.702  14.674  0.1129  0.3219  0.6757
 6221SOL    HW230123   2.133   3.833  14.747  0.9549 -0.0669  0.4910
 6222SOL     OW30124   0.212   0.931  16.955  0.0602  0.2299  0.1074
 6222SOL    HW130125   0.177   0.997  16.894 -0.2570  0.9972  1.1081
 6222SOL    HW230126   0.293   0.975  16.981  0.6201 -0.8379  0.1745
 6223SOL     OW30127   4.578   2.707   2.630  0.2271 -0.6512  0.5783
 6223SOL    HW130128   4.538   2.672   2.550  0.1957 -0.5053  0.5314
 6223SOL    HW230129   4.567   2.629   2.685 -1.7801 -1.8920 -1.5843
 6224SOL     OW30130   0.123   0.138   8.164  0.4805  0.5758  0.1637
 6224SOL    HW130131   0.061   0.065   8.161  0.4172  0.6366 -0.0420
 6224SOL    HW230132   0.073   0.209   8.204  1.5412  0.9087  0.8849
 6225SOL     OW30133   0.983   0.185   6.056 -0.2813 -0.2553  0.0788
 6225SOL    HW130134   0.983   0.144   6.142 -3.5685  0.3802  0.3789
 6225SOL    HW230135   1.078   0.193   6.046 -0.1577  1.8628  3.1238
 6226SOL     OW30136   1.576   3.136   3.724  0.1888  0.5675 -0.1387
 6226SOL    HW130137   1.507   3.071   3.739  0.6810  0.4105  1.4944
 6226SOL    HW230138   1.634   3.111   3.796  0.9810  0.7680 -0.7192
 6227SOL     OW30139   1.033   3.775   9.517  0.3953 -0.1156 -0.7143
 6227SOL    HW130140   1.066   3.810   9.599 -2.2292  0.0801  0.2587
 6227SOL    HW230141   0.964   3.716   9.548 -0.8149  2.3112  1.2411
 6228SOL     OW30142   2.923   2.147  16.142  0.1370  0.2696 -0.3508
 6228SOL    HW130143   2.981   2.117  16.072 -0.7524  1.0300 -1.4147
 6228SOL    HW230144   2.988   2.190  16.197 -1.8467  1.0399  1.4148
 6229SOL     OW30145   3.957   0.583   1.212 -0.2741 -0.3183 -0.0106
 6229SOL    HW130146   4.011   0.538   1.147 -0.0244 -0.5083  0.3256
 6229SOL    HW230147   3.946   0.662   1.159 -0.8767 -0.5636 -0.2627
 6230SOL     OW30148   4.707   4.282  17.531  0.4895  0.3652 -0.1030
 6230SOL    HW130149   0.007   4.206  17.478 -1.6356 -1.3474  1.4399
 6230SOL    HW230150   4.641   4.256  17.595  0.7340  0.0366  0.0168
 6231SOL     OW30151   0.831   2.267  16.149  0.0192 -0.3879  0.2138
 6231SOL    HW130152   0.779   2.319  16.211  0.9671 -1.6488  2.0804
 6231SOL    HW230153   0.792   2.295  16.067  0.2270  0.1896  0.3101
 6232SOL     OW30154   1.811   3.979   6.207 -0.0361 -1.1487 -0.6603
 6232SOL    HW130155   1.716   3.971   6.210 -0.1078  0.2495  0.5741
 6232SOL    HW230156   1.824   3.962   6.114  2.4161 -1.2014 -0.3121
 6233SOL     OW30157   4.499   3.126  16.539 -0.1203 -0.2179 -0.2474
 6233SOL    HW130158   4.529   3.102  16.627  0.6950 -1.4623 -0.8627
 6233SOL    HW230159   4.569   3.185  16.513 -0.4062  0.9421  1.5924
 6234SOL     OW30160   4.169   2.059   8.660 -0.0816 -0.6830  0.0100
 6234SOL    HW130161   4.122   2.129   8.615  2.3164 -0.1819 -1.6480
 6234SOL    HW230162   4.250   2.097   8.694 -1.5841  0.8866  1.8919
 6235SOL     OW30163   1.533   1.454  17.427  0.0255 -0.3796  0.3487
 6235SOL    HW130164   1.442   1.462  17.399 -0.1763 -0.2295  1.0462
 6235SOL    HW230165   1.539   1.395  17.503  2.4072 -1.5119 -0.6919
 6236SOL     OW30166   1.749   0.530   4.287  0.2452  0.2874  0.4588
 6236SOL    HW130167   1.702   0.588   4.228  0.0173 -1.5285 -1.1640
 6236SOL    HW230168   1.680   0.472   4.321  0.4354  0.4868  1.1823
 6237SOL     OW30169   1.191   4.581   2.835 -0.2701  0.1044 -0.3167
 6237SOL    HW130170   1.235   4.662   2.863  0.3162 -0.2993 -0.0633
 6237SOL    HW230171   1.267   4.524   2.842 -1.5611 -1.7909 -1.8971
 6238SOL     OW30172   4.001   2.013   1.810  0.2375  0.5663 -0.2197
 6238SOL    HW130173   3.913   2.017   1.848  1.6985  1.9948  3.0005
 6238SOL    HW230174   4.009   2.109   1.805  1.8047  0.5047  1.4149
 6239SOL     OW30175   1.168   0.715   6.038 -0.1604  0.1864  0.3351
 6239SOL    HW130176   1.225   0.661   6.093  0.1464  1.3550  1.1874
 6239SOL    HW230177   1.091   0.659   6.032 -0.4951  0.9894 -2.8160
 6240SOL     OW30178   2.007   1.441   7.042 -0.6203  0.6285 -0.0653
 6240SOL    HW130179   1.949   1.378   7.084 -0.8736  0.7428 -0.2419
 6240SOL    HW230180   2.093   1.401   7.034 -1.1948 -0.8042  1.0171
 6241SOL     OW30181   3.121   2.482   8.822  0.0616  0.0741  0.1579
 6241SOL    HW130182   3.166   2.546   8.878 -0.1254  1.8756 -1.7297
 6241SOL    HW230183   3.189   2.427   8.785 -2.4045 -1.7730 -1.5859
 6242SOL     OW30184   2.681   1.811   5.005 -0.3599  0.5195 -0.3128
 6242SOL    HW130185   2.676   1.770   4.918  1.8571 -0.9693  0.2875
 6242SOL    HW230186   2.601   1.864   5.007 -1.3471 -1.0336  1.0472
 6243SOL     OW30187   2.153   2.532   6.589 -0.2885  0.2638 -0.1725
 6243SOL    HW130188   2.104   2.547   6.508 -0.5370  1.7188  0.2549
 6243SOL    HW230189   2.096   2.464   6.627 -0.9644 -1.2472 -3.9282
 6244SOL     OW30190   3.267   0.290   8.842 -0.1770  0.2418  0.4880
 6244SOL    HW130191   3.357   0.269   8.815  0.3724  0.9070  1.7641
 6244SOL    HW230192   3.271   0.379   8.876 -1.9630  0.7593 -0.6633
 6245SOL     OW30193   0.431   1.383   2.983 -0.1080 -0.6332  0.8399
 6245SOL    HW130194   0.515   1.402   3.023 -0.3458  2.1925  0.0130
 6245SOL    HW230195   0.461   1.373   2.892 -0.8494 -0.2415  0.5543
 6246SOL     OW30196   1.788   2.206   6.468  0.1046 -0.6265  0.0851
 6246SOL    HW130197   1.734   2.176   6.541  0.0931  0.7575  0.6431
 6246SOL    HW230198   1.723   2.257   6.419 -1.1472  0.1653  2.5983
 6247SOL     OW30199   1.772   3.912   7.530 -0.3351 -0.5232 -0.0879
 6247SOL    HW130200   1.863   3.914   7.502  0.4538 -2.2324  2.3519
 6247SOL    HW230201   1.777   3.974   7.603  0.0801 -0.1878 -0.4044
 6248SOL     OW30202   0.536   1.097   5.009  0.1649 -0.5256 -0.1213
 6248SOL    HW130203   0.466   1.136   5.060  1.0950  0.1621  0.6364
 6248SOL    HW230204   0.491   1.020   4.974 -1.5496 -0.8542  2.8728
 6249SOL     OW30205   2.816   4.349   4.899  0.1126  0.0094 -0.1466
 6249SOL    HW130206   2.743   4.369   4.956  0.5343  1.1193  0.0076
 6249SOL    HW230207   2.775   4.281   4.846 -1.3435  0.4657  0.4009
 6250SOL     OW30208   3.726   1.935  16.903 -0.8187 -0.3181 -1.5292
 6250SOL    HW130209   3.722   2.008  16.841 -1.6229  0.5370 -0.4683
 6250SOL    HW230210   3.637   1.938  16.936  0.4407 -0.6200  1.9263
 6251SOL     OW30211   2.548   2.123   1.942  0.0629 -0.2829  0.6199
 6251SOL    HW130212   2.577   2.057   2.005 -0.6607 -0.6116  0.6133
 6251SOL    HW230213   2.478   2.067   1.908  0.5338 -1.8879  2.3216
 6252SOL     OW30214   1.008   2.885   7.233  0.4449 -0.0515  0.1092
 6252SOL    HW130215   0.965   2.801   7.221  0.3280 -0.2795  2.0256
 6252SOL    HW230216   0.950   2.933   7.294  0.2016 -1.2908  0.8629
 6253SOL     OW30217   3.009   3.937   3.615 -0.4830  0.1613 -0.1424
 6253SOL    HW130218   2.948   3.892   3.557 -0.8171 -0.4732  0.7016
 6253SOL    HW230219   3.091   3.889   3.604 -0.3109  0.6416 -0.9175
 6254SOL     OW30220   2.724   0.669  15.822 -0.9010 -0.3219  0.1901
 6254SOL    HW130221   2.695   0.688  15.911  0.0955 -1.2928  0.7325
 6254SOL    HW230222   2.690   0.745  15.775  0.1171 -1.3456 -2.2040
 6255SOL     OW30223   1.368   2.928   3.761 -0.4950  0.2774  0.0804
 6255SOL    HW130224   1.378   2.856   3.824 -1.9350  1.1405  1.2971
 6255SOL    HW230225   1.274   2.944   3.762 -0.4646  0.3475  1.8099
 6256SOL     OW30226   3.887   0.507   4.202  1.3470 -0.3645 -0.2752
 6256SOL    HW130227   3.852   0.444   4.139 -1.9440  0.8800  0.2847
 6256SOL    HW230228   3.979   0.480   4.202  1.3195 -0.4595 -0.8905
 6257SOL     OW30229   1.393   0.266   0.664 -0.0776  0.0459 -0.1309
 6257SOL    HW130230   1.413   0.277   0.757  0.1345  3.0669 -0.5455
 6257SOL    HW230231   1.301   0.290   0.664 -0.4386 -1.2912 -3.5518
 6258SOL     OW30232   2.594   1.904   4.172  0.2300 -0.1948  0.0240
 6258SOL    HW130233   2.609   1.819   4.214  0.0513 -0.3722 -0.2658
 6258SOL    HW230234   2.536   1.944   4.237 -0.4502  0.7131 -1.1531
 6259SOL     OW30235   3.567   4.300   1.238 -0.6701  0.0387 -0.2037
 6259SOL    HW130236   3.615   4.231   1.283 -1.4110  0.3992  1.1416
 6259SOL    HW230237   3.586   4.378   1.290  2.0702  0.5257 -1.9603
 6260SOL     OW30238   3.863   4.697  12.543  0.6551  0.5573 -0.9956
 6260SOL    HW130239   3.809   0.022  12.606 -0.0053 -1.5890  0.0815
 6260SOL    HW230240   3.948   4.723  12.578  0.8402  0.3944 -1.3202
 6261SOL     OW30241   2.258   3.869   5.953 -0.0038  0.4784  0.1505
 6261SOL    HW130242   2.294   3.893   6.038  1.4888 -0.5088 -0.1920
 6261SOL    HW230243   2.332   3.844   5.897 -0.3551 -2.8777  1.2000
 6262SOL     OW30244   3.060   0.462  15.324 -0.2709 -0.5779  0.6347
 6262SOL    HW130245   3.138   0.480  15.271 -2.0119  1.1563 -1.3699
 6262SOL    HW230246   3.009   0.403  15.268  0.5985 -0.6278 -0.1103
 6263SOL     OW30247   4.115   1.248   1.302  0.2795  0.3282 -0.2784
 6263SOL    HW130248   4.175   1.256   1.228 -1.0987  1.7687 -1.2446
 6263SOL    HW230249   4.097   1.339   1.325  1.6895  0.6873 -0.5738
 6264SOL     OW30250   4.643   2.138   7.122 -0.2545  0.5845 -0.0376
 6264SOL    HW130251   0.014   2.152   7.114 -0.3374  2.6645  2.6441
 6264SOL    HW230252   4.634   2.043   7.116 -1.9552  0.8829 -2.2260
 6265SOL     OW30253   1.127   1.305   7.550 -0.2238 -0.0165  0.9023
 6265SOL    HW130254   1.113   1.215   7.522  1.4985 -0.2434  0.7332
 6265SOL    HW230255   1.051   1.339   7.504  0.5159  2.4359  1.4755
 6266SOL     OW30256   3.711   2.636  17.671  0.3777  0.1220 -0.4761
 6266SOL    HW130257   3.774   2.707  17.680  0.6201 -0.0717 -0.6470
 6266SOL    HW230258   3.637   2.668  17.620  0.5543  1.5873  0.1759
 6267SOL     OW30259   4.627   2.325  16.592 -0.3153 -0.0021 -0.4785
 6267SOL    HW130260   4.665   2.241  16.566  0.8566  0.9630 -1.9403
 6267SOL    HW230261   4.616   2.369  16.507  3.5890  1.0214 -0.4979
 6268SOL     OW30262   4.414   4.450   2.052 -0.1084  0.1545  0.2236
 6268SOL    HW130263   4.404   4.386   1.982  3.2976 -0.3758  0.2127
 6268SOL    HW230264   4.430   4.522   1.991 -3.5558  0.2044 -0.5747
 6269SOL     OW30265   1.694   3.054   3.999 -0.2938 -0.1021 -0.1084
 6269SOL    HW130266   1.709   2.969   3.958 -1.9645 -1.3290  1.7787
 6269SOL    HW230267   1.763   3.051   4.065  0.6896 -1.9573 -1.2121
 6270SOL     OW30268   0.411   2.818   7.887 -0.8937  0.3706 -0.4686
 6270SOL    HW130269   0.444   2.858   7.968  0.5063 -2.2562  0.2464
 6270SOL    HW230270   0.493   2.798   7.843  0.5830  0.4068  2.2504
 6271SOL     OW30271   3.133   0.872   2.476  0.2687  0.2143  0.2626
 6271SOL    HW130272   3.134   0.959   2.438  2.0808 -0.9806 -2.3786
 6271SOL    HW230273   3.090   0.819   2.409 -1.7625 -0.4073  2.0399
 6272SOL     OW30274   4.303   2.994   5.901  0.0104  0.0871  0.0465
 6272SOL    HW130275   4.244   2.945   5.843  1.0040 -1.1966  0.1050
 6272SOL    HW230276   4.289   3.081   5.864 -2.2160 -0.9131 -1.5170
 6273SOL     OW30277   0.581   2.660   6.562  0.0206  0.1274  0.6826
 6273SOL    HW130278   0.487   2.676   6.553  0.3051  2.4244  1.7577
 6273SOL    HW230279   0.593   2.579   6.512  2.4275  1.6984 -1.2651
 6274SOL     OW30280   0.608   0.264  14.738 -0.0241  0.0958  0.4066
 6274SOL    HW130281   0.676   0.261  14.805 -0.9260  2.8251  1.4466
 6274SOL    HW230282   0.531   0.285  14.791 -0.2342  0.5998 -0.0932
 6275SOL     OW30283   4.036   4.339  12.903 -0.2099  0.4108 -0.2924
 6275SOL    HW130284   3.952   4.319  12.861 -1.0011 -1.5870  2.2886
 6275SOL    HW230285   4.013   4.425  12.938 -3.0426 -0.8099  0.8030
 6276SOL     OW30286   0.746   1.410   3.971  0.1610 -0.0762  0.5160
 6276SOL    HW130287   0.783   1.359   4.043 -0.1091 -1.9757 -0.7181
 6276SOL    HW230288   0.757   1.498   4.009 -1.5943  0.2981  0.1852
 6277SOL     OW30289   3.558   0.085   4.576  0.3762 -0.1810  0.1387
 6277SOL    HW130290   3.553   0.180   4.568 -0.4965 -0.0823  2.0270
 6277SOL    HW230291   3.511   0.065   4.656 -0.0645 -2.2034 -0.6361
 6278SOL     OW30292   0.071   2.961  15.165  0.5029 -0.3215 -0.4706
 6278SOL    HW130293   0.129   3.015  15.111  0.3370  0.8771  0.5625
 6278SOL    HW230294   4.719   2.949  15.107 -1.2625  1.0451  1.5473
 6279SOL     OW30295   3.468   1.370  10.336  0.0632  0.0811  0.1127
 6279SOL    HW130296   3.482   1.296  10.277 -1.9695  0.3542 -0.7060
 6279SOL    HW230297   3.407   1.337  10.402  0.1278 -1.3321 -0.5413
 6280SOL     OW30298   4.272   3.271  11.091  0.4860 -0.0108  0.6033
 6280SOL    HW130299   4.299   3.224  11.170 -1.4762 -2.5724 -0.2274
 6280SOL    HW230300   4.217   3.340  11.129  1.0408  0.2969  0.8403
 6281SOL     OW30301   4.073   1.488  10.950  0.1424 -0.2952  0.1748
 6281SOL    HW130302   4.008   1.442  10.897 -0.7313 -0.2722  1.2388
 6281SOL    HW230303   4.054   1.450  11.035  0.4147  2.1958  1.3442
 6282SOL     OW30304   1.601   4.344   6.538  0.4069 -0.1975 -0.3730
 6282SOL    HW130305   1.694   4.366   6.544  0.4832 -0.6555  0.0951
 6282SOL    HW230306   1.567   4.426   6.574 -1.3164 -2.0817  2.2763
 6283SOL     OW30307   0.995   2.820  14.508  0.1238 -0.0964  0.6882
 6283SOL    HW130308   1.017   2.762  14.435 -0.5083  0.5605 -0.0201
 6283SOL    HW230309   1.013   2.763  14.583 -1.2866 -0.1584  0.9858
 6284SOL     OW30310   4.443   2.132  11.947  0.4253 -0.0565 -0.2702
 6284SOL    HW130311   4.427   2.109  11.855 -0.8259  1.0336 -0.3358
 6284SOL    HW230312   4.355   2.135  11.983  0.9851  0.3792  1.0662
 6285SOL     OW30313   3.788   2.436   5.566 -0.2855 -0.2633 -0.0156
 6285SOL    HW130314   3.878   2.428   5.597  0.3352 -1.9000 -2.2354
 6285SOL    HW230315   3.777   2.342   5.552 -1.5216 -0.1787  0.3555
 6286SOL     OW30316   3.041   2.904  15.237  0.0332 -0.4517 -0.2607
 6286SOL    HW130317   2.958   2.857  15.225  0.4220 -1.3063  0.3693
 6286SOL    HW230318   3.052   2.909  15.332  0.3953 -1.3779 -0.2488
 6287SOL     OW30319   4.093   1.631   9.622 -0.3310  0.0380  0.4421
 6287SOL    HW130320   4.048   1.697   9.570  1.5688  1.3546  0.4558
 6287SOL    HW230321   4.035   1.616   9.696 -0.0210 -3.6597 -0.0579
 6288SOL     OW30322   2.305   2.671  14.349  0.1031 -0.1969  0.1672
 6288SOL    HW130323   2.218   2.646  14.380 -0.3423  0.5831 -0.4439
 6288SOL    HW230324   2.338   2.591  14.306 -1.2084  0.1360 -1.4450
 6289SOL     OW30325   3.532   1.243   5.720  0.0490  0.0430 -0.3843
 6289SOL    HW130326   3.486   1.188   5.783 -0.7657  0.0403 -0.9734
 6289SOL    HW230327   3.468   1.313   5.705  0.0328  0.4268  1.4891
 6290SOL     OW30328   3.783   3.145   8.969  0.6201  0.4761 -0.4524
 6290SOL    HW130329   3.824   3.231   8.971  1.4743  0.0499  0.4405
 6290SOL    HW230330   3.706   3.158   8.914  1.2198  1.4019 -1.0640
 6291SOL     OW30331   3.441   4.554   2.504 -0.2677  0.1339 -0.3660
 6291SOL    HW130332   3.533   4.546   2.480 -0.2802 -0.0533 -0.3518
 6291SOL    HW230333   3.438   4.642   2.543 -1.8949  0.0279 -0.2647
 6292SOL     OW30334   3.316   2.955   8.024 -0.1515 -0.0731  0.0717
 6292SOL    HW130335   3.304   2.908   7.942 -2.0266 -1.5791  1.2062
 6292SOL    HW230336   3.244   3.017   8.034  0.7104  1.0868 -0.9697
 6293SOL     OW30337   2.317   4.204  11.173 -0.4274  0.1360  0.0597
 6293SOL    HW130338   2.411   4.208  11.187 -0.2770 -3.5500  0.2299
 6293SOL    HW230339   2.298   4.132  11.234  1.9846 -0.0758  0.5462
 6294SOL     OW30340   4.641   3.914   0.633  0.2656 -0.3036  0.9789
 6294SOL    HW130341   4.713   3.948   0.580 -0.5537 -0.6776 -0.3754
 6294SOL    HW230342   4.581   3.989   0.634  2.5162  1.4929  0.4673
 6295SOL     OW30343   4.603   0.418   5.618 -0.3231 -0.0671 -0.2149
 6295SOL    HW130344   4.517   0.450   5.593 -0.5209 -0.6525 -0.2832
 6295SOL    HW230345   4.600   0.354   5.546 -0.9761  0.3515 -0.5552
 6296SOL     OW30346   0.623   4.426  15.080  0.4914  0.2347  0.0879
 6296SOL    HW130347   0.634   4.452  15.171  2.4653 -1.4763  0.3224
 6296SOL    HW230348   0.694   4.363  15.071  0.6240  0.1599  1.6911
 6297SOL     OW30349   0.349   0.829   7.065 -0.3113 -0.1695 -0.0394
 6297SOL    HW130350   0.390   0.914   7.051  0.0208 -0.3350 -0.0618
 6297SOL    HW230351   0.280   0.861   7.122  0.8000  1.2410  0.5036
 6298SOL     OW30352   4.711   1.353   5.001  0.6499  0.2575 -0.8391
 6298SOL    HW130353   4.647   1.310   5.058  1.4375 -0.4431 -0.4815
 6298SOL    HW230354   0.025   1.278   4.954 -0.1958 -1.6652  1.5619
 6299SOL     OW30355   3.867   1.427  10.254 -0.1345 -0.0654 -0.4056
 6299SOL    HW130356   3.838   1.469  10.335 -0.1345 -0.7326 -0.0529
 6299SOL    HW230357   3.820   1.472  10.184  2.2515  1.1605 -1.2147
 6300SOL     OW30358   4.272   3.770   1.817  0.4307 -0.2153  0.1177
 6300SOL    HW130359   4.216   3.743   1.745 -0.5676  0.7989  0.5073
 6300SOL    HW230360   4.310   3.689   1.849  0.1144 -0.2833  0.3186
 6301SOL     OW30361   2.039   3.907   2.667 -0.5237 -0.2445 -0.1500
 6301SOL    HW130362   1.973   3.865   2.722  0.7676 -2.1967 -0.1128
 6301SOL    HW230363   1.982   3.945   2.599 -0.3535  0.7442  0.2591
 6302SOL     OW30364   2.478   3.103   6.977 -0.0324  0.4680 -0.3371
 6302SOL    HW130365   2.405   3.044   6.961  0.8999 -0.3559 -1.5977
 6302SOL    HW230366   2.466   3.168   6.907  2.6488 -0.4691 -1.6761
 6303SOL     OW30367   4.450   1.102   5.377  0.5807 -0.0019  0.1433
 6303SOL    HW130368   4.360   1.070   5.381  0.3047  0.6024 -1.2546
 6303SOL    HW230369   4.437   1.178   5.320 -0.8680 -0.6930 -0.4494
 6304SOL     OW30370   2.403   2.071   4.747 -0.0218 -0.2047 -0.3369
 6304SOL    HW130371   2.373   2.161   4.761 -0.2740 -0.6277  1.9785
 6304SOL    HW230372   2.318   2.026   4.748 -0.3398  0.3935  0.3965
 6305SOL     OW30373   1.175   1.354   5.719  0.2783  0.1814  0.7220
 6305SOL    HW130374   1.101   1.294   5.709  3.0092 -2.5033 -3.4737
 6305SOL    HW230375   1.224   1.336   5.639  2.4946 -0.4695  2.2243
 6306SOL     OW30376   1.269   3.466   3.507 -0.2964 -0.0475  0.4400
 6306SOL    HW130377   1.265   3.401   3.577 -0.3246  0.7059  1.1361
 6306SOL    HW230378   1.215   3.428   3.437  1.0634 -1.1273 -0.0066
 6307SOL     OW30379   4.669   1.166   7.816 -0.3025 -0.1386 -0.5974
 6307SOL    HW130380   4.587   1.164   7.865 -0.7287  2.9127 -1.1720
 6307SOL    HW230381   4.665   1.255   7.783  2.8204  0.4582  0.6431
 6308SOL     OW30382   3.286   1.046  10.140 -0.6874  0.4207  0.5896
 6308SOL    HW130383   3.378   1.071  10.149 -0.5198 -0.0672  0.2191
 6308SOL    HW230384   3.301   0.957  10.110 -3.1535 -0.3231  1.5595
 6309SOL     OW30385   3.575   4.183   2.776  0.1383  0.1398 -0.7466
 6309SOL    HW130386   3.501   4.175   2.715 -0.5806  1.8598 -0.1126
 6309SOL    HW230387   3.626   4.107   2.747 -0.4237 -0.3093 -0.5542
 6310SOL     OW30388   3.917   0.615  16.035 -0.1185  0.4426 -0.3952
 6310SOL    HW130389   3.977   0.601  15.962  0.9485  1.2188  0.3257
 6310SOL    HW230390   3.912   0.710  16.039  0.8074  0.5509 -1.6849
 6311SOL     OW30391   4.327   3.769  15.672 -0.0546 -0.0590 -0.0242
 6311SOL    HW130392   4.286   3.842  15.625  0.3165 -0.9875 -1.8193
 6311SOL    HW230393   4.265   3.770  15.745  1.8874  0.1306  1.5965
 6312SOL     OW30394   4.260   2.784   5.703 -0.4151  0.4630  0.1063
 6312SOL    HW130395   4.199   2.796   5.630 -0.1246  0.5285 -0.1257
 6312SOL    HW230396   4.211   2.714   5.746 -1.1850  0.6334 -0.4968
 6313SOL     OW30397   1.845   0.832   7.223  0.3289  0.2162  0.2013
 6313SOL    HW130398   1.789   0.880   7.163 -0.1199 -0.6201 -0.0538
 6313SOL    HW230399   1.789   0.754   7.229 -3.0626  2.5207 -1.2220
 6314SOL     OW30400   2.564   2.938   7.194  0.3729 -0.3357  0.0808
 6314SOL    HW130401   2.653   2.971   7.206  1.2202 -2.2702 -0.8485
 6314SOL    HW230402   2.531   2.980   7.114  0.1891  0.3557  0.5159
 6315SOL     OW30403   2.283   3.815   2.432 -0.4955  0.0164  0.1834
 6315SOL    HW130404   2.319   3.897   2.465  0.7772 -0.9599  1.2330
 6315SOL    HW230405   2.220   3.850   2.369 -2.5215  0.4988  2.5092
 6316SOL     OW30406   0.880   0.434   7.733 -0.0957  0.1793 -0.5087
 6316SOL    HW130407   0.909   0.353   7.772  2.8031 -0.6769 -4.4073
 6316SOL    HW230408   0.918   0.419   7.646 -0.2219 -0.3412 -0.4711
 6317SOL     OW30409   3.660   2.995   5.976 -0.3610 -0.4808  0.6531
 6317SOL    HW130410   3.643   2.965   5.887  2.3545 -0.5021  0.1239
 6317SOL    HW230411   3.678   3.088   5.958 -0.8741 -0.8978 -2.0079
 6318SOL     OW30412   2.079   3.309   8.383  0.1402 -0.6100 -0.2759
 6318SOL    HW130413   2.065   3.264   8.300 -0.1072 -0.4460 -0.3224
 6318SOL    HW230414   2.170   3.280   8.386  0.4974  0.3947 -1.1671
 6319SOL     OW30415   0.206   3.882   7.894 -0.0411 -0.3912  0.2418
 6319SOL    HW130416   0.216   3.947   7.824 -0.8958 -0.9067 -0.3515
 6319SOL    HW230417   0.267   3.928   7.953 -0.8529  1.0169 -0.0156
 6320SOL     OW30418   4.333   1.258   1.770  0.1634 -0.0741 -0.3231
 6320SOL    HW130419   4.378   1.284   1.850 -0.3925 -1.0368  0.2994
 6320SOL    HW230420   4.349   1.335   1.715 -2.7776  0.1362 -0.9137
 6321SOL     OW30421   1.693   2.904   5.756  0.2973 -0.3472  0.0326
 6321SOL    HW130422   1.603   2.917   5.785  0.2712 -1.3134  0.3657
 6321SOL    HW230423   1.705   2.815   5.789  2.6410  0.2495  0.8620
 6322SOL     OW30424   2.728   4.708   9.818  0.0258 -0.2845  0.0304
 6322SOL    HW130425   2.771   0.069   9.807 -0.7632  0.0202 -0.7307
 6322SOL    HW230426   2.797   4.653   9.855  1.2699  0.2690 -1.4844
 6323SOL     OW30427   1.652   0.712  14.037  0.3486 -0.3367 -0.5176
 6323SOL    HW130428   1.569   0.751  14.065  0.9446  0.4841  0.1089
 6323SOL    HW230429   1.648   0.715  13.941 -2.1198  1.0624 -0.3907
 6324SOL     OW30430   0.164   3.421   2.020  0.1493  0.6322 -0.2187
 6324SOL    HW130431   0.234   3.468   2.064  0.6300 -2.0014  1.8492
 6324SOL    HW230432   0.146   3.358   2.090 -1.0081  0.6618 -0.4857
 6325SOL     OW30433   1.682   1.390   7.922 -0.5266 -0.0832  0.1984
 6325SOL    HW130434   1.587   1.382   7.908 -0.2345 -1.7127 -0.8266
 6325SOL    HW230435   1.722   1.386   7.835 -1.3559  1.1310 -0.2375
 6326SOL     OW30436   0.453   3.396  15.574 -0.4608  0.5471  0.3551
 6326SOL    HW130437   0.470   3.320  15.517  1.3606  1.5257 -0.4259
 6326SOL    HW230438   0.446   3.468  15.512 -0.4599  0.1873 -0.0711
 6327SOL     OW30439   1.922   2.095   0.459 -0.2737 -0.0074 -0.4024
 6327SOL    HW130440   1.938   2.164   0.524 -1.0143 -0.6342  0.4556
 6327SOL    HW230441   1.923   2.021   0.520  3.5939  1.1990  1.0261
 6328SOL     OW30442   2.072   3.434   7.128 -0.5420 -0.3363  0.2004
 6328SOL    HW130443   2.087   3.366   7.195  2.4307  0.3632  0.2313
 6328SOL    HW230444   2.082   3.371   7.056 -2.0845 -1.4158  0.9215
 6329SOL     OW30445   1.334   2.911  10.686  0.0201  0.6652  0.2828
 6329SOL    HW130446   1.302   2.821  10.683 -0.2963  0.7415  1.1988
 6329SOL    HW230447   1.273   2.963  10.634  0.8560  1.3712  0.0118
 6330SOL     OW30448   4.560   3.621   4.056 -0.2742 -1.0639  0.3254
 6330SOL    HW130449   4.646   3.642   4.018 -0.1484 -1.1015  0.5881
 6330SOL    HW230450   4.544   3.535   4.017  1.0636 -0.9093 -0.5786
 6331SOL     OW30451   3.157   3.294   0.629  0.3522 -0.3960  0.4743
 6331SOL    HW130452   3.175   3.297   0.723 -0.5987 -0.4063  0.6508
 6331SOL    HW230453   3.110   3.377   0.633 -1.3512 -1.3989  1.1504
 6332SOL     OW30454   2.410   4.402   3.952  0.6048  0.5565 -0.2019
 6332SOL    HW130455   2.474   4.448   3.897  0.0925  1.0697 -0.3572
 6332SOL    HW230456   2.415   4.317   3.908 -0.2062  0.4024  0.0063
 6333SOL     OW30457   4.250   2.157  10.333  0.3841 -0.3946  0.4199
 6333SOL    HW130458   4.256   2.211  10.412 -2.2069  1.2773 -0.5136
 6333SOL    HW230459   4.243   2.070  10.373  0.9237 -0.5011  0.2737
 6334SOL     OW30460   4.380   1.396   4.821 -0.4490  0.6606 -0.7401
 6334SOL    HW130461   4.455   1.361   4.772 -0.1904 -1.6897  1.3627
 6334SOL    HW230462   4.308   1.387   4.759 -0.4312 -0.4229 -0.6083
 6335SOL     OW30463   3.142   2.923   5.072 -0.5400  0.4443  0.2391
 6335SOL    HW130464   3.051   2.947   5.084 -0.7198 -0.2664  0.3117
 6335SOL    HW230465   3.168   2.874   5.151  0.1488  1.9212  0.9395
 6336SOL     OW30466   3.177   1.509   6.544  0.0426 -0.3361  0.7679
 6336SOL    HW130467   3.198   1.598   6.571  0.4461 -0.8888  2.2469
 6336SOL    HW230468   3.243   1.456   6.588  0.3414  0.7376  1.6052
 6337SOL     OW30469   3.499   1.509   1.636  0.0787  0.2548 -0.2948
 6337SOL    HW130470   3.542   1.560   1.705 -0.2839  2.1318 -1.4437
 6337SOL    HW230471   3.436   1.452   1.681  0.6035 -0.6760 -0.7542
 6338SOL     OW30472   2.664   2.548   8.884 -0.2167 -0.6393  0.2385
 6338SOL    HW130473   2.733   2.512   8.829 -0.5519 -0.8183 -0.0643
 6338SOL    HW230474   2.706   2.551   8.971  0.6472  0.9604 -0.2365
 6339SOL     OW30475   1.453   4.310   0.454  0.0635 -0.5222  0.2396
 6339SOL    HW130476   1.369   4.284   0.416 -1.9211 -0.1738  4.3189
 6339SOL    HW230477   1.437   4.395   0.495 -3.5116 -1.1379  0.1249
 6340SOL     OW30478   1.161   2.670   2.731  0.3623 -0.6150  0.2130
 6340SOL    HW130479   1.210   2.705   2.806 -3.0378  1.2516  1.5642
 6340SOL    HW230480   1.121   2.589   2.762  1.1119 -1.4205 -0.9038
 6341SOL     OW30481   2.348   4.605   2.409  0.4252  0.0087 -0.3554
 6341SOL    HW130482   2.274   4.619   2.469  0.5852  1.4346 -0.4803
 6341SOL    HW230483   2.368   4.514   2.427  1.1860  0.4404  0.9633
 6342SOL     OW30484   1.350   0.854   9.080 -0.4805 -0.1282  0.0371
 6342SOL    HW130485   1.389   0.898   9.156  0.8358 -0.8933 -0.2093
 6342SOL    HW230486   1.427   0.822   9.033 -0.9892 -0.0994 -0.8026
 6343SOL     OW30487   3.786   1.698  11.203  0.4672 -0.0830  0.6651
 6343SOL    HW130488   3.739   1.711  11.121  2.5714  3.7874  0.0540
 6343SOL    HW230489   3.764   1.609  11.227  1.2135 -0.1245  1.2046
 6344SOL     OW30490   4.517   0.227  12.537 -0.4507 -0.1852 -0.3655
 6344SOL    HW130491   4.456   0.228  12.464  1.0570 -0.7477 -1.6467
 6344SOL    HW230492   4.597   0.248  12.488  1.3662 -0.0896  2.6294
 6345SOL     OW30493   0.650   2.333   6.769  0.1327 -0.1877 -0.4429
 6345SOL    HW130494   0.701   2.410   6.793  1.9897 -1.8938  1.0180
 6345SOL    HW230495   0.674   2.272   6.839 -1.0051 -3.8459 -3.2440
 6346SOL     OW30496   3.700   4.181  16.544  0.0277  0.2898 -0.5662
 6346SOL    HW130497   3.627   4.241  16.557  0.1831  0.7140 -1.6394
 6346SOL    HW230498   3.676   4.106  16.598 -0.7194  0.9884  0.0684
 6347SOL     OW30499   0.185   3.823  16.188 -0.3416  0.2327  0.1816
 6347SOL    HW130500   0.265   3.785  16.224 -0.5140  0.1018  0.4314
 6347SOL    HW230501   0.224   3.874  16.117 -1.8177  0.3571 -0.5538
 6348SOL     OW30502   4.190   2.779   1.090 -0.1301 -0.0132  0.2319
 6348SOL    HW130503   4.213   2.803   1.000  0.6205 -2.5428 -0.2364
 6348SOL    HW230504   4.235   2.853   1.131 -0.4706  0.3352 -0.0254
 6349SOL     OW30505   1.931   2.442  15.084 -0.2599 -0.0424 -0.0212
 6349SOL    HW130506   1.858   2.495  15.053 -1.1452 -1.1698  0.1297
 6349SOL    HW230507   1.922   2.444  15.179 -0.3073 -1.8096  0.0089
 6350SOL     OW30508   0.333   1.057   0.357  0.2912  0.2737 -0.2720
 6350SOL    HW130509   0.247   1.016   0.356  0.9291 -1.1348  2.9098
 6350SOL    HW230510   0.350   1.057   0.451  0.1173 -0.4306 -0.2381
 6351SOL     OW30511   2.389   2.170   1.409 -0.1347  0.0464 -1.0318
 6351SOL    HW130512   2.471   2.166   1.457 -0.2561 -1.4645 -0.9272
 6351SOL    HW230513   2.355   2.080   1.414  1.0850 -0.2405  1.8807
 6352SOL     OW30514   2.805   3.306   8.683 -0.4509 -0.4765  0.1657
 6352SOL    HW130515   2.861   3.254   8.626 -0.1494  1.9241 -1.7454
 6352SOL    HW230516   2.841   3.294   8.771 -1.8258 -1.1590  0.6272
 6353SOL     OW30517   4.635   1.414  17.635  0.2149 -0.0653  0.0402
 6353SOL    HW130518   4.721   1.432  17.599 -0.4697  2.0564 -0.5108
 6353SOL    HW230519   4.641   1.449   0.029  2.3515  2.2850 -1.0390
 6354SOL     OW30520   0.873   4.370   0.960 -0.1805 -0.5793  0.3085
 6354SOL    HW130521   0.877   4.407   0.871  1.0136 -0.6078  0.3569
 6354SOL    HW230522   0.967   4.358   0.975  0.0203  3.2452  2.3329
 6355SOL     OW30523   1.164   1.688   3.547  0.2679 -0.1516  0.0234
 6355SOL    HW130524   1.070   1.701   3.548 -0.1762 -3.1656 -0.4415
 6355SOL    HW230525   1.162   1.595   3.571 -0.8487  0.4868  2.3459
 6356SOL     OW30526   1.762   2.966  12.993  0.1599 -0.2113  0.6059
 6356SOL    HW130527   1.729   2.994  13.078 -0.6156 -1.0891  0.5813
 6356SOL    HW230528   1.723   2.879  12.990  0.4138 -0.3104  0.1623
 6357SOL     OW30529   1.865   3.292   3.929 -0.9247  0.2236  0.2300
 6357SOL    HW130530   1.869   3.201   3.962  0.3641  0.4570  0.7493
 6357SOL    HW230531   1.918   3.343   3.990  0.7506  0.7267 -1.6578
 6358SOL     OW30532   4.115   2.591   6.792 -0.3714 -0.3422 -0.0708
 6358SOL    HW130533   4.127   2.499   6.815  1.7092  0.3505  1.5961
 6358SOL    HW230534   4.122   2.634   6.878 -3.7525 -2.4003  1.2347
 6359SOL     OW30535   0.631   3.883   4.520  0.0334 -0.3117 -0.6254
 6359SOL    HW130536   0.655   3.843   4.437 -1.6528  1.0579 -1.7751
 6359SOL    HW230537   0.722   3.908   4.540  0.2246 -1.6528  0.1820
 6360SOL     OW30538   0.340   0.579   4.012  0.3942 -0.0539 -0.2417
 6360SOL    HW130539   0.379   0.598   4.098  2.5979  2.1469 -1.7390
 6360SOL    HW230540   0.408   0.611   3.953  0.6162 -4.3436 -2.2707
 6361SOL     OW30541   4.588   1.618   7.165 -0.4047 -0.1993 -0.3374
 6361SOL    HW130542   4.674   1.575   7.174 -0.8262 -0.6257  1.7143
 6361SOL    HW230543   4.524   1.552   7.139 -0.0363  0.4651 -2.8777
 6362SOL     OW30544   1.924   0.156   2.423  0.7727 -0.6748  0.4246
 6362SOL    HW130545   1.839   0.142   2.382 -0.2682  2.3483  1.5691
 6362SOL    HW230546   1.936   0.251   2.426 -4.3638 -0.0404  0.7482
 6363SOL     OW30547   1.601   2.662  10.864 -0.0710  0.3775 -0.2208
 6363SOL    HW130548   1.607   2.696  10.774  3.4457  0.5749  0.0785
 6363SOL    HW230549   1.516   2.693  10.895 -1.0692 -0.6902 -1.8704
 6364SOL     OW30550   1.899   3.343   1.884  0.5927  0.2414  0.4062
 6364SOL    HW130551   1.954   3.353   1.962  1.0981 -1.6863  0.2949
 6364SOL    HW230552   1.890   3.248   1.876 -1.4109  0.4006  0.9299
 6365SOL     OW30553   1.897   0.970   1.319  0.1018  0.5654 -0.6392
 6365SOL    HW130554   1.824   0.944   1.377  0.9259 -0.9331 -0.2598
 6365SOL    HW230555   1.853   0.990   1.237 -1.1256 -0.3485 -0.2163
 6366SOL     OW30556   2.338   3.212   8.389 -0.0846  0.1062  0.0724
 6366SOL    HW130557   2.359   3.180   8.301  1.7770  1.3176  0.0639
 6366SOL    HW230558   2.418   3.257   8.419  0.6322 -0.6025 -0.7619
 6367SOL     OW30559   1.725   4.530   8.540  0.0869  0.5320 -0.4458
 6367SOL    HW130560   1.730   4.454   8.598  0.1592  1.0560  0.2384
 6367SOL    HW230561   1.740   4.481   8.459  0.5526 -2.5155  1.4919
 6368SOL     OW30562   3.244   3.840   9.592 -0.6394  0.1248  0.4741
 6368SOL    HW130563   3.295   3.826   9.671 -0.2508 -0.7509  0.0718
 6368SOL    HW230564   3.285   3.776   9.534  0.9190  0.1331  1.5686
 6369SOL     OW30565   1.555   1.033  16.312  0.4891  0.1700 -0.3099
 6369SOL    HW130566   1.481   1.064  16.260 -1.7207 -1.8755  1.6142
 6369SOL    HW230567   1.536   1.078  16.394  0.8469 -0.3212  0.0353
 6370SOL     OW30568   2.616   3.285   5.968  0.2788  0.4211 -0.1256
 6370SOL    HW130569   2.617   3.262   6.061 -2.6014  2.9592  0.5464
 6370SOL    HW230570   2.591   3.377   5.958  1.2081  0.7858  0.9387
 6371SOL     OW30571   4.599   4.332  13.021  0.3258  0.0870 -0.1733
 6371SOL    HW130572   4.673   4.274  13.000 -2.5002 -3.7813  0.5702
 6371SOL    HW230573   4.609   4.345  13.115  0.3357  1.0892 -0.3104
 6372SOL     OW30574   4.088   2.764  10.458  0.3035 -0.4410 -0.4654
 6372SOL    HW130575   4.177   2.787  10.482 -0.3539 -1.0923  2.5682
 6372SOL    HW230576   4.033   2.801  10.527  1.9320 -1.9537  1.6289
 6373SOL     OW30577   0.067   1.225  11.898 -0.0611 -0.3014  0.5159
 6373SOL    HW130578   0.089   1.246  11.807 -1.6439 -0.3357  0.1240
 6373SOL    HW230579   4.695   1.218  11.905 -0.0720 -0.5842  0.0292
 6374SOL     OW30580   2.638   2.796   2.683 -0.5060  0.3633  0.3920
 6374SOL    HW130581   2.718   2.844   2.703 -0.8617  1.8196 -1.7124
 6374SOL    HW230582   2.630   2.790   2.588  1.8987 -0.9324  0.2617
 6375SOL     OW30583   0.543   4.607  17.635  0.6778  0.4206  0.0849
 6375SOL    HW130584   0.595   4.574  17.562  1.2109  0.3090  0.5142
 6375SOL    HW230585   0.602   4.616   0.015  0.0609  1.1557  0.4831
 6376SOL     OW30586   2.977   3.936   5.099 -0.5926 -0.4461 -0.3035
 6376SOL    HW130587   3.019   3.911   5.181 -4.0719 -0.1456  1.5882
 6376SOL    HW230588   3.009   3.866   5.042  1.7077 -1.3102  2.0701
 6377SOL     OW30589   4.612   3.101  11.416  0.1583  0.5490 -0.2374
 6377SOL    HW130590   4.633   3.151  11.495 -2.3643  0.6409  0.3712
 6377SOL    HW230591   4.523   3.132  11.398 -0.2677 -0.2108  0.5127
 6378SOL     OW30592   0.462   4.684   2.495  0.1482 -0.0856  0.4572
 6378SOL    HW130593   0.407   4.632   2.437 -1.8059  0.2119  2.0645
 6378SOL    HW230594   0.542   4.688   2.442  0.1244 -0.2013  0.4142
 6379SOL     OW30595   3.553   4.304   9.222 -0.3827 -0.0158 -0.5013
 6379SOL    HW130596   3.476   4.299   9.164 -0.7023 -1.5072  0.0616
 6379SOL    HW230597   3.533   4.390   9.258  4.0711  0.1125  1.5321
 6380SOL     OW30598   0.801   2.214  14.647  0.2957  0.3051 -0.0350
 6380SOL    HW130599   0.840   2.301  14.643  1.2191 -0.0290  1.9245
 6380SOL    HW230600   0.872   2.165  14.688 -0.8005 -0.5218  0.8888
 6381SOL     OW30601   4.004   0.987   4.398  0.8161  0.7191  0.0243
 6381SOL    HW130602   4.003   0.928   4.474 -0.1039  1.1603  0.3496
 6381SOL    HW230603   4.056   0.934   4.337  0.7163  0.8965 -0.2135
 6382SOL     OW30604   3.606   3.229   7.402  0.3908 -0.1327 -0.0033
 6382SOL    HW130605   3.517   3.205   7.428 -1.0351  1.7269 -3.1391
 6382SOL    HW230606   3.637   3.270   7.482  0.9597  1.3812 -1.0123
 6383SOL     OW30607   3.438   3.849   5.066  0.0980  0.9483  0.4643
 6383SOL    HW130608   3.456   3.938   5.035  2.1403  0.1650 -0.5964
 6383SOL    HW230609   3.459   3.858   5.159  2.1031 -0.3076  0.1211
 6384SOL     OW30610   1.291   1.694   3.184  0.4301  0.1566 -0.2030
 6384SOL    HW130611   1.382   1.688   3.153  0.1391 -1.0764 -0.8327
 6384SOL    HW230612   1.316   1.684   3.276 -0.2653 -2.0742 -0.2540
 6385SOL     OW30613   2.173   4.326   6.156 -0.0652 -0.3916  0.3425
 6385SOL    HW130614   2.079   4.338   6.171 -0.4763 -1.2191 -1.5585
 6385SOL    HW230615   2.162   4.260   6.088 -0.9992 -1.4173  1.5057
 6386SOL     OW30616   0.979   0.224   2.087 -0.1767 -0.0326  0.1404
 6386SOL    HW130617   0.949   0.285   2.018 -0.3004 -1.4433 -1.0618
 6386SOL    HW230618   0.894   0.191   2.116 -1.1448  0.8392 -1.6483
 6387SOL     OW30619   0.040   2.650   2.218 -0.2725  0.0292 -0.4010
 6387SOL    HW130620   4.683   2.599   2.224 -0.0715 -0.3010 -0.5369
 6387SOL    HW230621   0.094   2.597   2.276 -0.5606  0.0868 -0.0809
 6388SOL     OW30622   4.177   4.562  11.047 -0.0555 -0.7919  0.6821
 6388SOL    HW130623   4.190   4.470  11.024  2.9059 -0.3732  0.6482
 6388SOL    HW230624   4.082   4.577  11.047 -0.0186 -0.5144 -2.1903
 6389SOL     OW30625   3.678   4.155  11.132 -0.0412  0.0337 -0.1405
 6389SOL    HW130626   3.592   4.114  11.140  0.2355 -0.5445 -0.1410
 6389SOL    HW230627   3.695   4.140  11.039 -2.6188 -0.0685 -0.6027
 6390SOL     OW30628   0.788   4.591   3.218 -0.3139 -0.5098  0.5814
 6390SOL    HW130629   0.821   4.660   3.275 -0.8396  0.0228  0.2338
 6390SOL    HW230630   0.870   4.541   3.215 -0.1512 -0.1531 -0.7888
 6391SOL     OW30631   3.307   2.266   8.823 -0.5854 -0.3162 -0.3157
 6391SOL    HW130632   3.369   2.304   8.885  1.0005 -3.0406 -0.2796
 6391SOL    HW230633   3.355   2.188   8.796 -0.7695 -1.1151  1.6223
 6392SOL     OW30634   1.171   3.086  10.922 -0.9204  0.6981 -0.0004
 6392SOL    HW130635   1.136   3.003  10.888 -1.0095  1.6676 -2.2445
 6392SOL    HW230636   1.124   3.098  11.005  0.5776  1.2197  0.7665
 6393SOL     OW30637   0.149   3.364   9.938  0.0396 -0.5395  0.0341
 6393SOL    HW130638   0.061   3.361   9.901  0.6458 -3.1582 -1.1952
 6393SOL    HW230639   0.135   3.385  10.030  1.3848 -0.3161  0.1848
 6394SOL     OW30640   2.340   3.348   5.420 -0.4210  0.0329  0.0005
 6394SOL    HW130641   2.307   3.319   5.506 -1.4165  2.5523  0.4778
 6394SOL    HW230642   2.358   3.438   5.448 -1.4591 -0.2496  1.6378
 6395SOL     OW30643   0.420   1.494  16.218  0.2248 -0.3138  0.0176
 6395SOL    HW130644   0.416   1.456  16.130 -2.3211 -2.3728  1.0352
 6395SOL    HW230645   0.389   1.420  16.270 -3.1224  0.9767 -0.1377
 6396SOL     OW30646   2.380   2.069  13.684 -0.1608 -0.3209  0.5272
 6396SOL    HW130647   2.340   2.032  13.605  1.7316  1.0972 -1.0666
 6396SOL    HW230648   2.363   2.002  13.751  0.6489 -1.2714 -0.2112
 6397SOL     OW30649   3.934   2.656   4.910  0.3366  0.1146 -0.5095
 6397SOL    HW130650   4.017   2.617   4.882 -0.3336 -1.4812 -0.2524
 6397SOL    HW230651   3.871   2.607   4.857  0.6527 -0.7759 -0.0526
 6398SOL     OW30652   0.727   0.470   3.478  0.0297  0.3482  0.1285
 6398SOL    HW130653   0.788   0.452   3.407  0.1696  2.1693 -0.2148
 6398SOL    HW230654   0.658   0.414   3.443 -1.4323  1.5902  0.9661
 6399SOL     OW30655   2.127   4.199   8.618  0.9228 -0.4386 -0.4536
 6399SOL    HW130656   2.154   4.112   8.646  1.9563  0.0446  0.0454
 6399SOL    HW230657   2.038   4.207   8.654  1.7689  0.9368  1.3374
 6400SOL     OW30658   0.199   2.740  11.153  0.1903 -0.6096  0.2913
 6400SOL    HW130659   0.136   2.787  11.208  1.4386  0.1034  1.1068
 6400SOL    HW230660   0.232   2.818  11.108  1.4448 -1.2130  0.1826
 6401SOL     OW30661   2.970   1.464   7.118  0.1709  0.1859  0.1200
 6401SOL    HW130662   2.967   1.397   7.050 -0.6529  1.3218 -0.9649
 6401SOL    HW230663   2.919   1.533   7.076 -0.9064 -0.6598  0.0246
 6402SOL     OW30664   2.497   3.537   2.671  0.2922 -0.3860 -0.1173
 6402SOL    HW130665   2.552   3.458   2.668  0.3490 -0.4072  1.5588
 6402SOL    HW230666   2.412   3.496   2.684  0.5536 -0.4288  1.5333
 6403SOL     OW30667   1.194   4.466   7.850 -0.5012 -0.5602 -0.3890
 6403SOL    HW130668   1.221   4.376   7.832  0.5190 -0.3298  0.0026
 6403SOL    HW230669   1.204   4.474   7.945 -4.2273 -0.3882 -0.0124
 6404SOL     OW30670   0.456   4.093   0.214  0.2508 -0.6094  0.1985
 6404SOL    HW130671   0.551   4.086   0.214  0.3304  0.4673  0.7773
 6404SOL    HW230672   0.437   3.999   0.210  0.4311 -0.6892  1.4532
 6405SOL     OW30673   0.990   0.507   4.750 -0.0134  0.2392  0.0573
 6405SOL    HW130674   0.917   0.527   4.692  0.2849 -2.4046 -1.2065
 6405SOL    HW230675   1.056   0.565   4.711  1.8865 -1.0014  1.4401
 6406SOL     OW30676   2.519   0.095  17.693  0.5435  0.2350  0.1716
 6406SOL    HW130677   2.557   0.144   0.072  1.9391 -1.1396  0.3682
 6406SOL    HW230678   2.523   0.013   0.046 -0.5062  0.6004  0.8830
 6407SOL     OW30679   3.550   1.279   7.035  0.9205 -0.1314  0.4453
 6407SOL    HW130680   3.529   1.220   7.107  1.8371 -0.2048  0.6461
 6407SOL    HW230681   3.635   1.243   7.011  1.3441  2.5972 -2.1807
 6408SOL     OW30682   0.047   2.552  12.023 -0.1180  0.0602  0.5020
 6408SOL    HW130683   0.005   2.469  11.998 -0.5177  0.6334 -0.7211
 6408SOL    HW230684   0.094   2.569  11.942  2.1017  1.3286  2.0707
 6409SOL     OW30685   4.353   0.913   0.120 -0.0126  0.0182 -0.4627
 6409SOL    HW130686   4.374   0.998   0.157 -1.1140 -1.1625  2.8226
 6409SOL    HW230687   4.279   0.937   0.064 -1.2112 -2.0455  0.1987
 6410SOL     OW30688   2.880   1.423   6.825 -0.3903 -0.7107 -0.2628
 6410SOL    HW130689   2.888   1.406   6.731 -3.0910 -1.5084 -0.3433
 6410SOL    HW230690   2.889   1.338   6.866 -1.9230 -0.4233  0.6572
 6411SOL     OW30691   3.487   0.599   9.832  0.2380 -0.0679  0.8899
 6411SOL    HW130692   3.429   0.524   9.817  0.1103  0.6198 -2.0332
 6411SOL    HW230693   3.477   0.642   9.747  0.2704  1.7618  1.8164
 6412SOL     OW30694   3.630   2.831  14.805  0.1402  1.1137 -0.4397
 6412SOL    HW130695   3.536   2.838  14.791  0.0472 -1.6606 -1.3261
 6412SOL    HW230696   3.643   2.889  14.879  0.0368 -1.7459  1.8223
 6413SOL     OW30697   2.097   1.438   5.277 -0.4915 -0.2399  0.2095
 6413SOL    HW130698   2.072   1.527   5.304 -0.9150 -0.1158 -0.5949
 6413SOL    HW230699   2.124   1.398   5.360 -2.0181  2.8903  2.2248
 6414SOL     OW30700   1.924   2.527   6.024  0.5732 -0.0180 -0.5589
 6414SOL    HW130701   1.840   2.547   5.983 -0.0078 -0.7533  0.2689
 6414SOL    HW230702   1.988   2.587   5.986 -0.4316  1.0164 -0.6341
 6415SOL     OW30703   0.713   1.041   3.945  0.0420  0.2742 -0.2590
 6415SOL    HW130704   0.674   1.114   3.898 -0.4546  0.4852  0.4964
 6415SOL    HW230705   0.721   0.973   3.878  4.4860  3.0857 -2.5799
 6416SOL     OW30706   0.330   4.140   1.201 -0.3809 -0.0506 -0.4428
 6416SOL    HW130707   0.376   4.071   1.154 -1.7764 -1.5775  0.4415
 6416SOL    HW230708   0.251   4.103   1.240 -0.3449  1.5321  1.1374
 6417SOL     OW30709   0.737   3.059  12.408  0.6462  0.0856 -0.3675
 6417SOL    HW130710   0.716   3.123  12.340 -1.1902  0.2593  0.3785
 6417SOL    HW230711   0.657   3.007  12.409  0.3716  0.5129 -0.1867
 6418SOL     OW30712   4.509   1.621   5.568  0.5164  0.2414 -0.3914
 6418SOL    HW130713   4.465   1.689   5.620 -1.6577 -0.7057 -1.0115
 6418SOL    HW230714   4.512   1.659   5.481 -2.2801 -1.4958 -1.2318
 6419SOL     OW30715   1.746   0.415   6.486 -0.1868  0.0611 -0.2233
 6419SOL    HW130716   1.704   0.461   6.559 -0.2673 -0.1418 -0.1442
 6419SOL    HW230717   1.673   0.383   6.432  0.7975  0.6721 -1.9284
 6420SOL     OW30718   4.092   4.281   1.721 -0.0028  0.3756 -0.3199
 6420SOL    HW130719   4.018   4.319   1.768 -0.6984 -1.5923  0.1833
 6420SOL    HW230720   4.151   4.259   1.793  1.9756  0.3516 -1.9362
 6421SOL     OW30721   3.994   2.495   6.573 -0.2555 -0.0976  0.0450
 6421SOL    HW130722   4.026   2.552   6.644  1.6310 -0.2470 -0.6855
 6421SOL    HW230723   4.076   2.463   6.537 -1.4812 -1.4340 -1.5307
 6422SOL     OW30724   4.611   2.347   9.015 -0.0879  0.2359  0.4375
 6422SOL    HW130725   4.664   2.344   8.936 -1.3960  2.0512 -0.5012
 6422SOL    HW230726   4.667   2.306   9.081  0.2786  2.2289  1.3605
 6423SOL     OW30727   1.131   4.670   3.813 -0.5544 -0.4870 -0.0462
 6423SOL    HW130728   1.207   0.003   3.803 -0.4430 -0.8277 -1.1077
 6423SOL    HW230729   1.076   0.004   3.866  0.2166  0.1290  0.0804
 6424SOL     OW30730   0.443   4.439   9.783  0.2744  0.0564  0.3010
 6424SOL    HW130731   0.521   4.385   9.770  0.0218  0.0864 -1.3247
 6424SOL    HW230732   0.386   4.395   9.720  0.0174  2.9990 -1.5316
 6425SOL     OW30733   0.297   1.450   4.521  0.0963 -0.1294 -0.0071
 6425SOL    HW130734   0.249   1.415   4.596 -1.5208  1.1915 -0.4255
 6425SOL    HW230735   0.251   1.527   4.488  1.5501  1.1116  0.8691
 6426SOL     OW30736   4.444   4.060   0.551 -0.3696 -0.0390  0.6864
 6426SOL    HW130737   4.426   4.153   0.538  0.1962  0.0332  0.4109
 6426SOL    HW230738   4.472   4.039   0.462 -1.4812 -0.4668  0.4399
 6427SOL     OW30739   4.084   1.491   9.078  0.3180  0.1773  0.5591
 6427SOL    HW130740   4.124   1.578   9.077 -1.7862  1.1044 -1.4819
 6427SOL    HW230741   4.135   1.448   9.147  1.7101 -1.8923 -1.7799
 6428SOL     OW30742   0.556   1.302   5.371 -0.1341  0.2352  0.3850
 6428SOL    HW130743   0.481   1.342   5.328  1.5710  2.6531 -0.3693
 6428SOL    HW230744   0.568   1.353   5.451 -1.8686 -0.3705  1.0203
 6429SOL     OW30745   1.923   3.764   8.371 -0.1055  0.0519  0.2191
 6429SOL    HW130746   1.831   3.740   8.382 -0.6515  2.4552  1.0989
 6429SOL    HW230747   1.920   3.774   8.276 -2.4471  2.4665  0.5400
 6430SOL     OW30748   2.947   3.563   8.585 -0.2222 -0.8882 -0.0508
 6430SOL    HW130749   2.900   3.484   8.560  0.3296 -1.0089 -0.7232
 6430SOL    HW230750   2.994   3.551   8.667 -1.3498  0.8391  0.8362
 6431SOL     OW30751   4.142   2.708  13.948  0.1303  0.4071  0.6348
 6431SOL    HW130752   4.228   2.670  13.966 -0.3151 -1.0132 -0.2404
 6431SOL    HW230753   4.110   2.702  14.038 -3.0364  0.8821 -0.4739
 6432SOL     OW30754   1.400   0.631   2.937  0.3156  0.3458  0.3246
 6432SOL    HW130755   1.345   0.567   2.892  2.2898 -1.1829  0.1225
 6432SOL    HW230756   1.342   0.657   3.009 -0.9278 -0.7775 -0.2696
 6433SOL     OW30757   4.015   3.874   2.421 -0.1206 -0.4169  0.1652
 6433SOL    HW130758   3.960   3.841   2.350 -2.0468  0.7165  1.1174
 6433SOL    HW230759   3.961   3.942   2.462 -1.1567 -0.8154 -0.5570
 6434SOL     OW30760   1.405   0.905   6.360  0.0769 -0.0642 -0.6197
 6434SOL    HW130761   1.350   0.983   6.374 -1.5081 -1.5962  1.5863
 6434SOL    HW230762   1.478   0.942   6.311  1.0144  0.5292  1.2217
 6435SOL     OW30763   4.347   1.408   0.424 -0.2699  0.3080 -0.7255
 6435SOL    HW130764   4.349   1.491   0.472 -3.0204  0.6893 -1.2568
 6435SOL    HW230765   4.264   1.375   0.458 -0.2830  0.2620 -0.8016
 6436SOL     OW30766   1.096   3.769   4.286  0.4420  0.4766  0.1827
 6436SOL    HW130767   1.112   3.771   4.192 -2.3115 -0.8782 -0.2910
 6436SOL    HW230768   1.148   3.844   4.317  2.2397 -0.6845  0.0195
 6437SOL     OW30769   2.117   3.007   8.956  0.5850  0.4510  0.3147
 6437SOL    HW130770   2.150   2.918   8.946  1.8983  1.0440 -0.6444
 6437SOL    HW230771   2.023   2.992   8.964  0.2998  2.6605  0.9578
 6438SOL     OW30772   2.271   3.966   2.812  0.3288  0.0453 -0.3282
 6438SOL    HW130773   2.263   4.028   2.885 -2.6139 -1.3806  0.5538
 6438SOL    HW230774   2.181   3.956   2.779  0.6831  1.2707 -1.6921
 6439SOL     OW30775   3.049   3.937   1.895 -0.0021  0.4547  0.1645
 6439SOL    HW130776   3.009   4.002   1.953  0.6222  2.1407 -1.2948
 6439SOL    HW230777   3.007   3.944   1.810  2.3207  3.3401 -0.7580
 6440SOL     OW30778   0.178   3.195   4.029 -0.1880 -0.2475  0.5760
 6440SOL    HW130779   0.273   3.203   4.040 -0.2367  0.0606  0.7727
 6440SOL    HW230780   0.142   3.248   4.100 -0.4612 -0.5818  0.6890
 6441SOL     OW30781   0.121   4.307   6.498  0.6819  0.3275 -0.1443
 6441SOL    HW130782   0.190   4.342   6.554  0.9353  1.1309 -0.9731
 6441SOL    HW230783   0.047   4.352   6.540 -0.6835 -0.5211 -1.6436
 6442SOL     OW30784   4.704   0.834   7.221  0.3767 -0.2738  0.0684
 6442SOL    HW130785   0.071   0.853   7.247  0.3611 -1.0666  0.7242
 6442SOL    HW230786   4.662   0.866   7.302 -0.9893 -1.1666 -0.2780
 6443SOL     OW30787   0.561   1.140   2.091  0.0976 -0.2226 -0.0382
 6443SOL    HW130788   0.601   1.064   2.134 -0.5498 -1.7371 -2.0885
 6443SOL    HW230789   0.499   1.105   2.027  1.6998 -0.0235 -1.7409
 6444SOL     OW30790   1.084   3.688   5.031  0.0353  0.1035 -0.2021
 6444SOL    HW130791   1.109   3.766   4.980  0.6095 -0.9302 -1.4935
 6444SOL    HW230792   1.076   3.615   4.970 -0.8201 -0.0596  0.1138
 6445SOL     OW30793   0.320   3.689   6.829 -1.3302  0.0913 -0.0001
 6445SOL    HW130794   0.292   3.750   6.897  1.3294  0.4548  0.7551
 6445SOL    HW230795   0.363   3.746   6.765 -0.5809  0.1518  0.5642
 6446SOL     OW30796   1.262   3.311   6.503 -0.4776 -0.0334 -0.2071
 6446SOL    HW130797   1.273   3.270   6.417  1.1132 -0.6339  0.2895
 6446SOL    HW230798   1.166   3.314   6.509 -0.5155 -0.7345 -0.5480
 6447SOL     OW30799   3.763   3.404   7.033  0.0838 -0.4203 -0.2767
 6447SOL    HW130800   3.786   3.331   7.091  2.1438  0.6178  0.2214
 6447SOL    HW230801   3.829   3.395   6.965 -0.1253  0.7274 -0.6351
 6448SOL     OW30802   3.896   0.046   7.742  0.6915 -0.0511 -0.3077
 6448SOL    HW130803   3.948   0.040   7.822 -0.1414  3.0197  0.4549
 6448SOL    HW230804   3.967   0.027   7.682 -2.0005 -0.4101 -3.3876
 6449SOL     OW30805   3.363   2.598   7.202 -0.2191 -0.0553  0.4428
 6449SOL    HW130806   3.305   2.588   7.127 -0.2046  1.5385  0.2105
 6449SOL    HW230807   3.306   2.605   7.278  1.6123  0.7395  1.7363
 6450SOL     OW30808   1.869   1.317  14.108 -0.2694  0.8193 -0.6216
 6450SOL    HW130809   1.957   1.282  14.118  0.3519  1.7865 -2.6957
 6450SOL    HW230810   1.852   1.320  14.014  0.3178  0.3646 -0.7400
 6451SOL     OW30811   2.252   3.984   4.966 -0.0868  0.4577  0.0516
 6451SOL    HW130812   2.306   3.947   4.897 -0.4237 -0.1550  0.1131
 6451SOL    HW230813   2.295   4.069   4.966 -0.9280  0.8679 -1.2395
 6452SOL     OW30814   4.434   0.531   5.873 -0.2203 -0.1642 -0.6171
 6452SOL    HW130815   4.458   0.451   5.920 -1.3875 -0.4493 -0.5252
 6452SOL    HW230816   4.514   0.562   5.829  1.0420  1.3508  2.7306
 6453SOL     OW30817   3.926   0.649   5.347 -0.4436  0.4744  0.4492
 6453SOL    HW130818   3.957   0.597   5.273  0.6837 -0.0305  1.2766
 6453SOL    HW230819   3.832   0.634   5.336 -0.3111 -0.7228  0.9307
 6454SOL     OW30820   3.123   2.357   8.277  0.1169 -0.0170 -0.1422
 6454SOL    HW130821   3.122   2.335   8.184  1.0145 -0.5305 -0.0435
 6454SOL    HW230822   3.116   2.267   8.309  0.0398  0.5353  1.3960
 6455SOL     OW30823   0.125   0.924   3.178 -0.5624  0.4561  0.3912
 6455SOL    HW130824   0.061   0.972   3.126 -0.8343 -0.7522 -0.3818
 6455SOL    HW230825   0.213   0.935   3.141 -0.0538 -0.8157  1.2200
 6456SOL     OW30826   1.656   1.711   6.760  0.3966 -0.2178 -0.3022
 6456SOL    HW130827   1.731   1.668   6.800 -2.6532 -3.2807  2.1762
 6456SOL    HW230828   1.690   1.688   6.674 -1.8872 -0.2354 -1.1901
 6457SOL     OW30829   1.972   0.310   8.854  0.7549  0.2554  0.2339
 6457SOL    HW130830   1.967   0.402   8.831  2.0486  0.4448  0.7525
 6457SOL    HW230831   1.918   0.301   8.933 -0.4905  0.6092 -0.5686
 6458SOL     OW30832   3.546   1.118   4.783  0.5725  0.4793  0.0614
 6458SOL    HW130833   3.606   1.047   4.759 -0.2475  0.8313 -2.9598
 6458SOL    HW230834   3.467   1.077   4.748  0.5998 -0.4354  1.0453
 6459SOL     OW30835   4.367   2.598   3.609 -0.1086  0.5778 -0.2884
 6459SOL    HW130836   4.375   2.693   3.622 -0.6774  0.6994 -0.7853
 6459SOL    HW230837   4.277   2.575   3.631  0.0709  1.4661  1.3749
 6460SOL     OW30838   2.891   1.361   6.542  0.0164 -0.6161 -0.3332
 6460SOL    HW130839   2.815   1.412   6.514  1.7104  1.8354 -0.4707
 6460SOL    HW230840   2.941   1.350   6.461  2.0136 -1.5232  1.0118
 6461SOL     OW30841   3.306   1.590   8.328 -0.4902  0.2321 -0.0773
 6461SOL    HW130842   3.230   1.552   8.285 -1.4541  1.8234  0.2209
 6461SOL    HW230843   3.354   1.610   8.247  0.5706  1.3357  0.8059
 6462SOL     OW30844   0.953   2.020   5.894  0.0166  0.0669 -0.3582
 6462SOL    HW130845   1.020   2.025   5.825 -0.7092 -0.1757 -1.0807
 6462SOL    HW230846   1.007   1.975   5.959 -0.7192  1.6883  1.3887
 6463SOL     OW30847   0.904   2.668   3.642 -0.3606 -0.1745 -0.1201
 6463SOL    HW130848   0.811   2.682   3.622 -0.3776 -0.8119 -0.4768
 6463SOL    HW230849   0.936   2.756   3.622 -0.0552 -0.3951 -0.6041
 6464SOL     OW30850   1.460   2.050  11.597 -0.1109  0.4329 -0.1824
 6464SOL    HW130851   1.490   1.975  11.648 -1.5231 -0.6538 -0.9357
 6464SOL    HW230852   1.384   2.081  11.647  0.0805  0.4353  0.1058
 6465SOL     OW30853   3.077   1.980   6.706 -0.1195  0.2558 -0.4551
 6465SOL    HW130854   3.003   1.950   6.757 -0.1214 -1.5304 -1.5206
 6465SOL    HW230855   3.144   1.988   6.774 -2.0047 -0.8939  1.5263
 6466SOL     OW30856   0.389   0.007  13.629  0.0693  0.2938 -0.1509
 6466SOL    HW130857   0.361   4.679  13.552 -0.1336  1.9123 -1.1611
 6466SOL    HW230858   0.443   4.668  13.677 -0.4177  0.3728  0.4938
 6467SOL     OW30859   2.652   1.978   2.940  0.2473  0.2634  0.1682
 6467SOL    HW130860   2.567   2.009   2.972 -0.4379 -0.8645 -0.5794
 6467SOL    HW230861   2.672   2.037   2.868 -0.7705 -0.6582 -0.8543
 6468SOL     OW30862   1.134   4.230   8.791  0.0270 -0.0188  0.6018
 6468SOL    HW130863   1.071   4.239   8.863 -0.9245 -0.9154 -0.1192
 6468SOL    HW230864   1.157   4.319   8.764  0.6704 -0.6901 -1.0416
 6469SOL     OW30865   1.343   0.527   1.638  0.7712 -0.2723  0.0698
 6469SOL    HW130866   1.367   0.602   1.693 -2.1947 -0.4653  1.6442
 6469SOL    HW230867   1.422   0.513   1.587  0.8376  1.5425 -0.3198
 6470SOL     OW30868   0.573   3.724  13.270 -0.1321  0.6227  0.3365
 6470SOL    HW130869   0.657   3.728  13.225 -0.8634  0.3858 -1.0559
 6470SOL    HW230870   0.598   3.706  13.361 -0.9181 -0.4942  0.3251
 6471SOL     OW30871   4.099   0.757  10.173  0.4208 -0.4293 -0.1596
 6471SOL    HW130872   4.118   0.801  10.257 -1.7018  0.0330  0.0671
 6471SOL    HW230873   4.097   0.815  10.098 -1.7266 -1.2298 -0.7124
 6472SOL     OW30874   1.707   2.923   5.481 -0.4374  0.1307  0.1671
 6472SOL    HW130875   1.802   2.931   5.479 -0.5316  1.6019  2.1505
 6472SOL    HW230876   1.693   2.912   5.575 -1.1068 -0.6060 -0.0186
 6473SOL     OW30877   0.247   3.802   6.566  0.2465 -0.1775 -0.7197
 6473SOL    HW130878   0.309   3.731   6.581  0.7701  0.2962 -0.6314
 6473SOL    HW230879   0.296   3.858   6.506  0.1813 -1.0705 -1.6015
 6474SOL     OW30880   1.228   2.727   9.840  0.2462 -0.1823 -0.3078
 6474SOL    HW130881   1.223   2.747   9.934  2.0153  1.3296 -0.5334
 6474SOL    HW230882   1.135   2.723   9.818  0.5270 -1.6605 -1.1860
 6475SOL     OW30883   4.380   0.613  14.994  0.0557  0.0349  0.4730
 6475SOL    HW130884   4.310   0.609  15.059  0.7230 -0.0122  1.1823
 6475SOL    HW230885   4.457   0.571  15.032 -0.7637 -0.2726  1.7817
 6476SOL     OW30886   2.810   0.522   2.159 -0.2935  0.1964  0.2058
 6476SOL    HW130887   2.715   0.517   2.169 -0.1354  0.5147  1.8421
 6476SOL    HW230888   2.821   0.495   2.068  0.4677  2.5841 -0.4064
 6477SOL     OW30889   0.748   3.780  12.990 -0.1857  0.0630 -0.0178
 6477SOL    HW130890   0.815   3.737  12.938  1.4553  1.4322  0.9669
 6477SOL    HW230891   0.796   3.839  13.048 -0.8474  1.3246 -0.7623
 6478SOL     OW30892   0.457   3.991  15.763  0.1997 -0.2450 -0.4891
 6478SOL    HW130893   0.389   4.049  15.728  1.1764  0.2852 -1.5184
 6478SOL    HW230894   0.540   4.025  15.729  1.1787 -1.2116  0.9473
 6479SOL     OW30895   4.215   3.423   6.506 -0.1565  0.2905 -0.0106
 6479SOL    HW130896   4.206   3.472   6.588 -0.0688  1.1340 -0.5062
 6479SOL    HW230897   4.164   3.346   6.532  1.3774 -1.6216 -2.7691
 6480SOL     OW30898   4.172   4.164   5.299  0.3854  0.1057  0.1099
 6480SOL    HW130899   4.087   4.171   5.344  0.0301 -0.1463 -0.5213
 6480SOL    HW230900   4.180   4.069   5.300 -1.6253 -0.0954 -2.8352
 6481SOL     OW30901   0.833   4.678  15.745 -0.5909 -0.0927 -0.2258
 6481SOL    HW130902   0.802   4.648  15.659 -0.4786 -0.8042 -0.0182
 6481SOL    HW230903   0.867   4.594  15.776  1.2930  1.1843  1.2246
 6482SOL     OW30904   0.438   2.449   3.169 -0.4025 -0.0516  0.1403
 6482SOL    HW130905   0.385   2.445   3.090 -0.3270 -2.0276  0.1955
 6482SOL    HW230906   0.440   2.542   3.192  0.5004  0.3014 -1.3977
 6483SOL     OW30907   3.058   3.589   6.786  0.1826  0.3528  0.6062
 6483SOL    HW130908   2.981   3.551   6.744  0.3234  0.5126  0.1975
 6483SOL    HW230909   3.112   3.510   6.781 -0.5349 -0.0301 -1.2026
 6484SOL     OW30910   1.993   4.234   2.719 -0.1575  0.4737 -0.4956
 6484SOL    HW130911   1.981   4.146   2.756  3.2698  0.4699  0.5862
 6484SOL    HW230912   1.937   4.238   2.641 -1.6253 -0.2445  0.5075
 6485SOL     OW30913   0.129   2.530  16.120 -0.7052  0.8674  0.5527
 6485SOL    HW130914   0.071   2.574  16.058 -0.4244  0.6614  0.1422
 6485SOL    HW230915   0.187   2.477  16.064 -1.3317  2.2126 -1.3785
 6486SOL     OW30916   2.064   1.703   4.207 -0.1731  0.2172 -0.0531
 6486SOL    HW130917   2.072   1.760   4.283 -0.4700 -0.2405  0.3206
 6486SOL    HW230918   2.079   1.619   4.250  3.3178  1.6589  1.5206
 6487SOL     OW30919   1.743   3.397  15.476  0.3012  0.6123 -0.1505
 6487SOL    HW130920   1.815   3.390  15.413 -0.0268 -0.6537 -0.3964
 6487SOL    HW230921   1.716   3.307  15.495  2.1103  0.4558  1.6352
 6488SOL     OW30922   1.624   0.520  14.393  0.0347  0.3189  0.1711
 6488SOL    HW130923   1.576   0.548  14.471 -0.3922  0.9666 -0.3226
 6488SOL    HW230924   1.700   0.479  14.434 -0.6209  0.3610  1.4112
 6489SOL     OW30925   2.751   2.525   4.035 -0.1364  0.0293 -0.4063
 6489SOL    HW130926   2.698   2.573   4.098 -0.0212  0.8442 -0.9398
 6489SOL    HW230927   2.732   2.433   4.054 -0.0627  0.0877 -0.0382
 6490SOL     OW30928   0.112   0.575  17.687  0.1727 -0.2722  0.5932
 6490SOL    HW130929   0.202   0.577   0.024  1.0018  1.8046 -1.8639
 6490SOL    HW230930   0.066   0.653   0.025  0.8442  0.6816 -0.7672
 6491SOL     OW30931   0.439   2.596   5.120  0.3615  0.2528  0.3246
 6491SOL    HW130932   0.513   2.562   5.069 -0.2995  0.5893 -0.8461
 6491SOL    HW230933   0.400   2.658   5.059  0.7640 -0.5484 -0.7345
 6492SOL     OW30934   4.016   4.036   0.706 -0.4876 -0.5677  0.1189
 6492SOL    HW130935   4.095   4.054   0.757 -0.5921 -0.6975  0.3285
 6492SOL    HW230936   4.036   3.955   0.661  0.7042 -0.3650  0.2918
 6493SOL     OW30937   0.829   1.314  15.930  0.2155  0.5743 -0.5973
 6493SOL    HW130938   0.740   1.345  15.941 -0.2408 -0.0288 -2.6587
 6493SOL    HW230939   0.825   1.239  15.871  0.9559  0.2866 -0.2837
 6494SOL     OW30940   0.215   1.969   7.958  0.3601 -0.5526  0.0567
 6494SOL    HW130941   0.128   1.999   7.986 -0.2437  0.2032 -2.7031
 6494SOL    HW230942   0.255   2.052   7.985 -0.1854 -0.1773 -0.2876
 6495SOL     OW30943   4.376   1.423   7.462 -0.2942  0.4585  0.3198
 6495SOL    HW130944   4.347   1.447   7.550  1.6599 -0.1186  1.1329
 6495SOL    HW230945   4.434   1.349   7.478 -0.6203 -0.3665 -2.5185
 6496SOL     OW30946   3.576   4.100   4.670 -0.6239 -0.7671 -0.5096
 6496SOL    HW130947   3.599   4.103   4.577  2.0091 -0.6021  0.1659
 6496SOL    HW230948   3.501   4.040   4.661 -1.5434 -0.0003  2.2442
 6497SOL     OW30949   1.561   3.391   2.570 -0.9417  0.0504 -0.4206
 6497SOL    HW130950   1.482   3.444   2.565 -1.9372 -1.4899 -0.8626
 6497SOL    HW230951   1.528   3.307   2.537 -1.7717  0.7846 -1.4135
 6498SOL     OW30952   4.077   2.677   2.648  0.3247  0.2702  0.7623
 6498SOL    HW130953   4.138   2.618   2.604 -0.5535 -0.4798  0.5574
 6498SOL    HW230954   4.105   2.765   2.623  4.2413 -0.5694  2.0313
 6499SOL     OW30955   3.261   0.205  15.503 -0.1570 -0.0651 -0.0473
 6499SOL    HW130956   3.200   0.237  15.436  0.6441  0.2311 -0.6425
 6499SOL    HW230957   3.243   0.262  15.577 -0.1216 -1.2165  0.8566
 6500SOL     OW30958   3.918   1.224   0.121 -0.0799  0.0943 -0.2662
 6500SOL    HW130959   3.983   1.260   0.060  1.3366 -2.1858 -0.1048
 6500SOL    HW230960   3.877   1.300   0.161 -1.6047 -0.8829  0.0040
 6501SOL     OW30961   0.211   0.716   7.618  0.4732 -0.1610  0.2540
 6501SOL    HW130962   0.283   0.736   7.559  1.2674 -2.7394  0.3640
 6501SOL    HW230963   0.230   0.775   7.691 -0.8324  0.3555  0.1655
 6502SOL     OW30964   3.581   1.851  10.992 -0.6097 -0.4155  0.1517
 6502SOL    HW130965   3.587   1.874  10.899  3.4074  0.3833  0.6281
 6502SOL    HW230966   3.534   1.767  10.986 -1.0842 -0.0854 -0.7692
 6503SOL     OW30967   1.314   3.868   7.468  0.2983 -0.0215 -0.1059
 6503SOL    HW130968   1.341   3.833   7.553  0.8289  0.8773  0.0993
 6503SOL    HW230969   1.239   3.808   7.467 -0.3695  0.8331 -0.6962
 6504SOL     OW30970   0.058   3.193   9.045 -0.1063  0.3344 -0.5993
 6504SOL    HW130971   0.056   3.152   8.959  1.3046 -2.3117  0.6496
 6504SOL    HW230972   0.152   3.209   9.054 -0.1896 -0.5651  1.8925
 6505SOL     OW30973   2.187   2.712  16.178 -0.4388  0.6280 -0.0354
 6505SOL    HW130974   2.264   2.768  16.179  0.3978 -0.5500  1.6052
 6505SOL    HW230975   2.191   2.679  16.088 -0.4544  0.5363 -0.0031
 6506SOL     OW30976   2.627   3.871   9.511 -0.3480  0.0150  0.0155
 6506SOL    HW130977   2.620   3.780   9.541 -0.5795 -0.8164 -2.6175
 6506SOL    HW230978   2.622   3.860   9.417  2.0323  0.2644 -0.1466
 6507SOL     OW30979   1.799   1.555   7.294  0.9882  0.5068  0.3327
 6507SOL    HW130980   1.892   1.577   7.305  1.6450 -2.4740  0.9570
 6507SOL    HW230981   1.774   1.620   7.228 -1.3186 -1.0562 -0.3429
 6508SOL     OW30982   2.965   4.440   4.197 -0.0599  0.3433 -0.0345
 6508SOL    HW130983   3.009   4.441   4.112  0.1465  0.7460  0.0766
 6508SOL    HW230984   2.966   4.533   4.220 -2.5962  0.1653  0.7920
 6509SOL     OW30985   2.137   3.014  11.151  0.6124 -0.2134 -0.1650
 6509SOL    HW130986   2.171   2.986  11.236 -0.6971  0.4772  0.5866
 6509SOL    HW230987   2.197   3.076  11.109 -1.1287  0.0386 -2.2535
 6510SOL     OW30988   3.673   0.395   1.717 -0.0682  0.0645  0.0971
 6510SOL    HW130989   3.678   0.461   1.647 -0.5749 -0.3237 -0.3062
 6510SOL    HW230990   3.681   0.313   1.670  0.6208  0.3101 -0.2166
 6511SOL     OW30991   4.507   4.151   4.990  0.5017  0.3056 -0.2694
 6511SOL    HW130992   4.483   4.145   4.897  1.0082 -3.4653 -0.1288
 6511SOL    HW230993   4.465   4.071   5.021  0.9248  0.1117 -0.1999
 6512SOL     OW30994   2.516   3.955   1.133  0.1255 -0.0296 -0.1420
 6512SOL    HW130995   2.465   4.027   1.096 -2.1355 -2.5071 -1.9084
 6512SOL    HW230996   2.455   3.919   1.197  1.1253 -2.1901 -0.3950
 6513SOL     OW30997   3.155   0.616   4.049  0.1876 -0.2294  0.5098
 6513SOL    HW130998   3.229   0.555   4.044  0.8231  0.5039  0.9557
 6513SOL    HW230999   3.093   0.550   4.018 -1.9728  1.4773  1.1714
 6514SOL     OW31000   0.436   2.807   1.695  0.7759  0.1808  0.1497
 6514SOL    HW131001   0.388   2.838   1.618 -0.2730 -0.4183  0.5593
 6514SOL    HW231002   0.376   2.741   1.729  0.6953 -0.1561 -0.6478
 6515SOL     OW31003   3.269   0.931   8.539 -0.1519 -0.3963 -0.7132
 6515SOL    HW131004   3.201   0.975   8.590 -1.3677 -1.5861 -1.3014
 6515SOL    HW231005   3.271   0.839   8.564  0.5046 -0.0129  0.6101
 6516SOL     OW31006   2.562   1.749  12.102  0.1417  0.3346 -0.3828
 6516SOL    HW131007   2.467   1.739  12.094  0.1728 -0.8428  0.6361
 6516SOL    HW231008   2.576   1.756  12.008  0.4819  0.3312 -0.3316
 6517SOL     OW31009   4.227   3.410  13.220 -0.0742  0.7248 -0.2359
 6517SOL    HW131010   4.267   3.494  13.241  1.8091 -0.5625  1.3282
 6517SOL    HW231011   4.136   3.414  13.251 -0.8292  3.0191 -2.7694
 6518SOL     OW31012   4.038   1.546   8.813 -0.0707  0.4417 -0.1082
 6518SOL    HW131013   4.035   1.518   8.904 -1.4042 -1.3880 -0.7046
 6518SOL    HW231014   4.126   1.518   8.787  0.6106  1.6773  0.9147
 6519SOL     OW31015   0.639   4.511   5.320  0.1262  0.1007 -0.0567
 6519SOL    HW131016   0.543   4.510   5.314  0.1128 -2.6425  0.7261
 6519SOL    HW231017   0.661   4.498   5.412  2.6235 -0.1925 -0.7234
 6520SOL     OW31018   4.470   4.627   4.924 -0.3991 -0.4930  0.3935
 6520SOL    HW131019   4.429   4.541   4.914  1.2776 -1.2891  0.4293
 6520SOL    HW231020   4.463   4.658   4.834  0.6425  0.4973  0.6577
 6521SOL     OW31021   2.539   1.389   7.180  0.3266  0.1745  0.0932
 6521SOL    HW131022   2.521   1.483   7.188  3.8016  0.7011  1.6693
 6521SOL    HW231023   2.609   1.386   7.115  1.5263  0.9897  1.3343
 6522SOL     OW31024   1.895   3.739   4.348  0.0252 -0.1826  0.2115
 6522SOL    HW131025   1.832   3.809   4.364 -0.7897 -1.0844  0.9137
 6522SOL    HW231026   1.971   3.798   4.339 -0.3914  0.4103  0.5771
 6523SOL     OW31027   0.288   3.438   2.927  0.3773 -0.0562  0.4731
 6523SOL    HW131028   0.362   3.496   2.946  0.8078 -1.1414  2.1428
 6523SOL    HW231029   0.328   3.352   2.940  0.1128 -0.2224  0.2097
 6524SOL     OW31030   1.866   3.034   4.186 -0.2449 -0.9029  0.1817
 6524SOL    HW131031   1.949   3.080   4.197 -0.6680  0.4923 -2.3178
 6524SOL    HW231032   1.893   2.943   4.201  1.1712 -0.4899  0.1563
 6525SOL     OW31033   1.706   4.483   2.900  0.2999  0.2355  0.1842
 6525SOL    HW131034   1.741   4.402   2.938  1.0888  1.5125  2.2104
 6525SOL    HW231035   1.718   4.535   2.979  0.2227  0.7937 -0.1706
 6526SOL     OW31036   0.958   0.370   9.289 -0.2372 -0.3628 -0.0818
 6526SOL    HW131037   0.947   0.275   9.293 -2.4190 -0.0074  2.2919
 6526SOL    HW231038   0.981   0.382   9.381  0.4307  0.6603 -0.3738
 6527SOL     OW31039   0.861   3.611   7.071  0.0380  0.0863  0.7971
 6527SOL    HW131040   0.871   3.687   7.129 -1.9909  1.4752 -0.6707
 6527SOL    HW231041   0.829   3.541   7.128 -0.6078  1.2220  1.8229
 6528SOL     OW31042   3.103   2.656   5.799  0.4651  0.1832  0.1384
 6528SOL    HW131043   3.164   2.589   5.767 -0.2707 -1.1595  1.5109
 6528SOL    HW231044   3.028   2.601   5.821 -0.3318  1.3346  0.2861
 6529SOL     OW31045   3.105   1.850  12.307 -0.4827 -0.1168 -0.4957
 6529SOL    HW131046   3.120   1.939  12.337 -0.2476  0.3666 -2.0921
 6529SOL    HW231047   3.149   1.801  12.377  1.9586  0.2343 -1.7920
 6530SOL     OW31048   4.587   4.112   6.197  0.0796 -0.3948 -0.3532
 6530SOL    HW131049   4.586   4.082   6.106  0.5522  1.8369 -1.0800
 6530SOL    HW231050   4.652   4.058   6.242 -0.0087  0.2149  0.5182
 6531SOL     OW31051   2.779   2.540   3.761  0.0514  0.3480  0.1127
 6531SOL    HW131052   2.810   2.560   3.849  0.3324 -0.5891  0.2249
 6531SOL    HW231053   2.863   2.507   3.729 -0.4887  0.3307 -1.2892
 6532SOL     OW31054   2.297   1.587  15.787  0.2719  0.7622 -0.0943
 6532SOL    HW131055   2.295   1.682  15.771 -1.8068  0.5973 -0.8848
 6532SOL    HW231056   2.254   1.569  15.871  0.3252  0.9847 -0.0184
 6533SOL     OW31057   3.960   4.576   2.276  0.3227 -0.0830  0.1635
 6533SOL    HW131058   4.053   4.554   2.281  0.2326 -0.8199 -1.3407
 6533SOL    HW231059   3.922   4.497   2.239  1.4731 -1.0974  1.1466
 6534SOL     OW31060   2.629   3.274   9.989 -0.1021 -0.6501 -0.0899
 6534SOL    HW131061   2.596   3.238  10.072  0.4939  0.2421  0.5350
 6534SOL    HW231062   2.707   3.222   9.969 -0.3549 -0.5735 -1.2917
 6535SOL     OW31063   1.482   0.403   8.680  0.6634  0.5345 -0.5965
 6535SOL    HW131064   1.454   0.342   8.612  1.1445 -2.1800  1.6427
 6535SOL    HW231065   1.497   0.478   8.623  2.3649  0.1910 -0.5856
 6536SOL     OW31066   2.173   4.038   5.704  0.1404 -0.2336 -0.2066
 6536SOL    HW131067   2.175   3.966   5.767 -0.8835 -1.2088 -1.2830
 6536SOL    HW231068   2.084   4.018   5.674 -0.7327  1.1334  1.5145
 6537SOL     OW31069   0.833   2.586   7.529  0.2114 -0.0085 -0.1556
 6537SOL    HW131070   0.803   2.677   7.536  1.1067  0.3171 -0.5296
 6537SOL    HW231071   0.840   2.552   7.618  1.5793  1.6179  0.3578
 6538SOL     OW31072   4.624   0.801   6.018  0.4690 -0.4313  0.2255
 6538SOL    HW131073   4.530   0.818   6.021  0.5051  0.1306 -2.1883
 6538SOL    HW231074   4.655   0.860   5.950 -0.9984 -0.7105 -0.6942
 6539SOL     OW31075   2.376   0.067  11.569 -0.2021 -0.2154  0.1963
 6539SOL    HW131076   2.387   0.049  11.476  1.1118  0.9357  0.1189
 6539SOL    HW231077   2.313   0.139  11.566 -1.3605 -1.2109  0.6930
 6540SOL     OW31078   0.694   3.998   5.126 -0.1145 -0.3230 -0.4474
 6540SOL    HW131079   0.709   4.081   5.081  0.2617 -1.0571 -1.6582
 6540SOL    HW231080   0.623   3.959   5.076  1.3403 -3.1133 -0.3273
 6541SOL     OW31081   3.028   3.290   8.234  0.3637  0.1882  0.1521
 6541SOL    HW131082   3.058   3.381   8.236 -1.0067  0.6534 -0.4514
 6541SOL    HW231083   3.082   3.253   8.303  0.4186  1.2786  0.6800
 6542SOL     OW31084   3.470   3.486   5.190 -0.4843  0.5068  0.4332
 6542SOL    HW131085   3.443   3.411   5.137 -1.6168  1.6645 -0.6263
 6542SOL    HW231086   3.506   3.548   5.128 -1.6253 -0.2127 -0.9515
 6543SOL     OW31087   1.309   4.016   8.408 -0.2799 -0.0035  0.0213
 6543SOL    HW131088   1.350   4.089   8.453 -0.9264  0.1134  0.4145
 6543SOL    HW231089   1.357   4.027   8.326 -0.2561  1.7333  0.2717
 6544SOL     OW31090   2.815   4.599   2.532  0.2847  0.1798 -0.7800
 6544SOL    HW131091   2.899   4.585   2.489  0.9022 -3.0315  1.4827
 6544SOL    HW231092   2.795   4.690   2.511  0.4321  0.1921 -0.8631
 6545SOL     OW31093   1.488   0.907   2.860 -0.3501  0.0269 -0.3328
 6545SOL    HW131094   1.424   0.901   2.790  0.4346 -0.3662 -1.0183
 6545SOL    HW231095   1.432   0.924   2.936  0.0860  0.3334 -0.0769
 6546SOL     OW31096   0.854   1.576  17.375 -0.2141 -0.3813  0.3029
 6546SOL    HW131097   0.807   1.653  17.342 -0.6055 -0.2362  1.1863
 6546SOL    HW231098   0.801   1.508  17.333 -1.9100 -0.5123  2.6582
 6547SOL     OW31099   4.603   0.864   4.853  0.7208 -0.8630 -0.3673
 6547SOL    HW131100   4.566   0.948   4.827  0.7520 -1.0893 -1.1219
 6547SOL    HW231101   4.573   0.860   4.944  4.4579 -1.2717  0.8725
 6548SOL     OW31102   0.527   2.471   7.362 -0.0275 -0.0278 -0.2635
 6548SOL    HW131103   0.603   2.498   7.414 -0.1340  1.0938 -0.6752
 6548SOL    HW231104   0.562   2.471   7.272  4.5809 -1.1808  1.5265
 6549SOL     OW31105   3.974   2.544   4.493 -0.0361 -0.5193 -0.1576
 6549SOL    HW131106   3.894   2.574   4.449 -0.4218 -0.3607  0.6553
 6549SOL    HW231107   3.933   2.508   4.571  2.5093  1.7310  2.1906
 6550SOL     OW31108   0.923   1.372   1.009  0.0808  0.2259  0.5158
 6550SOL    HW131109   0.871   1.426   0.948 -1.2258 -1.1216  0.4299
 6550SOL    HW231110   0.905   1.430   1.083 -2.1581  0.6348 -0.3340
 6551SOL     OW31111   3.160   3.976  11.255  0.1721  0.2563 -0.1415
 6551SOL    HW131112   3.191   4.066  11.245 -1.4416  0.9074  0.6646
 6551SOL    HW231113   3.141   3.946  11.167  4.4867 -0.2912 -0.8792
 6552SOL     OW31114   2.753   2.090  10.414 -0.3403  0.7665 -0.7175
 6552SOL    HW131115   2.683   2.042  10.370  0.5227 -0.8449 -0.3031
 6552SOL    HW231116   2.796   2.022  10.465 -0.9871  2.8678  2.6364
 6553SOL     OW31117   1.428   2.565   6.882  0.0445  0.2275 -0.3585
 6553SOL    HW131118   1.378   2.630   6.932  0.6098  1.7014 -1.6920
 6553SOL    HW231119   1.377   2.484   6.879  2.2523 -1.1711 -0.0431
 6554SOL     OW31120   2.122   2.972   3.877 -0.7957  0.6557  0.4282
 6554SOL    HW131121   2.114   3.031   3.953 -2.0702  0.6154  0.3304
 6554SOL    HW231122   2.134   2.887   3.919 -2.4220  0.9863  1.5814
 6555SOL     OW31123   1.548   1.110   5.359  0.0439  0.2655 -0.1511
 6555SOL    HW131124   1.531   1.036   5.300 -0.5026  2.8610 -3.2504
 6555SOL    HW231125   1.625   1.074   5.403  0.7215 -0.5990 -2.0582
 6556SOL     OW31126   2.411   0.300   7.096 -0.6421 -0.4938  0.3431
 6556SOL    HW131127   2.364   0.226   7.056  0.2539 -0.6970 -0.3253
 6556SOL    HW231128   2.501   0.272   7.080 -0.4560 -0.2248  0.9382
 6557SOL     OW31129   4.046   3.138  11.851 -0.0287 -0.2948 -0.0004
 6557SOL    HW131130   4.063   3.048  11.879 -0.8316 -0.5889 -0.4726
 6557SOL    HW231131   3.955   3.147  11.877 -0.3293 -2.1590 -0.4352
 6558SOL     OW31132   0.256   1.070   6.678  0.1810  0.2111 -0.0618
 6558SOL    HW131133   0.339   1.082   6.725  0.0439  3.2269 -0.5674
 6558SOL    HW231134   0.231   1.162   6.666  0.3289  0.1390 -0.9140
 6559SOL     OW31135   2.388   4.662   1.238  0.1111  0.2865 -0.0621
 6559SOL    HW131136   2.366   4.718   1.164 -3.0744 -1.0754 -0.1236
 6559SOL    HW231137   2.359   4.580   1.197 -1.4079  0.1138  1.3732
 6560SOL     OW31138   2.454   3.451  10.160  0.1232  0.8448 -0.4268
 6560SOL    HW131139   2.464   3.356  10.167 -0.0891  0.6935 -2.0402
 6560SOL    HW231140   2.543   3.487  10.169  1.5647 -2.5809 -0.9281
 6561SOL     OW31141   2.617   3.421   1.212 -0.0295 -0.5908  0.0256
 6561SOL    HW131142   2.625   3.486   1.142 -1.8004 -3.0172 -2.4177
 6561SOL    HW231143   2.646   3.480   1.282  0.1703 -0.2954 -0.3069
 6562SOL     OW31144   1.976   0.261   4.874 -0.9193 -0.2987  0.1253
 6562SOL    HW131145   2.015   0.188   4.825 -0.3884 -0.2923  0.5334
 6562SOL    HW231146   1.948   0.219   4.955 -2.6104  1.3141  0.3698
 6563SOL     OW31147   1.039   3.693  17.016  0.0541  0.1100  1.0309
 6563SOL    HW131148   1.114   3.659  17.066  2.5535 -0.1760 -2.8909
 6563SOL    HW231149   1.068   3.783  17.033 -0.6042  1.0057 -2.7439
 6564SOL     OW31150   0.248   3.802  14.229  0.5423  0.4474 -0.6734
 6564SOL    HW131151   0.313   3.767  14.169  0.2702 -0.8841 -0.2007
 6564SOL    HW231152   0.249   3.739  14.302 -1.1426 -1.2691 -2.1209
 6565SOL     OW31153   2.449   2.160  11.125  0.0226  0.6144 -0.0944
 6565SOL    HW131154   2.377   2.167  11.062 -1.6223  1.4118  1.8794
 6565SOL    HW231155   2.410   2.092  11.180 -0.6824  2.4448  1.6571
 6566SOL     OW31156   0.899   4.388  13.458  0.1116  0.1836 -0.1472
 6566SOL    HW131157   0.809   4.397  13.488  0.2238 -2.2541  0.8996
 6566SOL    HW231158   0.947   4.388  13.541  0.4098 -1.1288 -0.3230
 6567SOL     OW31159   0.563   1.287   8.258 -0.3056 -0.1763 -0.3949
 6567SOL    HW131160   0.628   1.217   8.260  1.0547  1.0532 -0.8830
 6567SOL    HW231161   0.510   1.261   8.333 -0.0294  0.4270  0.0116
 6568SOL     OW31162   3.882   0.582   6.626  0.0838 -0.6768  0.7352
 6568SOL    HW131163   3.974   0.573   6.601  0.0248  0.9096 -0.0382
 6568SOL    HW231164   3.843   0.550   6.545  0.4640  2.2257 -0.5747
 6569SOL     OW31165   1.599   3.454   6.783 -0.0326 -0.6972  0.0756
 6569SOL    HW131166   1.655   3.520   6.824 -0.3129  0.2307 -1.0244
 6569SOL    HW231167   1.539   3.443   6.857  0.7034 -0.9320  0.6277
 6570SOL     OW31168   4.433   4.696   4.677  0.0475 -0.5256  0.0119
 6570SOL    HW131169   4.391   4.658   4.600 -1.9110 -0.4426  1.0369
 6570SOL    HW231170   4.465   0.059   4.651 -1.7505 -0.6500 -2.6212
 6571SOL     OW31171   1.043   2.391   5.555  0.0452 -0.1009  0.1403
 6571SOL    HW131172   1.011   2.459   5.496  0.4689  2.0432  2.3976
 6571SOL    HW231173   1.134   2.397   5.524  0.1979  0.9758  0.8165
 6572SOL     OW31174   0.075   2.745   9.114  0.4643 -0.2901  0.1785
 6572SOL    HW131175   0.118   2.815   9.163 -0.4435  2.0176 -2.3017
 6572SOL    HW231176   0.043   2.694   9.188  0.6509 -0.6363  0.0177
 6573SOL     OW31177   0.362   1.393   4.036 -0.4822  0.3731  0.2432
 6573SOL    HW131178   0.377   1.471   4.090 -0.2182  0.9868 -0.7114
 6573SOL    HW231179   0.364   1.445   3.955 -0.0181 -0.9590 -0.5970
 6574SOL     OW31180   4.480   3.318  14.824  0.6500  0.2192  0.4798
 6574SOL    HW131181   4.465   3.355  14.737  0.1912  1.4735  1.1019
 6574SOL    HW231182   4.441   3.231  14.825  1.8459 -0.3158  1.1899
 6575SOL     OW31183   3.883   0.037   8.587  0.1985  0.2375  0.4839
 6575SOL    HW131184   3.857   0.056   8.677 -1.1558  0.8016 -0.0281
 6575SOL    HW231185   3.831   4.687   8.554 -2.3413  1.5461  1.6186
 6576SOL     OW31186   3.575   3.503   4.723  0.1718  0.1737 -0.4329
 6576SOL    HW131187   3.561   3.546   4.807  2.5344  1.6606 -0.7797
 6576SOL    HW231188   3.670   3.507   4.712  0.3957  2.1355  2.1816
 6577SOL     OW31189   3.890   4.093   8.464 -0.2798  0.0938 -0.4207
 6577SOL    HW131190   3.954   4.111   8.532 -1.3009  2.0600  0.0204
 6577SOL    HW231191   3.888   3.997   8.462  0.2119  0.0852 -0.4706
 6578SOL     OW31192   2.355   1.704   4.446  0.8173  0.0755 -0.2756
 6578SOL    HW131193   2.274   1.754   4.434 -1.1916 -2.6197  2.2546
 6578SOL    HW231194   2.359   1.644   4.371 -1.6336  0.2101 -0.5161
 6579SOL     OW31195   3.747   1.113   4.178 -0.0691 -0.1647  0.0723
 6579SOL    HW131196   3.665   1.155   4.205 -0.7597 -2.3671  1.4672
 6579SOL    HW231197   3.793   1.111   4.262  0.4975  1.6466 -0.1970
 6580SOL     OW31198   3.071   0.301   2.985  0.6175  0.3121  0.0521
 6580SOL    HW131199   3.162   0.315   3.012  1.0005 -1.2380 -0.3872
 6580SOL    HW231200   3.086   0.293   2.891 -0.0665  0.3780 -0.0610
 6581SOL     OW31201   4.646   0.602   2.623  0.3669 -0.1235  0.3156
 6581SOL    HW131202   4.571   0.546   2.605 -0.1655  0.8160 -0.4233
 6581SOL    HW231203   4.711   0.589   2.554 -0.8217 -1.1466 -0.6324
 6582SOL     OW31204   3.846   4.028   6.132 -0.4723  0.1388 -0.5071
 6582SOL    HW131205   3.925   3.985   6.166 -1.4358  1.1141  3.0148
 6582SOL    HW231206   3.796   3.949   6.112 -1.5128  1.0474 -1.4210
 6583SOL     OW31207   0.497   3.421  14.900  0.1221  0.3289 -0.3582
 6583SOL    HW131208   0.437   3.472  14.846 -0.3794 -0.7485 -0.8290
 6583SOL    HW231209   0.448   3.338  14.895  0.7367  0.0373 -1.6104
 6584SOL     OW31210   1.972   4.506  11.604 -0.5194 -0.0943  0.6567
 6584SOL    HW131211   2.022   4.517  11.523 -1.7529  1.5375  0.1138
 6584SOL    HW231212   1.888   4.483  11.566  0.0243  2.3356 -2.0253
 6585SOL     OW31213   2.996   3.200   6.765  0.4392  0.1539  0.0531
 6585SOL    HW131214   2.975   3.166   6.852 -1.2800 -0.8930 -0.7596
 6585SOL    HW231215   3.077   3.250   6.774 -0.4638  1.2979  1.9573
 6586SOL     OW31216   3.976   3.189   9.472  0.4357 -0.4217  0.5165
 6586SOL    HW131217   3.941   3.132   9.404  0.2600 -1.1845  1.2314
 6586SOL    HW231218   4.006   3.119   9.530  0.2812  0.4263  1.6267
 6587SOL     OW31219   0.955   0.432   7.276  0.1381 -0.0154  0.6231
 6587SOL    HW131220   0.869   0.465   7.300  0.5612  2.4923 -1.3481
 6587SOL    HW231221   0.938   0.370   7.205 -0.6771  0.3806  0.4798
 6588SOL     OW31222   3.826   1.284   6.776 -0.3075  0.1156  0.7244
 6588SOL    HW131223   3.906   1.251   6.735  0.0281  0.5708  1.0171
 6588SOL    HW231224   3.758   1.289   6.710  0.7651  2.6746 -0.1483
 6589SOL     OW31225   3.216   3.972   7.647  0.1381 -0.4287  0.7011
 6589SOL    HW131226   3.216   4.066   7.628 -1.9659 -0.3702  0.9998
 6589SOL    HW231227   3.176   3.960   7.733 -0.7090 -0.1849  0.3466
 6590SOL     OW31228   3.531   2.996   8.621 -0.6260 -0.1820 -0.0287
 6590SOL    HW131229   3.538   3.011   8.526 -1.3190  0.1755 -0.0207
 6590SOL    HW231230   3.542   2.902   8.627  2.2404  0.0709 -1.1055
 6591SOL     OW31231   0.777   1.710   7.772 -0.0881  0.2575  0.3393
 6591SOL    HW131232   0.782   1.802   7.798  1.7943  0.2499  0.0124
 6591SOL    HW231233   0.820   1.669   7.848 -0.6205 -0.6123  0.1716
 6592SOL     OW31234   1.044   4.618   9.049 -0.2124  0.3340 -0.1069
 6592SOL    HW131235   1.054   4.611   9.144  0.5393  0.2079 -0.1996
 6592SOL    HW231236   1.134   4.612   9.018  0.3158  1.8646  1.0935
 6593SOL     OW31237   1.982   3.849   5.505 -0.5884 -0.0579  0.2344
 6593SOL    HW131238   2.017   3.830   5.418  0.5032 -0.2857  0.7300
 6593SOL    HW231239   1.899   3.892   5.482 -0.8099 -0.5427  0.1206
 6594SOL     OW31240   4.166   3.616   9.429  0.4364  0.3040  0.4413
 6594SOL    HW131241   4.170   3.521   9.427 -0.3784  0.2564  0.9139
 6594SOL    HW231242   4.131   3.634   9.342  0.9571  2.7247  0.7114
 6595SOL     OW31243   1.235   1.463   6.003 -0.5418 -0.2886 -0.8400
 6595SOL    HW131244   1.329   1.446   5.995 -0.2769  1.0550 -0.6449
 6595SOL    HW231245   1.193   1.383   5.971 -0.7768  0.3587 -2.1294
 6596SOL     OW31246   2.926   0.617  11.079  0.2969  0.2467 -0.1446
 6596SOL    HW131247   2.939   0.709  11.103  1.7983  0.6892 -2.5885
 6596SOL    HW231248   2.965   0.618  10.991 -0.8442  1.0786 -0.6508
 6597SOL     OW31249   3.880   3.337   2.098  0.3109  0.0951  0.1769
 6597SOL    HW131250   3.926   3.261   2.064  1.9898  0.7520  0.9827
 6597SOL    HW231251   3.939   3.408   2.074  0.5978 -0.3121 -0.3112
 6598SOL     OW31252   2.216   0.926   2.692  0.2266 -0.1228  0.5778
 6598SOL    HW131253   2.162   0.850   2.670  0.0189 -0.1985  1.3276
 6598SOL    HW231254   2.234   0.908   2.785  0.3056  1.0027  0.7798
 6599SOL     OW31255   1.800   0.338   3.306 -0.2679  0.0920 -0.0822
 6599SOL    HW131256   1.730   0.288   3.265 -0.2004  0.1939 -0.3220
 6599SOL    HW231257   1.856   0.367   3.234  1.9380 -2.6337  0.5270
 6600SOL     OW31258   1.746   3.918   4.679 -0.7734 -0.0751 -0.6265
 6600SOL    HW131259   1.768   3.903   4.771  0.6013  0.0767 -0.9346
 6600SOL    HW231260   1.833   3.940   4.646 -1.7358  1.2298 -2.2901
 6601SOL     OW31261   4.525   1.777  16.025  0.1128 -0.2166 -0.2584
 6601SOL    HW131262   4.546   1.717  16.097 -0.3248 -0.2239 -0.1409
 6601SOL    HW231263   4.590   1.755  15.957  0.1869  3.0747 -1.2509
 6602SOL     OW31264   2.614   1.373   9.330  0.0822  0.3833 -0.3572
 6602SOL    HW131265   2.695   1.324   9.316  0.1688  1.3777 -3.4017
 6602SOL    HW231266   2.559   1.316   9.277  0.5432 -1.8993  1.6422
 6603SOL     OW31267   1.717   2.412  10.835 -0.3735 -0.8662  0.1613
 6603SOL    HW131268   1.683   2.499  10.854 -1.7737 -1.1970 -0.8061
 6603SOL    HW231269   1.689   2.399  10.744 -0.9297 -0.2256  0.2387
 6604SOL     OW31270   3.516   1.983   8.150  0.4597  0.1655  0.1020
 6604SOL    HW131271   3.471   1.903   8.177 -0.6736  0.2627 -1.5165
 6604SOL    HW231272   3.487   1.993   8.059 -0.9511 -0.8477  0.4388
 6605SOL     OW31273   2.332   0.589   5.072  1.1101 -0.1168  0.3562
 6605SOL    HW131274   2.322   0.532   4.996 -2.6428 -0.6019  1.1793
 6605SOL    HW231275   2.246   0.589   5.116  0.7698  1.3610 -0.3203
 6606SOL     OW31276   0.720   2.947   9.776  0.2469 -0.0851  0.3763
 6606SOL    HW131277   0.660   2.876   9.799  2.7384 -2.5604 -0.8312
 6606SOL    HW231278   0.667   2.981   9.704 -0.8463  0.3676  1.4022
 6607SOL     OW31279   3.954   1.865   0.373  0.1450 -0.4202  0.3260
 6607SOL    HW131280   3.946   1.960   0.386 -1.2541 -0.5550  0.4640
 6607SOL    HW231281   3.893   1.847   0.302 -0.4211  0.5522  0.5587
 6608SOL     OW31282   1.751   2.993   4.877 -0.1765  0.5903  0.3090
 6608SOL    HW131283   1.663   2.956   4.879 -0.2609  0.8457  1.2371
 6608SOL    HW231284   1.733   3.087   4.878  0.7259  0.7615  1.0106
 6609SOL     OW31285   2.564   3.878   6.727  0.5445  0.2221 -0.2939
 6609SOL    HW131286   2.569   3.936   6.803 -0.7563  0.4528 -0.3725
 6609SOL    HW231287   2.569   3.788   6.758 -0.1163  0.7801  1.4511
 6610SOL     OW31288   0.628   1.294   7.946  0.0497 -0.9194  0.0100
 6610SOL    HW131289   0.636   1.291   8.041  1.2089 -2.3494 -0.1313
 6610SOL    HW231290   0.535   1.277   7.931 -0.3168 -0.0308  1.3139
 6611SOL     OW31291   3.746   0.873   1.326 -0.5330 -0.3362  0.3158
 6611SOL    HW131292   3.779   0.808   1.263  0.6074  2.8845 -2.4157
 6611SOL    HW231293   3.822   0.917   1.363 -1.3057  2.7626 -1.8319
 6612SOL     OW31294   3.117   4.150   3.476 -0.0344  0.8171  0.3030
 6612SOL    HW131295   3.071   4.068   3.492 -0.5648  1.4618  2.0899
 6612SOL    HW231296   3.057   4.187   3.412  0.9274 -0.1721 -1.1657
 6613SOL     OW31297   2.965   0.450   8.944  0.1638  0.7738  0.2999
 6613SOL    HW131298   3.010   0.534   8.943  0.6987  0.5029  1.3045
 6613SOL    HW231299   2.977   0.421   8.854 -2.2745  1.5420 -0.2670
 6614SOL     OW31300   4.382   0.068  10.467  0.2217  0.5415 -0.1694
 6614SOL    HW131301   4.341   0.153  10.477  0.4574  1.0318 -3.3961
 6614SOL    HW231302   4.360   0.041  10.556 -0.2207 -0.1662 -0.4943
 6615SOL     OW31303   3.522   0.718   5.475  0.1211  0.0578  0.3405
 6615SOL    HW131304   3.561   0.696   5.390 -0.1068  0.2126  0.1983
 6615SOL    HW231305   3.586   0.769   5.524  0.0049 -0.1728  0.7347
 6616SOL     OW31306   0.038   3.975   2.021  0.5061  0.0503  0.4307
 6616SOL    HW131307   0.074   3.909   2.080  2.5899 -0.5870 -1.5521
 6616SOL    HW231308   0.081   3.976   1.936 -1.1270 -0.8319 -0.4096
 6617SOL     OW31309   2.203   2.439   9.054  0.0630 -0.2296 -0.0124
 6617SOL    HW131310   2.265   2.466   8.986  0.0146 -1.6236 -0.6222
 6617SOL    HW231311   2.165   2.359   9.018  0.5269 -0.9441  1.0653
 6618SOL     OW31312   4.688   2.073   8.027 -0.4051  0.1491 -0.3480
 6618SOL    HW131313   4.644   2.142   7.979  2.6670  1.9454 -0.5482
 6618SOL    HW231314   4.638   2.060   8.108 -0.0684  0.0494 -0.1552
 6619SOL     OW31315   0.598   4.360   0.202 -0.0270  0.2139 -0.2315
 6619SOL    HW131316   0.627   4.396   0.118 -0.2097  2.0793  0.4861
 6619SOL    HW231317   0.641   4.405   0.275 -1.6808  0.6277  0.4769
 6620SOL     OW31318   1.410   0.965  12.472 -0.4171  0.4650  0.4707
 6620SOL    HW131319   1.445   0.913  12.545 -2.1645  0.3784  1.2356
 6620SOL    HW231320   1.478   1.033  12.472  1.5538 -1.4861 -0.7397
 6621SOL     OW31321   2.855   1.086   8.182  0.6827 -1.0307  0.7533
 6621SOL    HW131322   2.790   1.035   8.134 -0.1714 -0.1502  0.9703
 6621SOL    HW231323   2.915   1.016   8.207 -0.0145 -2.2218 -0.9106
 6622SOL     OW31324   1.988   1.675   8.423  0.3919 -0.5750  0.3453
 6622SOL    HW131325   2.007   1.768   8.428 -0.6599 -0.2480 -1.5197
 6622SOL    HW231326   1.996   1.646   8.514 -0.2072 -0.8531  0.3116
 6623SOL     OW31327   3.810   2.748   4.044  0.2972  0.2332 -0.0335
 6623SOL    HW131328   3.795   2.673   3.986 -0.8638 -0.5940  1.3255
 6623SOL    HW231329   3.905   2.754   4.047  0.0487  1.8938  4.1264
 6624SOL     OW31330   4.358   3.453   2.424  0.3002 -0.3913  0.0901
 6624SOL    HW131331   4.362   3.527   2.364  0.4832  0.6382  1.3617
 6624SOL    HW231332   4.439   3.456   2.476  0.7171  1.1956 -0.6369
 6625SOL     OW31333   0.697   2.176   4.989 -0.2095 -0.1638  0.3177
 6625SOL    HW131334   0.768   2.240   4.988  0.7538 -1.2736 -1.5508
 6625SOL    HW231335   0.720   2.123   5.066 -0.4315 -2.8498 -1.4719
 6626SOL     OW31336   0.592   1.154   6.144  0.3578 -0.0086 -0.7145
 6626SOL    HW131337   0.574   1.222   6.079 -2.2384 -0.0274  0.0027
 6626SOL    HW231338   0.687   1.144   6.133  0.1418 -3.1044  0.2524
 6627SOL     OW31339   3.950   3.586   7.929  0.8654  0.0055  0.0313
 6627SOL    HW131340   3.984   3.556   8.013  1.1080  0.4529  0.0959
 6627SOL    HW231341   3.909   3.668   7.955 -1.5269 -1.1957 -0.0212
 6628SOL     OW31342   3.429   2.479  16.943  0.3024 -0.0473  0.2410
 6628SOL    HW131343   3.359   2.419  16.970 -0.5606  0.9443  0.2122
 6628SOL    HW231344   3.424   2.475  16.848 -1.0495 -0.8072  0.3451
 6629SOL     OW31345   1.563   0.136  11.227  0.0865  0.2839  0.0813
 6629SOL    HW131346   1.643   0.098  11.191  0.4248  0.6668  0.4306
 6629SOL    HW231347   1.572   0.229  11.210  2.2503  0.3222  1.3948
 6630SOL     OW31348   3.598   2.016   9.228 -0.1842 -0.4203  0.2646
 6630SOL    HW131349   3.546   2.034   9.306 -3.6289  0.5125 -2.2352
 6630SOL    HW231350   3.685   1.988   9.256 -0.4905 -3.1599 -1.4813
 6631SOL     OW31351   3.721   1.823  14.899 -0.6902  0.7218 -0.1051
 6631SOL    HW131352   3.679   1.805  14.983  0.8669 -0.7629  0.3645
 6631SOL    HW231353   3.643   1.852  14.853 -1.1847  0.4588  0.5716
 6632SOL     OW31354   0.958   0.072   0.215 -0.2141 -0.2173  0.1408
 6632SOL    HW131355   1.029   0.135   0.222 -1.4308  1.2575 -0.8105
 6632SOL    HW231356   0.987   0.009   0.149  2.1845  0.9717  0.0789
 6633SOL     OW31357   2.144   1.086   8.526  0.7862  0.2585  0.5211
 6633SOL    HW131358   2.093   1.108   8.448  2.5693  2.5237 -0.0035
 6633SOL    HW231359   2.100   1.010   8.563  1.4936 -1.2592 -1.7550
 6634SOL     OW31360   3.239   3.628   5.928  0.5073  0.4085 -0.0328
 6634SOL    HW131361   3.266   3.698   5.869 -0.7085 -0.3028 -1.4235
 6634SOL    HW231362   3.182   3.577   5.871  1.5059 -0.0964 -0.5847
 6635SOL     OW31363   3.749   4.688   9.739 -0.4013 -0.0072  0.2553
 6635SOL    HW131364   3.724   4.624   9.805  0.5683  0.7744  1.3795
 6635SOL    HW231365   3.672   0.017   9.716 -1.6567 -2.6381 -1.6017
 6636SOL     OW31366   1.944   0.106   5.950  0.2650  0.1008 -0.3869
 6636SOL    HW131367   1.902   0.035   5.999  1.0886 -1.0170 -1.3033
 6636SOL    HW231368   2.008   0.128   6.017 -0.6863  1.5043  0.0732
 6637SOL     OW31369   1.343   4.216   1.206  0.0053 -0.3585 -0.1121
 6637SOL    HW131370   1.393   4.298   1.201 -1.2454  0.4957  1.4921
 6637SOL    HW231371   1.413   4.155   1.230  0.8125  0.6756  0.1623
 6638SOL     OW31372   3.467   4.584  12.440  0.0939  0.3143  0.4432
 6638SOL    HW131373   3.437   4.623  12.358  0.6105 -2.0631 -0.9061
 6638SOL    HW231374   3.457   4.648  12.510  0.0649  1.0581 -0.2454
 6639SOL     OW31375   0.177   0.961   1.327  0.5806 -0.0229  0.3308
 6639SOL    HW131376   0.115   0.940   1.397  1.2490  1.3923  1.3491
 6639SOL    HW231377   0.183   0.874   1.287  2.5879  0.5348 -0.5594
 6640SOL     OW31378   0.236   1.209  13.963 -0.1057  0.0293 -0.1191
 6640SOL    HW131379   0.212   1.196  13.871  0.7416 -1.9157 -0.0649
 6640SOL    HW231380   0.313   1.264  13.950  0.7963 -1.0854  0.5052
 6641SOL     OW31381   1.555   1.703   3.034 -0.6987 -0.1532 -0.3315
 6641SOL    HW131382   1.587   1.694   2.944 -0.7694  0.6308 -0.4398
 6641SOL    HW231383   1.630   1.754   3.064 -1.5114  0.7732  0.1461
 6642SOL     OW31384   0.796   0.436   5.481 -0.0482 -0.3725  0.2245
 6642SOL    HW131385   0.867   0.488   5.441  0.3293 -0.8969  0.2110
 6642SOL    HW231386   0.783   0.363   5.420 -0.3336 -1.0269  1.0729
 6643SOL     OW31387   1.622   0.102  12.014 -0.2517  0.4258  0.2230
 6643SOL    HW131388   1.708   0.060  12.019  1.1605  3.2378 -0.5012
 6643SOL    HW231389   1.640   0.166  11.945  0.4013 -0.3859 -0.3500
 6644SOL     OW31390   4.673   3.778   7.850 -0.4396  0.0229  0.4972
 6644SOL    HW131391   0.038   3.812   7.867 -0.5721 -0.2733  1.7833
 6644SOL    HW231392   4.657   3.730   7.932  1.4520 -0.4003  0.6059
 6645SOL     OW31393   2.703   3.005   7.604  0.2301 -0.1897 -0.2034
 6645SOL    HW131394   2.782   2.951   7.610  1.8805  2.6196  3.3708
 6645SOL    HW231395   2.738   3.086   7.641  2.0049 -0.8962 -0.3680
 6646SOL     OW31396   4.706   2.148   6.264 -0.1353 -1.0309  0.8267
 6646SOL    HW131397   0.006   2.114   6.178  0.6653  1.3044  0.1197
 6646SOL    HW231398   4.624   2.103   6.285 -0.6282 -0.7871 -0.5654
 6647SOL     OW31399   4.545   2.428   9.385  0.1480 -0.2795 -0.2186
 6647SOL    HW131400   4.486   2.364   9.423 -1.1538  0.0185 -1.7461
 6647SOL    HW231401   4.612   2.435   9.453 -0.3327 -0.2188  0.2481
 6648SOL     OW31402   0.848   0.252   7.111 -0.2224 -0.3697 -0.1764
 6648SOL    HW131403   0.890   0.195   7.047 -1.1575  0.0649 -1.1703
 6648SOL    HW231404   0.782   0.191   7.145  0.3877 -0.5838  0.6229
 6649SOL     OW31405   3.988   3.139  14.236  0.5464 -0.2093 -0.4245
 6649SOL    HW131406   3.941   3.069  14.190 -1.4695 -0.0197  1.3140
 6649SOL    HW231407   3.919   3.203  14.254 -0.4105 -1.3288 -0.0512
 6650SOL     OW31408   2.052   3.929   7.462 -0.3422  0.2731  0.2684
 6650SOL    HW131409   2.098   3.943   7.379  0.8810 -0.3833  0.8525
 6650SOL    HW231410   2.093   3.997   7.515  1.4083  0.3443 -1.1731
 6651SOL     OW31411   1.626   4.221  17.308  0.5640 -0.0242 -0.0344
 6651SOL    HW131412   1.600   4.228  17.400  0.2808 -2.9374  0.1095
 6651SOL    HW231413   1.709   4.268  17.309 -0.5933  2.0316  0.2492
 6652SOL     OW31414   2.434   0.153  16.104 -0.4595  0.6290  0.0708
 6652SOL    HW131415   2.484   0.198  16.172 -1.8219  1.5924  0.4412
 6652SOL    HW231416   2.503   0.141  16.039 -0.8447 -3.3543  0.4538
 6653SOL     OW31417   3.649   0.779   6.402 -0.3632 -0.2686  0.0037
 6653SOL    HW131418   3.728   0.830   6.416  0.6391 -1.9009  0.3814
 6653SOL    HW231419   3.633   0.756   6.494  0.0901 -0.3627  0.0581
 6654SOL     OW31420   0.234   1.416   1.987  0.1797 -0.0754 -0.0169
 6654SOL    HW131421   0.315   1.420   1.935 -0.1252  1.6759 -0.3679
 6654SOL    HW231422   0.180   1.464   1.924  0.1657 -1.2539 -0.8990
 6655SOL     OW31423   3.796   0.061   0.412  0.6379 -0.2378  0.4052
 6655SOL    HW131424   3.772   0.085   0.323  0.3070  1.3954  0.9392
 6655SOL    HW231425   3.737   4.709   0.421 -2.5687  2.3176  0.4927
 6656SOL     OW31426   3.955   4.687   7.293  0.3789 -0.3519  0.5563
 6656SOL    HW131427   3.888   4.625   7.264 -0.1535  0.8552 -0.7858
 6656SOL    HW231428   4.029   4.652   7.243  0.7185 -0.7244  1.3344
 6657SOL     OW31429   2.911   0.562   5.423 -0.3909  0.2431 -0.2005
 6657SOL    HW131430   2.993   0.589   5.381 -2.0995  2.2092 -2.2459
 6657SOL    HW231431   2.924   0.467   5.419 -1.0941  0.2002 -1.4921
 6658SOL     OW31432   3.356   2.006  13.693 -0.1716  0.5166 -0.2991
 6658SOL    HW131433   3.337   2.075  13.757  0.0901 -0.7951  1.1872
 6658SOL    HW231434   3.397   2.063  13.627 -1.0537  0.2791 -1.0512
 6659SOL     OW31435   2.822   4.461  16.267  0.5240 -0.1973  0.0941
 6659SOL    HW131436   2.868   4.527  16.319  0.4862  1.4045 -1.9259
 6659SOL    HW231437   2.883   4.390  16.248 -0.3102 -1.1127  0.8222
 6660SOL     OW31438   3.353   3.733   1.452  0.1846 -0.1881 -0.4993
 6660SOL    HW131439   3.302   3.698   1.524 -1.1327  0.3163 -1.1861
 6660SOL    HW231440   3.280   3.780   1.411  1.0113  0.3906 -1.3034
 6661SOL     OW31441   4.034   2.722   5.953 -0.3855 -0.0200 -0.0749
 6661SOL    HW131442   4.110   2.668   5.935 -1.2019 -1.3379  0.4349
 6661SOL    HW231443   4.016   2.686   6.040  0.0219  0.7334  0.3208
 6662SOL     OW31444   2.360   2.386  14.332  0.6562 -0.2459  0.2509
 6662SOL    HW131445   2.435   2.330  14.348  1.0063 -0.0049 -0.5708
 6662SOL    HW231446   2.323   2.370  14.419  2.0544 -4.1383  0.1394
 6663SOL     OW31447   3.303   3.000  13.873 -0.4963 -0.0688 -0.0842
 6663SOL    HW131448   3.317   2.964  13.785  0.4751 -3.5534  1.4795
 6663SOL    HW231449   3.211   3.024  13.869 -0.6427 -0.6185 -0.0004
 6664SOL     OW31450   1.814   1.187   6.424 -0.8173 -0.4397  0.2623
 6664SOL    HW131451   1.747   1.133   6.466  1.0837 -3.4105 -0.4498
 6664SOL    HW231452   1.888   1.126   6.419 -0.9428 -0.4198 -1.9519
 6665SOL     OW31453   2.901   1.837  13.172  0.0758  0.0805  0.1759
 6665SOL    HW131454   2.887   1.923  13.134 -0.7708 -0.6770 -1.2141
 6665SOL    HW231455   2.972   1.859  13.233 -0.4976  2.8123 -0.1594
 6666SOL     OW31456   2.112   0.818   8.652 -0.0730 -0.5006  0.0267
 6666SOL    HW131457   2.125   0.812   8.747 -0.4981  1.1425  0.1774
 6666SOL    HW231458   2.017   0.832   8.651 -0.0417 -0.1007  1.7273
 6667SOL     OW31459   3.917   3.188   7.440  0.3150  0.0499  0.1394
 6667SOL    HW131460   3.984   3.122   7.418 -1.4494 -1.4472 -0.7569
 6667SOL    HW231461   3.849   3.128   7.473  2.8496 -1.0246  3.4712
 6668SOL     OW31462   3.129   2.080  13.169 -0.4543  0.8830  0.4381
 6668SOL    HW131463   3.070   2.066  13.243  2.1519  0.7557  2.4826
 6668SOL    HW231464   3.067   2.091  13.097 -0.0383  2.4372  0.3266
 6669SOL     OW31465   3.413   4.582   7.335 -0.2397  0.1621  0.2077
 6669SOL    HW131466   3.412   4.487   7.330 -0.4984  0.2245 -1.0015
 6669SOL    HW231467   3.331   4.605   7.379 -0.2876 -0.7291  0.5711
 6670SOL     OW31468   2.447   2.520  16.209 -0.5356  0.2269 -0.3734
 6670SOL    HW131469   2.476   2.440  16.252 -0.1678  0.4855 -0.1386
 6670SOL    HW231470   2.440   2.485  16.120 -2.1520 -2.3421  0.7706
 6671SOL     OW31471   0.582   2.147   2.826  0.0079  0.2353 -0.3087
 6671SOL    HW131472   0.534   2.222   2.790 -1.0181 -0.6727 -0.8421
 6671SOL    HW231473   0.636   2.193   2.890 -0.7437  0.9170 -0.1607
 6672SOL     OW31474   0.903   1.863   4.759 -0.2438  0.0823 -0.4079
 6672SOL    HW131475   0.877   1.774   4.736  0.1057 -0.4865  1.4218
 6672SOL    HW231476   0.983   1.861   4.706 -0.7827 -0.9048 -1.1801
 6673SOL     OW31477   1.780   0.476  11.722  0.0684  0.1141 -0.2748
 6673SOL    HW131478   1.835   0.525  11.661  2.1660 -1.1107  0.6436
 6673SOL    HW231479   1.762   0.539  11.792  1.9624  0.5090 -0.1348
 6674SOL     OW31480   2.531   1.788   0.996 -0.2083 -0.5662 -0.4715
 6674SOL    HW131481   2.510   1.878   1.017 -1.6050 -0.6750 -1.3918
 6674SOL    HW231482   2.534   1.789   0.900 -0.7038  0.4813 -0.4796
 6675SOL     OW31483   0.349   0.184   2.591 -0.1249  0.6513  0.1137
 6675SOL    HW131484   0.257   0.159   2.604  0.1502 -0.0947  0.6108
 6675SOL    HW231485   0.382   0.107   2.546 -1.3268 -1.1071  2.2394
 6676SOL     OW31486   1.540   4.602   4.570 -0.3470 -0.0223 -0.0561
 6676SOL    HW131487   1.472   4.538   4.588 -1.3546  0.9162 -0.5111
 6676SOL    HW231488   1.513   4.646   4.489 -0.1605  3.7064  1.9096
 6677SOL     OW31489   1.734   0.459  13.835  0.1202 -0.1390 -0.2938
 6677SOL    HW131490   1.809   0.518  13.821  0.8356 -0.8876  0.3665
 6677SOL    HW231491   1.665   0.521  13.813  0.1822 -0.7267 -2.1116
 6678SOL     OW31492   3.731   2.123   4.664 -0.4302 -0.0180 -0.2834
 6678SOL    HW131493   3.730   2.145   4.571  0.2695  2.1803  0.2452
 6678SOL    HW231494   3.824   2.113   4.682 -0.5532 -0.0474  0.3346
 6679SOL     OW31495   2.760   4.487   5.684  0.2567 -0.0337 -0.0456
 6679SOL    HW131496   2.792   4.535   5.761 -0.5461  0.4302 -0.0026
 6679SOL    HW231497   2.815   4.514   5.610 -0.6810  0.0423 -0.7061
 6680SOL     OW31498   0.526   0.678  11.174 -0.2047 -0.8131  0.4463
 6680SOL    HW131499   0.556   0.626  11.249  0.8769 -1.2983 -0.3197
 6680SOL    HW231500   0.607   0.686  11.123 -0.4225  1.5436  0.4661
 6681SOL     OW31501   1.351   4.687  13.025  0.0028 -0.7671  0.7190
 6681SOL    HW131502   1.445   4.683  13.004  0.1853  0.0118  1.3550
 6681SOL    HW231503   1.345   4.638  13.107  4.0608 -1.1463  0.7881
 6682SOL     OW31504   2.555   3.366   5.170 -0.5082  0.7245  0.1072
 6682SOL    HW131505   2.480   3.352   5.228 -0.6562  1.5268  0.1117
 6682SOL    HW231506   2.574   3.455   5.200 -1.5439  0.3667  1.8422
 6683SOL     OW31507   3.739   2.041   8.701 -0.2099  0.0097 -0.0560
 6683SOL    HW131508   3.813   2.071   8.754  0.8894 -0.5025 -1.2812
 6683SOL    HW231509   3.718   2.120   8.651 -1.0716 -1.6007 -2.2418
 6684SOL     OW31510   0.319   3.956   2.965  0.0129 -0.9159 -0.2228
 6684SOL    HW131511   0.252   3.981   3.029 -0.8047 -0.1668 -1.3637
 6684SOL    HW231512   0.402   3.960   3.013  0.6432  0.2391 -1.4243
 6685SOL     OW31513   0.155   2.752   7.939  0.0066 -0.2839 -0.0435
 6685SOL    HW131514   0.244   2.762   7.905 -0.6636 -0.7181 -1.9549
 6685SOL    HW231515   0.171   2.734   8.031 -0.3400 -0.6957 -0.0671
 6686SOL     OW31516   0.404   3.615  14.741 -0.1083 -0.1339 -0.2898
 6686SOL    HW131517   0.416   3.704  14.708  0.5363  0.5735  1.8998
 6686SOL    HW231518   0.408   3.564  14.660  2.4680 -2.4475  1.2712
 6687SOL     OW31519   3.615   4.580   0.452 -0.4738  0.3353  0.4883
 6687SOL    HW131520   3.617   4.486   0.437 -1.2067  0.4789 -0.5507
 6687SOL    HW231521   3.527   4.597   0.419 -0.0787  2.3210  0.4777
 6688SOL     OW31522   0.342   0.298   4.962  0.5263  0.5749  0.7736
 6688SOL    HW131523   0.428   0.301   4.921  0.3013 -0.2169  0.2680
 6688SOL    HW231524   0.358   0.329   5.052 -1.4262 -1.4314  1.8173
 6689SOL     OW31525   0.807   4.147   8.255  0.4035 -0.1283  0.1301
 6689SOL    HW131526   0.797   4.052   8.254 -2.6125  0.1962  0.0712
 6689SOL    HW231527   0.727   4.174   8.211 -0.4751 -0.9220  1.2740
 6690SOL     OW31528   4.622   0.920   5.320  0.6146  0.3607 -0.1020
 6690SOL    HW131529   4.586   0.914   5.231 -1.1314  0.5246  0.6007
 6690SOL    HW231530   4.570   0.996   5.348 -0.0816 -0.3325  0.4828
 6691SOL     OW31531   0.892   4.214   5.502  0.1539  0.3458 -0.0584
 6691SOL    HW131532   0.816   4.228   5.559 -0.2511 -0.7273 -0.3360
 6691SOL    HW231533   0.863   4.240   5.414  0.1141  1.5591  0.3123
 6692SOL     OW31534   4.268   2.032   5.634 -0.5999  0.0988  0.4026
 6692SOL    HW131535   4.309   1.978   5.702  1.0325  1.2746  0.3340
 6692SOL    HW231536   4.325   2.109   5.641 -0.7388  0.0589  1.8930
 6693SOL     OW31537   1.236   2.117   7.297  0.5409 -0.2192 -0.5610
 6693SOL    HW131538   1.172   2.050   7.272 -1.4934  1.9410 -1.2427
 6693SOL    HW231539   1.310   2.078   7.343  0.9217  0.0629 -0.9340
 6694SOL     OW31540   1.030   2.047   7.681  0.0165  0.3939 -0.0200
 6694SOL    HW131541   1.063   1.994   7.754 -1.7884 -1.1195 -0.3012
 6694SOL    HW231542   1.073   2.130   7.703 -1.7598  0.7072  2.1672
 6695SOL     OW31543   4.193   3.091   7.160 -0.0984 -0.0032 -0.2602
 6695SOL    HW131544   4.160   3.043   7.236 -0.3820  0.3810 -0.1406
 6695SOL    HW231545   4.248   3.159   7.199  1.0405 -0.9047 -0.2899
 6696SOL     OW31546   1.763   2.142   9.254 -0.3819 -0.2621 -0.0065
 6696SOL    HW131547   1.846   2.140   9.302 -1.4523  0.2803  1.8392
 6696SOL    HW231548   1.793   2.139   9.163  0.5256 -1.1367  0.3089
 6697SOL     OW31549   0.354   1.905  13.441  0.9460  0.3425 -0.0265
 6697SOL    HW131550   0.259   1.911  13.448  0.9139 -0.3828  0.1788
 6697SOL    HW231551   0.353   1.905  13.345 -2.2557 -1.0440  0.0350
 6698SOL     OW31552   4.707   2.543  16.903 -0.7733  0.1944 -0.2157
 6698SOL    HW131553   4.635   2.576  16.957 -0.1089  2.3521 -0.6477
 6698SOL    HW231554   0.059   2.557  16.961 -0.1484 -2.7625 -0.2730
 6699SOL     OW31555   3.257   4.542   8.467 -0.8162  0.3756  0.2311
 6699SOL    HW131556   3.289   4.591   8.391 -0.0792 -0.2729  0.1274
 6699SOL    HW231557   3.289   4.589   8.544  0.7170 -0.1298 -0.0991
 6700SOL     OW31558   3.408   3.178  16.803  0.0997  0.3276 -0.0300
 6700SOL    HW131559   3.433   3.184  16.895  0.4017 -0.0231 -0.0893
 6700SOL    HW231560   3.446   3.094  16.777 -0.7411 -0.1830  0.4109
 6701SOL     OW31561   3.911   0.242  13.591 -0.6053 -0.2110  1.2557
 6701SOL    HW131562   3.980   0.226  13.656 -0.0061  0.9688  0.9172
 6701SOL    HW231563   3.889   0.166  13.536  1.7592  0.0855 -0.1026
 6702SOL     OW31564   2.807   1.688   7.070 -0.4221 -0.4076  0.0577
 6702SOL    HW131565   2.859   1.761   7.103  2.0443 -1.6023 -1.1662
 6702SOL    HW231566   2.738   1.678   7.136 -1.7744  2.9904 -0.8216
 6703SOL     OW31567   0.410   1.921  16.064 -0.1918 -0.0320 -0.0187
 6703SOL    HW131568   0.364   1.861  16.122  1.0761 -2.2524 -1.3359
 6703SOL    HW231569   0.471   1.864  16.019  0.5453 -0.3792  1.4392
 6704SOL     OW31570   0.069   1.161   5.822  0.2701 -0.3947  0.1544
 6704SOL    HW131571   0.138   1.107   5.784  0.7238  0.0763  0.3166
 6704SOL    HW231572   0.004   1.158   5.752 -1.8511  0.9230  2.0298
 6705SOL     OW31573   0.660   1.377   1.665  0.1580 -0.1390 -0.1254
 6705SOL    HW131574   0.636   1.450   1.608  1.2225  0.4991  0.2521
 6705SOL    HW231575   0.721   1.331   1.607 -1.4341  1.7959 -3.3389
 6706SOL     OW31576   0.464   4.259  12.039 -0.1200 -0.2089 -0.2885
 6706SOL    HW131577   0.429   4.217  12.118  1.1810  0.9478  0.9186
 6706SOL    HW231578   0.393   4.249  11.977 -1.5423 -0.4524  1.3803
 6707SOL     OW31579   2.871   0.080  16.197 -0.0365  0.1484  0.3412
 6707SOL    HW131580   2.944   0.138  16.176 -0.0554 -0.6829 -1.9683
 6707SOL    HW231581   2.894   0.046  16.284 -2.2292 -0.8651  0.5259
 6708SOL     OW31582   3.450   4.595   1.228  0.7280 -0.2375 -0.3988
 6708SOL    HW131583   3.545   4.589   1.218  0.5789 -2.8287 -0.3935
 6708SOL    HW231584   3.436   4.680   1.268 -1.3675 -1.1864  0.9019
 6709SOL     OW31585   3.693   2.482   9.779 -0.2736 -0.6237  0.4766
 6709SOL    HW131586   3.717   2.533   9.856  0.0539  2.9930 -2.0199
 6709SOL    HW231587   3.717   2.547   9.713  0.9556 -0.1105  1.4412
 6710SOL     OW31588   3.693   1.616   1.976 -0.6290  0.4344  0.1192
 6710SOL    HW131589   3.628   1.648   2.039 -1.7275 -1.4264 -0.0865
 6710SOL    HW231590   3.636   1.626   1.899 -1.1583  1.5042  0.6387
 6711SOL     OW31591   2.829   1.969   0.648 -0.2094 -0.4814 -0.0047
 6711SOL    HW131592   2.817   1.908   0.575 -2.7021 -0.1111  0.0898
 6711SOL    HW231593   2.818   2.047   0.593  0.5838 -0.0047  0.5117
 6712SOL     OW31594   2.817   3.717   5.780 -0.1329 -0.7426 -0.2216
 6712SOL    HW131595   2.790   3.669   5.702  0.8786  0.0880 -1.0819
 6712SOL    HW231596   2.894   3.665   5.804  1.9703  2.1745 -0.6451
 6713SOL     OW31597   4.611   1.272   1.649  0.3669 -0.4823 -0.7249
 6713SOL    HW131598   4.527   1.318   1.643  0.3090 -0.6662 -1.3220
 6713SOL    HW231599   4.646   1.297   1.564 -0.9191 -1.7207 -1.6384
 6714SOL     OW31600   0.786   3.823   0.598  0.0069 -0.0789  0.5255
 6714SOL    HW131601   0.857   3.764   0.575  0.2912  0.6091 -0.3608
 6714SOL    HW231602   0.772   3.817   0.693  1.4526 -0.9758  0.6628
 6715SOL     OW31603   0.620   3.803   5.824  0.1080  0.2992 -0.6478
 6715SOL    HW131604   0.619   3.712   5.796 -0.3147 -0.0815  0.6014
 6715SOL    HW231605   0.527   3.816   5.843  0.6995  2.2065  1.0403
 6716SOL     OW31606   1.085   3.689   7.460  0.0140  0.6254  0.5581
 6716SOL    HW131607   1.117   3.688   7.550  1.6245  0.6022 -0.0007
 6716SOL    HW231608   1.092   3.596   7.435 -2.5824  0.1863  1.5333
 6717SOL     OW31609   3.259   1.558  11.235  0.1796  0.5470  0.7112
 6717SOL    HW131610   3.221   1.485  11.186  1.0901  0.4129  0.2135
 6717SOL    HW231611   3.186   1.621  11.232  0.5219  0.8949 -0.3766
 6718SOL     OW31612   4.208   2.108   3.212  0.4068 -0.3674  0.0755
 6718SOL    HW131613   4.190   2.195   3.176 -0.9226 -0.1709  1.2289
 6718SOL    HW231614   4.125   2.095   3.257  1.6176 -0.6697  2.1931
 6719SOL     OW31615   3.373   3.195   9.355  0.1088 -0.2308  0.1280
 6719SOL    HW131616   3.396   3.262   9.419 -0.2792  1.8226 -1.8485
 6719SOL    HW231617   3.322   3.133   9.407  0.0802 -0.6572 -0.4145
 6720SOL     OW31618   3.820   0.566   8.322 -0.0648 -0.1709 -0.2307
 6720SOL    HW131619   3.890   0.517   8.365  0.1326  1.2452  1.0755
 6720SOL    HW231620   3.869   0.643   8.291  2.3999 -0.8173  2.0103
 6721SOL     OW31621   3.470   2.672   5.112  0.4013  0.2693 -0.6393
 6721SOL    HW131622   3.485   2.720   5.031 -0.7074 -0.2171 -1.1272
 6721SOL    HW231623   3.408   2.734   5.151  0.0154 -0.3909 -0.1975
 6722SOL     OW31624   2.566   3.534  11.297  0.6559  0.5618  0.2119
 6722SOL    HW131625   2.577   3.622  11.260 -0.5931  0.1006 -1.2735
 6722SOL    HW231626   2.471   3.522  11.307  0.8780 -2.3038 -0.9385
 6723SOL     OW31627   3.367   4.373   4.586 -0.0564  0.3084 -0.1457
 6723SOL    HW131628   3.398   4.448   4.535  3.5913 -0.8648  0.3268
 6723SOL    HW231629   3.449   4.323   4.583 -0.6842 -0.6613 -1.0679
 6724SOL     OW31630   2.070   2.486  11.206  0.0530  0.2606  0.2874
 6724SOL    HW131631   2.002   2.548  11.180 -0.0110  0.1266  0.1410
 6724SOL    HW231632   2.023   2.403  11.217  1.6116 -0.8977 -2.0150
 6725SOL     OW31633   2.347   3.630   0.935 -0.2389 -0.4275  0.5747
 6725SOL    HW131634   2.284   3.561   0.915 -0.8241  0.7655 -1.7655
 6725SOL    HW231635   2.362   3.611   1.027 -0.1328  3.3017  1.3394
 6726SOL     OW31636   0.337   1.510  10.361  0.0668 -0.1215 -0.2691
 6726SOL    HW131637   0.273   1.443  10.337 -2.5912  2.8007 -1.1954
 6726SOL    HW231638   0.314   1.527  10.453 -1.1294 -1.6758 -0.2793
 6727SOL     OW31639   4.663   3.680  12.782 -0.4361  0.1851 -0.0066
 6727SOL    HW131640   4.670   3.690  12.877  1.1557  1.5113 -0.2683
 6727SOL    HW231641   4.648   3.770  12.754 -0.4579  0.3225  0.4462
 6728SOL     OW31642   2.303   3.869   5.229  0.2886 -0.2699  0.6224
 6728SOL    HW131643   2.223   3.831   5.266 -0.7606 -1.3067 -2.7371
 6728SOL    HW231644   2.276   3.887   5.139 -0.6927 -2.6027  0.4436
 6729SOL     OW31645   2.868   1.060   3.237  0.1956 -0.2008 -0.0732
 6729SOL    HW131646   2.880   1.068   3.142 -1.7896  1.9390 -0.1316
 6729SOL    HW231647   2.919   1.138   3.259 -0.0330 -0.0010 -0.2534
 6730SOL     OW31648   0.248   3.498   7.131 -0.7420  0.5884 -0.4288
 6730SOL    HW131649   0.336   3.534   7.140 -1.4288  1.9603  0.7120
 6730SOL    HW231650   0.239   3.458   7.218 -1.5083  1.1196 -0.2627
 6731SOL     OW31651   1.873   3.289   2.663  0.2623 -0.2291  0.5817
 6731SOL    HW131652   1.885   3.264   2.572  0.9307  1.5548  0.1693
 6731SOL    HW231653   1.936   3.361   2.672 -0.4055  0.3860  0.2709
 6732SOL     OW31654   1.615   4.202  15.679 -0.0071 -0.1895 -0.2462
 6732SOL    HW131655   1.656   4.286  15.698 -1.0155  0.0171  1.0014
 6732SOL    HW231656   1.654   4.178  15.595  0.1343 -0.6191 -0.0594
 6733SOL     OW31657   3.748   2.627   6.812 -0.4892 -0.0289 -0.2915
 6733SOL    HW131658   3.653   2.625   6.797 -0.7010  1.2917  0.8721
 6733SOL    HW231659   3.782   2.573   6.740  1.2913  2.6144 -1.4407
 6734SOL     OW31660   1.477   0.914   7.284 -0.2399 -0.2500 -0.2219
 6734SOL    HW131661   1.542   0.912   7.213  0.4543  1.4428  0.3700
 6734SOL    HW231662   1.521   0.983   7.333 -2.9923  0.8099  0.7507
 6735SOL     OW31663   0.865   3.965   2.054  0.4900 -0.1844  0.1056
 6735SOL    HW131664   0.916   3.893   2.092  2.2400 -0.0575 -1.9791
 6735SOL    HW231665   0.913   3.997   1.977 -1.9469  2.0940 -0.4516
 6736SOL     OW31666   4.564   2.416   5.437  0.0710 -0.2489  0.3947
 6736SOL    HW131667   4.644   2.428   5.487  0.7118  0.7241 -0.8569
 6736SOL    HW231668   4.532   2.505   5.455 -0.8844 -0.7885  1.3787
 6737SOL     OW31669   3.057   1.550  12.002  0.0137  0.4849 -0.4092
 6737SOL    HW131670   3.083   1.636  12.034 -1.4688  0.0714  1.9161
 6737SOL    HW231671   3.087   1.491  12.072 -2.2725 -0.0896  0.1146
 6738SOL     OW31672   3.289   1.512  13.762  0.5409 -0.1460  0.5873
 6738SOL    HW131673   3.210   1.566  13.759  0.1217 -0.7679  0.4124
 6738SOL    HW231674   3.281   1.464  13.679  1.1494 -0.5217  0.7420
 6739SOL     OW31675   3.463   0.496   7.784  0.0850 -0.3431  0.6024
 6739SOL    HW131676   3.429   0.537   7.705 -1.2477 -1.7553  0.4426
 6739SOL    HW231677   3.517   0.426   7.746 -1.2842 -0.2194 -1.5554
 6740SOL     OW31678   3.980   1.669   4.318 -0.2458  0.4232 -0.0711
 6740SOL    HW131679   3.980   1.637   4.408 -2.4131 -0.8461 -0.5249
 6740SOL    HW231680   3.929   1.748   4.335 -0.1626  0.5449 -0.3920
 6741SOL     OW31681   2.070   4.060   0.288 -0.4077  0.4443 -0.1102
 6741SOL    HW131682   2.102   4.126   0.226 -1.8503  0.2559 -1.0476
 6741SOL    HW231683   1.990   4.032   0.245  0.3391 -0.9419 -0.6036
 6742SOL     OW31684   3.056   2.828  12.897  0.0697  0.1853  0.2005
 6742SOL    HW131685   2.999   2.901  12.922  0.3020  0.7017 -0.7649
 6742SOL    HW231686   3.141   2.873  12.905 -0.5403  1.7091 -1.8985
 6743SOL     OW31687   1.302   3.754   0.730  0.0098 -0.9295  0.4780
 6743SOL    HW131688   1.208   3.736   0.738 -0.5030  1.1304 -1.1052
 6743SOL    HW231689   1.325   3.767   0.822  0.6203 -1.9646  0.4735
 6744SOL     OW31690   0.734   2.279   0.187  0.1448  0.4839  0.1385
 6744SOL    HW131691   0.658   2.304   0.239 -0.1637 -0.1087 -0.0251
 6744SOL    HW231692   0.705   2.196   0.148  0.0371  0.5785  0.0202
 6745SOL     OW31693   1.744   1.852   1.125  0.2718  0.2509 -0.1941
 6745SOL    HW131694   1.814   1.917   1.125  0.7260 -0.2507 -0.9984
 6745SOL    HW231695   1.663   1.903   1.129  1.5278  2.0833  1.9392
 6746SOL     OW31696   4.484   2.476  15.448  0.2813 -0.0087 -0.3759
 6746SOL    HW131697   4.500   2.505  15.358  2.7802 -0.4637 -0.0697
 6746SOL    HW231698   4.564   2.430  15.474 -1.8689 -2.2507  2.2916
 6747SOL     OW31699   1.926   4.602  13.086  0.1131 -0.2830  0.5030
 6747SOL    HW131700   1.988   4.662  13.126 -1.7427  1.4282  0.8486
 6747SOL    HW231701   1.862   4.607  13.157 -1.1594  1.2900 -0.7570
 6748SOL     OW31702   0.448   3.527   5.814  0.1640 -0.0645 -0.1838
 6748SOL    HW131703   0.377   3.481   5.859 -0.2231 -1.5527 -2.2642
 6748SOL    HW231704   0.487   3.448   5.776  1.4768 -0.5142  2.1037
 6749SOL     OW31705   3.873   1.826   7.222  0.2416  0.3033  0.0452
 6749SOL    HW131706   3.846   1.849   7.133 -0.4789 -2.7334 -0.5017
 6749SOL    HW231707   3.844   1.735   7.223 -1.5425  0.8797  0.4799
 6750SOL     OW31708   2.125   2.644   1.988  0.3770 -0.3594  0.1755
 6750SOL    HW131709   2.087   2.709   1.929 -1.6464  0.3751  2.2780
 6750SOL    HW231710   2.156   2.569   1.938 -1.0296 -1.3754  0.8542
 6751SOL     OW31711   4.489   1.263   5.124 -0.0920 -0.1643 -0.6174
 6751SOL    HW131712   4.458   1.204   5.055  0.0071 -0.6604 -0.2362
 6751SOL    HW231713   4.404   1.294   5.155 -0.3040  0.0556 -1.4188
 6752SOL     OW31714   2.219   1.449   2.682  0.2945  0.4077 -0.0711
 6752SOL    HW131715   2.294   1.464   2.624  1.0363 -1.6993  0.3435
 6752SOL    HW231716   2.200   1.356   2.671 -1.1088  0.6319  0.4600
 6753SOL     OW31717   3.914   3.733   2.644 -0.2660 -0.0473 -0.4686
 6753SOL    HW131718   3.967   3.757   2.568 -2.2929  1.1190 -1.5175
 6753SOL    HW231719   3.839   3.689   2.604 -0.5993 -0.4986  0.6591
 6754SOL     OW31720   0.559   2.988  13.845  0.4989 -0.1579 -0.4215
 6754SOL    HW131721   0.555   3.047  13.920  0.5714 -0.2235 -0.3669
 6754SOL    HW231722   0.547   3.051  13.774  0.9216 -0.6712 -0.9447
 6755SOL     OW31723   1.590   0.366  15.351 -0.2770 -0.4286 -0.6421
 6755SOL    HW131724   1.593   0.271  15.362  1.6045 -0.0809  1.8221
 6755SOL    HW231725   1.497   0.369  15.330 -0.2343  1.9595 -0.4559
 6756SOL     OW31726   2.447   1.078   8.337 -0.4164  0.1396 -0.6977
 6756SOL    HW131727   2.391   1.022   8.389 -1.7563  1.7936 -0.3604
 6756SOL    HW231728   2.432   1.158   8.388 -2.6912  0.2274 -1.4851
 6757SOL     OW31729   2.318   3.628  11.767  0.0013  0.0182  0.0431
 6757SOL    HW131730   2.400   3.603  11.811 -0.3474  0.4686  0.9468
 6757SOL    HW231731   2.354   3.674  11.691  0.2481  1.6006  1.1155
 6758SOL     OW31732   1.755   4.333   5.365  0.3813 -0.6806  0.0138
 6758SOL    HW131733   1.831   4.362   5.415 -1.4850  2.0023  1.3419
 6758SOL    HW231734   1.787   4.257   5.317  2.6251  0.3462 -0.0996
 6759SOL     OW31735   3.163   3.841   7.251  0.9500 -0.1157  0.1593
 6759SOL    HW131736   3.076   3.879   7.248  0.0817 -2.1184  0.1635
 6759SOL    HW231737   3.147   3.760   7.204 -0.4678  0.9074 -1.1223
 6760SOL     OW31738   3.611   1.206   2.732  0.3275  0.0060  0.1127
 6760SOL    HW131739   3.679   1.169   2.677  0.0175 -2.3027  1.2698
 6760SOL    HW231740   3.556   1.250   2.667  0.6557 -1.1827 -0.9546
 6761SOL     OW31741   2.673   2.938  15.167 -0.1299  1.0501  0.0341
 6761SOL    HW131742   2.727   2.904  15.095  0.1127 -2.1476  1.7246
 6761SOL    HW231743   2.610   2.865  15.165  1.0180  0.0625 -0.4644
 6762SOL     OW31744   4.299   2.124  14.961 -0.1459 -0.1135 -0.0829
 6762SOL    HW131745   4.337   2.131  15.049 -2.2002 -1.5075  0.9163
 6762SOL    HW231746   4.218   2.073  14.973 -0.6039  0.9140  1.2329
 6763SOL     OW31747   4.213   0.354   9.534  0.0153  0.0176  0.0686
 6763SOL    HW131748   4.143   0.396   9.484 -0.0562 -2.7403 -2.1697
 6763SOL    HW231749   4.259   0.306   9.465 -0.0142 -1.2116  0.9184
 6764SOL     OW31750   1.960   2.463   4.506  0.8785 -0.0404 -0.4325
 6764SOL    HW131751   1.940   2.397   4.440  0.2418 -0.7984  0.5028
 6764SOL    HW231752   1.871   2.485   4.534  0.2197 -1.2049 -1.6038
 6765SOL     OW31753   3.312   2.727   2.371 -0.0329  0.5776  0.0420
 6765SOL    HW131754   3.328   2.820   2.389  0.8890  0.4693 -0.2374
 6765SOL    HW231755   3.383   2.689   2.423 -2.9517 -1.5595  2.4799
 6766SOL     OW31756   0.656   2.776   4.721  0.0187 -0.3587  0.3675
 6766SOL    HW131757   0.716   2.709   4.753  0.0971 -0.9484 -1.0153
 6766SOL    HW231758   0.566   2.744   4.717  0.1718 -1.1858  3.3810
 6767SOL     OW31759   2.271   0.092   7.017  0.3088 -0.5579  0.2641
 6767SOL    HW131760   2.180   0.119   7.025  0.4940 -0.2538  1.3256
 6767SOL    HW231761   2.258   0.015   7.073 -1.6637 -0.1485  0.3639
 6768SOL     OW31762   1.155   0.491  16.023  0.6946  0.3402 -0.2435
 6768SOL    HW131763   1.190   0.440  15.950 -0.0225 -0.9099  0.2893
 6768SOL    HW231764   1.069   0.449  16.025  1.2568 -0.8501 -1.0521
 6769SOL     OW31765   0.629   0.465   1.097  0.5878  0.3297 -0.3817
 6769SOL    HW131766   0.707   0.413   1.114  0.6573  0.3736 -0.5661
 6769SOL    HW231767   0.582   0.392   1.056  1.0587  0.6736 -1.5349
 6770SOL     OW31768   1.624   3.106   2.049 -0.0670  0.2348 -0.0276
 6770SOL    HW131769   1.598   3.016   2.067  1.1499  0.0612  0.8361
 6770SOL    HW231770   1.597   3.124   1.959  0.4246  0.5932 -0.1030
 6771SOL     OW31771   2.321   2.941   5.399 -0.1083 -0.2441 -0.2336
 6771SOL    HW131772   2.265   2.964   5.474 -0.2997  1.3964 -0.8709
 6771SOL    HW231773   2.406   2.927   5.440 -0.5053  0.0524  0.7038
 6772SOL     OW31774   3.852   1.671   5.938  0.0979  0.1914  0.0965
 6772SOL    HW131775   3.940   1.633   5.939  0.0221  0.0219  0.2533
 6772SOL    HW231776   3.813   1.623   6.010  1.9694  0.2116  1.1353
 6773SOL     OW31777   4.053   0.930  14.879  0.4148 -0.1179  0.3142
 6773SOL    HW131778   4.074   1.024  14.879 -1.0203  0.1995 -1.0291
 6773SOL    HW231779   4.130   0.897  14.927 -1.2045  0.2083  3.1046
 6774SOL     OW31780   0.384   3.952   5.312  0.1604 -0.0710 -0.2291
 6774SOL    HW131781   0.338   4.026   5.272 -0.5704 -1.3540 -1.7867
 6774SOL    HW231782   0.382   3.881   5.248  0.0078  0.5217 -0.8820
 6775SOL     OW31783   2.035   1.468   6.613  0.7132 -0.0151 -0.3501
 6775SOL    HW131784   2.072   1.522   6.543  0.0249  0.2052 -0.5436
 6775SOL    HW231785   2.118   1.420   6.621 -1.1336 -3.1829  0.1317
 6776SOL     OW31786   1.207   0.693   2.347  0.5667  0.0801  0.2207
 6776SOL    HW131787   1.143   0.652   2.289  0.8589 -0.8745  0.5862
 6776SOL    HW231788   1.248   0.746   2.278 -1.4535  0.6814 -0.5228
 6777SOL     OW31789   1.734   1.930  10.874  0.3800  0.1984 -0.5457
 6777SOL    HW131790   1.788   2.008  10.857  0.0530  0.8562  1.5035
 6777SOL    HW231791   1.757   1.911  10.964  1.9545 -0.4348 -1.0871
 6778SOL     OW31792   1.127   4.203   5.683  0.2508  0.3527 -0.2306
 6778SOL    HW131793   1.088   4.132   5.632  0.1968  0.8290 -0.8421
 6778SOL    HW231794   1.082   4.283   5.657  1.7418  1.2607 -0.0253
 6779SOL     OW31795   0.515   1.692   2.802  0.1374 -0.1223 -0.4885
 6779SOL    HW131796   0.434   1.676   2.850  0.6015 -2.1582 -0.3864
 6779SOL    HW231797   0.489   1.670   2.712 -1.1776 -0.6110  0.0086
 6780SOL     OW31798   3.744   2.466   7.366  0.5430  0.6490  0.0539
 6780SOL    HW131799   3.695   2.385   7.354 -0.1249  1.0899 -0.1867
 6780SOL    HW231800   3.761   2.503   7.279 -0.6176 -0.5681 -0.6896
 6781SOL     OW31801   1.134   0.375   4.965  0.4503 -0.0298  0.1782
 6781SOL    HW131802   1.107   0.422   4.886 -0.3995 -1.0925 -0.1684
 6781SOL    HW231803   1.161   0.291   4.928 -0.0416 -0.1559  0.1055
 6782SOL     OW31804   1.565   1.417   8.697 -1.0081  0.1554  0.3381
 6782SOL    HW131805   1.658   1.431   8.715 -0.7098  0.3680 -1.4095
 6782SOL    HW231806   1.526   1.438   8.782  0.7145  1.3820  0.8272
 6783SOL     OW31807   0.252   3.206  13.279 -0.4655 -0.8768 -0.2280
 6783SOL    HW131808   0.263   3.111  13.272  1.6852 -0.5075 -1.6410
 6783SOL    HW231809   0.216   3.219  13.367 -2.7229  0.0551 -1.2739
 6784SOL     OW31810   3.138   3.103   4.810  0.4829  0.0170  0.4623
 6784SOL    HW131811   3.160   3.021   4.854  1.1878  0.1245  0.3106
 6784SOL    HW231812   3.226   3.121   4.776  0.6513  1.4160  1.6478
 6785SOL     OW31813   2.038   4.627  16.345 -0.1141 -0.2860 -0.0212
 6785SOL    HW131814   2.030   4.565  16.418 -1.7440  1.1790  1.0363
 6785SOL    HW231815   2.101   4.585  16.287  0.5157  0.5776  0.0325
 6786SOL     OW31816   3.799   3.693  14.831  0.0915  0.4016  0.3760
 6786SOL    HW131817   3.815   3.735  14.915 -0.7283  1.4755 -0.0103
 6786SOL    HW231818   3.727   3.751  14.808 -0.3162  0.6860  2.4096
 6787SOL     OW31819   2.250   2.032   4.023 -1.0849  0.0607 -0.1938
 6787SOL    HW131820   2.211   2.110   3.984 -1.2401  0.0116 -0.1367
 6787SOL    HW231821   2.175   1.996   4.071 -0.2702 -1.8098 -0.3037
 6788SOL     OW31822   2.674   3.738  13.711  0.0504  0.3995 -0.2929
 6788SOL    HW131823   2.652   3.698  13.627  1.0613 -3.4071  1.2792
 6788SOL    HW231824   2.620   3.677  13.762  0.0720  1.2089  0.6990
 6789SOL     OW31825   3.541   0.160   8.040  0.7081  0.7140  0.0230
 6789SOL    HW131826   3.544   0.251   8.011  0.6937 -0.4389 -3.5421
 6789SOL    HW231827   3.446   0.156   8.050  0.4386  0.0669 -2.8096
 6790SOL     OW31828   0.307   4.543   0.233  0.2707  0.3031  0.0951
 6790SOL    HW131829   0.332   4.620   0.181 -0.2595  0.4324  0.0375
 6790SOL    HW231830   0.251   4.589   0.295 -1.2724 -1.3412 -0.0833
 6791SOL     OW31831   3.550   4.676   5.785 -0.2925  0.0985 -0.4923
 6791SOL    HW131832   3.538   4.584   5.760  0.2658 -0.2339  0.4674
 6791SOL    HW231833   3.631   4.686   5.735  0.3984  0.6204  0.7107
 6792SOL     OW31834   1.457   1.220  10.228 -0.2126  0.2823  0.5185
 6792SOL    HW131835   1.421   1.212  10.140 -1.3866 -0.2290  1.0332
 6792SOL    HW231836   1.412   1.301  10.254 -1.2336  0.0872 -0.6307
 6793SOL     OW31837   2.224   0.814  12.685 -0.2709 -0.3950  0.0206
 6793SOL    HW131838   2.159   0.769  12.631 -1.2210  0.6626  0.2850
 6793SOL    HW231839   2.209   0.778  12.772 -0.9048  0.3039  0.1940
 6794SOL     OW31840   3.258   0.389   0.697  0.2985  0.5385  0.1556
 6794SOL    HW131841   3.326   0.438   0.650 -1.9320  2.3037 -1.1906
 6794SOL    HW231842   3.224   0.337   0.624 -1.2939  3.4019 -1.1106
 6795SOL     OW31843   1.967   4.474   5.499 -0.0201  0.6459 -0.2450
 6795SOL    HW131844   2.028   4.434   5.437  1.4974  1.4006  0.7816
 6795SOL    HW231845   1.982   4.425   5.579  0.4368 -0.5779 -1.0806
 6796SOL     OW31846   1.592   1.645  16.260  0.2521 -0.0213 -0.2635
 6796SOL    HW131847   1.612   1.554  16.284  0.8250 -0.4197 -2.1949
 6796SOL    HW231848   1.668   1.696  16.290  0.3383  0.0881 -0.6674
 6797SOL     OW31849   2.259   3.715   8.929  0.4697 -0.1966  0.3303
 6797SOL    HW131850   2.276   3.731   8.836 -0.3626 -0.0281  0.1987
 6797SOL    HW231851   2.312   3.638   8.949  0.9989  0.2238  0.5276
 6798SOL     OW31852   3.146   1.252   5.749  0.0371  0.1842  0.4180
 6798SOL    HW131853   3.182   1.341   5.748 -3.6254  1.6322 -1.6996
 6798SOL    HW231854   3.061   1.271   5.788 -0.2945 -1.4202  0.4804
 6799SOL     OW31855   1.192   3.393   7.957 -0.3647  0.8473 -0.7063
 6799SOL    HW131856   1.238   3.469   7.922  1.5571 -0.2754 -0.6496
 6799SOL    HW231857   1.159   3.423   8.042  0.6146  1.7935 -0.6643
 6800SOL     OW31858   3.957   2.149   7.965  0.2556 -0.0025  0.1649
 6800SOL    HW131859   3.986   2.225   8.016  0.4549 -2.5912  3.8454
 6800SOL    HW231860   3.882   2.192   7.923  0.3299 -1.1253 -1.1071
 6801SOL     OW31861   0.136   3.932   5.910 -0.7693  0.2388  0.8445
 6801SOL    HW131862   0.196   3.983   5.963  0.2053  2.4460 -2.4363
 6801SOL    HW231863   0.187   3.905   5.834 -2.3954 -0.8412  0.1442
 6802SOL     OW31864   2.679   0.303   6.446  0.6225 -0.4480 -0.0518
 6802SOL    HW131865   2.720   0.218   6.462  1.9785 -0.0316 -1.3280
 6802SOL    HW231866   2.718   0.335   6.365 -0.9043  1.0714 -0.1807
 6803SOL     OW31867   1.869   4.422   4.347  0.3446  0.1356  0.4467
 6803SOL    HW131868   1.936   4.357   4.323 -1.2180 -0.8069 -1.3341
 6803SOL    HW231869   1.866   4.422   4.443  2.4519  0.7901  0.5162
 6804SOL     OW31870   0.426   2.561   4.328 -0.2409 -0.7418  0.4152
 6804SOL    HW131871   0.492   2.629   4.340 -1.4562  0.3880  0.6532
 6804SOL    HW231872   0.369   2.577   4.403 -2.0341 -0.1249 -1.0907
 6805SOL     OW31873   1.527   1.190  12.539 -0.2719 -0.7986  0.1248
 6805SOL    HW131874   1.466   1.244  12.589 -0.9762 -1.5171  0.0393
 6805SOL    HW231875   1.599   1.204  12.601  0.1025  0.6704 -0.6307
 6806SOL     OW31876   1.353   0.084   5.507 -0.0730  0.0869 -0.6208
 6806SOL    HW131877   1.430   0.128   5.470  1.8168 -2.9199 -0.2821
 6806SOL    HW231878   1.320   0.165   5.546 -1.0120  0.1343 -1.5208
 6807SOL     OW31879   3.453   2.819   8.219 -0.7558 -0.2406 -0.6539
 6807SOL    HW131880   3.397   2.854   8.150  0.5527  1.5907 -0.7739
 6807SOL    HW231881   3.501   2.894   8.255  0.6369 -1.4909  0.0974
 6808SOL     OW31882   0.651   0.653   5.595  0.4325 -0.2990  0.0381
 6808SOL    HW131883   0.725   0.685   5.647  0.2786  1.3636 -0.7556
 6808SOL    HW231884   0.667   0.696   5.511  0.4737 -2.1213 -0.8936
 6809SOL     OW31885   0.904   0.426  10.118  0.1482  0.4581 -0.2662
 6809SOL    HW131886   0.826   0.401  10.069 -0.7650 -0.9227  1.8767
 6809SOL    HW231887   0.971   0.377  10.071  0.1164  0.4919 -0.3464
 6810SOL     OW31888   1.753   4.543   3.777 -0.2839 -0.2536  0.1088
 6810SOL    HW131889   1.671   4.542   3.825 -0.9792  0.9952 -1.0650
 6810SOL    HW231890   1.772   4.637   3.779  0.1664 -0.2757 -2.9131
 6811SOL     OW31891   3.947   4.227   4.802 -0.7801 -0.0249  0.1654
 6811SOL    HW131892   3.897   4.308   4.812 -0.6646 -0.6069  5.6546
 6811SOL    HW231893   4.019   4.225   4.866 -0.9573 -2.4413  0.2715
 6812SOL     OW31894   0.235   0.408   4.288  0.0175  0.1477 -0.0026
 6812SOL    HW131895   0.265   0.367   4.369 -0.8871 -1.6883 -0.6069
 6812SOL    HW231896   0.317   0.453   4.268 -0.0124  0.9430  1.6933
 6813SOL     OW31897   2.462   1.995   7.696  0.8985 -0.3363  0.1318
 6813SOL    HW131898   2.377   1.987   7.653  0.4526  2.3630  0.5145
 6813SOL    HW231899   2.436   1.997   7.788 -1.7870  2.0429 -0.6590
 6814SOL     OW31900   3.103   1.516   3.537 -0.4765  0.1412  0.0600
 6814SOL    HW131901   3.106   1.586   3.471  2.4632 -0.0174  0.0095
 6814SOL    HW231902   3.099   1.574   3.613  0.8874  1.7052 -1.0538
 6815SOL     OW31903   4.180   1.433  16.073  0.3020 -0.3856  0.5510
 6815SOL    HW131904   4.220   1.518  16.095  2.2523 -0.8003 -1.3664
 6815SOL    HW231905   4.092   1.441  16.109 -0.4134 -2.5666 -0.7414
 6816SOL     OW31906   4.535   4.267   2.249  0.5219  0.2320 -0.2557
 6816SOL    HW131907   4.487   4.196   2.206 -1.2088  1.0305  0.3557
 6816SOL    HW231908   4.501   4.345   2.205  1.0746  0.6072 -0.0110
 6817SOL     OW31909   4.711   2.722   9.461  0.0397  0.1618  0.4990
 6817SOL    HW131910   4.626   2.688   9.488  0.9419 -2.6867 -0.2450
 6817SOL    HW231911   0.044   2.653   9.495  0.2897 -0.8572 -1.9765
 6818SOL     OW31912   2.248   2.348   4.758  0.1601  0.4481 -0.3907
 6818SOL    HW131913   2.322   2.406   4.775 -0.7028  2.7388 -4.5389
 6818SOL    HW231914   2.202   2.357   4.841  0.2693  0.5755 -0.3445
 6819SOL     OW31915   2.533   2.814   3.697  0.5061 -0.1573 -0.2463
 6819SOL    HW131916   2.602   2.759   3.660  1.2784 -0.1671  1.1977
 6819SOL    HW231917   2.514   2.758   3.772 -0.6136 -1.2475 -1.3410
 6820SOL     OW31918   3.497   3.879   5.313  0.3804 -0.0850 -0.0033
 6820SOL    HW131919   3.464   3.795   5.347 -0.7401 -0.0555 -1.0012
 6820SOL    HW231920   3.551   3.906   5.387  0.0721 -0.3338  0.3143
 6821SOL     OW31921   1.040   4.458   5.082 -0.5436  0.1154  0.0661
 6821SOL    HW131922   1.068   4.452   5.174 -0.5444 -2.4612 -0.1177
 6821SOL    HW231923   0.950   4.489   5.097  0.0185  0.9324  1.8496
 6822SOL     OW31924   3.966   1.357  11.230  0.3912 -0.2727  0.2535
 6822SOL    HW131925   3.883   1.383  11.270  0.1926  1.6290 -1.3888
 6822SOL    HW231926   3.952   1.263  11.241  1.0065 -0.0016  3.2705
 6823SOL     OW31927   2.736   0.225   7.649  0.0940  0.1350 -0.3553
 6823SOL    HW131928   2.719   0.148   7.702  2.1093 -0.9474 -1.2786
 6823SOL    HW231929   2.819   0.200   7.608 -0.1908  0.2385 -0.9964
 6824SOL     OW31930   3.316   3.835  14.309 -0.5761 -0.3402  0.5596
 6824SOL    HW131931   3.245   3.866  14.365 -0.5006  0.9305 -0.0460
 6824SOL    HW231932   3.266   3.820  14.228  0.3785  2.4041 -0.5498
 6825SOL     OW31933   1.589   0.086   7.024 -0.6182 -0.1904 -0.1992
 6825SOL    HW131934   1.562   0.115   7.111  1.1588  1.3304 -0.1467
 6825SOL    HW231935   1.539   0.008   6.999  0.8816 -0.6301 -1.8682
 6826SOL     OW31936   3.554   2.603  17.221  0.3167  0.2201 -0.3711
 6826SOL    HW131937   3.510   2.542  17.162  0.1933  0.1914 -0.2511
 6826SOL    HW231938   3.621   2.549  17.262 -0.0551 -0.0329 -0.0873
 6827SOL     OW31939   3.528   2.958   7.761 -0.6715  0.0694 -0.4498
 6827SOL    HW131940   3.486   3.039   7.791  2.4534  0.7801  2.0636
 6827SOL    HW231941   3.587   2.939   7.834  3.2732  0.7097 -3.4686
 6828SOL     OW31942   2.098   3.849  12.159  0.6930 -0.3902 -0.3910
 6828SOL    HW131943   2.064   3.765  12.129  0.0164 -1.2203  2.7325
 6828SOL    HW231944   2.190   3.844  12.135  0.6088 -0.3894 -0.7280
 6829SOL     OW31945   2.907   3.424   6.989  0.4079  0.4899 -0.7497
 6829SOL    HW131946   2.951   3.456   7.067  1.1481 -1.1954 -0.4796
 6829SOL    HW231947   2.952   3.342   6.970 -0.4148  0.0434 -0.7640
 6830SOL     OW31948   4.497   3.191   8.420  0.0855 -0.4002 -0.0904
 6830SOL    HW131949   4.487   3.284   8.400 -0.9951 -0.3528  0.6186
 6830SOL    HW231950   4.445   3.170   8.498  0.2293  2.5078  0.7933
 6831SOL     OW31951   0.707   2.692   7.002  0.7965 -0.0110  0.4291
 6831SOL    HW131952   0.661   2.730   7.077  2.4895  0.3023  1.3171
 6831SOL    HW231953   0.709   2.605   7.041 -1.4748  0.7844  2.3022
 6832SOL     OW31954   4.069   1.903   3.068  0.8007 -0.0679  0.1436
 6832SOL    HW131955   3.990   1.956   3.081  0.8404  0.3873 -1.3696
 6832SOL    HW231956   4.135   1.967   3.093 -1.4590  1.8764  1.0767
 6833SOL     OW31957   0.027   2.199   0.176 -0.9085 -0.2005 -0.2798
 6833SOL    HW131958   0.114   2.214   0.212 -1.0051 -0.7744  0.2031
 6833SOL    HW231959   0.055   2.170   0.090  0.0391 -0.7455  0.2145
 6834SOL     OW31960   2.584   0.975   3.768  0.1268 -0.0076 -0.5406
 6834SOL    HW131961   2.637   0.896   3.761  0.9456  0.6036 -1.1456
 6834SOL    HW231962   2.652   1.041   3.764  1.0457 -1.0195 -1.4576
 6835SOL     OW31963   4.061   2.624  13.475 -0.3952  0.0489  0.0357
 6835SOL    HW131964   4.097   2.537  13.493 -2.7918 -1.2966 -1.6165
 6835SOL    HW231965   3.971   2.614  13.508  0.1976  0.1677  1.6507
 6836SOL     OW31966   1.185   0.075   4.479 -0.5314 -0.3203 -0.0523
 6836SOL    HW131967   1.199   0.099   4.387  0.1237 -0.1305  0.1037
 6836SOL    HW231968   1.257   0.015   4.493  0.7784  1.3154  0.2060
 6837SOL     OW31969   0.360   2.769  11.410 -0.6618  0.0952 -0.6275
 6837SOL    HW131970   0.342   2.679  11.436  0.2333 -0.0280 -0.4116
 6837SOL    HW231971   0.309   2.786  11.331 -1.4022  2.8653  0.4362
 6838SOL     OW31972   2.988   2.247   8.575  0.0357  0.2761 -0.2220
 6838SOL    HW131973   2.979   2.186   8.502 -0.0051  0.3763 -0.3009
 6838SOL    HW231974   3.037   2.186   8.631  2.7475  2.1994 -0.4610
 6839SOL     OW31975   2.901   4.301   2.541 -0.6125 -1.0239  0.0818
 6839SOL    HW131976   2.892   4.355   2.620  1.3095  0.8377 -0.9752
 6839SOL    HW231977   2.810   4.292   2.514 -0.1342 -2.1942 -1.1679
 6840SOL     OW31978   3.399   2.069   3.834 -0.0856  0.5162  0.6638
 6840SOL    HW131979   3.394   2.137   3.902 -0.2098  0.5821  0.5890
 6840SOL    HW231980   3.449   2.003   3.883 -0.1336  0.0059  0.0222
 6841SOL     OW31981   2.893   1.267   4.040 -0.0876 -0.6385 -0.1790
 6841SOL    HW131982   2.946   1.271   3.961  1.0551  1.9010  0.7051
 6841SOL    HW231983   2.851   1.353   4.040 -0.7926 -0.9800  0.2490
 6842SOL     OW31984   0.250   0.413   5.831 -0.8692  0.0715  0.2486
 6842SOL    HW131985   0.180   0.452   5.883 -2.7309  0.5041 -2.5622
 6842SOL    HW231986   0.322   0.467   5.865 -2.6316  2.3292  0.4245
 6843SOL     OW31987   1.707   2.313   5.465 -0.4894 -0.0223 -0.2742
 6843SOL    HW131988   1.665   2.235   5.428 -1.5236  1.1620 -1.6159
 6843SOL    HW231989   1.748   2.360   5.392 -2.5462 -1.2523 -2.2217
 6844SOL     OW31990   0.534   0.550   3.686 -0.0456  0.2898  0.0891
 6844SOL    HW131991   0.617   0.584   3.652 -0.3295  0.1515 -0.7459
 6844SOL    HW231992   0.542   0.455   3.675 -1.4176  0.3115 -1.0854
 6845SOL     OW31993   2.048   2.668   7.952 -0.7200  0.1702 -0.0790
 6845SOL    HW131994   2.024   2.678   7.860  3.0576 -0.1201 -1.0807
 6845SOL    HW231995   2.090   2.754   7.960 -1.0416  0.3056  0.1742
 6846SOL     OW31996   3.031   2.279   6.183  0.6925  0.0055  0.4409
 6846SOL    HW131997   2.958   2.302   6.241  0.4360 -0.1126  0.1644
 6846SOL    HW231998   2.994   2.216   6.122  0.3826  1.8010 -1.2373
 6847SOL     OW31999   3.568   1.040   1.028  0.1727  0.0888  0.3902
 6847SOL    HW132000   3.479   1.008   1.045  0.8047 -1.4038  0.9141
 6847SOL    HW232001   3.584   1.050   1.122  1.1642 -1.8249  0.4173
 6848SOL     OW32002   1.565   1.930  17.399  0.0202 -0.1104  0.3109
 6848SOL    HW132003   1.614   1.851  17.419  0.2988  0.4739  1.9389
 6848SOL    HW232004   1.483   1.892  17.368  0.5341 -0.6011 -0.4314
 6849SOL     OW32005   0.632   2.412   9.332 -0.0683  0.3381 -0.2589
 6849SOL    HW132006   0.542   2.382   9.344 -0.2609  0.6967 -0.7846
 6849SOL    HW232007   0.628   2.507   9.344  1.1248  0.4549 -0.8312
 6850SOL     OW32008   1.086   4.701   3.110 -0.3149 -0.0232  0.0256
 6850SOL    HW132009   1.081   4.651   3.029  0.2885  0.4475 -0.3077
 6850SOL    HW232010   1.056   4.632   3.169  1.2949 -0.9871 -0.2809
 6851SOL     OW32011   0.421   0.260   9.949 -0.0041  0.1261  0.0485
 6851SOL    HW132012   0.439   0.263  10.043 -1.0369  1.7730  0.1801
 6851SOL    HW232013   0.475   0.184   9.926  1.7237  0.7079  2.2056
 6852SOL     OW32014   3.521   4.568   3.939 -0.8274  0.6932  0.3527
 6852SOL    HW132015   3.441   4.619   3.934 -1.3797 -0.1827  0.1864
 6852SOL    HW232016   3.543   4.572   4.032  1.1911  0.9393 -0.1222
 6853SOL     OW32017   1.745   3.957   7.092  0.0819 -0.2367  0.0045
 6853SOL    HW132018   1.732   4.045   7.057  0.8582 -0.8260 -1.7860
 6853SOL    HW232019   1.673   3.933   7.150  1.7797 -2.5753  1.1269
 6854SOL     OW32020   3.752   4.183   3.310 -0.0739 -0.2615  0.0229
 6854SOL    HW132021   3.698   4.111   3.278 -0.4430 -0.8585  1.9892
 6854SOL    HW232022   3.777   4.233   3.232 -0.0503  1.2171  0.9744
 6855SOL     OW32023   0.384   2.497   1.082  0.1455 -0.1472 -1.0162
 6855SOL    HW132024   0.295   2.488   1.116 -0.2844 -0.7113 -2.2719
 6855SOL    HW232025   0.373   2.473   0.990  0.5343 -0.2136 -1.0455
 6856SOL     OW32026   2.018   2.056   5.115  0.6937 -0.0847  0.0796
 6856SOL    HW132027   2.073   2.135   5.113  0.8909 -0.1555  2.3357
 6856SOL    HW232028   1.934   2.096   5.092 -0.1773 -0.1375  3.1246
 6857SOL     OW32029   2.422   0.123   3.801 -0.3204 -0.2766  0.4753
 6857SOL    HW132030   2.512   0.110   3.773 -0.4934 -3.4288  1.3570
 6857SOL    HW232031   2.430   0.100   3.894  0.9294 -1.9429 -0.0336
 6858SOL     OW32032   1.116   2.757   5.751  0.3954 -0.4371  0.3059
 6858SOL    HW132033   1.021   2.745   5.753  0.2177  0.9730 -0.2827
 6858SOL    HW232034   1.134   2.819   5.822 -0.0310 -1.2888  1.1613
 6859SOL     OW32035   3.448   3.327   3.527  0.0806 -0.0493 -0.2020
 6859SOL    HW132036   3.391   3.359   3.598  0.5702 -2.3582  1.2379
 6859SOL    HW232037   3.395   3.331   3.448 -2.0125  0.8523  1.2422
 6860SOL     OW32038   1.508   2.894   4.888  0.3522  0.4348 -0.5803
 6860SOL    HW132039   1.454   2.897   4.967  2.1639 -1.0952  0.7254
 6860SOL    HW232040   1.453   2.943   4.827  0.8356  0.6352 -0.8598
 6861SOL     OW32041   3.690   3.574   6.558 -0.5489  0.6868 -0.1940
 6861SOL    HW132042   3.696   3.624   6.640 -2.3961  1.3970 -0.4876
 6861SOL    HW232043   3.692   3.637   6.487 -2.2952 -1.6059 -2.2944
 6862SOL     OW32044   3.595   2.382   8.132 -0.1522 -0.6006 -0.5417
 6862SOL    HW132045   3.538   2.357   8.060 -0.4513 -0.4249 -0.3646
 6862SOL    HW232046   3.663   2.430   8.085  1.0383  0.2227  2.0318
 6863SOL     OW32047   1.824   3.473   4.331  0.1296  0.0548 -0.8533
 6863SOL    HW132048   1.864   3.561   4.330 -2.7697  1.3637 -0.6658
 6863SOL    HW232049   1.900   3.414   4.332 -0.2274 -0.4024 -0.8882
 6864SOL     OW32050   3.564   0.132   6.512 -0.1879 -0.1610 -0.0140
 6864SOL    HW132051   3.470   0.118   6.506 -0.2664  1.1013 -1.6123
 6864SOL    HW232052   3.562   0.227   6.518  0.7690 -0.2185  1.3016
 6865SOL     OW32053   4.273   1.160   2.244 -0.4143  0.2025  0.1318
 6865SOL    HW132054   4.270   1.078   2.195 -1.0878 -0.7792  1.8049
 6865SOL    HW232055   4.302   1.120   2.326  2.4933  0.8857 -0.5619
 6866SOL     OW32056   0.750   3.760   4.329  0.2829  0.1061  0.8332
 6866SOL    HW132057   0.754   3.724   4.240 -0.1550  0.3468  0.7130
 6866SOL    HW232058   0.788   3.695   4.387 -1.8417 -0.7963  1.2087
 6867SOL     OW32059   0.665   0.898   2.202  0.7516  0.0860 -0.7246
 6867SOL    HW132060   0.667   0.806   2.175  1.4075 -0.7458  2.0595
 6867SOL    HW232061   0.683   0.888   2.296  0.6173  0.0833 -0.6991
 6868SOL     OW32062   1.347   1.353   6.896  0.9519  0.3674 -0.0151
 6868SOL    HW132063   1.326   1.435   6.850  0.3402 -0.2697 -0.8600
 6868SOL    HW232064   1.347   1.374   6.990  0.3821 -0.2409  0.1195
 6869SOL     OW32065   1.854   0.288   3.033  0.0529  0.0805 -0.0635
 6869SOL    HW132066   1.874   0.242   2.951  1.8263  1.9712 -0.7091
 6869SOL    HW232067   1.789   0.350   3.000 -0.3342  0.5610  1.6379
 6870SOL     OW32068   4.409   3.729  11.655 -0.1667  0.2187  0.4810
 6870SOL    HW132069   4.461   3.779  11.592  2.0002 -0.4654  1.7203
 6870SOL    HW232070   4.419   3.771  11.740  0.2930 -2.1396  1.5975
 6871SOL     OW32071   4.355   3.359  15.926 -0.1462 -0.2892 -0.1275
 6871SOL    HW132072   4.395   3.309  15.998 -0.9955 -0.1165  0.4611
 6871SOL    HW232073   4.266   3.367  15.960  0.6055  2.2963  1.2272
 6872SOL     OW32074   2.561   1.043   4.073  0.3682 -0.6675 -0.6109
 6872SOL    HW132075   2.528   0.964   4.031 -0.3287  0.9265 -3.0783
 6872SOL    HW232076   2.655   1.036   4.053  0.4741  0.4606 -0.5172
 6873SOL     OW32077   1.585   0.296   2.346 -0.0018  0.4052 -0.4051
 6873SOL    HW132078   1.629   0.217   2.315  0.4272  0.4564  0.0643
 6873SOL    HW232079   1.495   0.290   2.315 -0.2574  0.1860  0.3618
 6874SOL     OW32080   4.251   1.374   1.062  0.1121 -0.0199 -0.3213
 6874SOL    HW132081   4.303   1.440   1.108  3.0617 -2.2558 -0.3828
 6874SOL    HW232082   4.230   1.427   0.985  0.6363 -0.5319 -0.8189
 6875SOL     OW32083   2.582   2.570   5.687 -0.0987 -0.1730 -0.6640
 6875SOL    HW132084   2.506   2.608   5.731  0.6142 -0.1134  0.5213
 6875SOL    HW232085   2.646   2.642   5.689 -2.1228  1.5025  2.3288
 6876SOL     OW32086   4.604   3.817  16.761 -0.5321  0.0368  0.7050
 6876SOL    HW132087   4.529   3.842  16.708  0.2022 -2.7503 -1.6660
 6876SOL    HW232088   4.589   3.722  16.758 -1.2334  0.1291  1.2742
 6877SOL     OW32089   0.548   1.843   6.335 -0.0131 -0.3523 -0.4322
 6877SOL    HW132090   0.563   1.905   6.263  1.2074  0.7270  0.7470
 6877SOL    HW232091   0.475   1.786   6.309  1.3164 -1.2914 -2.0807
 6878SOL     OW32092   0.375   0.811   6.220 -0.0216  0.2590 -0.1610
 6878SOL    HW132093   0.384   0.716   6.229  0.5065  0.2016 -1.3600
 6878SOL    HW232094   0.395   0.841   6.309  1.8143 -0.2703 -0.3845
 6879SOL     OW32095   2.604   1.318   7.990 -0.3214  0.2213  0.2790
 6879SOL    HW132096   2.574   1.313   7.900 -0.7304  0.9911  0.3783
 6879SOL    HW232097   2.532   1.296   8.049 -1.5325 -0.7811 -1.5770
 6880SOL     OW32098   2.268   1.536   5.657 -0.0357 -0.6695  0.3444
 6880SOL    HW132099   2.320   1.595   5.602 -0.3389  0.1822  0.9739
 6880SOL    HW232100   2.256   1.451   5.616 -0.7859 -1.2223  1.7160
 6881SOL     OW32101   3.452   4.310   4.035 -0.6272 -0.3132  0.2595
 6881SOL    HW132102   3.447   4.358   4.118  0.8541  0.2102  0.0552
 6881SOL    HW232103   3.466   4.390   3.984  0.3136 -1.7987 -1.7781
 6882SOL     OW32104   0.456   4.296   8.679 -0.0171  0.2898 -0.5345
 6882SOL    HW132105   0.538   4.273   8.721 -0.3618  1.7191  0.9401
 6882SOL    HW232106   0.492   4.383   8.660 -1.0572  0.4035 -2.0188
 6883SOL     OW32107   0.136   4.339   7.223  0.3012  0.2981  0.1517
 6883SOL    HW132108   0.082   4.288   7.163  0.4389 -0.1285  0.3900
 6883SOL    HW232109   0.069   4.407   7.232 -0.3026 -0.5366  2.1198
 6884SOL     OW32110   0.290   3.850   0.709  0.7669  0.3109 -0.0501
 6884SOL    HW132111   0.246   3.934   0.726 -0.4286 -0.1716 -0.7452
 6884SOL    HW232112   0.369   3.884   0.667  0.0804  0.5243 -1.1820
 6885SOL     OW32113   3.343   1.962   2.076 -0.7905  0.0838 -0.4141
 6885SOL    HW132114   3.271   1.926   2.025  0.0290 -1.1027 -0.7239
 6885SOL    HW232115   3.388   2.012   2.008 -0.1766 -2.2985 -1.7334
 6886SOL     OW32116   2.817   3.723  11.882 -0.2765  0.1249 -0.0664
 6886SOL    HW132117   2.827   3.738  11.788 -1.4210  1.5197  0.0201
 6886SOL    HW232118   2.784   3.808  11.912  0.1652 -0.4720  2.0628
 6887SOL     OW32119   1.232   3.468  14.992  0.0053 -0.3203 -0.4855
 6887SOL    HW132120   1.211   3.477  14.899  1.5618 -0.4884 -0.8533
 6887SOL    HW232121   1.157   3.514  15.030 -1.1107 -1.5571 -1.2111
 6888SOL     OW32122   0.892   1.622  14.197  0.2780  0.5052  0.4063
 6888SOL    HW132123   0.897   1.576  14.113  0.6259 -0.6884  1.0798
 6888SOL    HW232124   0.845   1.565  14.257  2.1363 -0.9656  0.4660
 6889SOL     OW32125   1.210   0.271   9.788 -0.0517 -0.7111 -0.6231
 6889SOL    HW132126   1.232   0.343   9.847  0.0386  1.1569 -2.9391
 6889SOL    HW232127   1.119   0.296   9.775  0.7974  1.4919 -2.3175
 6890SOL     OW32128   3.379   3.159   8.960 -0.6322  0.5279 -0.5951
 6890SOL    HW132129   3.352   3.067   8.950 -0.8873  0.7521 -2.0038
 6890SOL    HW232130   3.297   3.201   8.984 -0.3807  0.8236 -0.2579
 6891SOL     OW32131   1.788   4.604   6.057 -0.0790 -0.3021  0.8310
 6891SOL    HW132132   1.722   4.543   6.089 -0.5673  0.5098  1.3811
 6891SOL    HW232133   1.798   4.561   5.973 -0.6821  2.4665 -0.6468
 6892SOL     OW32134   1.928   2.265   8.608  0.1728  0.4389  0.3493
 6892SOL    HW132135   2.011   2.221   8.629 -0.4863 -0.4624  1.0512
 6892SOL    HW232136   1.959   2.322   8.538 -2.4208  2.0579  0.5234
 6893SOL     OW32137   3.600   2.210   7.306  0.0042  0.6622  0.0404
 6893SOL    HW132138   3.608   2.137   7.245  2.1520 -0.6169  1.8956
 6893SOL    HW232139   3.559   2.158   7.374  1.5630  1.6921  1.7912
 6894SOL     OW32140   3.389   0.933   9.802 -0.1399  0.4321 -0.0134
 6894SOL    HW132141   3.383   0.875   9.878 -2.6127 -0.3092 -0.7836
 6894SOL    HW232142   3.471   0.896   9.769  0.1839  0.2520  0.9903
 6895SOL     OW32143   2.074   1.102   8.264  0.1499  0.0353 -0.3458
 6895SOL    HW132144   2.015   1.178   8.259  1.6894  1.3625  1.5247
 6895SOL    HW232145   2.121   1.095   8.181 -0.2797 -0.1362 -0.5742
 6896SOL     OW32146   0.388   0.312  11.339  0.1513  0.1547  0.0293
 6896SOL    HW132147   0.435   0.257  11.402 -0.3317 -1.5581 -1.0966
 6896SOL    HW232148   0.438   0.393  11.327  2.7985 -1.6904 -1.2219
 6897SOL     OW32149   1.607   1.319   6.794 -0.0203 -0.4399 -0.3136
 6897SOL    HW132150   1.516   1.330   6.819 -1.0548  1.2222 -4.8356
 6897SOL    HW232151   1.646   1.371   6.864  0.3007 -2.2370  0.8325
 6898SOL     OW32152   2.279   2.565   5.914  0.1778  0.4343  0.3295
 6898SOL    HW132153   2.331   2.602   5.984  0.2218 -0.1283  0.5952
 6898SOL    HW232154   2.206   2.626   5.910  0.3322  0.4804 -2.1722
 6899SOL     OW32155   2.698   1.429   4.426  0.5963 -0.0666  0.3592
 6899SOL    HW132156   2.717   1.458   4.515 -1.1503 -1.0991  1.0663
 6899SOL    HW232157   2.712   1.335   4.436  1.6825  0.2245  1.6239
 6900SOL     OW32158   0.908   4.573   6.670  0.2676  0.3882  0.4436
 6900SOL    HW132159   0.947   4.540   6.751 -0.0136 -2.0232 -0.4029
 6900SOL    HW232160   0.871   4.491   6.637 -0.5983  0.7656  0.4711
 6901SOL     OW32161   4.656   3.242   1.202  0.0912  0.5472  0.1518
 6901SOL    HW132162   0.017   3.198   1.212 -0.8021 -1.0375  0.6375
 6901SOL    HW232163   4.612   3.203   1.277 -0.4605 -0.5081 -0.7317
 6902SOL     OW32164   1.620   1.725  13.396 -0.0953 -0.1813  0.1373
 6902SOL    HW132165   1.683   1.796  13.388 -0.2022 -0.1400 -0.3631
 6902SOL    HW232166   1.546   1.763  13.443  0.2942  2.2331 -1.1736
 6903SOL     OW32167   4.655   2.480   1.495 -0.2276 -0.4894 -0.5819
 6903SOL    HW132168   4.624   2.532   1.421  1.3791  0.5355 -0.5374
 6903SOL    HW232169   0.016   2.445   1.469  1.0548  0.3917  2.3728
 6904SOL     OW32170   1.375   4.041   5.738 -0.0737 -0.3691 -0.4443
 6904SOL    HW132171   1.314   4.109   5.710 -1.2042 -1.1978  0.0056
 6904SOL    HW232172   1.327   3.959   5.740 -1.7745  0.6881  1.5408
 6905SOL     OW32173   0.764   1.631   4.711  0.0091 -0.3186 -0.0553
 6905SOL    HW132174   0.785   1.563   4.647  1.0178  1.6236 -1.7815
 6905SOL    HW232175   0.675   1.609   4.737 -0.3697  0.8559 -0.3314
 6906SOL     OW32176   0.852   4.323   1.911  0.1419  0.5765 -0.6996
 6906SOL    HW132177   0.770   4.276   1.923  0.2069  0.7273  0.4143
 6906SOL    HW232178   0.908   4.264   1.962 -0.3606  0.0123 -0.8088
 6907SOL     OW32179   3.332   0.290   2.636  0.4685 -0.2075  0.1869
 6907SOL    HW132180   3.256   0.270   2.690 -0.0385 -2.4915 -1.3713
 6907SOL    HW232181   3.373   0.366   2.676  1.7223 -0.1719 -1.1558
 6908SOL     OW32182   1.559   2.339   5.854  0.3581  0.3747 -0.2721
 6908SOL    HW132183   1.546   2.315   5.762  3.5080  0.0490 -0.6462
 6908SOL    HW232184   1.467   2.347   5.880  0.8147 -0.7952  1.6780
 6909SOL     OW32185   1.708   2.920   8.556 -0.2372  0.1632 -0.1266
 6909SOL    HW132186   1.649   2.960   8.493 -0.5229  1.6798  1.1074
 6909SOL    HW232187   1.699   2.986   8.625 -4.1104  0.6436 -1.0529
 6910SOL     OW32188   1.917   0.653  11.502 -0.0240 -0.2485 -0.0052
 6910SOL    HW132189   1.957   0.738  11.522  3.7145 -1.4745 -2.2576
 6910SOL    HW232190   1.828   0.682  11.480  0.0236  0.3868  0.6203
 6911SOL     OW32191   1.900   1.603   6.836 -0.4782 -0.8367 -0.0080
 6911SOL    HW132192   1.938   1.538   6.895 -0.4145  0.2748  1.1648
 6911SOL    HW232193   1.941   1.566   6.757 -0.3573 -2.2778  0.7341
 6912SOL     OW32194   0.840   0.361   0.072 -0.1268 -0.1663 -0.4299
 6912SOL    HW132195   0.823   0.450   0.040 -1.4533  0.0573  0.9175
 6912SOL    HW232196   0.935   0.352   0.064 -0.2486 -0.6272 -1.4051
 6913SOL     OW32197   0.533   3.509   8.545  0.1780 -0.1010 -0.1444
 6913SOL    HW132198   0.571   3.592   8.517 -2.2207  1.5940  1.6405
 6913SOL    HW232199   0.605   3.453   8.514 -1.1113 -0.0030 -3.2933
 6914SOL     OW32200   3.096   1.395  14.333 -0.1202  0.4785 -0.5590
 6914SOL    HW132201   3.169   1.451  14.305 -0.5785  0.7375 -1.2362
 6914SOL    HW232202   3.026   1.405  14.269  0.2089  0.5914 -0.8992
 6915SOL     OW32203   0.280   1.752   8.512 -0.1258 -0.4918 -0.3679
 6915SOL    HW132204   0.230   1.828   8.483  0.6931  0.4270  0.6166
 6915SOL    HW232205   0.358   1.750   8.456 -0.2381  4.4803 -0.7134
 6916SOL     OW32206   0.464   4.389   7.568  0.2344  0.3607  0.1041
 6916SOL    HW132207   0.492   4.314   7.620 -1.6566 -0.0850  0.4578
 6916SOL    HW232208   0.369   4.385   7.573  0.1738  1.9719  0.2598
 6917SOL     OW32209   2.840   3.950   8.927  0.0512 -0.1592  0.3723
 6917SOL    HW132210   2.775   3.887   8.897 -0.6709  1.2451 -0.9868
 6917SOL    HW232211   2.922   3.901   8.931  1.0138  1.4878  0.9519
 6918SOL     OW32212   0.214   4.503  15.890  0.0715 -0.1796 -0.0811
 6918SOL    HW132213   0.305   4.478  15.906 -0.2997  0.0975  2.5094
 6918SOL    HW232214   0.208   4.459  15.806  0.1096  1.8106 -1.1127
 6919SOL     OW32215   2.174   0.216   2.298 -0.0348  0.6138  0.2539
 6919SOL    HW132216   2.143   0.208   2.208 -0.6583 -1.7893  0.6761
 6919SOL    HW232217   2.096   0.171   2.328  1.5791 -0.6766  2.5348
 6920SOL     OW32218   2.653   1.470   2.856 -0.4654 -0.3592 -0.5257
 6920SOL    HW132219   2.722   1.445   2.917 -1.0573  2.3429  1.2558
 6920SOL    HW232220   2.586   1.409   2.889  0.7373 -1.0130  0.6990
 6921SOL     OW32221   1.758   3.049   6.100 -0.2161  0.4610 -0.1590
 6921SOL    HW132222   1.729   3.131   6.140 -0.1777  0.0654  0.6752
 6921SOL    HW232223   1.776   2.992   6.174 -1.6761  0.4685  0.2130
 6922SOL     OW32224   2.534   4.495  15.730  0.0231 -0.1115 -0.4304
 6922SOL    HW132225   2.594   4.465  15.661 -1.6204 -0.6366 -1.6083
 6922SOL    HW232226   2.513   4.584  15.703 -1.3053  0.6256  3.0552
 6923SOL     OW32227   1.933   3.195   8.573  0.2338  0.5816  0.2312
 6923SOL    HW132228   1.978   3.236   8.499  0.5610  1.7592  1.0860
 6923SOL    HW232229   1.845   3.233   8.566  0.7939  1.8757  0.1773
 6924SOL     OW32230   2.556   3.861   7.965  0.0282 -0.9787  0.4972
 6924SOL    HW132231   2.488   3.906   8.014  1.6794  2.1357 -0.0400
 6924SOL    HW232232   2.554   3.922   7.891 -0.4827 -1.9615 -0.3024
 6925SOL     OW32233   0.530   0.411   5.522  0.6445  0.0293  0.1036
 6925SOL    HW132234   0.554   0.493   5.565 -0.0952  0.0460  0.4952
 6925SOL    HW232235   0.617   0.406   5.483  0.7079  0.2319  0.2194
 6926SOL     OW32236   2.873   2.471   8.744 -0.2540  0.0948 -0.0578
 6926SOL    HW132237   2.873   2.380   8.715 -0.0143 -0.2616  1.0431
 6926SOL    HW232238   2.966   2.492   8.754 -0.5666  0.7929  1.3655
 6927SOL     OW32239   0.355   1.112   4.399  0.1042 -1.1233 -0.0264
 6927SOL    HW132240   0.367   1.110   4.305  1.0363  1.1063  0.0411
 6927SOL    HW232241   0.378   1.023   4.426  1.3086  0.1346  3.1188
 6928SOL     OW32242   3.795   3.207   7.180 -0.0791  0.4063 -0.6040
 6928SOL    HW132243   3.713   3.162   7.161  0.7222 -1.3376 -0.0154
 6928SOL    HW232244   3.805   3.228   7.273 -1.6724 -0.8885 -0.1275
 6929SOL     OW32245   2.739   3.386   8.286 -0.0307  0.3402 -0.1046
 6929SOL    HW132246   2.812   3.324   8.276 -1.0358 -1.1674  1.9070
 6929SOL    HW232247   2.793   3.465   8.280 -1.0328  0.9639 -0.9816
 6930SOL     OW32248   0.792   2.179   8.417  0.0948  0.2059 -0.1598
 6930SOL    HW132249   0.840   2.111   8.463  0.8693  2.1647  1.9675
 6930SOL    HW232250   0.712   2.189   8.469  0.3234  2.8594 -0.3227
 6931SOL     OW32251   0.851   3.905   6.551 -0.0363 -0.0998 -0.1380
 6931SOL    HW132252   0.768   3.950   6.567 -0.2084 -0.5560  0.2637
 6931SOL    HW232253   0.912   3.977   6.560 -0.0620  0.1130 -1.6889
 6932SOL     OW32254   3.476   1.292   7.457  0.3148  0.2402 -0.5398
 6932SOL    HW132255   3.543   1.225   7.451 -0.6734 -1.0247  3.1687
 6932SOL    HW232256   3.407   1.251   7.509  1.6490 -0.1737  0.8794
 6933SOL     OW32257   1.745   4.704   4.759 -0.0609  0.1426  0.1475
 6933SOL    HW132258   1.663   4.686   4.713  1.0462  0.4425 -1.9471
 6933SOL    HW232259   1.757   4.632   4.821 -1.5061 -0.4961 -0.3047
 6934SOL     OW32260   3.274   0.820   5.327  0.4220  0.1725 -0.8772
 6934SOL    HW132261   3.347   0.835   5.387 -1.8219  0.4715  1.7382
 6934SOL    HW232262   3.241   0.910   5.322  1.2112  0.2820 -4.3723
 6935SOL     OW32263   2.400   2.184   8.836 -0.3205 -0.4431 -0.0855
 6935SOL    HW132264   2.411   2.240   8.913  0.1652 -3.3822  1.9752
 6935SOL    HW232265   2.476   2.129   8.856 -0.4469 -1.1648 -1.6252
 6936SOL     OW32266   2.861   1.337  15.072  0.5529  0.1317 -0.1098
 6936SOL    HW132267   2.909   1.323  14.990 -0.1243 -0.6185 -0.3837
 6936SOL    HW232268   2.897   1.422  15.096 -1.0272  0.8076 -0.1336
 6937SOL     OW32269   0.440   0.257  14.961  0.0811  0.3987  0.2343
 6937SOL    HW132270   0.385   0.333  14.982  1.1107  0.9007  1.1308
 6937SOL    HW232271   0.369   0.194  14.971 -0.9815  1.1572 -2.5307
 6938SOL     OW32272   3.220   0.665   3.019  0.7082  0.4109  0.3774
 6938SOL    HW132273   3.311   0.679   2.994  0.6881  1.0979  0.6950
 6938SOL    HW232274   3.195   0.735   3.079 -0.0233 -0.0089  0.5580
 6939SOL     OW32275   4.141   1.924  12.370  0.2750  0.5791 -0.1483
 6939SOL    HW132276   4.056   1.956  12.339  0.6104 -0.8289 -2.5114
 6939SOL    HW232277   4.148   1.979  12.448  0.1051 -0.1285  0.3541
 6940SOL     OW32278   4.457   4.128   6.505  0.1323  0.0026 -0.3390
 6940SOL    HW132279   4.428   4.051   6.554 -2.4658  1.9817  1.2766
 6940SOL    HW232280   4.551   4.119   6.496  0.0853 -0.7526 -0.0970
 6941SOL     OW32281   1.888   1.271   5.689  0.1512  0.1206 -0.5687
 6941SOL    HW132282   1.923   1.247   5.774 -2.9413  3.1148  1.5808
 6941SOL    HW232283   1.929   1.208   5.630  0.3356 -0.3635  0.0816
 6942SOL     OW32284   1.668   2.157  13.720  0.1965 -0.2452  0.3083
 6942SOL    HW132285   1.742   2.131  13.775 -1.8214 -2.1829  2.0776
 6942SOL    HW232286   1.691   2.243  13.683  0.0082 -0.7629 -1.0288
 6943SOL     OW32287   1.873   0.513   3.643 -0.4495 -0.3464 -0.3674
 6943SOL    HW132288   1.896   0.422   3.667  0.0858  0.2014  1.2496
 6943SOL    HW232289   1.960   0.545   3.619 -0.7809  0.5982 -0.3087
 6944SOL     OW32290   4.479   4.718   6.224 -0.3567  0.7638 -0.1884
 6944SOL    HW132291   4.567   4.721   6.187 -0.1718 -0.7360  0.1450
 6944SOL    HW232292   4.482   0.072   6.280  1.9900 -0.1561  0.9550
 6945SOL     OW32293   1.247   2.720   7.264  0.5937  0.1215  0.4894
 6945SOL    HW132294   1.274   2.734   7.173  0.1178 -0.9753  0.1818
 6945SOL    HW232295   1.166   2.771   7.270 -0.2249 -1.1862  0.5880
 6946SOL     OW32296   0.100   2.664   8.216 -0.9504 -0.3594 -0.0865
 6946SOL    HW132297   0.008   2.656   8.240 -0.6325  2.2728  2.1325
 6946SOL    HW232298   0.137   2.678   8.304  0.2209 -0.0076 -0.6324
 6947SOL     OW32299   3.163   0.994   5.635  0.2320 -0.4824 -0.0483
 6947SOL    HW132300   3.153   1.079   5.677  0.2182 -1.1727  1.3290
 6947SOL    HW232301   3.232   1.007   5.569  0.6694 -1.5418  0.2125
 6948SOL     OW32302   0.732   1.809  12.141  0.0146  0.0562 -0.4511
 6948SOL    HW132303   0.764   1.896  12.164  0.7860 -0.1879 -0.6123
 6948SOL    HW232304   0.691   1.812  12.055 -0.4137  0.4662 -0.2323
 6949SOL     OW32305   2.175   0.597   6.902  0.7233  0.0537  0.5155
 6949SOL    HW132306   2.087   0.626   6.882  1.2813 -0.1016 -2.1056
 6949SOL    HW232307   2.238   0.664   6.878  0.2810  0.5172  0.6572
 6950SOL     OW32308   0.672   1.982   5.213 -0.3133  0.5176 -0.1910
 6950SOL    HW132309   0.690   1.935   5.132 -0.2339  2.8420 -1.5025
 6950SOL    HW232310   0.623   1.916   5.262  1.4606  0.0417  0.9447
 6951SOL     OW32311   0.990   3.839   2.731  0.1111 -0.2027 -0.6511
 6951SOL    HW132312   0.907   3.849   2.685  0.6117 -1.1127 -1.7709
 6951SOL    HW232313   1.057   3.849   2.663  2.0645  1.3287  1.5061
 6952SOL     OW32314   1.082   3.482   0.877 -0.5168  0.3806 -0.1454
 6952SOL    HW132315   1.106   3.574   0.888 -0.9600  0.3191  1.2615
 6952SOL    HW232316   0.996   3.492   0.834 -0.4882 -0.5106 -0.4196
 6953SOL     OW32317   4.018   2.953   8.927  0.0096  0.0235  0.1024
 6953SOL    HW132318   3.939   3.002   8.947 -0.4907 -0.6972 -0.0815
 6953SOL    HW232319   3.998   2.912   8.842  0.5198 -0.4497  0.2081
 6954SOL     OW32320   2.168   3.578   3.768 -0.6107 -0.6441 -0.2202
 6954SOL    HW132321   2.087   3.628   3.759 -0.2203 -0.2317 -1.4403
 6954SOL    HW232322   2.178   3.535   3.684 -1.1913  0.8294 -1.0381
 6955SOL     OW32323   2.978   3.843   2.839  0.1273  0.1119 -0.2178
 6955SOL    HW132324   2.946   3.840   2.929 -2.0385 -1.2416 -1.0142
 6955SOL    HW232325   2.903   3.819   2.784  1.1151 -2.0914 -0.5975
 6956SOL     OW32326   4.109   4.039   7.693 -0.0282  0.6636  0.3683
 6956SOL    HW132327   4.176   4.107   7.704 -1.9872  2.5886  0.4772
 6956SOL    HW232328   4.031   4.077   7.733 -0.8396 -0.6631  0.0241
 6957SOL     OW32329   2.067   2.022   0.258  0.3811  0.6586  0.0017
 6957SOL    HW132330   2.006   2.061   0.321 -1.1191 -1.0274 -0.3962
 6957SOL    HW232331   2.017   2.022   0.177  1.8386  2.6634 -0.8866
 6958SOL     OW32332   2.525   1.152   8.922 -0.1866  0.0038 -0.1496
 6958SOL    HW132333   2.619   1.134   8.921  0.1620  1.7449  0.6164
 6958SOL    HW232334   2.502   1.123   8.834 -1.2204 -0.1715  0.1844
 6959SOL     OW32335   1.872   1.756   5.184  0.0328  0.2657 -0.3436
 6959SOL    HW132336   1.894   1.838   5.141 -1.4306 -0.3585 -2.3181
 6959SOL    HW232337   1.928   1.748   5.261  1.0477  0.2936 -1.0814
 6960SOL     OW32338   3.864   1.945   6.521  0.2209  0.4304  0.3873
 6960SOL    HW132339   3.825   1.954   6.434  1.3293 -0.2054 -0.1600
 6960SOL    HW232340   3.787   1.944   6.579 -0.6325 -0.3797 -0.7703
 6961SOL     OW32341   2.988   0.795  12.034 -0.4375 -0.4634 -0.4471
 6961SOL    HW132342   3.082   0.811  12.046 -0.5806 -0.0636  0.1532
 6961SOL    HW232343   2.988   0.737  11.958  1.7298 -0.0164 -0.8049
 6962SOL     OW32344   0.176   3.573   3.362  0.1861  0.6392 -0.0063
 6962SOL    HW132345   0.147   3.482   3.365  2.4700 -0.0636  1.0552
 6962SOL    HW232346   0.147   3.599   3.450 -0.8078 -0.7976  0.0768
 6963SOL     OW32347   1.841   3.684  15.481 -0.4454 -0.5510 -0.1813
 6963SOL    HW132348   1.896   3.635  15.420  0.4072  0.7766 -0.4652
 6963SOL    HW232349   1.794   3.610  15.519  0.4213 -0.8873  0.2313
 6964SOL     OW32350   3.792   1.526   6.201  0.4888  1.4920  0.2041
 6964SOL    HW132351   3.799   1.450   6.259 -0.3541  1.2462 -0.0157
 6964SOL    HW232352   3.753   1.586   6.264 -1.6516 -0.1237  0.4438
 6965SOL     OW32353   1.755   1.129   8.632 -0.6128  0.2930  0.2131
 6965SOL    HW132354   1.697   1.060   8.664  0.1219 -0.8625 -0.9005
 6965SOL    HW232355   1.745   1.119   8.537 -1.0298  1.1498  0.1738
 6966SOL     OW32356   0.313   4.309   2.169 -0.3445 -0.0395  0.0278
 6966SOL    HW132357   0.324   4.235   2.109 -1.5227  0.0346 -0.2772
 6966SOL    HW232358   0.218   4.301   2.179  0.0400 -1.0826  2.9301
 6967SOL     OW32359   0.990   0.396   2.385  0.1093  0.2439  0.0836
 6967SOL    HW132360   0.938   0.326   2.422  2.3528 -1.1048  0.6852
 6967SOL    HW232361   1.081   0.370   2.400 -0.0533 -0.5960 -0.3707
 6968SOL     OW32362   4.628   0.633  11.188  0.0808 -0.2588 -0.0057
 6968SOL    HW132363   4.657   0.543  11.203 -0.3745 -0.7749 -2.1998
 6968SOL    HW232364   4.576   0.617  11.108 -1.7683  1.2331  0.8904
 6969SOL     OW32365   1.726   3.163   3.108 -0.3411  0.2096 -0.2312
 6969SOL    HW132366   1.801   3.135   3.161 -1.1306  0.3349  0.9557
 6969SOL    HW232367   1.656   3.184   3.170 -0.0468  0.7395 -0.0783
 6970SOL     OW32368   0.429   1.310   0.343  0.1897  0.1151 -0.1699
 6970SOL    HW132369   0.464   1.299   0.255  0.0898  1.9316 -0.4430
 6970SOL    HW232370   0.379   1.229   0.352  0.3390  0.1930  1.4321
 6971SOL     OW32371   1.088   2.719   0.981 -0.4732 -0.2968 -0.0332
 6971SOL    HW132372   1.122   2.683   1.063 -0.2741  1.3948  0.6242
 6971SOL    HW232373   1.078   2.812   1.004  1.6988  0.2755 -1.4182
 6972SOL     OW32374   0.276   2.959   9.123  0.3910  0.3763  0.2497
 6972SOL    HW132375   0.315   3.044   9.106  2.1417 -0.2264  1.2175
 6972SOL    HW232376   0.253   2.959   9.217 -0.2667  1.3789  0.0924
 6973SOL     OW32377   4.551   0.476   7.206  0.2020 -0.3068 -0.3259
 6973SOL    HW132378   4.630   0.494   7.155 -0.8418 -1.2023 -2.2853
 6973SOL    HW232379   4.575   0.536   7.276 -0.7804  0.9236 -1.0375
 6974SOL     OW32380   2.399   2.376   1.215  0.3440  0.9918 -0.3602
 6974SOL    HW132381   2.390   2.289   1.252  0.1443  1.9466  1.8426
 6974SOL    HW232382   2.378   2.363   1.123 -2.6553 -0.9437  0.6100
 6975SOL     OW32383   3.463   2.779   1.965 -0.7074 -0.6879  0.5015
 6975SOL    HW132384   3.463   2.801   1.872  0.8612 -1.6947  0.2585
 6975SOL    HW232385   3.422   2.693   1.974  3.2801 -2.6503  0.0888
 6976SOL     OW32386   0.913   3.175   3.038 -0.3596  0.3959  0.1928
 6976SOL    HW132387   0.838   3.220   3.078  0.8779  2.2708  0.3798
 6976SOL    HW232388   0.882   3.158   2.949 -0.1152 -2.3865  0.6469
 6977SOL     OW32389   2.335   2.742   8.718 -0.2473 -0.0683  0.1011
 6977SOL    HW132390   2.240   2.739   8.725 -0.1376 -1.7498  0.7982
 6977SOL    HW232391   2.353   2.761   8.626 -0.0207 -2.5122 -0.3495
 6978SOL     OW32392   1.860   0.360  11.179 -0.0379 -0.5189  0.1219
 6978SOL    HW132393   1.785   0.391  11.130 -0.8092 -2.7019 -0.0930
 6978SOL    HW232394   1.913   0.317  11.111  0.5569 -0.5083  0.5723
 6979SOL     OW32395   3.507   1.101   2.954  0.0232 -0.3859  0.1481
 6979SOL    HW132396   3.422   1.144   2.952  1.7827  3.1541  0.6240
 6979SOL    HW232397   3.536   1.137   2.870 -1.8937 -0.7620 -0.6523
 6980SOL     OW32398   3.972   0.405  12.085  0.1849 -0.6564  0.2817
 6980SOL    HW132399   3.998   0.403  11.993 -0.0045 -1.9660  0.2507
 6980SOL    HW232400   3.939   0.495  12.086 -0.7289 -0.9777 -0.7311
 6981SOL     OW32401   0.765   1.371   6.339  0.1027  0.3478  0.0645
 6981SOL    HW132402   0.741   1.440   6.401  1.1521  1.3303 -0.6228
 6981SOL    HW232403   0.697   1.313   6.372 -0.5871  2.3147  2.1163
 6982SOL     OW32404   3.825   3.635   1.857  0.5967  0.4805  0.5893
 6982SOL    HW132405   3.767   3.616   1.783  0.0379 -0.5261  1.2834
 6982SOL    HW232406   3.885   3.561   1.866  1.6134  1.2245 -0.1293
 6983SOL     OW32407   3.939   1.606   6.590  0.0910  0.2915 -0.1408
 6983SOL    HW132408   3.943   1.519   6.550 -0.5092  0.8375 -1.3835
 6983SOL    HW232409   3.846   1.614   6.610  0.2501  0.7664  0.3865
 6984SOL     OW32410   0.072   1.147   9.831 -0.0040  0.2928 -0.5329
 6984SOL    HW132411   0.052   1.236   9.802  0.3359  1.2181  2.0734
 6984SOL    HW232412   4.717   1.128   9.884  0.5765 -1.1466 -0.1824
 6985SOL     OW32413   3.593   3.645   4.979  0.2926  0.0766  0.1416
 6985SOL    HW132414   3.676   3.662   5.022  0.3464 -0.1330  0.1207
 6985SOL    HW232415   3.546   3.727   4.997  0.3262  0.1676 -0.1762
 6986SOL     OW32416   3.951   4.036  14.123  0.6408  0.2075 -0.4305
 6986SOL    HW132417   3.974   4.121  14.160  1.1688  1.0497 -2.6670
 6986SOL    HW232418   4.025   4.027  14.063  0.9130 -1.0722  0.0809
 6987SOL     OW32419   4.577   3.545   2.542  0.0452  0.1995 -0.3539
 6987SOL    HW132420   4.602   3.515   2.629 -1.5892 -0.6110 -0.1511
 6987SOL    HW232421   4.530   3.623   2.572 -0.5559 -0.4696  0.4561
 6988SOL     OW32422   2.652   4.069   2.886  0.0197  0.0972 -0.5432
 6988SOL    HW132423   2.671   3.977   2.906  1.0838 -0.3078 -3.3836
 6988SOL    HW232424   2.659   4.064   2.791  0.8478  0.9958 -0.5272
 6989SOL     OW32425   0.060   2.909  15.438  0.4726  0.2164 -0.1013
 6989SOL    HW132426   4.689   2.916  15.455  0.2971 -0.1781 -0.8881
 6989SOL    HW232427   0.066   2.921  15.343 -1.6713  0.1341 -0.2530
 6990SOL     OW32428   0.046   2.926   2.292  0.2630 -0.3434 -0.0139
 6990SOL    HW132429   0.042   2.833   2.268  0.7970 -0.3729  0.0110
 6990SOL    HW232430   0.024   2.930   2.385 -0.6617  1.1683 -0.3025
 6991SOL     OW32431   1.388   2.378   9.234  0.4502  0.1317 -0.2037
 6991SOL    HW132432   1.367   2.333   9.152  1.0310  2.3724 -1.5920
 6991SOL    HW232433   1.449   2.309   9.260 -0.7016 -0.3001  1.3787
 6992SOL     OW32434   2.447   3.455   6.453  0.1301  0.0503 -0.3698
 6992SOL    HW132435   2.435   3.546   6.426 -0.0857  0.3446  0.7235
 6992SOL    HW232436   2.371   3.437   6.507  0.9533 -0.1360  0.7212
 6993SOL     OW32437   3.438   3.693  13.229  0.3489 -0.0750 -0.2784
 6993SOL    HW132438   3.527   3.679  13.260 -1.2587 -1.0590  3.8247
 6993SOL    HW232439   3.446   3.768  13.170 -0.9518  0.4173  0.1524
 6994SOL     OW32440   3.959   3.679  15.616  0.5880 -0.0391 -0.3222
 6994SOL    HW132441   4.012   3.758  15.626 -0.0380  0.5743 -1.7300
 6994SOL    HW232442   4.010   3.621  15.672 -0.4110 -0.2595  0.3515
 6995SOL     OW32443   2.001   3.328   8.847  0.2951 -0.2035 -0.4972
 6995SOL    HW132444   2.048   3.411   8.833  1.0468  0.0780  3.6880
 6995SOL    HW232445   1.932   3.349   8.910 -1.7197  1.2712 -3.2120
 6996SOL     OW32446   3.720   2.161   8.260  0.2439  0.1051  0.3091
 6996SOL    HW132447   3.702   2.246   8.221  0.3102 -0.0378 -0.0265
 6996SOL    HW232448   3.644   2.115   8.227 -0.7148  1.4816  0.6121
 6997SOL     OW32449   0.168   0.813   4.833  0.2721 -0.4195 -0.2437
 6997SOL    HW132450   0.076   0.829   4.811  0.5048 -0.0828 -0.9661
 6997SOL    HW232451   0.175   0.721   4.810 -0.9880  0.1179 -2.7024
 6998SOL     OW32452   2.488   1.400  14.085  0.2875  0.5840  0.4147
 6998SOL    HW132453   2.471   1.440  14.170 -2.2563 -1.9151  1.0812
 6998SOL    HW232454   2.447   1.458  14.020  0.9728  1.3660  0.6933
 6999SOL     OW32455   0.424   3.802   0.244  0.3197 -0.2641  0.0017
 6999SOL    HW132456   0.461   3.722   0.205 -0.0783 -0.4010 -0.0991
 6999SOL    HW232457   0.489   3.815   0.313  0.1943 -3.3420  0.7007
 7000SOL     OW32458   0.938   0.982  12.352 -0.2377 -0.1526 -0.0392
 7000SOL    HW132459   0.918   0.924  12.426 -2.5192  2.8683  1.7169
 7000SOL    HW232460   1.025   1.006  12.383  0.6639 -2.2424 -0.9919
 7001SOL     OW32461   3.067   1.562   5.333  0.1246  0.0646 -0.0667
 7001SOL    HW132462   3.093   1.528   5.419 -0.0610  1.7463  0.6614
 7001SOL    HW232463   3.068   1.655   5.352 -1.3438  0.4038 -1.6701
 7002SOL     OW32464   0.008   2.551  17.236  0.1448 -0.1290 -0.1063
 7002SOL    HW132465   4.667   2.617  17.209 -0.3388 -0.1261  1.0766
 7002SOL    HW232466   4.716   2.549  17.330 -0.7459 -0.0045 -0.2464
 7003SOL     OW32467   2.731   2.078  15.008  0.2804  0.0289  0.5629
 7003SOL    HW132468   2.750   2.169  14.985  2.2302 -0.2429  1.1228
 7003SOL    HW232469   2.727   2.088  15.103 -1.6012  0.1537  0.4771
 7004SOL     OW32470   4.373   0.845   3.952 -0.2519  0.2004 -0.1227
 7004SOL    HW132471   4.443   0.848   4.018  0.1039 -1.9012 -0.3957
 7004SOL    HW232472   4.407   0.771   3.901  1.1581  0.3714  0.5663
 7005SOL     OW32473   1.452   1.208  13.577  0.0201  0.0147 -0.1408
 7005SOL    HW132474   1.442   1.298  13.545  0.7920  0.6820  1.5002
 7005SOL    HW232475   1.365   1.185  13.608  1.0867 -3.7277  0.0361
 7006SOL     OW32476   3.181   3.852   4.109 -0.0436 -0.1303  0.0749
 7006SOL    HW132477   3.268   3.891   4.104  0.0211 -0.4898 -1.5938
 7006SOL    HW232478   3.142   3.883   4.027  1.8487 -2.0833 -1.5731
 7007SOL     OW32479   1.945   4.550   9.033  0.4734 -0.0421 -0.0328
 7007SOL    HW132480   1.976   4.479   9.089 -0.7999 -0.4874  0.0973
 7007SOL    HW232481   2.027   4.551   8.983 -1.0415 -1.2325 -2.5076
 7008SOL     OW32482   4.632   2.671   4.205  0.6739  0.1577 -0.7793
 7008SOL    HW132483   4.713   2.710   4.171 -0.6480  1.2478 -2.6645
 7008SOL    HW232484   4.647   2.581   4.231 -1.6202 -0.2721 -0.9435
 7009SOL     OW32485   1.077   0.388  13.813 -0.4220 -0.0439 -0.3972
 7009SOL    HW132486   1.137   0.448  13.769 -1.3590  0.7769 -0.5495
 7009SOL    HW232487   1.123   0.306  13.798 -0.4968 -0.0332 -0.6716
 7010SOL     OW32488   1.359   0.456   5.980 -0.3125 -0.2209  0.5459
 7010SOL    HW132489   1.327   0.462   6.070  1.2104  3.0768  0.8649
 7010SOL    HW232490   1.453   0.475   5.989 -0.7491  1.6447  1.1796
 7011SOL     OW32491   3.317   0.033   3.977 -0.4608 -0.2394 -0.0947
 7011SOL    HW132492   3.330   0.075   4.062 -1.7681 -0.0851  0.0227
 7011SOL    HW232493   3.222   0.038   3.968 -0.5493 -2.3116 -0.3454
 7012SOL     OW32494   0.248   1.699   5.257  0.1494  0.2294 -0.5805
 7012SOL    HW132495   0.166   1.698   5.209  0.7891 -2.0299 -1.5966
 7012SOL    HW232496   0.213   1.713   5.345  0.7422 -0.5694 -0.2238
 7013SOL     OW32497   0.959   2.764   9.763  0.0600 -0.6394 -0.9102
 7013SOL    HW132498   0.932   2.703   9.695 -0.0739  0.5739 -1.9385
 7013SOL    HW232499   0.892   2.832   9.769 -0.6211 -1.4562  0.6898
 7014SOL     OW32500   2.280   2.240   5.387  0.4530  0.7533  0.2835
 7014SOL    HW132501   2.273   2.265   5.479  0.8408  0.1841  0.4682
 7014SOL    HW232502   2.298   2.322   5.342  1.2013  0.7869  0.6392
 7015SOL     OW32503   0.199   0.809   0.241  0.7130  0.2595 -0.9465
 7015SOL    HW132504   0.224   0.831   0.152  1.3344  1.1886 -0.5343
 7015SOL    HW232505   0.120   0.857   0.267  0.3153  0.3013 -2.2440
 7016SOL     OW32506   3.603   1.757   3.736  0.1255  0.1728  0.0104
 7016SOL    HW132507   3.538   1.802   3.682  0.0621 -0.4691 -0.4474
 7016SOL    HW232508   3.586   1.666   3.712 -2.2514  0.4665  0.5286
 7017SOL     OW32509   2.014   1.214  14.824 -0.0775 -0.0352 -0.3011
 7017SOL    HW132510   2.058   1.292  14.789 -1.1947  0.6159 -0.2350
 7017SOL    HW232511   1.920   1.228  14.818 -0.1749  0.5094  2.5001
 7018SOL     OW32512   0.386   2.231   6.486 -0.3420 -0.1456  0.1562
 7018SOL    HW132513   0.420   2.145   6.513 -0.6106 -0.3475 -0.1442
 7018SOL    HW232514   0.297   2.197   6.474 -0.4842 -0.6215  2.6236
 7019SOL     OW32515   1.435   0.918  17.676  0.7113 -0.0901 -0.3076
 7019SOL    HW132516   1.493   0.992  17.691 -0.9409  0.8860  1.3778
 7019SOL    HW232517   1.365   0.966  17.634  0.0899 -0.2649  0.5212
 7020SOL     OW32518   2.154   1.659   2.308 -0.2045 -0.4644  0.0937
 7020SOL    HW132519   2.178   1.571   2.280 -2.0116 -0.4805 -1.3730
 7020SOL    HW232520   2.065   1.646   2.342 -0.5048 -0.7527 -0.8192
 7021SOL     OW32521   3.446   2.645   2.624  0.6362 -0.5601 -0.0871
 7021SOL    HW132522   3.508   2.580   2.655  0.3875 -0.4881  0.5688
 7021SOL    HW232523   3.505   2.720   2.619 -1.1053  0.8559  0.5198
 7022SOL     OW32524   1.425   1.664  10.927 -0.0815  0.2797  0.3251
 7022SOL    HW132525   1.465   1.577  10.921  2.3438  1.2424  2.3007
 7022SOL    HW232526   1.432   1.669  11.023 -1.1519  2.3909  0.2881
 7023SOL     OW32527   2.833   0.081  17.263  0.0356  0.4927 -0.4895
 7023SOL    HW132528   2.768   0.089  17.332  0.5184 -1.3749  0.1876
 7023SOL    HW232529   2.778   0.100  17.187  0.3879  2.3349 -0.2711
 7024SOL     OW32530   2.254   4.260  16.444 -0.1315  0.4114  0.1444
 7024SOL    HW132531   2.271   4.203  16.518  0.1974 -1.1614 -1.1305
 7024SOL    HW232532   2.322   4.327  16.434 -0.8066  1.0346 -0.2070
 7025SOL     OW32533   4.663   4.321   7.659  0.0587  0.2619 -0.2606
 7025SOL    HW132534   4.627   4.409   7.659 -1.3867 -0.3262  0.9573
 7025SOL    HW232535   4.597   4.277   7.605  0.4276  0.6863 -1.0640
 7026SOL     OW32536   0.015   1.203   3.336  0.0984 -0.2228  0.5705
 7026SOL    HW132537   0.107   1.204   3.309 -0.0094  0.6978  0.2290
 7026SOL    HW232538   0.010   1.281   3.391 -1.3320 -0.2033  0.4157
 7027SOL     OW32539   2.477   0.511   8.535 -0.3760 -0.0655 -0.4537
 7027SOL    HW132540   2.403   0.466   8.576  1.7366 -2.0034  1.2366
 7027SOL    HW232541   2.549   0.497   8.597 -2.2430  0.3467  1.8370
 7028SOL     OW32542   0.420   0.530   8.037  0.6055 -0.0782 -0.5061
 7028SOL    HW132543   0.497   0.510   7.984  2.3790 -0.9947  2.3843
 7028SOL    HW232544   0.350   0.499   7.980  0.0288  1.6749 -0.7455
 7029SOL     OW32545   4.686   1.385   9.726 -0.3089  0.0482 -0.2437
 7029SOL    HW132546   0.035   1.438   9.690  0.2846 -1.5056 -1.3575
 7029SOL    HW232547   4.629   1.453   9.763  2.7065  2.3745  0.1687
 7030SOL     OW32548   2.845   4.474   7.842  0.3508  0.3873  0.0124
 7030SOL    HW132549   2.869   4.504   7.930 -2.7268  0.6710  0.7468
 7030SOL    HW232550   2.806   4.388   7.858  1.0974  0.5426  2.7221
 7031SOL     OW32551   3.667   2.947   7.990 -0.1850  0.4398 -0.6551
 7031SOL    HW132552   3.645   3.040   8.001 -0.2770  0.5154 -1.5122
 7031SOL    HW232553   3.761   2.952   7.971  0.0891 -0.8132  0.3569
 7032SOL     OW32554   3.994   3.520   9.687  0.0978  0.5123  0.0127
 7032SOL    HW132555   4.075   3.475   9.706  1.2848  2.4937 -0.3197
 7032SOL    HW232556   4.033   3.607   9.698  0.2005  0.9076 -3.3158
 7033SOL     OW32557   0.647   4.670   6.203 -0.1062  0.1355 -0.1538
 7033SOL    HW132558   0.556   4.690   6.181 -0.4185  1.2755  2.1872
 7033SOL    HW232559   0.635   4.575   6.213  1.0065  0.0091 -0.0389
 7034SOL     OW32560   2.969   0.883  15.655  0.2129  0.7200  0.1431
 7034SOL    HW132561   2.960   0.944  15.581 -1.8795  0.5512  0.2586
 7034SOL    HW232562   2.979   0.799  15.611  0.5124  2.2003 -2.6122
 7035SOL     OW32563   3.101   2.735   1.890  0.3672 -0.2152  0.0420
 7035SOL    HW132564   3.168   2.670   1.873  0.1235 -1.0507  2.3952
 7035SOL    HW232565   3.129   2.750   1.980 -1.1542  2.7848  0.0389
 7036SOL     OW32566   0.450   3.964   4.732  0.3607 -0.4712 -0.4785
 7036SOL    HW132567   0.500   3.947   4.652  0.6743  1.8068 -0.7630
 7036SOL    HW232568   0.358   3.963   4.704  0.1461 -2.0468  0.2949
 7037SOL     OW32569   1.313   1.808  17.348  0.5874 -0.4627 -0.5160
 7037SOL    HW132570   1.274   1.870  17.286 -0.6515  0.0244  0.7735
 7037SOL    HW232571   1.237   1.778  17.396  1.5638 -1.8660  0.1655
 7038SOL     OW32572   3.677   2.289   3.015  0.6068 -0.0963  0.0257
 7038SOL    HW132573   3.695   2.352   3.085  2.0768 -2.0109  1.3469
 7038SOL    HW232574   3.666   2.212   3.071  0.7185  0.2901  0.5765
 7039SOL     OW32575   2.546   4.685  16.337  0.3574 -0.3627  0.3780
 7039SOL    HW132576   2.497   0.043  16.348  0.5779 -0.2337  0.4106
 7039SOL    HW232577   2.570   4.679  16.244 -0.8159  2.1307 -0.0770
 7040SOL     OW32578   1.719   0.745  17.212  0.1909 -0.3017  0.5065
 7040SOL    HW132579   1.723   0.789  17.296  1.8411  0.6844 -0.0819
 7040SOL    HW232580   1.689   0.660  17.243 -0.8812  0.5493  1.8180
 7041SOL     OW32581   2.200   2.787   2.887 -0.0612  0.4402  0.4025
 7041SOL    HW132582   2.180   2.699   2.918  1.4290  0.0089  0.1474
 7041SOL    HW232583   2.293   2.793   2.910  0.4790 -1.7871 -1.1840
 7042SOL     OW32584   1.533   3.288  12.903  0.0414 -0.5822  0.1089
 7042SOL    HW132585   1.509   3.196  12.910 -0.7973 -0.2791  1.2281
 7042SOL    HW232586   1.453   3.324  12.867  0.8715  1.6943  0.5211
 7043SOL     OW32587   1.173   0.746   3.470  0.6609  0.0866  0.0181
 7043SOL    HW132588   1.214   0.736   3.384  2.3791 -1.2778  0.9930
 7043SOL    HW232589   1.128   0.830   3.469 -0.6734 -0.5929  2.4560
 7044SOL     OW32590   0.194   2.195   7.007  0.3123 -0.1173  0.2337
 7044SOL    HW132591   0.216   2.281   7.042 -1.7210  0.2047  0.7146
 7044SOL    HW232592   0.216   2.203   6.914  2.0834  0.5233  0.7043
 7045SOL     OW32593   2.658   2.801   8.616 -0.1991 -0.3758 -0.1000
 7045SOL    HW132594   2.620   2.887   8.635 -3.4197 -1.6136 -0.9890
 7045SOL    HW232595   2.716   2.826   8.544  1.6134  0.8443  1.7802
 7046SOL     OW32596   0.708   0.419   5.786  0.2896 -0.4970 -0.4708
 7046SOL    HW132597   0.707   0.460   5.700 -0.9204 -1.0406 -0.7153
 7046SOL    HW232598   0.690   0.326   5.770  0.4679 -0.3575 -1.4695
 7047SOL     OW32599   2.484   1.299   2.450 -0.2542  0.1434 -0.2652
 7047SOL    HW132600   2.484   1.207   2.474 -1.2542  0.8937  2.6754
 7047SOL    HW232601   2.557   1.330   2.503  0.9848  0.2309 -2.0261
 7048SOL     OW32602   0.040   3.463  10.175  0.3928 -0.1130  0.2719
 7048SOL    HW132603   0.082   3.547  10.192 -1.2081  1.0092 -1.3089
 7048SOL    HW232604   4.670   3.484  10.167  1.0161  1.6743 -2.2620
 7049SOL     OW32605   0.796   0.651   2.792 -0.1351 -0.6392  0.5846
 7049SOL    HW132606   0.789   0.716   2.863  0.6691 -1.8838  1.8037
 7049SOL    HW232607   0.719   0.596   2.797 -0.2969 -0.4390  0.2662
 7050SOL     OW32608   3.838   1.357   4.408  0.2284  0.4291  0.7445
 7050SOL    HW132609   3.790   1.412   4.346  0.7372 -0.8075 -0.7187
 7050SOL    HW232610   3.925   1.366   4.371  0.7974 -4.3470  0.9320
 7051SOL     OW32611   0.512   0.287   6.367  0.2487 -0.4723 -0.2932
 7051SOL    HW132612   0.542   0.339   6.293 -0.9650 -1.0436 -1.1899
 7051SOL    HW232613   0.516   0.347   6.441 -0.1277 -0.0298 -0.6298
 7052SOL     OW32614   0.724   1.795  17.293 -0.8096 -0.2527 -0.4862
 7052SOL    HW132615   0.669   1.792  17.215  0.6679  1.2904 -1.5836
 7052SOL    HW232616   0.751   1.887  17.285 -1.6756 -0.0777 -1.2891
 7053SOL     OW32617   3.173   2.270   9.245 -0.5265  0.5372  0.0023
 7053SOL    HW132618   3.115   2.263   9.169 -1.3093  3.0276  0.3621
 7053SOL    HW232619   3.258   2.241   9.213 -0.1832  0.6940  0.7604
 7054SOL     OW32620   2.975   2.881   7.668  0.0651 -0.1404  0.5659
 7054SOL    HW132621   3.046   2.824   7.638 -0.0957 -0.2517  0.3988
 7054SOL    HW232622   3.026   2.962   7.669 -0.3789  0.1804 -2.9846
 7055SOL     OW32623   4.608   3.658   8.100 -0.5966  0.4322 -0.5016
 7055SOL    HW132624   4.582   3.594   8.033  1.7067  1.2549 -2.1917
 7055SOL    HW232625   4.524   3.696   8.123  0.3747  2.7705 -0.7763
 7056SOL     OW32626   0.242   0.593   2.074 -0.3437 -1.0435  0.0579
 7056SOL    HW132627   0.196   0.675   2.056  0.7953 -0.4731 -0.2808
 7056SOL    HW232628   0.280   0.578   1.987 -3.4744  1.1926 -1.6898
 7057SOL     OW32629   3.234   1.414  10.867  0.8168 -0.5097  0.3500
 7057SOL    HW132630   3.249   1.380  10.955 -0.1499 -0.9055  0.3669
 7057SOL    HW232631   3.157   1.366  10.837 -1.2572  1.9199  1.7109
 7058SOL     OW32632   2.533   3.111   6.625 -0.2376 -0.4019 -0.6012
 7058SOL    HW132633   2.597   3.150   6.685  0.3330 -1.0856 -0.7664
 7058SOL    HW232634   2.462   3.170   6.649 -0.2370 -0.5003 -0.3581
 7059SOL     OW32635   3.068   0.258   3.544  0.4351 -0.4600 -0.3795
 7059SOL    HW132636   3.115   0.314   3.482  0.5921  0.5405  0.6458
 7059SOL    HW232637   3.129   0.228   3.612 -0.9007 -0.0052  0.9979
 7060SOL     OW32638   3.202   1.520  10.549 -0.5276  0.0720 -0.3271
 7060SOL    HW132639   3.222   1.427  10.541 -0.2066  0.1685 -0.6444
 7060SOL    HW232640   3.268   1.558  10.607 -1.0689 -0.5879  0.7217
 7061SOL     OW32641   2.662   0.336   5.041  0.9514  0.4244 -0.7044
 7061SOL    HW132642   2.684   0.408   4.982 -1.4606  1.2171 -0.6415
 7061SOL    HW232643   2.567   0.345   5.051  0.7007 -0.4373 -2.3158
 7062SOL     OW32644   4.274   2.097  11.202  0.3030 -0.1323 -0.3642
 7062SOL    HW132645   4.327   2.022  11.230  1.3896  0.6614 -0.2961
 7062SOL    HW232646   4.274   2.138  11.288  0.3962  3.3653 -2.0085
 7063SOL     OW32647   1.004   4.595   0.026  0.1734 -0.5880 -0.4014
 7063SOL    HW132648   1.022   4.641  17.638 -2.4511  0.3136 -0.4611
 7063SOL    HW232649   0.963   4.518  17.681  1.8375 -1.2095 -0.9129
 7064SOL     OW32650   0.852   1.276   4.194  0.0678  0.2563 -0.1457
 7064SOL    HW132651   0.906   1.203   4.164 -1.6427 -1.7003  1.5168
 7064SOL    HW232652   0.783   1.234   4.246  2.7378 -2.0250  1.5770
 7065SOL     OW32653   1.934   4.096  17.451 -0.1073  0.4394 -0.0391
 7065SOL    HW132654   1.908   4.169  17.395 -0.2223  0.8013  0.4792
 7065SOL    HW232655   2.026   4.119  17.469 -1.4023  3.6709  2.4290
 7066SOL     OW32656   3.906   1.729  10.268 -0.0137  0.2236  0.1986
 7066SOL    HW132657   3.926   1.746  10.359 -0.6470 -1.4680  0.6513
 7066SOL    HW232658   3.811   1.734  10.260  0.0214 -0.5821 -0.8481
 7067SOL     OW32659   0.116   1.313   4.367 -0.0237  0.2058  0.0682
 7067SOL    HW132660   0.185   1.262   4.323  1.1876  2.6924 -0.8755
 7067SOL    HW232661   0.126   1.294   4.461 -0.0515  1.6078  0.3515
 7068SOL     OW32662   1.330   4.128   3.453 -0.1527 -0.0189 -0.2803
 7068SOL    HW132663   1.325   4.214   3.411  0.2857  0.0304 -0.2297
 7068SOL    HW232664   1.353   4.065   3.384 -1.7247 -1.8512  0.8673
 7069SOL     OW32665   4.417   0.069   7.438  0.0687  0.3078  0.6396
 7069SOL    HW132666   4.342   0.016   7.465 -0.5472  0.0018 -1.6924
 7069SOL    HW232667   4.426   0.038   7.348 -0.1565 -0.1435  0.7707
 7070SOL     OW32668   2.175   0.511   7.998  0.3101 -0.6044 -1.0351
 7070SOL    HW132669   2.195   0.529   8.090 -3.7937  0.1083 -0.2586
 7070SOL    HW232670   2.214   0.425   7.985  0.7173 -0.2623 -2.0310
 7071SOL     OW32671   4.134   2.988   2.634 -0.6692  0.1252  0.4940
 7071SOL    HW132672   4.071   3.060   2.627  1.5167  1.7552 -2.2310
 7071SOL    HW232673   4.192   3.031   2.571 -0.6226  1.5231  1.4874
 7072SOL     OW32674   1.956   3.921   3.257 -0.0172  0.2115 -0.1112
 7072SOL    HW132675   1.975   3.874   3.338  2.5973  2.3040  0.4884
 7072SOL    HW232676   2.027   3.886   3.203 -0.6790  0.6204 -1.2299
 7073SOL     OW32677   3.314   0.850   2.719  0.1624 -0.0054  0.3783
 7073SOL    HW132678   3.286   0.930   2.675 -1.6568  0.5092  2.4857
 7073SOL    HW232679   3.401   0.870   2.754  0.5036  0.1205 -0.5285
 7074SOL     OW32680   4.246   2.829   3.131 -0.2412  0.5487  0.0803
 7074SOL    HW132681   4.268   2.763   3.066 -1.5287 -0.0403  0.2351
 7074SOL    HW232682   4.226   2.773   3.205 -0.1168 -0.4564 -0.6528
 7075SOL     OW32683   2.527   3.564   3.334  0.0452 -0.2545 -0.0723
 7075SOL    HW132684   2.516   3.473   3.305 -0.0902 -1.4370  3.7109
 7075SOL    HW232685   2.559   3.553   3.423  1.4443 -0.2421 -0.5794
 7076SOL     OW32686   3.166   2.317   5.903  0.2727  0.1383 -0.0980
 7076SOL    HW132687   3.080   2.358   5.897 -0.0204 -0.4998 -0.2657
 7076SOL    HW232688   3.222   2.367   5.844  2.2577  1.6649  3.0988
 7077SOL     OW32689   1.957   0.562   6.389 -0.0275  0.7086  0.0859
 7077SOL    HW132690   1.999   0.619   6.454  2.2613  2.2809 -2.8027
 7077SOL    HW232691   1.889   0.520   6.442 -1.6045  2.6094 -0.4193
 7078SOL     OW32692   1.445   0.166   6.678 -0.3164 -0.1030  0.5908
 7078SOL    HW132693   1.401   0.136   6.598  0.0486  0.3053  0.2335
 7078SOL    HW232694   1.535   0.154   6.645 -0.7718 -1.5927 -0.0963
 7079SOL     OW32695   1.676   0.961   5.561  0.1995  0.5945 -0.3318
 7079SOL    HW132696   1.693   0.872   5.531 -0.3974  0.2189  0.4456
 7079SOL    HW232697   1.645   0.939   5.649 -0.1200  0.0956 -0.5677
 7080SOL     OW32698   0.243   1.372   6.590 -1.2401 -0.3699  0.2875
 7080SOL    HW132699   0.283   1.328   6.515  1.4268  2.5172  0.0109
 7080SOL    HW232700   0.298   1.451   6.589 -1.1117 -0.4773 -1.0637
 7081SOL     OW32701   4.121   0.446   1.634  0.0667 -0.0045 -0.0884
 7081SOL    HW132702   4.112   0.381   1.564 -0.4304  1.0826 -1.0432
 7081SOL    HW232703   4.034   0.483   1.648  0.0485 -0.1958  0.3081
 7082SOL     OW32704   2.693   2.939  11.189 -0.6540  0.2963 -0.6512
 7082SOL    HW132705   2.688   3.021  11.139 -1.3143 -0.1092 -1.2635
 7082SOL    HW232706   2.602   2.910  11.181 -0.0505 -1.6441 -0.5085
 7083SOL     OW32707   2.469   3.915  11.764  0.2800 -0.6388 -0.1530
 7083SOL    HW132708   2.467   3.847  11.697 -2.8061 -0.1111 -0.5745
 7083SOL    HW232709   2.549   3.894  11.813  0.6778  1.5390  0.1455
 7084SOL     OW32710   3.069   0.680   2.701 -0.5700  0.4199 -0.3257
 7084SOL    HW132711   3.122   0.748   2.660 -0.3858 -0.9651 -2.4623
 7084SOL    HW232712   3.122   0.663   2.779  1.3793  0.3272 -1.6632
 7085SOL     OW32713   3.116   1.363   4.464 -0.5478  0.0583  0.0103
 7085SOL    HW132714   3.189   1.425   4.466 -0.9013  0.4917 -0.7790
 7085SOL    HW232715   3.121   1.314   4.547 -0.8193 -1.2160 -0.7318
 7086SOL     OW32716   4.204   4.253   7.338 -0.1019 -0.5283  0.2753
 7086SOL    HW132717   4.121   4.284   7.303  1.0535 -0.7639 -2.6819
 7086SOL    HW232718   4.182   4.193   7.409  1.0976 -1.6976 -0.3431
 7087SOL     OW32719   4.204   0.879   3.128  0.1682 -0.0972  0.1515
 7087SOL    HW132720   4.293   0.895   3.159 -0.2613  0.1967  1.2138
 7087SOL    HW232721   4.148   0.956   3.138  1.6861  1.0520 -0.2622
 7088SOL     OW32722   0.326   2.699  12.366 -0.3542 -0.6475  0.1480
 7088SOL    HW132723   0.349   2.711  12.274  1.6879 -0.0276  0.7493
 7088SOL    HW232724   0.304   2.792  12.378  2.5675  0.1912 -0.8634
 7089SOL     OW32725   4.366   2.909   3.660  0.2008  0.0201  0.1581
 7089SOL    HW132726   4.297   2.965   3.626 -0.1814  0.2372  1.2925
 7089SOL    HW232727   4.447   2.937   3.617  0.4288 -0.0116  0.5689
 7090SOL     OW32728   3.621   4.021   6.382  0.2838 -0.4428  0.2991
 7090SOL    HW132729   3.558   4.055   6.447 -0.4685 -2.0056  0.3772
 7090SOL    HW232730   3.708   4.027   6.421  0.3326  1.0568 -0.0198
 7091SOL     OW32731   2.241   4.642   1.604  0.0625 -0.6155  0.1872
 7091SOL    HW132732   2.208   4.552   1.601 -2.9574  0.4968 -0.2342
 7091SOL    HW232733   2.315   4.632   1.664 -1.9861 -0.0276  2.8101
 7092SOL     OW32734   3.172   4.513   2.459 -0.0199  0.1582 -0.0864
 7092SOL    HW132735   3.164   4.418   2.456 -0.3042  0.1266  1.5990
 7092SOL    HW232736   3.267   4.518   2.470  0.0145 -0.8035  0.0882
 7093SOL     OW32737   0.663   2.085   7.602  0.4993  0.3754  0.0567
 7093SOL    HW132738   0.714   2.165   7.589  1.5141 -0.6516 -2.1203
 7093SOL    HW232739   0.726   2.034   7.652  0.7815  1.2041  0.5581
 7094SOL     OW32740   4.531   2.342   4.022 -0.6790 -0.7713  0.0310
 7094SOL    HW132741   4.451   2.294   4.044 -0.3221 -1.0573  0.7105
 7094SOL    HW232742   4.576   2.366   4.104 -0.6081  0.4480 -0.3696
 7095SOL     OW32743   0.515   2.392   0.352 -0.1071 -0.0163  0.3240
 7095SOL    HW132744   0.421   2.409   0.343 -0.0012  0.5669  0.3349
 7095SOL    HW232745   0.536   2.417   0.442  0.5018 -2.0636  0.7484
 7096SOL     OW32746   0.965   2.549   5.275 -0.5380 -0.0015 -0.6987
 7096SOL    HW132747   1.025   2.586   5.340 -0.2792  1.4471 -1.7469
 7096SOL    HW232748   1.026   2.518   5.208 -0.6904  0.0356 -0.8561
 7097SOL     OW32749   0.788   0.388   6.697  0.2929 -0.0611  0.1204
 7097SOL    HW132750   0.757   0.479   6.700  0.9503  0.1513  0.3965
 7097SOL    HW232751   0.836   0.383   6.780 -0.6471 -1.1853  0.5938
 7098SOL     OW32752   1.853   0.709   1.063 -0.2260 -0.5857 -0.4437
 7098SOL    HW132753   1.880   0.780   1.005 -2.8436 -0.6279 -1.7235
 7098SOL    HW232754   1.903   0.729   1.142 -1.3377  0.2788  0.0389
 7099SOL     OW32755   0.101   0.864   6.536 -0.6739  0.0448 -0.5553
 7099SOL    HW132756   0.123   0.944   6.583  3.7523 -1.2384 -0.5277
 7099SOL    HW232757   0.060   0.900   6.457 -1.6107  0.5427  0.1602
 7100SOL     OW32758   0.214   0.445  12.696  0.4675  0.4174 -0.0436
 7100SOL    HW132759   0.209   0.350  12.712 -2.2188  0.9682  2.5568
 7100SOL    HW232760   0.142   0.459  12.634  0.7103  2.7590  0.2285
 7101SOL     OW32761   2.751   3.808  17.501  0.3532 -0.5872 -0.8910
 7101SOL    HW132762   2.702   3.848  17.572  1.2013  1.4720 -1.4866
 7101SOL    HW232763   2.839   3.793  17.536  0.1494  0.1752 -0.0669
 7102SOL     OW32764   1.694   2.216   9.597 -0.2401 -0.1753 -0.6959
 7102SOL    HW132765   1.758   2.284   9.577 -0.2753  1.0092  3.2307
 7102SOL    HW232766   1.730   2.171   9.674  1.1316  2.9244  0.4641
 7103SOL     OW32767   3.983   2.287  13.060 -0.7304  0.2933 -0.4078
 7103SOL    HW132768   3.914   2.291  13.126  0.1537 -0.4438  0.5515
 7103SOL    HW232769   4.065   2.271  13.107  0.3696  2.7497 -1.4822
 7104SOL     OW32770   4.477   3.942   7.727  0.1842  0.4257 -0.3717
 7104SOL    HW132771   4.549   3.897   7.772 -0.0271 -0.2130 -0.6709
 7104SOL    HW232772   4.422   3.961   7.803  1.6720  1.3334  0.4872
 7105SOL     OW32773   0.621   0.312  15.712 -0.2506 -0.6005  0.7671
 7105SOL    HW132774   0.711   0.339  15.729 -0.4263 -0.0208  0.7783
 7105SOL    HW232775   0.576   0.396  15.700  0.9119  0.2088  2.0884
 7106SOL     OW32776   0.259   1.475   5.677 -0.3814 -0.2633  0.0967
 7106SOL    HW132777   0.168   1.486   5.705 -0.1734 -1.2507  1.1700
 7106SOL    HW232778   0.268   1.407   5.610 -0.1810 -0.2302  0.0891
 7107SOL     OW32779   3.787   1.863   4.466 -0.2784  0.0138  0.2501
 7107SOL    HW132780   3.709   1.884   4.518  1.4232  4.2147  1.1485
 7107SOL    HW232781   3.793   1.949   4.425 -0.3635  1.2128  2.7010
 7108SOL     OW32782   1.725   3.199   5.734  0.2651  0.2821 -0.2056
 7108SOL    HW132783   1.633   3.223   5.731  0.1371  0.0024  1.6563
 7108SOL    HW232784   1.720   3.115   5.780 -1.9728  0.6641  0.2541
 7109SOL     OW32785   2.707   0.510   1.889  0.2885 -0.1639  0.3227
 7109SOL    HW132786   2.728   0.475   1.802 -0.9464 -0.1524  0.0210
 7109SOL    HW232787   2.706   0.604   1.872 -1.0087 -0.4111 -0.9415
 7110SOL     OW32788   0.818   0.967   6.315  0.0683  0.5359 -0.2590
 7110SOL    HW132789   0.815   0.997   6.224 -1.1662  2.9079  0.5833
 7110SOL    HW232790   0.913   0.964   6.324  0.0946 -2.9787 -1.5059
 7111SOL     OW32791   2.354   2.588   6.778  0.0610 -0.1434  0.2780
 7111SOL    HW132792   2.375   2.498   6.802 -0.9114 -0.8898 -1.6568
 7111SOL    HW232793   2.285   2.567   6.716 -1.0703  0.2500  1.4169
 7112SOL     OW32794   2.758   4.497   1.256  0.1127 -0.1390 -0.2835
 7112SOL    HW132795   2.684   4.459   1.209 -1.0943  3.2436 -1.1069
 7112SOL    HW232796   2.799   4.413   1.277  1.8124  0.9972  1.0000
 7113SOL     OW32797   3.114   4.016   6.911  0.4557  0.1490  0.2147
 7113SOL    HW132798   3.060   3.937   6.922 -0.3793  0.8510  1.1858
 7113SOL    HW232799   3.048   4.076   6.877  4.0652  3.9957 -0.0317
 7114SOL     OW32800   3.304   4.038   4.526  0.0352  0.2091  0.2010
 7114SOL    HW132801   3.263   3.967   4.476 -1.4657  1.8788 -0.9848
 7114SOL    HW232802   3.237   4.103   4.548 -1.1215 -0.9216  0.0327
 7115SOL     OW32803   3.447   3.643   2.625 -0.2036  0.5218  0.0741
 7115SOL    HW132804   3.513   3.654   2.693 -1.5191  0.2304  1.4025
 7115SOL    HW232805   3.362   3.650   2.668 -0.6675  3.8814 -1.3769
 7116SOL     OW32806   3.566   0.622  15.131  0.1612  0.1396  0.1283
 7116SOL    HW132807   3.587   0.621  15.038 -0.4848  1.0234 -0.0281
 7116SOL    HW232808   3.565   0.717  15.145  1.7657  0.2549 -0.6006
 7117SOL     OW32809   0.272   0.518   0.954  0.3117 -1.2401 -0.0595
 7117SOL    HW132810   0.179   0.533   0.935  0.3152 -0.8103  0.2609
 7117SOL    HW232811   0.253   0.440   1.004  0.7313 -0.6751  0.9757
 7118SOL     OW32812   4.189   2.752   0.329 -0.7074 -0.0035 -0.4478
 7118SOL    HW132813   4.115   2.705   0.291 -0.0638 -0.5257 -1.0440
 7118SOL    HW232814   4.239   2.681   0.367 -0.3293  1.0205  0.9764
 7119SOL     OW32815   1.362   3.676   5.466  0.9853 -0.0758 -0.9765
 7119SOL    HW132816   1.336   3.671   5.374 -0.6742 -2.3708 -0.3738
 7119SOL    HW232817   1.450   3.639   5.455  1.4684  0.3588  1.5167
 7120SOL     OW32818   1.024   3.716  11.899  0.1815 -0.5147 -0.5036
 7120SOL    HW132819   1.103   3.666  11.916  1.9351  2.1802 -0.6765
 7120SOL    HW232820   1.022   3.764  11.982 -1.5566  0.4863 -1.1156
 7121SOL     OW32821   4.227   4.116   0.879  0.2488  0.7040  0.1226
 7121SOL    HW132822   4.308   4.106   0.830  0.8523  0.7920  1.1117
 7121SOL    HW232823   4.233   4.055   0.953  0.8873 -0.7365 -1.1315
 7122SOL     OW32824   0.578   1.519   2.460 -0.0618  0.3145  0.8605
 7122SOL    HW132825   0.514   1.563   2.516 -1.1249  0.5305 -0.5223
 7122SOL    HW232826   0.551   1.429   2.445  1.6117  0.0148 -0.2868
 7123SOL     OW32827   3.029   0.142  12.275  0.3258 -0.0633 -0.6033
 7123SOL    HW132828   2.964   0.120  12.342  2.4391  0.5778  1.6611
 7123SOL    HW232829   3.054   0.230  12.304  2.6608 -0.6074 -0.8939
 7124SOL     OW32830   3.156   1.314  12.475  0.1563 -0.6532  0.2764
 7124SOL    HW132831   3.228   1.254  12.494  0.8642  0.2802  0.5919
 7124SOL    HW232832   3.174   1.335  12.384  0.0319  2.1820  0.9031
 7125SOL     OW32833   2.504   0.184  12.342 -0.3814 -0.0002 -0.1506
 7125SOL    HW132834   2.545   0.170  12.257  1.1639  1.7825  0.3061
 7125SOL    HW232835   2.545   0.268  12.362  2.1760 -1.6889  1.6696
 7126SOL     OW32836   3.839   1.882   8.020 -0.1538 -0.6897  0.4073
 7126SOL    HW132837   3.758   1.917   8.058  0.5933 -0.5489  1.8806
 7126SOL    HW232838   3.891   1.961   8.005 -3.5693  1.5371  0.2992
 7127SOL     OW32839   4.095   1.851   2.377 -0.3614 -0.3093 -0.1120
 7127SOL    HW132840   4.128   1.761   2.376  3.1165  0.9638  1.0200
 7127SOL    HW232841   4.000   1.838   2.380 -0.1201 -2.0930 -0.2681
 7128SOL     OW32842   3.468   0.238   0.838  0.4459  0.7180 -0.6117
 7128SOL    HW132843   3.518   0.290   0.901 -0.6417 -1.0062  1.6861
 7128SOL    HW232844   3.402   0.303   0.812  1.5283  2.1414  0.2075
 7129SOL     OW32845   3.115   4.645   0.541 -0.0776 -0.0079  0.7980
 7129SOL    HW132846   3.022   4.655   0.558 -0.2403  0.8949 -0.5510
 7129SOL    HW232847   3.135   4.598   0.622  2.3556  1.7786  1.2419
 7130SOL     OW32848   2.813   4.358   3.475 -0.1707  0.2239 -0.0373
 7130SOL    HW132849   2.767   4.321   3.399  0.7577  0.0997 -0.5385
 7130SOL    HW232850   2.831   4.286   3.535 -0.5543  0.3202  0.1936
 7131SOL     OW32851   2.859   2.061   1.823 -0.1336 -0.1426 -0.0165
 7131SOL    HW132852   2.771   2.024   1.828 -0.2598  0.3968  1.7784
 7131SOL    HW232853   2.900   2.006   1.757  0.1585  0.3607 -0.2566
 7132SOL     OW32854   3.931   3.396   8.984 -0.7274 -0.2683  0.3713
 7132SOL    HW132855   3.938   3.458   9.056  2.5646 -0.5919  0.3034
 7132SOL    HW232856   3.880   3.448   8.922 -0.8455  1.5237  1.9967
 7133SOL     OW32857   3.145   4.348   6.407  0.1452 -0.3890 -0.0517
 7133SOL    HW132858   3.218   4.320   6.353 -1.2698 -1.5977 -1.3397
 7133SOL    HW232859   3.111   4.266   6.442  0.1464  0.4106  1.8496
 7134SOL     OW32860   3.598   0.570   1.478  0.1000  0.1025  0.1241
 7134SOL    HW132861   3.607   0.661   1.451 -0.8605  0.0034 -0.5503
 7134SOL    HW232862   3.502   0.574   1.470 -0.1003 -1.5334  1.8181
 7135SOL     OW32863   0.138   4.543   7.908  0.5646  0.0113  0.4822
 7135SOL    HW132864   0.212   4.583   7.863 -0.2175 -0.6978 -1.4645
 7135SOL    HW232865   0.117   4.474   7.845 -0.6601  1.3352 -0.5502
 7136SOL     OW32866   3.028   3.313   9.333 -0.4550 -0.2445 -0.3478
 7136SOL    HW132867   3.068   3.226   9.329  0.2780  0.2553 -3.8033
 7136SOL    HW232868   3.033   3.330   9.427  1.7005 -0.7358 -0.3923
 7137SOL     OW32869   0.804   3.944   7.812 -0.0266  0.4312  0.0613
 7137SOL    HW132870   0.897   3.939   7.790 -0.3697 -1.5281 -0.9064
 7137SOL    HW232871   0.766   4.001   7.744 -0.1698 -0.4176 -0.5623
 7138SOL     OW32872   1.979   0.881   6.771  0.1810  0.3865 -0.2879
 7138SOL    HW132873   1.916   0.945   6.805  0.9263  0.8861  0.1658
 7138SOL    HW232874   1.935   0.798   6.789  0.9839  0.4813  2.0158
 7139SOL     OW32875   3.031   0.185   8.472 -0.3463 -0.4803  0.3259
 7139SOL    HW132876   2.990   0.140   8.546 -1.0352 -0.8393 -0.2748
 7139SOL    HW232877   3.123   0.159   8.473  0.0767  1.0064 -1.7081
 7140SOL     OW32878   0.817   2.662   2.331  0.5160 -0.7174 -0.0002
 7140SOL    HW132879   0.792   2.572   2.311  0.3509 -0.6360 -0.1513
 7140SOL    HW232880   0.756   2.696   2.267  1.9561 -1.0369 -1.5382
 7141SOL     OW32881   3.732   1.805  12.154 -0.0472  0.3819 -0.4168
 7141SOL    HW132882   3.636   1.811  12.161  0.1165  0.0194  2.2157
 7141SOL    HW232883   3.750   1.836  12.243 -1.6277 -0.4549  0.1912
 7142SOL     OW32884   0.732   3.025   7.736 -0.0721  0.6653  0.1970
 7142SOL    HW132885   0.706   3.113   7.761 -0.4338 -0.1008  2.4877
 7142SOL    HW232886   0.811   3.010   7.789 -1.1589 -0.7715  1.3939
 7143SOL     OW32887   0.030   2.100   7.477  0.0652 -0.3226  0.3934
 7143SOL    HW132888   4.661   2.102   7.451  0.5851  1.9506 -1.2293
 7143SOL    HW232889   0.041   2.189   7.510  3.0020 -1.6993  3.0852
 7144SOL     OW32890   1.817   1.789   3.036 -0.0756 -0.1480  0.3651
 7144SOL    HW132891   1.840   1.874   3.072 -0.4791  0.4519 -0.7963
 7144SOL    HW232892   1.861   1.729   3.096 -1.5440 -1.0947  0.4899
 7145SOL     OW32893   4.461   0.792   1.688  0.3531 -0.1373 -0.0992
 7145SOL    HW132894   4.405   0.725   1.728  1.0244 -1.9323 -2.1392
 7145SOL    HW232895   4.486   0.844   1.764  0.6195  0.2153 -0.4316
 7146SOL     OW32896   0.375   3.003   7.642  0.0473  0.0064  0.8217
 7146SOL    HW132897   0.350   3.006   7.735  0.1563  0.3525  0.8411
 7146SOL    HW232898   0.310   3.057   7.596 -0.6064  1.1479  3.0446
 7147SOL     OW32899   3.962   3.113   1.761  0.4078 -0.4951 -0.4978
 7147SOL    HW132900   3.898   3.077   1.823  0.0228 -0.8379 -1.0973
 7147SOL    HW232901   3.906   3.143   1.689  0.4017  1.5790  0.3808
 7148SOL     OW32902   4.710   0.988   0.322  0.4754 -0.1805 -0.7719
 7148SOL    HW132903   4.674   1.075   0.308 -0.9798 -0.5872  0.4946
 7148SOL    HW232904   4.707   0.964   0.415 -0.4995  1.4944 -0.3763
 7149SOL     OW32905   2.526   2.365   7.390 -0.1447  0.8776 -0.2352
 7149SOL    HW132906   2.495   2.311   7.318 -0.6752  0.1780  0.5202
 7149SOL    HW232907   2.544   2.301   7.459 -0.9941  0.3875 -0.4750
 7150SOL     OW32908   1.872   0.368   1.949 -0.3233 -0.0303 -0.4949
 7150SOL    HW132909   1.907   0.372   1.861  0.6229  0.3832 -0.0984
 7150SOL    HW232910   1.937   0.307   1.984 -1.3032 -0.1214  1.1635
 7151SOL     OW32911   4.055   3.439   7.721 -0.0038  0.4020  0.3882
 7151SOL    HW132912   4.016   3.509   7.774 -2.5419  0.4690 -1.5848
 7151SOL    HW232913   4.012   3.364   7.762  1.0367 -0.3671  0.0653
 7152SOL     OW32914   1.446   3.269   7.969 -0.0066 -0.3515 -0.1331
 7152SOL    HW132915   1.413   3.195   8.021 -2.5718  2.3396  2.0249
 7152SOL    HW232916   1.365   3.310   7.940 -0.1782 -0.2923  0.4163
 7153SOL     OW32917   1.445   0.993   3.366 -0.0316  0.3162  0.0524
 7153SOL    HW132918   1.437   1.036   3.451  0.2118  1.5352 -0.5455
 7153SOL    HW232919   1.499   0.916   3.381 -1.1901 -0.4122  0.5029
 7154SOL     OW32920   0.240   4.175  10.368 -0.6302 -0.3407  0.1216
 7154SOL    HW132921   0.216   4.267  10.353 -1.6167 -0.5562  0.3759
 7154SOL    HW232922   0.177   4.156  10.438  0.9248  0.2484  1.6681
 7155SOL     OW32923   0.939   0.821   4.768 -0.4380  0.4434 -0.0751
 7155SOL    HW132924   1.026   0.818   4.729 -0.5099 -1.3979 -0.0819
 7155SOL    HW232925   0.895   0.752   4.719  2.5917 -1.8262  0.3729
 7156SOL     OW32926   4.590   1.360   4.664  0.1933  0.2227  0.6138
 7156SOL    HW132927   4.664   1.303   4.644  1.0142  1.0037  1.3979
 7156SOL    HW232928   4.602   1.437   4.608  0.1105 -0.6715 -0.6315
 7157SOL     OW32929   3.856   2.840  10.649 -0.0441 -0.0495  0.1322
 7157SOL    HW132930   3.909   2.811  10.724  1.3330  0.7752 -0.5180
 7157SOL    HW232931   3.899   2.917  10.611  1.0022 -0.6017  0.1792
 7158SOL     OW32932   4.500   4.015   2.093  0.2976  0.6154 -0.5030
 7158SOL    HW132933   4.592   4.004   2.069  0.6348 -0.6309  1.3561
 7158SOL    HW232934   4.459   3.942   2.048 -0.6098 -0.6665  2.3830
 7159SOL     OW32935   2.433   0.673   0.642  0.4546  0.7873 -0.3976
 7159SOL    HW132936   2.464   0.758   0.672 -0.5479  1.3400 -0.9328
 7159SOL    HW232937   2.395   0.697   0.558 -0.1931  0.8102 -0.0972
 7160SOL     OW32938   1.791   4.140   5.198  0.3825  0.8809 -0.2513
 7160SOL    HW132939   1.874   4.127   5.154  0.8046 -0.5093  0.9703
 7160SOL    HW232940   1.729   4.110   5.131  1.0570  2.6447 -1.6781
 7161SOL     OW32941   4.374   1.470   4.307  0.2581 -0.1896  0.3063
 7161SOL    HW132942   4.366   1.460   4.212  2.3490  1.8933 -0.0817
 7161SOL    HW232943   4.314   1.402   4.339 -1.8865  1.6594  0.1931
 7162SOL     OW32944   2.856   2.623   1.991 -0.1373  0.1681  0.1541
 7162SOL    HW132945   2.776   2.659   1.953  0.8656  1.3712 -0.8012
 7162SOL    HW232946   2.927   2.649   1.932 -0.4788 -2.6517 -1.4801
 7163SOL     OW32947   0.853   1.041  14.763 -0.0241 -0.0243  0.1114
 7163SOL    HW132948   0.761   1.022  14.747 -0.7603  3.0323  0.6343
 7163SOL    HW232949   0.854   1.121  14.710 -2.1593  0.5200  0.9011
 7164SOL     OW32950   3.826   2.909   9.469  0.3654  1.2870  0.3385
 7164SOL    HW132951   3.749   2.954   9.504  0.2740  2.3911 -1.2694
 7164SOL    HW232952   3.806   2.907   9.376 -2.2580 -0.7839  0.9441
 7165SOL     OW32953   3.531   2.431  13.488 -0.6068  0.8036  0.0199
 7165SOL    HW132954   3.597   2.384  13.538 -0.0444  1.4107 -0.1432
 7165SOL    HW232955   3.473   2.361  13.458  0.2591  0.3475 -0.6111
 7166SOL     OW32956   0.393   2.010   7.261 -0.3108 -0.0343  0.1864
 7166SOL    HW132957   0.317   1.953   7.266 -1.4860  1.4640 -0.7415
 7166SOL    HW232958   0.428   1.997   7.349 -0.0636 -2.2884 -0.2404
 7167SOL     OW32959   4.465   2.973  11.006 -0.1168  0.3586  0.9254
 7167SOL    HW132960   4.379   2.979  10.963 -0.0152 -1.3858  0.5013
 7167SOL    HW232961   4.515   2.949  10.928  0.6108 -0.3148  1.6044
 7168SOL     OW32962   3.963   2.256   2.944 -0.1815  0.0115 -0.0540
 7168SOL    HW132963   3.914   2.318   2.891  0.4202  1.6179  1.2845
 7168SOL    HW232964   3.887   2.227   2.995  0.4634 -0.0188  0.8987
 7169SOL     OW32965   3.326   2.451   9.771 -0.4087  0.4412  0.1741
 7169SOL    HW132966   3.372   2.447   9.687 -1.8675 -0.2105 -0.5878
 7169SOL    HW232967   3.351   2.536   9.807  2.5203  0.4551 -1.8253
 7170SOL     OW32968   1.631   4.302   1.414  0.0404  0.1637 -0.2282
 7170SOL    HW132969   1.581   4.346   1.345  0.0724 -1.1921 -1.1010
 7170SOL    HW232970   1.606   4.349   1.494  1.5634  1.1010 -0.2924
 7171SOL     OW32971   0.664   3.656  16.652 -0.7073 -0.1519 -0.0669
 7171SOL    HW132972   0.671   3.741  16.695  0.1970 -0.2285 -0.0779
 7171SOL    HW232973   0.685   3.605  16.730 -1.0454  3.8421  2.6507
 7172SOL     OW32974   0.580   0.938  11.347  0.4904  0.0039  0.3372
 7172SOL    HW132975   0.510   0.909  11.288 -0.0053  1.2640  0.3103
 7172SOL    HW232976   0.562   0.908  11.436  0.9452  0.9168  0.7315
 7173SOL     OW32977   3.465   1.835  10.482 -0.5681  0.1827 -0.1584
 7173SOL    HW132978   3.483   1.888  10.404  1.9408 -0.1361  0.1838
 7173SOL    HW232979   3.374   1.858  10.502 -0.1148  0.6515  1.3650
 7174SOL     OW32980   4.161   3.287   6.983 -0.1683  0.2189 -0.2140
 7174SOL    HW132981   4.176   3.211   7.040  1.1818 -1.4100 -2.7080
 7174SOL    HW232982   4.068   3.272   6.970 -0.4794  2.3714 -0.4626
 7175SOL     OW32983   4.278   0.411   0.252  0.5559 -0.2128 -0.3920
 7175SOL    HW132984   4.295   0.367   0.335  0.8794  1.0708  0.2257
 7175SOL    HW232985   4.297   0.504   0.266 -0.4344 -0.0775  0.1140
 7176SOL     OW32986   3.832   1.730  17.068  0.0272 -0.8580  0.2004
 7176SOL    HW132987   3.918   1.699  17.039  0.4547 -0.3208  0.8929
 7176SOL    HW232988   3.816   1.790  16.996  1.6797  0.4951  0.9629
 7177SOL     OW32989   0.496   2.585  13.854  0.3204  0.3799  0.5245
 7177SOL    HW132990   0.513   2.495  13.827  1.4202  0.4141  1.0963
 7177SOL    HW232991   0.576   2.628  13.823  1.1797 -0.2441  1.8794
 7178SOL     OW32992   3.356   4.618   0.426  0.1725  0.2056  0.1798
 7178SOL    HW132993   3.270   4.619   0.467 -0.1425 -0.9248 -0.4519
 7178SOL    HW232994   3.354   4.696   0.371  0.2810 -0.1103 -0.2750
 7179SOL     OW32995   1.489   1.696   7.299  0.5027  0.1585 -0.2406
 7179SOL    HW132996   1.569   1.721   7.253 -0.1750 -0.4055 -1.7385
 7179SOL    HW232997   1.461   1.779   7.337 -0.6587  0.7139 -2.3523
 7180SOL     OW32998   1.633   3.958   4.149  0.4074 -0.2350 -0.1305
 7180SOL    HW132999   1.680   4.039   4.131  0.2266 -0.6444 -2.4259
 7180SOL    HW233000   1.649   3.949   4.243  0.0150  1.0561  0.0568
 7181SOL     OW33001   1.012   0.942  14.539  0.1974  0.3661 -0.2937
 7181SOL    HW133002   0.939   0.970  14.594  0.3181 -0.1134  0.1070
 7181SOL    HW233003   0.958   0.884  14.485  0.8965 -1.0037  0.4860
 7182SOL     OW33004   0.702   1.986  15.884 -0.6875  0.5373 -0.2730
 7182SOL    HW133005   0.647   1.908  15.886  1.1990 -0.8161 -1.5633
 7182SOL    HW233006   0.791   1.954  15.870 -0.4086  1.5976 -0.9048
 7183SOL     OW33007   2.240   1.106  12.845  0.2482 -0.1956 -0.3304
 7183SOL    HW133008   2.185   1.028  12.855 -0.1610  0.1238 -0.0762
 7183SOL    HW233009   2.273   1.118  12.934 -0.6771 -3.1065  0.4100
 7184SOL     OW33010   2.579   2.304   2.521  0.5806 -0.2604  0.8150
 7184SOL    HW133011   2.621   2.265   2.598  0.6346 -0.0501  0.8924
 7184SOL    HW233012   2.573   2.396   2.547  0.4805 -0.0553  0.0427
 7185SOL     OW33013   4.202   2.780   4.288  0.1328 -0.3426  0.3298
 7185SOL    HW133014   4.179   2.813   4.375 -0.5707  0.5384 -0.1916
 7185SOL    HW233015   4.296   2.799   4.280  0.1631 -0.5669  0.1633
 7186SOL     OW33016   3.748   2.212   9.748  0.1330 -0.3148 -0.4486
 7186SOL    HW133017   3.700   2.165   9.816  0.8232  1.3719  1.1833
 7186SOL    HW233018   3.723   2.302   9.767 -0.3196 -0.2610 -1.3040
 7187SOL     OW33019   2.861   3.922   5.424  0.2067  0.5107 -0.6866
 7187SOL    HW133020   2.799   3.909   5.352 -0.2265 -1.2379  0.0101
 7187SOL    HW233021   2.861   4.018   5.418  0.2252  0.6900  2.1541
 7188SOL     OW33022   4.551   3.182   1.455 -0.0424 -0.0799 -0.1983
 7188SOL    HW133023   4.543   3.133   1.536 -0.9515  0.7510  0.2166
 7188SOL    HW233024   4.562   3.268   1.496 -1.5594  1.3732 -2.8026
 7189SOL     OW33025   0.829   2.333   4.286 -0.5221 -0.2518  0.1034
 7189SOL    HW133026   0.865   2.336   4.197 -0.6000  0.7458  0.1027
 7189SOL    HW233027   0.766   2.261   4.278 -0.2110 -0.5387  0.2593
 7190SOL     OW33028   2.417   0.265  17.364  0.5545 -0.6043 -0.1683
 7190SOL    HW133029   2.392   0.295  17.452  0.1824 -0.4112 -0.3390
 7190SOL    HW233030   2.512   0.269  17.358  0.5630 -0.4706  0.0598
 7191SOL     OW33031   0.968   0.625   9.577  0.2535 -0.2571  0.6181
 7191SOL    HW133032   0.942   0.629   9.669  1.4230 -0.6765  0.9648
 7191SOL    HW233033   1.006   0.537   9.578  2.5480  0.7078 -0.6452
 7192SOL     OW33034   2.057   3.733   5.275 -0.7902  0.8752  0.0421
 7192SOL    HW133035   1.966   3.705   5.282  0.0158 -2.2309 -1.5036
 7192SOL    HW233036   2.085   3.642   5.263  0.8758  1.6671 -2.1245
 7193SOL     OW33037   2.526   3.597  13.533  0.1478 -0.2348  0.1284
 7193SOL    HW133038   2.515   3.593  13.438 -2.2753 -1.6604  0.4760
 7193SOL    HW233039   2.483   3.515  13.557  0.7745 -0.8000 -0.6956
 7194SOL     OW33040   0.192   0.870  15.017  1.0194  0.1719 -0.5026
 7194SOL    HW133041   0.212   0.964  15.019  0.4198  0.3029 -0.5536
 7194SOL    HW233042   0.245   0.837  14.944 -1.1886 -0.4696 -1.8210
 7195SOL     OW33043   1.937   3.312   6.263 -0.5618  0.1742  0.2835
 7195SOL    HW133044   1.979   3.386   6.305 -0.7678 -0.2433  1.2259
 7195SOL    HW233045   1.849   3.315   6.300  0.1409  3.5455  1.7193
 7196SOL     OW33046   1.961   1.852   6.942 -0.0718 -0.0730 -0.2235
 7196SOL    HW133047   2.012   1.826   7.018  0.1055 -1.0128 -0.6635
 7196SOL    HW233048   1.949   1.765   6.903 -0.7488  0.4715 -1.2374
 7197SOL     OW33049   0.963   4.608   7.832  0.4527  0.8247  0.5388
 7197SOL    HW133050   0.890   4.551   7.807  0.2436  1.3346 -0.0414
 7197SOL    HW233051   1.045   4.562   7.815 -0.1565 -0.4085  0.9727
 7198SOL     OW33052   2.901   3.616   8.962  0.6906 -0.1711  0.0167
 7198SOL    HW133053   2.958   3.582   9.031  0.8392 -0.5168 -0.2751
 7198SOL    HW233054   2.830   3.650   9.016  0.6349 -1.3985  0.6913
 7199SOL     OW33055   3.726   3.024   4.422 -0.4578 -0.3253 -0.0341
 7199SOL    HW133056   3.698   3.100   4.371 -0.1782  0.3856  0.8755
 7199SOL    HW233057   3.723   2.958   4.353 -1.4643 -0.1742 -0.1323
 7200SOL     OW33058   1.449   1.821  14.495 -0.7136 -0.6203  0.4149
 7200SOL    HW133059   1.532   1.802  14.453 -0.8341  0.0286 -0.1213
 7200SOL    HW233060   1.444   1.754  14.563  1.0316 -2.4413 -1.2695
 7201SOL     OW33061   4.230   0.675   3.489 -0.1117 -0.1569  0.0499
 7201SOL    HW133062   4.322   0.651   3.481  0.6598  1.8926  2.7232
 7201SOL    HW233063   4.219   0.734   3.414  1.8505  0.1711  0.0453
 7202SOL     OW33064   2.350   3.970   6.234  0.2031 -0.8953 -0.2584
 7202SOL    HW133065   2.255   3.962   6.244  0.3214 -2.3495 -0.3176
 7202SOL    HW233066   2.353   3.984   6.329  0.8632 -3.8023  0.1682
 7203SOL     OW33067   0.324   1.734  14.845  0.1112 -0.5185  0.3107
 7203SOL    HW133068   0.394   1.720  14.910 -0.7439 -3.0604  0.6820
 7203SOL    HW233069   0.264   1.766  14.912  2.0248  0.2346  1.6725
 7204SOL     OW33070   4.640   4.484   6.942 -0.2927  0.3416 -0.4494
 7204SOL    HW133071   4.648   4.521   7.030 -3.1230  3.1524 -1.3809
 7204SOL    HW233072   4.547   4.465   6.955 -0.3779  1.8478  1.1510
 7205SOL     OW33073   2.865   4.041  17.209  0.4119  0.5933  0.2726
 7205SOL    HW133074   2.803   4.090  17.264 -0.8367 -0.8688  0.1563
 7205SOL    HW233075   2.808   3.974  17.172 -0.8236  1.7626  0.0744
 7206SOL     OW33076   3.010   4.624   2.970 -0.0228 -0.0925  0.4129
 7206SOL    HW133077   2.977   4.555   3.027 -0.0749 -0.4900 -0.0976
 7206SOL    HW233078   3.068   4.583   2.906  0.4892  1.6274 -0.2178
 7207SOL     OW33079   0.358   1.932   4.665 -0.5778 -0.2141 -0.6070
 7207SOL    HW133080   0.423   1.993   4.700 -1.1442 -1.3770  2.4741
 7207SOL    HW233081   0.391   1.856   4.713 -2.0990  0.7179  1.9403
 7208SOL     OW33082   1.581   3.888   7.332  0.2422  0.2087 -0.0935
 7208SOL    HW133083   1.505   3.861   7.384  1.2260 -0.9591  0.7181
 7208SOL    HW233084   1.640   3.894   7.407 -0.3756  1.3436  0.3142
 7209SOL     OW33085   0.671   3.104   2.449  0.4504 -0.1737  0.4376
 7209SOL    HW133086   0.631   3.064   2.372 -1.2598  1.3741  0.5369
 7209SOL    HW233087   0.752   3.126   2.403  0.5438 -0.3236  0.5285
 7210SOL     OW33088   3.083   2.110   2.491 -0.5034 -0.2967 -0.0740
 7210SOL    HW133089   3.021   2.067   2.549 -0.9740  1.2008  0.5150
 7210SOL    HW233090   3.168   2.073   2.515  0.0256  0.4780 -0.7646
 7211SOL     OW33091   3.923   4.587  11.525  0.0131  0.4198 -0.3016
 7211SOL    HW133092   3.996   4.581  11.464 -0.4704 -2.8928 -0.5678
 7211SOL    HW233093   3.961   4.639  11.596 -0.0571  0.0073  0.0391
 7212SOL     OW33094   2.274   0.550   7.149 -0.4599 -0.1141 -0.8211
 7212SOL    HW133095   2.286   0.477   7.089 -5.5863 -2.2588  0.7564
 7212SOL    HW233096   2.225   0.608   7.091 -0.9521  0.4970  0.2072
 7213SOL     OW33097   2.063   4.395   5.084  0.0254 -0.7950 -0.1388
 7213SOL    HW133098   2.111   4.438   5.014 -2.2096  1.8208 -0.0719
 7213SOL    HW233099   2.003   4.464   5.112  0.0099 -0.8038 -0.1512
 7214SOL     OW33100   0.582   0.288   8.255  0.4278  0.4706 -0.2169
 7214SOL    HW133101   0.510   0.228   8.236  0.3731  0.5930 -0.3889
 7214SOL    HW233102   0.629   0.277   8.172 -0.4117 -1.9017 -0.3844
 7215SOL     OW33103   2.761   1.909   9.672  0.5750  0.5534 -0.2089
 7215SOL    HW133104   2.688   1.969   9.691 -0.1103 -0.3025 -0.1281
 7215SOL    HW233105   2.737   1.869   9.589 -2.0884 -0.7070  1.1653
 7216SOL     OW33106   0.532   0.187  11.522  0.2391  0.1395 -0.0292
 7216SOL    HW133107   0.627   0.174  11.524 -0.0585 -2.2923 -0.6884
 7216SOL    HW233108   0.509   0.160  11.611 -1.2490 -1.9116 -1.0294
 7217SOL     OW33109   0.025   3.762   6.935 -0.4376  0.1235 -0.4297
 7217SOL    HW133110   0.026   3.729   6.845  0.9028  0.6605 -0.6107
 7217SOL    HW233111   4.661   3.737   6.965 -0.0288 -0.2866  0.4136
 7218SOL     OW33112   2.486   0.771   5.370  0.2693 -0.1045 -0.4494
 7218SOL    HW133113   2.466   0.865   5.378 -2.1124 -0.4678 -2.1636
 7218SOL    HW233114   2.545   0.762   5.445  0.2408 -0.6385 -0.4971
 7219SOL     OW33115   1.001   0.743  16.266 -0.1929 -0.1931  0.1584
 7219SOL    HW133116   0.991   0.653  16.297 -1.0038 -0.8923 -2.1825
 7219SOL    HW233117   1.054   0.783  16.335  0.4415 -1.2229  0.2672
 7220SOL     OW33118   0.428   3.994   8.946 -0.3154 -0.0672 -0.3226
 7220SOL    HW133119   0.473   4.077   8.930  1.2838 -0.6765  0.9451
 7220SOL    HW233120   0.459   3.958   9.030  0.8734 -0.3488 -0.8782
 7221SOL     OW33121   4.171   4.126   4.956  0.0957 -1.0565  0.5863
 7221SOL    HW133122   4.133   4.192   5.013 -0.4566  0.3299 -1.3995
 7221SOL    HW233123   4.147   4.042   4.994 -1.9804 -0.8706 -0.2975
 7222SOL     OW33124   3.736   0.725   2.172  0.0224 -0.2189 -0.2197
 7222SOL    HW133125   3.686   0.796   2.134 -2.0144 -0.5343  1.8889
 7222SOL    HW233126   3.747   0.673   2.092 -0.8162 -1.2834  0.3574
 7223SOL     OW33127   3.213   4.052   8.414 -0.2866 -0.2166  0.2700
 7223SOL    HW133128   3.261   4.134   8.429 -2.5448  0.9835  1.0673
 7223SOL    HW233129   3.169   4.039   8.498  1.0399  1.2540  1.2101
 7224SOL     OW33130   1.026   0.319   7.509 -0.0140 -0.5896 -0.4315
 7224SOL    HW133131   0.984   0.375   7.444 -2.1729 -1.9169 -0.1874
 7224SOL    HW233132   1.106   0.368   7.526 -1.1237  1.3452 -0.8275
 7225SOL     OW33133   0.961   0.741   4.014 -0.8157  0.4661  0.1145
 7225SOL    HW133134   1.034   0.693   4.052 -0.6157  1.4536  0.9905
 7225SOL    HW233135   0.909   0.663   3.995  2.1522 -1.0345 -1.8815
 7226SOL     OW33136   2.462   0.036   3.228  0.2372  0.0242 -0.1114
 7226SOL    HW133137   2.456   0.114   3.173  0.9971  1.2536  1.5238
 7226SOL    HW233138   2.369   0.030   3.248  0.4012 -2.4183 -0.0860
 7227SOL     OW33139   0.657   3.523   4.612  0.2217  0.1165 -0.1142
 7227SOL    HW133140   0.728   3.548   4.672  0.7606  3.7464 -2.3085
 7227SOL    HW233141   0.700   3.444   4.579  1.8049  2.2596 -3.2285
 7228SOL     OW33142   4.084   2.893   9.579  0.0655 -0.0248 -0.0999
 7228SOL    HW133143   4.061   2.848   9.660  3.1067  0.6649  1.1352
 7228SOL    HW233144   4.000   2.877   9.535  0.7326  0.5481 -1.6086
 7229SOL     OW33145   1.261   3.288   6.955  0.3988  0.1791  0.6987
 7229SOL    HW133146   1.237   3.223   7.021 -0.7181  1.2808  1.3533
 7229SOL    HW233147   1.175   3.325   6.937  0.4188 -1.3607 -2.5486
 7230SOL     OW33148   3.710   4.611   2.366 -0.2408  0.3873  0.3146
 7230SOL    HW133149   3.683   4.692   2.323 -0.2781 -0.7542 -1.8187
 7230SOL    HW233150   3.798   4.614   2.329  0.2645 -0.6651  1.4059
 7231SOL     OW33151   4.042   4.266  13.631 -0.1695  0.1360 -0.3717
 7231SOL    HW133152   3.990   4.274  13.711  0.4479 -1.0852  0.1356
 7231SOL    HW233153   4.130   4.284  13.665 -0.1936  1.9162 -1.2219
 7232SOL     OW33154   4.628   1.923   2.481  0.2642 -0.2406  0.1624
 7232SOL    HW133155   4.533   1.930   2.483  0.3953  1.6874 -0.3006
 7232SOL    HW233156   4.654   1.916   2.572  0.7656  0.5297  0.0799
 7233SOL     OW33157   1.591   3.853  14.415  0.5536  0.3872 -0.0761
 7233SOL    HW133158   1.661   3.893  14.363 -0.8163  0.6295 -1.7424
 7233SOL    HW233159   1.522   3.920  14.415  0.4413  0.2733  0.3292
 7234SOL     OW33160   2.030   2.933   3.394  0.5671  0.3077 -0.0316
 7234SOL    HW133161   1.941   2.931   3.430  0.7999 -3.0717  0.4063
 7234SOL    HW233162   2.060   2.846   3.423 -2.1079 -0.9679 -1.0800
 7235SOL     OW33163   4.243   0.326   6.215  0.4505 -0.2849 -0.3131
 7235SOL    HW133164   4.310   0.265   6.183 -0.2412 -1.1110 -0.1671
 7235SOL    HW233165   4.204   0.364   6.136  1.5362  2.6311  0.5635
 7236SOL     OW33166   3.225   1.635   9.387 -0.3924 -0.5054 -0.2533
 7236SOL    HW133167   3.286   1.601   9.321  0.4550 -1.4664  1.0094
 7236SOL    HW233168   3.146   1.582   9.379  0.0647 -1.3476  0.7743
 7237SOL     OW33169   4.353   2.679   0.679  0.0976 -0.0146 -0.3132
 7237SOL    HW133170   4.400   2.754   0.642  1.0060 -0.2501  0.3631
 7237SOL    HW233171   4.319   2.625   0.607  1.1999 -1.0674 -0.0433
 7238SOL     OW33172   2.068   0.068   8.762 -0.4586 -0.3730 -0.3331
 7238SOL    HW133173   2.139   0.097   8.704 -1.9932  2.9872 -0.5168
 7238SOL    HW233174   2.052   0.154   8.801  1.5891 -0.7869  1.4817
 7239SOL     OW33175   4.118   1.013   8.102 -0.1736 -0.3505 -0.2716
 7239SOL    HW133176   4.102   1.005   8.196  1.6871 -1.5048 -0.0302
 7239SOL    HW233177   4.085   1.101   8.085 -1.4189 -1.1853 -2.2001
 7240SOL     OW33178   3.375   4.145   2.576  0.1041  0.0569  0.5006
 7240SOL    HW133179   3.318   4.201   2.524  1.4833  0.8246 -0.1943
 7240SOL    HW233180   3.304   4.097   2.618 -1.3864  0.4158 -1.5736
 7241SOL     OW33181   0.050   2.168   2.521  0.0508 -0.5974 -0.0536
 7241SOL    HW133182   4.693   2.220   2.510  0.9355  0.8210  0.2098
 7241SOL    HW233183   0.015   2.079   2.516 -1.4661 -0.2414  3.8845
 7242SOL     OW33184   1.896   2.298   4.761  0.4390  0.5867 -0.0881
 7242SOL    HW133185   1.837   2.241   4.712  0.5762  0.4842 -0.1357
 7242SOL    HW233186   1.972   2.292   4.703 -0.4907 -1.1861 -1.1079
 7243SOL     OW33187   0.776   0.863   7.284 -0.0611  0.1925 -0.3590
 7243SOL    HW133188   0.812   0.838   7.370  0.5877  1.2388 -0.3228
 7243SOL    HW233189   0.689   0.882   7.318 -0.3543  3.1004 -2.7825
 7244SOL     OW33190   0.636   3.479   7.916  0.3376  0.2945  0.2338
 7244SOL    HW133191   0.565   3.543   7.928  1.4610  1.2841  1.6109
 7244SOL    HW233192   0.636   3.438   8.003  0.2234  0.3737  0.2712
 7245SOL     OW33193   2.618   1.520   5.056 -0.0633  0.3044 -0.1248
 7245SOL    HW133194   2.669   1.553   4.982  1.5072  0.2730  0.9482
 7245SOL    HW233195   2.557   1.592   5.074  0.1561  0.8475 -1.5925
 7246SOL     OW33196   1.647   2.271   8.548 -0.1285  0.3009  0.0161
 7246SOL    HW133197   1.740   2.282   8.564  0.0174 -0.5943 -0.1995
 7246SOL    HW233198   1.604   2.330   8.610  0.4553  0.8163 -0.0771
 7247SOL     OW33199   1.582   2.701   7.974 -0.0643 -0.7480 -0.1478
 7247SOL    HW133200   1.515   2.761   8.006  0.8675  0.3050 -0.1842
 7247SOL    HW233201   1.655   2.759   7.957  0.4198 -1.5925 -0.9753
 7248SOL     OW33202   4.321   2.122   2.481 -0.2099 -0.0475 -0.4581
 7248SOL    HW133203   4.249   2.140   2.542  0.2611  2.2686 -0.5743
 7248SOL    HW233204   4.267   2.130   2.402 -0.1917  1.4003 -0.3307
 7249SOL     OW33205   0.740   0.756   3.596  0.3589 -0.3050 -0.2688
 7249SOL    HW133206   0.825   0.724   3.628 -0.9836 -2.2519  1.3845
 7249SOL    HW233207   0.730   0.707   3.515 -1.3413  0.1406 -0.3265
 7250SOL     OW33208   0.915   2.735   7.965  0.5358  0.1993  0.6184
 7250SOL    HW133209   0.913   2.640   7.976 -1.9103  0.3725  1.6335
 7250SOL    HW233210   0.928   2.773   8.051 -1.1912  0.8299  0.5889
 7251SOL     OW33211   0.810   1.423   1.268 -0.1464 -0.4719 -0.7937
 7251SOL    HW133212   0.796   1.355   1.335 -0.9056  0.8132  0.3437
 7251SOL    HW233213   0.859   1.480   1.326 -1.5226 -1.6756  1.5804
 7252SOL     OW33214   4.516   2.560   4.813  0.0141  0.3099  0.5704
 7252SOL    HW133215   4.563   2.596   4.888  0.4322  0.1722  0.3768
 7252SOL    HW233216   4.428   2.541   4.844  0.9418 -0.9122  2.4711
 7253SOL     OW33217   4.333   2.384   7.866  0.7658  0.3006  0.1774
 7253SOL    HW133218   4.266   2.321   7.840  1.4045 -0.6004  0.6664
 7253SOL    HW233219   4.307   2.414   7.953  0.2162  0.9235 -0.2070
 7254SOL     OW33220   4.369   0.943   7.652  0.3458 -0.8663  0.5245
 7254SOL    HW133221   4.350   0.867   7.708  1.0145 -1.6625 -0.3344
 7254SOL    HW233222   4.374   1.013   7.717 -0.9084  0.4064 -0.7539
 7255SOL     OW33223   2.706   2.007   6.341  0.1171  0.2988 -0.3079
 7255SOL    HW133224   2.656   2.089   6.342  0.7037  0.6242  1.6619
 7255SOL    HW233225   2.635   1.944   6.330 -0.5535  0.9944  0.0490
 7256SOL     OW33226   2.126   2.208   2.553 -0.2284 -0.5545  0.2341
 7256SOL    HW133227   2.119   2.293   2.509 -0.7562  0.6684  2.7118
 7256SOL    HW233228   2.216   2.203   2.520  0.1945 -0.1200  1.3245
 7257SOL     OW33229   3.944   2.796   6.469  0.2499 -0.1904 -0.3516
 7257SOL    HW133230   3.982   2.761   6.388 -0.7078  0.4671 -1.0861
 7257SOL    HW233231   3.851   2.779   6.453  0.0677  1.2064 -0.7881
 7258SOL     OW33232   0.815   3.718   4.075  0.5253 -0.3676  0.1421
 7258SOL    HW133233   0.767   3.685   3.999  0.9142 -2.0672  0.6451
 7258SOL    HW233234   0.904   3.733   4.042  0.4627  1.3597  0.7415
 7259SOL     OW33235   4.221   0.156   1.550 -0.2855 -0.0633  0.8494
 7259SOL    HW133236   4.191   0.077   1.595  0.6751  0.3829  2.2669
 7259SOL    HW233237   4.148   0.175   1.492 -0.0260 -2.1616 -0.1858
 7260SOL     OW33238   1.601   3.184   7.061 -0.0428 -0.3396  0.6531
 7260SOL    HW133239   1.590   3.181   7.156  2.0259  1.8813  0.9522
 7260SOL    HW233240   1.555   3.263   7.033 -2.7697 -2.4942 -0.9095
 7261SOL     OW33241   0.688   4.669   2.345  0.3441 -0.0612  0.1800
 7261SOL    HW133242   0.776   4.633   2.353  0.1670 -1.2572 -3.3380
 7261SOL    HW233243   0.698   4.718   2.264  0.5397 -0.7265 -0.1997
 7262SOL     OW33244   0.959   2.201   7.207  0.3069 -0.3068  0.1826
 7262SOL    HW133245   0.928   2.239   7.289  0.2635 -0.1174  0.0780
 7262SOL    HW233246   1.052   2.226   7.209  0.9272 -2.5450 -1.1681
 7263SOL     OW33247   2.613   0.906  15.742  0.2573  0.0373 -0.3981
 7263SOL    HW133248   2.570   0.914  15.827  3.2313  0.2782  1.0517
 7263SOL    HW233249   2.586   0.986  15.698  0.0651  0.3344  0.2680
 7264SOL     OW33250   0.565   2.632  14.352 -0.5225 -0.1754  0.3646
 7264SOL    HW133251   0.658   2.619  14.333 -0.7411  1.6294 -1.9707
 7264SOL    HW233252   0.534   2.605  14.265  2.9022  0.3503 -1.0220
 7265SOL     OW33253   2.333   0.565   4.426 -0.6456 -0.3729 -0.7867
 7265SOL    HW133254   2.410   0.566   4.369 -1.0503  1.7066 -1.2925
 7265SOL    HW233255   2.368   0.587   4.512 -0.4017  0.1960 -1.0288
 7266SOL     OW33256   2.905   2.903   2.971  0.0249 -0.1910  0.1415
 7266SOL    HW133257   2.905   2.956   3.051  0.6294 -0.3993  0.2786
 7266SOL    HW233258   2.894   2.813   3.002  0.5597  1.0349  3.9611
 7267SOL     OW33259   0.317   2.346   2.925 -0.2330  0.8434  0.0411
 7267SOL    HW133260   0.277   2.264   2.897 -0.7670  0.8334  0.8584
 7267SOL    HW233261   0.358   2.368   2.841 -0.1312 -0.4020 -0.2345
 7268SOL     OW33262   0.532   3.843   0.510 -0.5325 -0.4576 -0.1207
 7268SOL    HW133263   0.503   3.931   0.534  3.2698  1.5202 -2.7487
 7268SOL    HW233264   0.625   3.849   0.533 -0.7282 -1.0039  0.8476
 7269SOL     OW33265   2.484   1.140  15.651  0.2725 -0.6652  0.6994
 7269SOL    HW133266   2.536   1.148  15.571 -0.7764 -0.6142  0.0176
 7269SOL    HW233267   2.498   1.232  15.674 -2.3126  0.2154 -1.2437
 7270SOL     OW33268   0.067   2.965   7.812  0.5777 -0.1550 -0.2290
 7270SOL    HW133269   4.709   2.957   7.862 -0.0614  0.5679 -1.1571
 7270SOL    HW233270   0.119   2.896   7.854  0.7055 -2.1918 -3.7639
 7271SOL     OW33271   4.542   0.816   3.025 -0.0432 -0.2598  0.0605
 7271SOL    HW133272   4.521   0.889   3.083  0.0539  1.2835 -1.8663
 7271SOL    HW233273   4.592   0.759   3.084  2.4073  1.0201 -0.8309
 7272SOL     OW33274   0.827   1.200   6.633  0.5202 -0.2190  0.8789
 7272SOL    HW133275   0.903   1.175   6.581  0.7578 -0.2681  1.2457
 7272SOL    HW233276   0.866   1.255   6.701  2.4881 -0.9864  0.3738
 7273SOL     OW33277   0.736   0.572   2.331  0.9439  0.3010 -0.5489
 7273SOL    HW133278   0.826   0.561   2.300  1.2858 -0.8308  0.7901
 7273SOL    HW233279   0.698   0.484   2.325  1.3798 -0.0666  1.6878
 7274SOL     OW33280   3.546   4.260   5.432  0.4587 -0.3810  0.3684
 7274SOL    HW133281   3.621   4.287   5.379 -2.4421  2.3885 -2.3137
 7274SOL    HW233282   3.547   4.166   5.413 -0.7346 -0.2536 -0.3413
 7275SOL     OW33283   0.620   4.277   7.917 -0.4411 -0.6618  0.4343
 7275SOL    HW133284   0.642   4.187   7.940  0.1907  0.0030  2.4322
 7275SOL    HW233285   0.530   4.265   7.886 -0.1895 -0.8238 -0.2303
 7276SOL     OW33286   1.293   3.548   3.091 -0.0134  0.1688 -0.3098
 7276SOL    HW133287   1.342   3.542   3.009  1.1564 -1.2084  0.4854
 7276SOL    HW233288   1.249   3.464   3.083  4.2605 -2.2358  0.9784
 7277SOL     OW33289   3.628   2.890  16.743 -0.4928 -0.1627 -0.1949
 7277SOL    HW133290   3.629   2.814  16.685 -1.3035 -0.4100  0.1126
 7277SOL    HW233291   3.619   2.838  16.823 -0.1158  2.8872  1.8501
 7278SOL     OW33292   0.145   3.096  13.966  0.6266 -0.3679  0.0239
 7278SOL    HW133293   0.171   3.178  13.922 -3.4952  0.8061 -0.1646
 7278SOL    HW233294   0.228   3.079  14.011  0.7746  0.2820  0.0017
 7279SOL     OW33295   0.067   0.238   4.874  0.2699 -0.0189 -0.4194
 7279SOL    HW133296   0.152   0.280   4.888  0.4870 -0.1198 -1.4656
 7279SOL    HW233297   0.005   0.303   4.908  0.1160  0.2407 -1.2142
 7280SOL     OW33298   1.110   1.932   2.439  0.0456  0.2048  0.1839
 7280SOL    HW133299   1.142   1.843   2.453  0.4704  0.0945 -1.4746
 7280SOL    HW233300   1.046   1.918   2.370 -0.3826 -3.9759  1.4315
 7281SOL     OW33301   2.776   0.825   9.234 -0.3476  0.0190  0.3343
 7281SOL    HW133302   2.695   0.872   9.218 -0.0294  0.2894 -0.4525
 7281SOL    HW233303   2.751   0.782   9.316 -1.2431  0.6983  0.4159
 7282SOL     OW33304   3.497   4.045   5.795  0.0248  0.2347  0.5221
 7282SOL    HW133305   3.588   4.072   5.783 -0.6799  2.2591 -0.2466
 7282SOL    HW233306   3.497   4.029   5.890  2.6765  0.1449  0.5057
 7283SOL     OW33307   1.442   0.554   8.991 -0.1543 -0.4431 -0.0820
 7283SOL    HW133308   1.368   0.562   8.931  1.1382 -1.8179 -1.8564
 7283SOL    HW233309   1.411   0.485   9.050  0.2791  0.9472  1.7494
 7284SOL     OW33310   4.014   2.247   6.901 -0.4056  0.1791 -0.3163
 7284SOL    HW133311   4.039   2.158   6.926 -1.4791  0.6403  2.3195
 7284SOL    HW233312   4.053   2.294   6.974  0.8043 -1.6099  0.2008
 7285SOL     OW33313   2.444   3.384  13.698  0.0942  0.3650  0.0388
 7285SOL    HW133314   2.441   3.308  13.757  1.0528  0.1771 -0.1472
 7285SOL    HW233315   2.487   3.450  13.754 -0.5635 -0.9383  2.1025
 7286SOL     OW33316   0.668   2.534   5.003  0.2641  0.2686 -0.2428
 7286SOL    HW133317   0.680   2.534   4.909 -3.0065  4.0743 -0.6752
 7286SOL    HW233318   0.734   2.469   5.028  0.5679 -0.0126 -1.8123
 7287SOL     OW33319   4.506   1.384   6.807 -0.3821  0.1590 -0.3164
 7287SOL    HW133320   4.431   1.440   6.825 -0.4381 -0.5053  1.5297
 7287SOL    HW233321   4.453   1.304   6.804  2.9804 -2.1618  0.8685
 7288SOL     OW33322   0.968   4.235   4.492 -0.0192 -0.1448  0.1462
 7288SOL    HW133323   0.953   4.158   4.437 -3.0470 -1.6795  3.1094
 7288SOL    HW233324   0.932   4.299   4.430  0.8529 -0.9945 -1.2399
 7289SOL     OW33325   4.546   1.215  11.541  0.3974  0.1099  0.0957
 7289SOL    HW133326   4.529   1.230  11.634 -1.2016  3.3506 -0.7137
 7289SOL    HW233327   4.617   1.279  11.529 -0.7983  0.9426 -2.4871
 7290SOL     OW33328   2.406   1.699   5.121 -0.1400 -0.3789  0.2161
 7290SOL    HW133329   2.366   1.780   5.089 -2.7499 -2.0320 -0.6685
 7290SOL    HW233330   2.337   1.638   5.097  0.5888 -0.5856 -1.3277
 7291SOL     OW33331   1.023   4.277   8.188  0.2076 -0.3249  0.3957
 7291SOL    HW133332   0.951   4.223   8.222 -0.8728 -0.6195 -2.4025
 7291SOL    HW233333   1.051   4.216   8.120 -1.4803 -0.7632  0.0854
 7292SOL     OW33334   2.517   3.153   7.414  0.0452 -0.3613 -0.4489
 7292SOL    HW133335   2.585   3.121   7.474  0.1995  1.2864  0.2467
 7292SOL    HW233336   2.481   3.067   7.391 -1.7189  0.0936  0.6410
 7293SOL     OW33337   1.721   4.380   5.662  0.0547 -0.0976 -0.3334
 7293SOL    HW133338   1.657   4.423   5.606 -1.3458  0.0095  1.3492
 7293SOL    HW233339   1.715   4.289   5.631  3.6356 -0.2037 -0.7137
 7294SOL     OW33340   1.728   4.696   8.956  0.2395 -0.6056 -0.0130
 7294SOL    HW133341   1.816   4.666   8.979  0.9479  0.3415 -1.4926
 7294SOL    HW233342   1.681   4.693   9.039 -1.5013  0.0544 -0.9832
 7295SOL     OW33343   3.261   3.448   0.893 -0.5104  0.1456  0.4379
 7295SOL    HW133344   3.255   3.526   0.837  0.1649  1.5519  2.2844
 7295SOL    HW233345   3.221   3.495   0.966 -1.7861 -0.6717  0.2448
 7296SOL     OW33346   1.392   3.636   0.304  0.0162  0.0769 -0.2930
 7296SOL    HW133347   1.342   3.614   0.225  0.4349 -1.4903 -0.1157
 7296SOL    HW233348   1.361   3.564   0.359 -1.3572  2.1266  1.6346
 7297SOL     OW33349   1.942   2.138  15.587 -0.2455 -0.0211 -0.4840
 7297SOL    HW133350   1.928   2.173  15.499  2.2353  0.1259 -0.8002
 7297SOL    HW233351   1.902   2.051  15.584  0.7347 -0.5296  1.2907
 7298SOL     OW33352   0.098   3.226  10.954 -0.3361  0.1721  0.1893
 7298SOL    HW133353   0.138   3.312  10.940  1.7626 -0.5762  1.5404
 7298SOL    HW233354   0.045   3.218  11.033  1.1951  0.3244  1.2360
 7299SOL     OW33355   1.697   0.688   5.558 -0.1135  0.2080 -0.2060
 7299SOL    HW133356   1.770   0.659   5.612 -1.0656 -0.9919  0.4214
 7299SOL    HW233357   1.721   0.653   5.472 -1.0692 -0.9336  0.0023
 7300SOL     OW33358   4.213   4.575   3.157 -0.1613 -0.0126 -0.3620
 7300SOL    HW133359   4.204   4.665   3.188 -2.3757 -0.8172  1.3691
 7300SOL    HW233360   4.144   4.534   3.210  0.7520 -0.2629  0.6447
 7301SOL     OW33361   2.705   1.768   8.417  0.2223  0.7345  0.3194
 7301SOL    HW133362   2.612   1.746   8.411  0.0377  1.3280  0.9838
 7301SOL    HW233363   2.747   1.695   8.462  0.7567  2.3487  2.4498
 7302SOL     OW33364   4.511   4.592  16.284 -0.3954  0.0157  0.1493
 7302SOL    HW133365   4.503   4.594  16.380  2.6648 -2.2437  0.4425
 7302SOL    HW233366   4.459   4.515  16.263  0.6893 -1.3277  2.4026
 7303SOL     OW33367   0.173   4.121   4.842 -0.4236  0.9008 -0.4662
 7303SOL    HW133368   0.212   4.195   4.795 -0.4463  0.2302 -1.5298
 7303SOL    HW233369   0.162   4.050   4.779 -2.4832 -0.7082  1.7072
 7304SOL     OW33370   3.628   2.239  14.472  0.1618  0.3875  0.8907
 7304SOL    HW133371   3.695   2.302  14.501  1.4792 -0.5778 -0.0401
 7304SOL    HW233372   3.680   2.191  14.407 -0.5683 -1.1738  1.4505
 7305SOL     OW33373   0.620   0.523   8.398 -0.2115 -0.1720  0.4891
 7305SOL    HW133374   0.631   0.440   8.351 -0.7556 -1.3058  2.3944
 7305SOL    HW233375   0.559   0.489   8.463 -1.3578  0.2895 -0.3405
 7306SOL     OW33376   0.593   1.975   8.892  0.0227 -0.1434  0.1127
 7306SOL    HW133377   0.642   1.950   8.971  0.8347 -0.7264 -0.5848
 7306SOL    HW233378   0.506   1.941   8.914  0.3044 -0.8388  0.1523
 7307SOL     OW33379   3.131   1.381   7.924 -0.0914 -0.6584 -0.3850
 7307SOL    HW133380   3.113   1.288   7.934  2.0848 -0.8430  1.8318
 7307SOL    HW233381   3.189   1.393   7.850  0.4796 -0.3163  0.1202
 7308SOL     OW33382   2.827   2.068   3.943  0.0851  0.3146  0.1339
 7308SOL    HW133383   2.757   2.133   3.934  0.9725  1.1334 -0.8139
 7308SOL    HW233384   2.846   2.062   3.850 -4.1633 -2.6427 -0.5545
 7309SOL     OW33385   4.414   1.844   2.803  0.2500  0.2201  0.0928
 7309SOL    HW133386   4.398   1.754   2.832  2.5944 -1.0819 -2.6147
 7309SOL    HW233387   4.331   1.860   2.758  0.1334  1.8573  0.8793
 7310SOL     OW33388   0.304   4.078   6.685  0.5708 -0.0989  0.0473
 7310SOL    HW133389   0.254   4.145   6.639  1.4101  0.8730  0.5376
 7310SOL    HW233390   0.258   4.002   6.649 -1.4682  1.8689 -1.4625
 7311SOL     OW33391   3.615   2.132  17.232  0.0387  0.3021  0.2312
 7311SOL    HW133392   3.688   2.075  17.206 -1.2108 -0.2316 -2.1680
 7311SOL    HW233393   3.644   2.221  17.217 -1.9022  0.9975  0.5518
 7312SOL     OW33394   3.640   4.058  12.935 -0.0201  0.2298  0.4577
 7312SOL    HW133395   3.683   4.103  12.862 -0.1224  0.8585  0.7831
 7312SOL    HW233396   3.704   4.062  13.006 -0.5488 -3.5960  1.1067
 7313SOL     OW33397   4.189   0.410  16.352 -0.6102  0.0552  0.1876
 7313SOL    HW133398   4.109   0.415  16.405 -0.3799  0.2166  0.5130
 7313SOL    HW233399   4.177   0.492  16.305 -1.5552  0.5381  1.2568
 7314SOL     OW33400   0.022   1.556   6.816 -0.5320 -0.2555  0.1261
 7314SOL    HW133401   0.040   1.609   6.739 -1.8827 -0.7956 -0.5616
 7314SOL    HW233402   4.679   1.495   6.783 -1.7862 -0.1317  2.3749
 7315SOL     OW33403   2.618   0.466   3.809 -0.1975 -0.2816 -0.4719
 7315SOL    HW133404   2.638   0.523   3.883 -0.3194 -0.6465 -0.1608
 7315SOL    HW233405   2.677   0.393   3.823 -1.0894 -1.1149 -1.0693
 7316SOL     OW33406   2.977   3.868  15.546 -0.0820  0.5682  0.0393
 7316SOL    HW133407   2.913   3.820  15.495 -1.6628  0.8358  1.7537
 7316SOL    HW233408   3.039   3.799  15.568  0.2054  0.0404 -2.4329
 7317SOL     OW33409   0.414   0.919   6.472 -0.4131 -0.2096 -0.2363
 7317SOL    HW133410   0.362   0.967   6.537  1.5225 -1.2193  2.0851
 7317SOL    HW233411   0.502   0.958   6.478 -0.5266  0.3194 -2.1114
 7318SOL     OW33412   1.815   2.134   3.563 -0.0442  0.6719  1.0392
 7318SOL    HW133413   1.899   2.164   3.529 -0.2980 -0.3588 -0.4703
 7318SOL    HW233414   1.831   2.109   3.654 -0.1685  0.1841  0.9296
 7319SOL     OW33415   2.965   2.300   6.523  0.1203 -0.2294 -0.1756
 7319SOL    HW133416   2.925   2.223   6.563 -0.2088 -0.5680 -1.1531
 7319SOL    HW233417   2.933   2.310   6.434  1.6474  2.1856 -0.4358
 7320SOL     OW33418   2.697   3.625  10.113  0.0669 -0.2465 -0.2860
 7320SOL    HW133419   2.770   3.595  10.060 -1.1267  0.5438 -2.3815
 7320SOL    HW233420   2.735   3.680  10.182 -1.1196 -1.2717  1.1814
 7321SOL     OW33421   2.086   1.005   5.224 -0.1333  0.0103 -0.0621
 7321SOL    HW133422   2.079   1.000   5.129  3.0732 -0.0443 -0.2672
 7321SOL    HW233423   2.070   0.912   5.240 -1.0772  0.2620  0.4923
 7322SOL     OW33424   1.165   4.373   0.416 -0.2305 -0.1488  0.3478
 7322SOL    HW133425   1.171   4.417   0.501  1.2555 -1.6036  0.9919
 7322SOL    HW233426   1.075   4.343   0.403 -0.0043 -0.2709 -0.9816
 7323SOL     OW33427   3.660   1.508   4.218 -0.0446  0.3575 -0.4173
 7323SOL    HW133428   3.636   1.479   4.130  1.1321 -1.3602 -0.1635
 7323SOL    HW233429   3.606   1.587   4.229 -1.3307 -0.2491 -2.3018
 7324SOL     OW33430   0.201   3.479  10.923 -0.2638 -0.4025  0.2598
 7324SOL    HW133431   0.254   3.455  10.998  0.8499 -0.8240 -0.6694
 7324SOL    HW233432   0.155   3.555  10.958 -0.9834 -0.1075 -1.3333
 7325SOL     OW33433   1.831   2.084   7.770 -0.0624  0.2678  0.4956
 7325SOL    HW133434   1.873   2.114   7.851 -2.6125 -0.1710  1.9649
 7325SOL    HW233435   1.912   2.062   7.724 -0.2840  0.9174 -0.1899
 7326SOL     OW33436   3.082   4.294   2.061  0.3294 -0.4601  0.3029
 7326SOL    HW133437   3.077   4.342   1.978  0.1284 -0.2326  0.4475
 7326SOL    HW233438   3.177   4.286   2.066  0.3418 -0.3408  0.2556
 7327SOL     OW33439   3.395   0.203   5.061 -0.8899 -0.5096  0.1489
 7327SOL    HW133440   3.373   0.111   5.075  0.1965 -0.7248  0.4386
 7327SOL    HW233441   3.423   0.224   5.150  0.8820 -2.7908  0.1222
 7328SOL     OW33442   2.899   0.407   1.650  0.0108  0.2214  0.3951
 7328SOL    HW133443   2.931   0.337   1.593 -0.3282 -0.6398  1.2830
 7328SOL    HW233444   2.875   0.474   1.586  0.3167  0.8464  0.9375
 7329SOL     OW33445   0.190   0.312   1.114 -0.3101 -0.1874 -0.8527
 7329SOL    HW133446   0.241   0.342   1.188 -2.3131  1.1379 -0.0068
 7329SOL    HW233447   0.102   0.302   1.152 -0.2194  2.9786  0.1639
 7330SOL     OW33448   3.348   2.199  16.933 -0.0957  0.2097  0.0159
 7330SOL    HW133449   3.281   2.144  16.974  0.0938  0.3472  0.5040
 7330SOL    HW233450   3.426   2.150  16.962  0.4045  0.8988 -0.1735
 7331SOL     OW33451   3.235   1.504   7.170 -0.0433 -0.7398  0.0018
 7331SOL    HW133452   3.152   1.550   7.182  0.0080  0.1747 -3.1396
 7331SOL    HW233453   3.210   1.439   7.105  0.9118 -2.0522  0.9687
 7332SOL     OW33454   3.439   3.652   5.439 -0.2055 -0.5576  0.2663
 7332SOL    HW133455   3.426   3.561   5.414  0.4582 -0.2013 -1.4042
 7332SOL    HW233456   3.352   3.672   5.473 -0.1613  2.1699 -1.1643
 7333SOL     OW33457   1.445   3.181  11.155  0.4193 -0.1471 -0.3864
 7333SOL    HW133458   1.465   3.169  11.247 -0.5697  0.7080 -0.0635
 7333SOL    HW233459   1.500   3.117  11.110 -3.0501 -1.9891 -1.9952
 7334SOL     OW33460   3.966   0.255   4.744 -0.5081  0.5438  0.0945
 7334SOL    HW133461   3.892   0.275   4.802 -1.2939 -0.3518 -0.6004
 7334SOL    HW233462   3.925   0.197   4.680  0.5553 -0.0120 -0.0824
 7335SOL     OW33463   1.723   2.923   9.194 -0.2607 -0.4183 -0.0320
 7335SOL    HW133464   1.777   2.935   9.272  3.1125 -0.0126 -2.4536
 7335SOL    HW233465   1.721   2.828   9.181  1.1770 -0.4706  0.1690
 7336SOL     OW33466   4.444   3.667  15.409  0.3737 -0.0996 -0.1277
 7336SOL    HW133467   4.436   3.701  15.498  4.6868  0.5716  0.0259
 7336SOL    HW233468   4.513   3.603  15.424  1.3588  0.4051 -2.5210
 7337SOL     OW33469   4.666   0.020  10.980 -0.5558  0.7390  0.3043
 7337SOL    HW133470   4.685   0.113  10.968  1.6788 -0.1086 -2.8290
 7337SOL    HW233471   4.579   0.024  11.018 -0.5192 -0.3281  0.4822
 7338SOL     OW33472   4.220   0.261   4.856  0.1125 -0.0139 -0.0126
 7338SOL    HW133473   4.219   0.166   4.868  0.4834  0.2574  2.1729
 7338SOL    HW233474   4.127   0.279   4.839  0.5637  1.2914 -1.0765
 7339SOL     OW33475   4.647   3.415  17.604  0.4899  0.1926  0.7088
 7339SOL    HW133476   4.626   3.360  17.529 -0.3587 -0.4684  1.4371
 7339SOL    HW233477   4.715   3.467  17.561  1.3238 -0.7629  0.8712
 7340SOL     OW33478   2.896   1.066  15.859  0.0833  0.3594 -0.4723
 7340SOL    HW133479   2.854   0.994  15.811  0.8877 -0.4193 -0.0086
 7340SOL    HW233480   2.819   1.108  15.898  0.6168  0.3671  0.5776
 7341SOL     OW33481   3.412   4.000   4.079  0.1112  0.6761 -0.0781
 7341SOL    HW133482   3.416   4.095   4.069  0.0046  0.7866  0.9863
 7341SOL    HW233483   3.498   3.974   4.045  0.7443  1.0958  1.1916
 7342SOL     OW33484   3.874   3.246  17.355 -0.3581 -0.5187  0.3224
 7342SOL    HW133485   3.828   3.322  17.319 -0.5275 -0.2481  1.1282
 7342SOL    HW233486   3.799   3.210  17.403 -2.8981  0.0928 -3.1284
 7343SOL     OW33487   2.927   0.284   5.905  0.1748 -0.1182 -0.4451
 7343SOL    HW133488   2.959   0.367   5.870  2.6443 -0.2684  1.4761
 7343SOL    HW233489   3.005   0.231   5.922  1.0862  0.7948 -1.8402
 7344SOL     OW33490   3.400   0.102   6.225 -0.0751 -0.1469 -0.0114
 7344SOL    HW133491   3.313   0.140   6.237 -0.2110  0.1988 -2.0216
 7344SOL    HW233492   3.423   0.144   6.142 -3.3296 -0.7788 -1.2031
 7345SOL     OW33493   3.813   2.429   4.673 -0.0955 -0.3960  0.0644
 7345SOL    HW133494   3.749   2.410   4.604  0.1975  3.6170 -1.2599
 7345SOL    HW233495   3.762   2.431   4.754  0.2854 -0.0120  0.2890
 7346SOL     OW33496   0.657   2.646   9.612 -0.1544 -0.6230  0.6471
 7346SOL    HW133497   0.626   2.663   9.701 -0.1838 -0.1987  0.5533
 7346SOL    HW233498   0.702   2.563   9.630  1.4108 -0.0119 -0.4433
 7347SOL     OW33499   1.115   1.185   7.978  0.2075 -0.6604 -0.0845
 7347SOL    HW133500   1.072   1.146   7.902 -0.0882 -0.6679  0.0848
 7347SOL    HW233501   1.058   1.260   7.998  1.7866  1.1293 -2.2873
 7348SOL     OW33502   1.950   1.207   2.979  0.4939 -1.1511 -0.7285
 7348SOL    HW133503   1.935   1.248   2.894 -0.5743 -0.5943 -0.2741
 7348SOL    HW233504   1.865   1.163   2.989  0.2762 -1.0589 -2.1421
 7349SOL     OW33505   0.031   4.607   8.334 -0.2413 -0.0011 -0.2950
 7349SOL    HW133506   0.038   4.534   8.396 -0.6841 -0.2715 -0.5614
 7349SOL    HW233507   0.111   4.655   8.355 -0.0362 -1.0904  1.4416
 7350SOL     OW33508   0.382   4.377  10.081 -0.1168  0.2364 -0.0987
 7350SOL    HW133509   0.330   4.406  10.156  1.9010 -1.6556  2.0763
 7350SOL    HW233510   0.317   4.320  10.041 -0.9548  0.6493  0.6723
 7351SOL     OW33511   0.421   3.737   2.820 -0.0291  0.3011 -0.0132
 7351SOL    HW133512   0.402   3.793   2.896  1.3136  0.1958  0.3980
 7351SOL    HW233513   0.366   3.771   2.750  0.0515  0.1346 -0.1569
 7352SOL     OW33514   1.849   4.610   7.536  1.0129 -0.1321  0.0028
 7352SOL    HW133515   1.833   4.697   7.573 -3.1094 -0.0223 -2.0111
 7352SOL    HW233516   1.929   4.586   7.583  1.3483 -2.1633 -1.6150
 7353SOL     OW33517   0.086   3.237   5.635  0.3875 -0.0827 -0.0866
 7353SOL    HW133518   0.061   3.157   5.681  1.7572 -0.9789 -0.8981
 7353SOL    HW233519   0.154   3.211   5.573  0.9411 -0.1412  0.5498
 7354SOL     OW33520   1.293   0.467   9.950  0.4582 -0.2466  0.1339
 7354SOL    HW133521   1.383   0.497   9.955  1.1521 -1.5825 -3.9293
 7354SOL    HW233522   1.259   0.546   9.907  0.5011 -0.9051 -1.1197
 7355SOL     OW33523   1.592   4.429   6.898 -0.4800  0.2299  0.1540
 7355SOL    HW133524   1.533   4.502   6.882 -2.1924 -1.6633 -2.2621
 7355SOL    HW233525   1.671   4.475   6.928  1.2084 -1.8748 -1.0250
 7356SOL     OW33526   3.081   4.379   4.888 -0.0190 -0.3042 -0.3965
 7356SOL    HW133527   2.986   4.372   4.899  0.2059 -1.7737  0.5598
 7356SOL    HW233528   3.101   4.295   4.930  2.0149  0.0822 -0.5812
 7357SOL     OW33529   0.666   2.075  17.192 -0.1840  0.3731  0.0714
 7357SOL    HW133530   0.640   2.143  17.129  1.8409 -0.7277 -1.9460
 7357SOL    HW233531   0.759   2.062  17.171 -0.5081 -1.3739 -0.2764
 7358SOL     OW33532   1.140   0.947  16.044 -0.6995  0.0443  0.6208
 7358SOL    HW133533   1.141   0.860  16.085 -3.2514  0.4437  1.5659
 7358SOL    HW233534   1.206   0.999  16.089 -0.1053 -0.0897 -0.1082
 7359SOL     OW33535   1.339   4.110   6.207 -0.2048 -0.0793 -0.3535
 7359SOL    HW133536   1.416   4.060   6.179 -0.5075 -2.1752  2.5046
 7359SOL    HW233537   1.377   4.162   6.278 -0.4810 -0.2122 -0.1089
 7360SOL     OW33538   1.920   3.244  15.278 -0.1679 -0.5187 -0.1101
 7360SOL    HW133539   1.953   3.207  15.360  0.3192  0.2301  0.0307
 7360SOL    HW233540   1.834   3.206  15.258 -0.8732 -0.2234  2.3426
 7361SOL     OW33541   1.921   1.003  16.859 -0.4772  0.0349 -0.4481
 7361SOL    HW133542   1.942   0.911  16.846  0.5736  0.3486 -0.9033
 7361SOL    HW233543   1.891   0.998  16.950 -1.3482 -0.0539 -0.7406
 7362SOL     OW33544   2.803   3.388   0.857 -0.5157  0.0155 -0.0431
 7362SOL    HW133545   2.761   3.305   0.835 -0.5748  0.0933 -0.2217
 7362SOL    HW233546   2.839   3.405   0.770 -3.5056  0.9361 -1.1152
 7363SOL     OW33547   3.949   3.890   5.048 -0.4710 -0.0723 -0.3392
 7363SOL    HW133548   3.914   3.805   5.073 -2.8252  1.4562  1.4978
 7363SOL    HW233549   3.894   3.942   5.106 -1.4603  1.1695 -2.3915
 7364SOL     OW33550   2.078   0.010  17.544 -0.0078  0.2904  0.0665
 7364SOL    HW133551   2.040   4.652  17.511 -0.1765  1.4518 -2.6483
 7364SOL    HW233552   1.998   0.060  17.559 -0.5495  0.1416 -2.2483
 7365SOL     OW33553   3.318   1.948   9.592  0.4339 -0.1343  0.2120
 7365SOL    HW133554   3.269   1.942   9.510 -1.7060 -0.2587  1.5129
 7365SOL    HW233555   3.247   1.991   9.639  0.1458  1.2099 -1.4504
 7366SOL     OW33556   3.280   2.209   4.065  0.0388  0.3240 -0.2602
 7366SOL    HW133557   3.197   2.160   4.071 -1.6617  3.3804  0.9960
 7366SOL    HW233558   3.258   2.297   4.094  0.4548  0.0033  1.0728
 7367SOL     OW33559   3.446   2.747   6.305  0.0619 -0.1109  0.7795
 7367SOL    HW133560   3.385   2.735   6.378  1.1746  1.4145  1.9578
 7367SOL    HW233561   3.520   2.765   6.363  0.5332 -1.9711  0.7572
 7368SOL     OW33562   1.374   0.926   7.743  0.2356  0.4510 -0.5532
 7368SOL    HW133563   1.469   0.924   7.748  0.1279 -3.5949  0.3356
 7368SOL    HW233564   1.365   1.018   7.767  1.9743  0.3564  0.4303
 7369SOL     OW33565   2.482   3.135   4.951  0.1089 -0.3917 -0.2161
 7369SOL    HW133566   2.423   3.198   4.911  0.4862 -0.1138 -0.3327
 7369SOL    HW233567   2.508   3.183   5.030  1.2276 -0.3973 -0.5925
 7370SOL     OW33568   1.976   1.485   3.928  0.8586 -0.3469 -0.4765
 7370SOL    HW133569   2.054   1.541   3.933  1.6334 -1.3894 -0.9293
 7370SOL    HW233570   2.010   1.396   3.928  0.2683 -0.5657 -0.0815
 7371SOL     OW33571   0.273   2.199   0.281  0.4170 -0.2500  0.9385
 7371SOL    HW133572   0.367   2.213   0.273  0.1156 -0.5232 -3.1565
 7371SOL    HW233573   0.248   2.278   0.329  0.4806 -0.3295  1.1022
 7372SOL     OW33574   0.077   3.383  11.314 -0.4644  0.7309 -0.3221
 7372SOL    HW133575   4.716   3.349  11.284 -0.0094 -0.2083 -0.5306
 7372SOL    HW233576   0.048   3.471  11.339  0.1684  0.3762  1.7223
 7373SOL     OW33577   2.549   4.638   5.435  0.0506  0.0265  0.4921
 7373SOL    HW133578   2.583   4.700   5.500 -2.2061  0.4617  1.2715
 7373SOL    HW233579   2.524   4.574   5.502 -0.7921 -1.3251 -1.1107
 7374SOL     OW33580   0.702   1.672   9.415  0.6125  0.1490 -0.4143
 7374SOL    HW133581   0.630   1.662   9.352  1.9422  2.5167 -2.2953
 7374SOL    HW233582   0.753   1.591   9.403  0.4887  0.1052 -0.6599
 7375SOL     OW33583   0.567   4.462   2.660  0.3745 -0.5127  0.2751
 7375SOL    HW133584   0.541   4.521   2.589  0.7582  1.9853  2.2152
 7375SOL    HW233585   0.591   4.381   2.614  1.2647 -0.1209  0.0565
 7376SOL     OW33586   0.751   1.008  13.098  0.2096 -0.6883 -0.1524
 7376SOL    HW133587   0.783   1.054  13.176 -1.1589 -1.4902  0.8879
 7376SOL    HW233588   0.757   0.917  13.130  0.4645 -0.9709 -1.0059
 7377SOL     OW33589   4.523   3.562  10.410  0.1005  0.2935  0.2654
 7377SOL    HW133590   4.482   3.563  10.324 -1.8490 -1.7923  1.1769
 7377SOL    HW233591   4.456   3.516  10.462  0.4906  1.2275  1.6010
 7378SOL     OW33592   2.543   3.523   7.643 -0.2066 -0.2517 -0.0423
 7378SOL    HW133593   2.546   3.607   7.597  1.1707  0.4274  1.2848
 7378SOL    HW233594   2.527   3.563   7.728  1.8723  1.2805 -0.3738
 7379SOL     OW33595   0.509   0.588  15.932  0.0454  0.5125  0.7383
 7379SOL    HW133596   0.580   0.538  15.972  0.5993 -0.8518 -1.9408
 7379SOL    HW233597   0.445   0.570  16.001  0.5883  0.5504  1.2429
 7380SOL     OW33598   1.423   4.616  13.713 -0.1728 -0.6134 -0.4955
 7380SOL    HW133599   1.474   4.572  13.781 -0.1467  2.6688  1.6333
 7380SOL    HW233600   1.357   4.548  13.701  0.2133 -1.2408  1.0095
 7381SOL     OW33601   3.445   2.616   6.060 -0.2000 -0.1464  0.2090
 7381SOL    HW133602   3.453   2.613   6.155 -0.6381 -0.2913  0.2379
 7381SOL    HW233603   3.391   2.693   6.040 -1.2904 -1.1587 -0.7133
 7382SOL     OW33604   0.708   0.909   5.460  0.2041 -0.6033  0.2715
 7382SOL    HW133605   0.688   0.852   5.386 -0.7146 -0.6606  0.5597
 7382SOL    HW233606   0.764   0.977   5.424 -0.4473 -0.2701 -0.1267
 7383SOL     OW33607   4.479   1.544   5.189 -0.3651 -0.0468  0.9078
 7383SOL    HW133608   4.402   1.502   5.227 -1.5600  0.0708 -1.4009
 7383SOL    HW233609   4.508   1.478   5.126  0.4010  1.4022 -0.2434
 7384SOL     OW33610   0.316   4.634   3.316  0.5985  0.2695 -0.2686
 7384SOL    HW133611   0.364   4.629   3.398 -1.1848  2.1114  0.8806
 7384SOL    HW233612   0.393   4.654   3.263  0.1909 -0.2221 -1.0418
 7385SOL     OW33613   0.958   0.121  12.055  0.0922 -0.1200  0.2284
 7385SOL    HW133614   0.992   0.164  11.977  2.1436  0.2475  1.3189
 7385SOL    HW233615   0.991   0.180  12.123  0.8397 -1.6114  1.1454
 7386SOL     OW33616   3.832   4.453  11.263  0.0701  0.4797 -0.4649
 7386SOL    HW133617   3.888   4.397  11.316 -0.2073  0.7258  0.0907
 7386SOL    HW233618   3.781   4.496  11.332 -2.0320  1.5916 -2.6812
 7387SOL     OW33619   2.836   3.896   4.215 -0.5162  0.1190  0.1344
 7387SOL    HW133620   2.928   3.886   4.193 -0.9910 -1.3108 -1.2300
 7387SOL    HW233621   2.819   3.989   4.200 -1.4368 -0.0672 -0.0096
 7388SOL     OW33622   3.646   1.506   2.778 -0.0832  0.9505  0.2981
 7388SOL    HW133623   3.733   1.476   2.805  0.0598  0.1368 -1.0706
 7388SOL    HW233624   3.625   1.434   2.719 -0.9384  0.9732  0.5730
 7389SOL     OW33625   0.992   0.887  15.827  0.3124  0.0359  0.6978
 7389SOL    HW133626   1.066   0.836  15.794  1.6640  3.0024 -0.8500
 7389SOL    HW233627   1.041   0.940  15.890  0.2037  1.5956 -0.5464
 7390SOL     OW33628   3.570   3.230   8.790  0.4132 -0.0700  0.1296
 7390SOL    HW133629   3.503   3.233   8.859  1.4609  1.8567  1.0683
 7390SOL    HW233630   3.541   3.159   8.733  0.7812 -1.4169  1.6258
 7391SOL     OW33631   1.148   4.472   3.987  0.1337  0.5490 -0.3596
 7391SOL    HW133632   1.128   4.521   3.907 -0.0907 -0.3156 -0.8302
 7391SOL    HW233633   1.224   4.418   3.965 -0.4738 -0.0352 -1.0225
 7392SOL     OW33634   2.154   1.371   7.536 -0.0312 -0.3879  0.2821
 7392SOL    HW133635   2.128   1.319   7.459  2.1444 -0.6955 -0.2387
 7392SOL    HW233636   2.148   1.298   7.596 -1.0490 -0.4732  0.0781
 7393SOL     OW33637   0.786   2.844   7.532  0.0018  0.3160 -0.1061
 7393SOL    HW133638   0.748   2.891   7.607  2.2870  1.1257  0.5322
 7393SOL    HW233639   0.707   2.837   7.478 -0.8349 -2.6266  1.5150
 7394SOL     OW33640   0.111   3.028   2.763  0.5856 -0.5310  0.0770
 7394SOL    HW133641   0.131   3.029   2.857  0.1828  0.0321  0.1577
 7394SOL    HW233642   0.019   3.002   2.762  0.9074 -1.6475  0.3012
 7395SOL     OW33643   0.094   0.023   5.360 -0.1526 -0.1791 -0.6204
 7395SOL    HW133644   0.088   4.651   5.356  0.6153 -0.2995  0.9046
 7395SOL    HW233645   0.072   0.048   5.271 -0.4213 -0.6685 -0.6892
 7396SOL     OW33646   0.288   0.663  17.219 -0.2304  0.2011 -0.0091
 7396SOL    HW133647   0.266   0.571  17.203 -2.2508  0.5714  0.6596
 7396SOL    HW233648   0.218   0.710  17.173  0.5628 -0.1862 -1.6370
 7397SOL     OW33649   2.757   2.696   7.737 -0.4316 -0.0279 -0.8563
 7397SOL    HW133650   2.795   2.608   7.730 -0.0833  0.0378  0.2187
 7397SOL    HW233651   2.828   2.755   7.713  0.5524 -0.5409  0.7642
 7398SOL     OW33652   3.626   1.091   2.355 -0.5010  0.5079  0.1073
 7398SOL    HW133653   3.566   1.164   2.339  0.7643  1.1012 -1.9579
 7398SOL    HW233654   3.573   1.011   2.361  1.5900 -0.8952 -0.3136
 7399SOL     OW33655   2.961   0.736  16.185  0.5571  0.9970 -0.1034
 7399SOL    HW133656   2.882   0.790  16.176 -0.9634 -1.4444 -1.6366
 7399SOL    HW233657   3.022   0.777  16.124  0.8234  0.9933  0.1664
 7400SOL     OW33658   0.053   0.281  10.143 -0.2872 -0.0190 -0.1406
 7400SOL    HW133659   0.064   0.248  10.054 -1.4047  1.6104 -0.8956
 7400SOL    HW233660   0.090   0.369  10.133  4.0962 -2.1154 -2.0080
 7401SOL     OW33661   4.163   2.839   0.827 -0.0755 -0.7051  0.0063
 7401SOL    HW133662   4.156   2.931   0.801  0.3805 -0.3990  0.9725
 7401SOL    HW233663   4.190   2.796   0.746  2.1512  1.2002 -0.2655
 7402SOL     OW33664   0.937   1.794   7.006 -0.4958 -0.0607  0.4138
 7402SOL    HW133665   0.857   1.815   6.958 -1.5293 -4.0316  0.4144
 7402SOL    HW233666   0.895   1.760   7.085  0.0321 -0.5522  0.4845
 7403SOL     OW33667   4.498   1.897  16.285  0.1483  0.9355 -0.1191
 7403SOL    HW133668   4.534   1.903  16.196 -2.0506  1.7635 -0.9589
 7403SOL    HW233669   4.406   1.903  16.259  0.7250 -1.1196 -2.5935
 7404SOL     OW33670   0.100   2.958   1.730  0.4155  0.4977  0.3300
 7404SOL    HW133671   0.011   2.978   1.702  0.6077 -0.3221 -0.9012
 7404SOL    HW233672   0.081   2.907   1.809 -0.1519  0.8813  0.4368
 7405SOL     OW33673   3.398   0.112   2.381 -0.2899 -0.0667 -0.3255
 7405SOL    HW133674   3.431   0.107   2.471  0.6965 -2.8683 -0.8148
 7405SOL    HW233675   3.395   0.207   2.376  1.1036 -0.0028  0.0703
 7406SOL     OW33676   3.477   3.655   0.683 -0.2832  0.6337 -0.1585
 7406SOL    HW133677   3.501   3.698   0.765 -1.2578 -1.1610  1.0390
 7406SOL    HW233678   3.549   3.594   0.669  0.9637  1.7475  1.3350
 7407SOL     OW33679   4.400   0.840   7.133  0.6152  0.1053 -0.0506
 7407SOL    HW133680   4.489   0.805   7.131 -0.1541 -1.9078  1.3116
 7407SOL    HW233681   4.404   0.901   7.207  0.1161  1.5162 -1.1682
 7408SOL     OW33682   2.631   1.611   9.210 -0.1067 -0.4190  0.7087
 7408SOL    HW133683   2.538   1.600   9.189  0.3920 -0.7703 -1.3832
 7408SOL    HW233684   2.647   1.532   9.262  1.0385  0.2045  1.2900
 7409SOL     OW33685   4.495   0.166  10.768  0.0466 -0.6333 -0.2492
 7409SOL    HW133686   4.496   0.224  10.692 -1.1438  1.4071  1.3094
 7409SOL    HW233687   4.576   0.186  10.814  0.0725  0.0353 -0.5869
 7410SOL     OW33688   3.245   3.437  11.764  0.7218 -0.1252 -0.1889
 7410SOL    HW133689   3.176   3.489  11.806 -0.2920 -1.5825 -0.0425
 7410SOL    HW233690   3.195   3.376  11.711  0.9932  0.8623 -1.5641
 7411SOL     OW33691   1.530   2.492  13.331 -0.3029 -0.4760 -0.0343
 7411SOL    HW133692   1.557   2.567  13.384 -1.1974 -1.0878  1.2854
 7411SOL    HW233693   1.591   2.510  13.260  1.3735  0.2529  1.6139
 7412SOL     OW33694   3.219   3.735   7.510  0.3531  0.6904  0.1085
 7412SOL    HW133695   3.210   3.760   7.418 -1.6105 -0.2541  0.0547
 7412SOL    HW233696   3.243   3.816   7.554 -1.4348  1.6657 -0.7305
 7413SOL     OW33697   0.804   3.783   8.667 -0.0459  0.3177 -0.4808
 7413SOL    HW133698   0.716   3.807   8.697 -0.9919  0.5348 -3.4543
 7413SOL    HW233699   0.846   3.771   8.753 -1.8322  0.7382  0.4503
 7414SOL     OW33700   2.415   0.414   6.233  0.3129 -0.2419 -0.1553
 7414SOL    HW133701   2.360   0.357   6.287 -1.3425  0.9009 -0.6466
 7414SOL    HW233702   2.461   0.449   6.309 -0.9540  0.1987  0.4120
 7415SOL     OW33703   0.263   2.086   1.051  0.1732  0.7335 -0.3087
 7415SOL    HW133704   0.231   2.077   0.961 -2.8864  0.3175  0.8012
 7415SOL    HW233705   0.356   2.107   1.042 -0.4303  3.2417 -0.6948
 7416SOL     OW33706   1.426   1.722   6.073 -0.4133  0.1747 -0.4526
 7416SOL    HW133707   1.447   1.677   6.155  2.1087  0.2340 -1.0643
 7416SOL    HW233708   1.333   1.708   6.055 -0.7713  2.4262 -0.3743
 7417SOL     OW33709   0.478   3.619   7.119 -0.5179  0.2258  0.1189
 7417SOL    HW133710   0.469   3.669   7.038 -0.7410 -1.8808 -1.1300
 7417SOL    HW233711   0.545   3.556   7.092  0.4663  1.0191  0.6955
 7418SOL     OW33712   2.047   3.856  12.556 -0.0612 -0.5224 -0.1927
 7418SOL    HW133713   2.101   3.915  12.609 -1.8963  0.1657  0.9023
 7418SOL    HW233714   2.109   3.788  12.531  0.0858  0.3593 -2.1937
 7419SOL     OW33715   0.907   1.680   9.235 -0.0392  0.2535 -0.4144
 7419SOL    HW133716   0.972   1.731   9.284  0.3479  0.0922 -0.7635
 7419SOL    HW233717   0.829   1.706   9.283  1.0915  2.1193  0.3989
 7420SOL     OW33718   0.407   0.077  11.759  0.4745  0.3340  0.1888
 7420SOL    HW133719   0.316   0.089  11.730  0.3855 -0.3388  0.1768
 7420SOL    HW233720   0.405   0.091  11.854 -0.1814  1.5084 -0.0072
 7421SOL     OW33721   4.478   3.224   2.630 -0.4665  0.1583  0.1353
 7421SOL    HW133722   4.522   3.146   2.665 -2.9708 -0.9364  0.8970
 7421SOL    HW233723   4.447   3.261   2.713 -2.7470 -2.9068  0.7038
 7422SOL     OW33724   1.194   0.542   0.423  0.2756 -0.1712 -0.1387
 7422SOL    HW133725   1.191   0.514   0.515 -0.7928  2.1056  0.5089
 7422SOL    HW233726   1.101   0.540   0.401  0.3139 -1.6428 -0.2091
 7423SOL     OW33727   2.642   1.705  15.771 -0.3435  0.4885  0.0477
 7423SOL    HW133728   2.574   1.730  15.833  0.0624 -0.6285  0.9623
 7423SOL    HW233729   2.648   1.610  15.785  1.2561  0.5723 -0.0552
 7424SOL     OW33730   1.847   3.552  16.963 -0.1702  0.0884  0.6760
 7424SOL    HW133731   1.849   3.470  16.913  0.2780  0.3164  0.3176
 7424SOL    HW233732   1.809   3.619  16.905  2.4686  1.8227  0.9374
 7425SOL     OW33733   4.426   2.220   8.484 -0.5141 -0.6584 -0.2245
 7425SOL    HW133734   4.405   2.217   8.578 -1.0514  0.2152 -0.3141
 7425SOL    HW233735   4.339   2.201   8.450 -0.8018 -1.5791  1.0333
 7426SOL     OW33736   1.841   1.579   2.128 -1.1249 -0.3280 -0.5006
 7426SOL    HW133737   1.843   1.666   2.088  1.1031 -1.5130 -2.9369
 7426SOL    HW233738   1.853   1.523   2.052 -3.3756  0.2262 -1.2594
 7427SOL     OW33739   0.725   2.413   7.126 -0.4903  0.4816 -0.0218
 7427SOL    HW133740   0.675   2.359   7.065 -0.6161 -0.7419  1.1455
 7427SOL    HW233741   0.793   2.349   7.149 -1.2603 -0.1614  0.4761
 7428SOL     OW33742   3.562   4.487   8.159 -0.4144  0.1888 -0.2967
 7428SOL    HW133743   3.591   4.471   8.069  1.4842 -0.0044  0.3389
 7428SOL    HW233744   3.646   4.501   8.203 -0.2932  0.6150 -0.6645
 7429SOL     OW33745   0.048   1.162   1.838  0.1370  0.5777  0.2984
 7429SOL    HW133746   4.715   1.186   1.764  0.3578  1.4309  0.4028
 7429SOL    HW233747   0.135   1.181   1.802 -0.2830  1.9543 -0.0019
 7430SOL     OW33748   2.004   0.527   2.264  0.5877  0.2274  0.5407
 7430SOL    HW133749   1.955   0.483   2.334 -0.8192 -0.3827 -0.8430
 7430SOL    HW233750   2.060   0.457   2.230 -0.1045 -0.5787  1.0585
 7431SOL     OW33751   0.900   0.097   9.316 -0.2033 -0.4237 -0.0880
 7431SOL    HW133752   0.921   0.098   9.410 -2.4755  2.5922  0.3627
 7431SOL    HW233753   0.931   0.014   9.281  0.2852 -1.6421  3.2002
 7432SOL     OW33754   0.297   4.713  11.485  0.1932 -0.2376  1.1471
 7432SOL    HW133755   0.365   4.699  11.418 -0.6211 -2.7806  0.8306
 7432SOL    HW233756   0.352   4.719  11.563  0.5722  1.8674  0.7156
 7433SOL     OW33757   2.822   2.743  13.460 -0.0355  0.4498  0.8862
 7433SOL    HW133758   2.772   2.753  13.541  1.4067  0.8556  1.7137
 7433SOL    HW233759   2.883   2.811  13.489 -1.6413  2.0353  0.5708
 7434SOL     OW33760   2.563   4.577   2.261 -0.6496 -0.4613  0.2942
 7434SOL    HW133761   2.630   4.635   2.295 -0.0056 -0.6489 -0.6669
 7434SOL    HW233762   2.490   4.603   2.318 -0.0055  1.8663  0.0440
 7435SOL     OW33763   0.826   2.193  11.134 -0.2956 -0.4326 -0.1759
 7435SOL    HW133764   0.775   2.175  11.213  1.3755 -0.4538  0.9103
 7435SOL    HW233765   0.912   2.200  11.175 -0.4674  0.8900 -0.0450
 7436SOL     OW33766   1.610   2.575   2.443 -0.0167  0.0472 -0.2727
 7436SOL    HW133767   1.611   2.542   2.353  0.8115  1.1870 -0.6892
 7436SOL    HW233768   1.703   2.600   2.450 -0.3801  0.6598  2.3576
 7437SOL     OW33769   4.327   1.537  13.795 -0.1583 -0.6724  0.3875
 7437SOL    HW133770   4.267   1.606  13.824  1.4712 -0.0592  2.3302
 7437SOL    HW233771   4.273   1.492  13.731 -0.6729 -1.2301  1.2113
 7438SOL     OW33772   4.412   2.677   2.142  0.2822 -0.0113  0.7444
 7438SOL    HW133773   4.472   2.622   2.091 -1.6243  2.4598 -4.1651
 7438SOL    HW233774   4.361   2.719   2.073  1.1884  0.3173  0.2796
 7439SOL     OW33775   1.256   2.668  16.344 -0.4961 -0.2632 -0.3166
 7439SOL    HW133776   1.288   2.696  16.259  0.9206 -0.5866  0.1116
 7439SOL    HW233777   1.304   2.587  16.358  0.9256  0.4648 -0.8987
 7440SOL     OW33778   1.206   2.585  14.441  0.1748 -0.1728 -0.2476
 7440SOL    HW133779   1.140   2.618  14.380 -1.2101 -1.8073  0.3769
 7440SOL    HW233780   1.181   2.494  14.454  0.6236 -0.5039 -1.7902
 7441SOL     OW33781   0.299   4.161   8.515 -0.0418 -0.4486  0.0158
 7441SOL    HW133782   0.350   4.212   8.577 -1.7416  1.9831 -0.6177
 7441SOL    HW233783   0.225   4.149   8.574  0.0006 -1.9714 -0.2165
 7442SOL     OW33784   2.782   4.452   8.713  0.4661  0.6509 -0.1151
 7442SOL    HW133785   2.717   4.414   8.772 -2.3093  0.4729 -3.2585
 7442SOL    HW233786   2.825   4.369   8.692 -2.3594 -0.8770  0.2417
 7443SOL     OW33787   2.192   1.781   2.558 -0.2907 -0.6822 -0.0205
 7443SOL    HW133788   2.176   1.751   2.469  0.3157  2.2427 -1.1313
 7443SOL    HW233789   2.282   1.812   2.562  0.0211 -1.6660  0.3288
 7444SOL     OW33790   2.424   2.021   9.115  0.0655  0.1781  0.7178
 7444SOL    HW133791   2.407   1.944   9.061 -1.4850  0.2496  1.1091
 7444SOL    HW233792   2.355   2.018   9.181  0.6097  3.0121  1.3957
 7445SOL     OW33793   0.218   3.068   0.437  0.1799  0.1827 -0.5958
 7445SOL    HW133794   0.238   3.149   0.484  1.0181  1.2769 -2.8094
 7445SOL    HW233795   0.238   3.021   0.517 -0.8191  0.9584  0.1076
 7446SOL     OW33796   2.361   4.074  11.587 -0.2169 -0.2563  0.2795
 7446SOL    HW133797   2.389   4.028  11.666  0.7903  0.9977  0.6562
 7446SOL    HW233798   2.267   4.077  11.601 -0.1732  2.5605  0.1055
 7447SOL     OW33799   3.591   0.865   2.001 -0.2761 -0.1705 -0.2309
 7447SOL    HW133800   3.522   0.906   2.054 -1.4123 -2.6871  0.2603
 7447SOL    HW233801   3.625   0.936   1.948 -0.5036  0.1051 -0.0057
 7448SOL     OW33802   0.177   3.956   9.104  0.1993 -0.7030  0.2029
 7448SOL    HW133803   0.158   3.863   9.097 -0.4282 -0.5912  0.4443
 7448SOL    HW233804   0.261   3.958   9.057 -0.7260 -3.1888 -1.5542
 7449SOL     OW33805   0.786   0.005   5.548 -0.5702 -0.0371  0.6699
 7449SOL    HW133806   0.879   0.024   5.561 -0.6747 -0.4564  1.9863
 7449SOL    HW233807   0.778   0.051   5.464 -0.4393 -1.3056 -0.0253
 7450SOL     OW33808   2.449   2.962   7.766 -0.1791 -0.0268 -0.2912
 7450SOL    HW133809   2.403   2.884   7.735  1.3592 -1.5930  1.3611
 7450SOL    HW233810   2.520   2.964   7.703 -1.4003  3.2223 -1.5210
 7451SOL     OW33811   1.582   3.340   4.296 -0.2743 -0.2054  0.0591
 7451SOL    HW133812   1.592   3.246   4.311  2.0285  0.0054 -0.2633
 7451SOL    HW233813   1.671   3.366   4.273 -0.2776  0.6186  1.0283
 7452SOL     OW33814   0.995   2.113   6.632  0.1080  0.3074 -0.3403
 7452SOL    HW133815   0.933   2.157   6.574 -2.7782 -1.1632  1.6507
 7452SOL    HW233816   1.011   2.032   6.583  1.0665  0.3669 -0.1256
 7453SOL     OW33817   2.200   1.738   5.938  0.1949  0.5435 -0.1107
 7453SOL    HW133818   2.192   1.830   5.912 -0.7189  0.3065 -0.6614
 7453SOL    HW233819   2.129   1.725   6.001  0.6884 -0.1370  0.3076
 7454SOL     OW33820   0.355   2.601   3.801 -0.0103  0.0932  0.4436
 7454SOL    HW133821   0.414   2.672   3.829 -1.6445  2.5132 -2.3319
 7454SOL    HW233822   0.321   2.571   3.885  0.7477 -0.6278  0.4957
 7455SOL     OW33823   4.567   3.097   2.134 -0.3583  0.2811 -0.4694
 7455SOL    HW133824   4.643   3.145   2.168  0.5788 -0.9266 -0.8451
 7455SOL    HW233825   4.606   3.011   2.115  0.2129  0.9093 -2.1570
 7456SOL     OW33826   0.089   1.921   8.367 -0.3577  0.2216 -0.1521
 7456SOL    HW133827   0.018   1.858   8.379  1.2212 -1.4565  0.4138
 7456SOL    HW233828   0.054   1.973   8.295 -2.2333 -0.3150  0.3571
 7457SOL     OW33829   1.652   3.541  10.961  0.7696 -0.2457 -0.1566
 7457SOL    HW133830   1.666   3.562  11.054 -2.9422  2.6720 -0.2548
 7457SOL    HW233831   1.572   3.490  10.973  0.8553 -0.5918 -1.0898
 7458SOL     OW33832   2.014   1.924  11.506  0.3958 -0.5045 -0.6735
 7458SOL    HW133833   1.969   1.926  11.422  0.7174 -3.9956 -0.9148
 7458SOL    HW233834   2.021   2.018  11.519 -1.1525 -0.4374 -0.2649
 7459SOL     OW33835   3.283   1.166   4.177 -0.6096  0.0696 -0.1597
 7459SOL    HW133836   3.244   1.247   4.210  1.7483  1.6166 -1.1593
 7459SOL    HW233837   3.233   1.164   4.095 -0.4797  0.4931 -0.2508
 7460SOL     OW33838   0.288   1.510   3.355 -0.3527 -0.1852 -0.4953
 7460SOL    HW133839   0.210   1.528   3.406  0.8203  0.1007  1.1948
 7460SOL    HW233840   0.360   1.516   3.418 -0.3798  1.5212 -0.6483
 7461SOL     OW33841   2.678   3.532  11.577  0.5350  0.5836 -0.3310
 7461SOL    HW133842   2.646   3.543  11.487 -1.0361 -1.2180 -0.0088
 7461SOL    HW233843   2.736   3.607  11.584  2.8973 -0.8100 -4.9882
 7462SOL     OW33844   3.813   2.459  10.317  0.7113 -0.0574  0.7425
 7462SOL    HW133845   3.789   2.508  10.396 -2.2449 -0.4123  0.0381
 7462SOL    HW233846   3.908   2.467  10.327  0.6681  0.7125  0.5879
 7463SOL     OW33847   0.816   3.409  14.363  0.4522  0.0202  0.0184
 7463SOL    HW133848   0.895   3.362  14.334  1.0858  0.7376  0.5956
 7463SOL    HW233849   0.737   3.360  14.339  2.1582 -1.3292 -2.9182
 7464SOL     OW33850   4.159   0.152   7.145  0.0963  0.1000  0.3911
 7464SOL    HW133851   4.072   0.172   7.179  0.0333  0.1787  0.1829
 7464SOL    HW233852   4.191   0.241   7.131  0.9745 -0.4311 -0.9823
 7465SOL     OW33853   4.269   3.595   7.297  0.3784  0.1058 -0.3323
 7465SOL    HW133854   4.217   3.527   7.340  2.9059 -0.3780  2.0221
 7465SOL    HW233855   4.274   3.561   7.208  0.6176  0.2524 -0.3737
 7466SOL     OW33856   1.973   0.797   7.791 -0.1077  0.6844 -0.1186
 7466SOL    HW133857   1.901   0.736   7.807 -0.5082  1.0721 -0.4134
 7466SOL    HW233858   1.952   0.833   7.704  0.5041 -0.3041 -0.6734
 7467SOL     OW33859   3.845   1.346  13.749 -0.5112 -0.1685 -0.5742
 7467SOL    HW133860   3.837   1.290  13.826  1.2848 -0.0168 -0.2833
 7467SOL    HW233861   3.754   1.334  13.722 -0.2304 -3.2431 -0.1943
 7468SOL     OW33862   0.954   0.344   9.775  0.2953 -0.4445  0.2036
 7468SOL    HW133863   0.875   0.368   9.824  0.3023  0.9328 -0.4506
 7468SOL    HW233864   0.926   0.262   9.734 -1.8389 -0.0944  0.9945
 7469SOL     OW33865   1.646   1.270   1.243  0.0792 -0.1319 -0.3633
 7469SOL    HW133866   1.632   1.306   1.155  0.3674  1.5202  0.2541
 7469SOL    HW233867   1.634   1.178   1.221 -1.3063  0.2076 -1.0594
 7470SOL     OW33868   0.462   3.097   3.733  0.2087 -0.2552 -1.3474
 7470SOL    HW133869   0.394   3.139   3.681 -0.2966  1.5638  0.7570
 7470SOL    HW233870   0.440   3.005   3.717 -0.2206 -0.2164 -0.9819
 7471SOL     OW33871   0.462   0.884  13.365  0.4260  0.1289 -0.1536
 7471SOL    HW133872   0.458   0.858  13.457 -2.7354 -2.4511 -1.0425
 7471SOL    HW233873   0.480   0.801  13.322  0.1718  0.0091 -0.0284
 7472SOL     OW33874   2.867   0.548   0.677  0.2333  0.0800  0.4328
 7472SOL    HW133875   2.883   0.467   0.726  1.0618  1.2206  2.0750
 7472SOL    HW233876   2.946   0.549   0.623 -0.2743  2.8338 -0.2471
 7473SOL     OW33877   3.695   1.213   8.713 -0.5342 -0.3461  0.3087
 7473SOL    HW133878   3.661   1.302   8.710  2.5463  0.7872  0.0290
 7473SOL    HW233879   3.617   1.163   8.686 -0.9099 -0.5404  1.7464
 7474SOL     OW33880   3.983   3.001   5.796  0.3766  0.2622 -0.3449
 7474SOL    HW133881   3.899   2.985   5.754 -0.3644  0.9039  0.9031
 7474SOL    HW233882   4.009   2.909   5.800  1.8799  0.6620 -0.7350
 7475SOL     OW33883   3.209   3.824  12.261  0.5799  0.6719 -0.4802
 7475SOL    HW133884   3.191   3.770  12.184 -1.1384  1.8744 -0.9191
 7475SOL    HW233885   3.203   3.907  12.214 -0.7804  0.3969 -0.7994
 7476SOL     OW33886   1.551   1.126   9.671 -0.3851  0.8627 -0.1951
 7476SOL    HW133887   1.567   1.094   9.760  0.7566  1.7957 -0.0605
 7476SOL    HW233888   1.547   1.221   9.673 -1.0011  0.7670  2.0927
 7477SOL     OW33889   3.791   3.655  11.324 -0.2163 -0.0075  0.3931
 7477SOL    HW133890   3.706   3.656  11.369 -0.0454  1.8982  0.6606
 7477SOL    HW233891   3.845   3.720  11.368 -0.1472  0.0095  0.2803
 7478SOL     OW33892   3.724   0.612   5.703 -0.3869 -0.0129 -0.0456
 7478SOL    HW133893   3.727   0.657   5.788 -0.3516 -0.1734  0.0367
 7478SOL    HW233894   3.638   0.570   5.710 -1.8749  3.1617  0.9436
 7479SOL     OW33895   3.728   1.378   7.606 -0.0211 -0.3826  0.0644
 7479SOL    HW133896   3.649   1.376   7.552  1.5111 -1.5104 -2.1213
 7479SOL    HW233897   3.804   1.356   7.553 -0.9590 -1.9955 -0.6069
 7480SOL     OW33898   0.920   1.114   2.527 -0.2112  0.3653 -0.2375
 7480SOL    HW133899   0.969   1.068   2.595  0.2097 -2.2932 -2.3675
 7480SOL    HW233900   0.832   1.085   2.551 -0.0784 -0.2484 -0.4974
 7481SOL     OW33901   3.680   3.744   8.595 -0.0873  0.1096 -0.4736
 7481SOL    HW133902   3.699   3.664   8.546 -2.0033 -1.2387  0.9758
 7481SOL    HW233903   3.760   3.797   8.584  1.2625 -1.9376 -0.5843
 7482SOL     OW33904   0.137   3.565  13.157 -1.0812 -0.4008  0.0273
 7482SOL    HW133905   0.063   3.518  13.197 -1.1986 -1.0641 -0.9685
 7482SOL    HW233906   0.194   3.489  13.156  1.9809  1.8552  3.3316
 7483SOL     OW33907   4.194   0.968   2.714 -0.2938  0.1927  0.0383
 7483SOL    HW133908   4.248   1.026   2.768 -0.5966  0.4427  0.0724
 7483SOL    HW233909   4.248   0.950   2.638  0.3095 -0.3301  0.5836
 7484SOL     OW33910   2.721   0.578   8.312 -0.2644 -0.5143 -0.4699
 7484SOL    HW133911   2.670   0.553   8.390 -1.0708 -2.0449 -1.4891
 7484SOL    HW233912   2.645   0.614   8.266  0.9362  1.7630 -0.6550
 7485SOL     OW33913   3.258   1.327   6.337 -0.1530  0.1628 -0.1958
 7485SOL    HW133914   3.235   1.261   6.402  2.2091  0.0828  0.5835
 7485SOL    HW233915   3.257   1.412   6.382  0.8778  0.7411 -1.2692
 7486SOL     OW33916   0.593   0.041   9.027 -0.2491  0.2244  0.0125
 7486SOL    HW133917   0.510   0.042   9.075  0.2962 -2.9773  1.0362
 7486SOL    HW233918   0.622   0.129   9.051  0.5600 -0.6852  2.3333
 7487SOL     OW33919   0.030   3.789  13.050 -0.4057  0.4982 -0.0223
 7487SOL    HW133920   0.104   3.845  13.026  0.8945 -0.1582  2.4785
 7487SOL    HW233921   0.073   3.716  13.096  0.0154  0.9107  0.2358
 7488SOL     OW33922   1.359   3.584   2.627 -0.4126 -0.2976  0.0839
 7488SOL    HW133923   1.373   3.678   2.638 -0.1833 -0.1518 -1.5603
 7488SOL    HW233924   1.333   3.588   2.536 -0.9753 -0.0611  0.2565
 7489SOL     OW33925   4.011   0.439  13.416 -0.1401  0.0175 -0.5357
 7489SOL    HW133926   4.021   0.513  13.476  0.7775  0.0564 -0.7290
 7489SOL    HW233927   4.002   0.361  13.471 -0.4697  0.8283  0.5464
 7490SOL     OW33928   0.255   1.784   1.718  0.1179 -1.0069  0.8600
 7490SOL    HW133929   0.202   1.857   1.748  0.4912 -2.1160  4.2525
 7490SOL    HW233930   0.316   1.825   1.656 -0.5826  0.3886  1.1142
 7491SOL     OW33931   1.139   2.453   5.063  0.2892  0.1815 -0.3660
 7491SOL    HW133932   1.211   2.394   5.088 -0.5375 -0.0607  1.4115
 7491SOL    HW233933   1.181   2.532   5.097  1.3050 -0.4690 -0.0759
 7492SOL     OW33934   1.581   3.581   5.381  0.3681 -0.1274 -0.1868
 7492SOL    HW133935   1.654   3.572   5.442 -1.2602 -2.2059  1.4310
 7492SOL    HW233936   1.581   3.487   5.365  1.8654  0.1201 -1.6476
 7493SOL     OW33937   0.047   2.376   7.609  0.2446 -0.1984  0.5082
 7493SOL    HW133938   4.676   2.362   7.619 -0.1863  3.0941  1.1510
 7493SOL    HW233939   0.045   2.460   7.562  0.1220  0.7257  2.1441
 7494SOL     OW33940   3.629   3.624   8.927  0.3408 -0.3080  0.2091
 7494SOL    HW133941   3.619   3.574   9.008  0.2611 -1.1257 -0.3034
 7494SOL    HW233942   3.678   3.567   8.868 -0.4643 -0.8272  0.0458
 7495SOL     OW33943   0.138   1.557  15.454  0.4028 -0.3662 -1.1800
 7495SOL    HW133944   0.086   1.505  15.515 -1.5035 -1.5385 -3.7888
 7495SOL    HW233945   0.147   1.633  15.512 -2.9460  0.0457 -1.1473
 7496SOL     OW33946   2.065   2.729   4.920  0.0514  0.0941 -0.1422
 7496SOL    HW133947   2.099   2.813   4.950  0.4608 -0.0183 -0.2881
 7496SOL    HW233948   2.015   2.753   4.842  0.7753 -1.0300 -0.9623
 7497SOL     OW33949   0.641   1.613   6.459 -0.5787 -0.1949  0.2086
 7497SOL    HW133950   0.674   1.670   6.528  0.7954 -1.0354  0.2427
 7497SOL    HW233951   0.649   1.672   6.384  0.3764 -2.1945 -1.2711
 7498SOL     OW33952   3.096   2.435  14.168 -0.0652 -0.0385  0.2607
 7498SOL    HW133953   3.092   2.342  14.145 -0.5414  0.4854 -1.8245
 7498SOL    HW233954   3.102   2.432  14.263 -1.6672  0.6285  0.3764
 7499SOL     OW33955   1.498   4.328  10.552 -0.0904 -0.0881 -0.3323
 7499SOL    HW133956   1.514   4.241  10.514 -0.6028 -0.9661  1.4766
 7499SOL    HW233957   1.419   4.351  10.503  0.2503  1.4191 -0.1760
 7500SOL     OW33958   2.362   1.051   3.397  0.5014 -0.2002  0.7592
 7500SOL    HW133959   2.456   1.052   3.380  0.8572 -0.0758  2.7457
 7500SOL    HW233960   2.359   1.050   3.493  1.4958 -2.1165  0.7786
 7501SOL     OW33961   0.664   2.251   5.781 -0.1967 -0.5922  0.2786
 7501SOL    HW133962   0.675   2.236   5.688  1.2703 -0.5655  0.4576
 7501SOL    HW233963   0.711   2.174   5.811  3.1322  1.3970  0.1181
 7502SOL     OW33964   2.606   3.210   6.223  0.1050 -0.3228 -0.0398
 7502SOL    HW133965   2.610   3.264   6.302 -1.5820 -1.4450  0.7930
 7502SOL    HW233966   2.665   3.140   6.249  2.6056  1.2166 -1.5114
 7503SOL     OW33967   2.328   0.339   3.399  0.7064  1.1352  0.2717
 7503SOL    HW133968   2.353   0.366   3.311 -2.6104 -0.0377 -0.9991
 7503SOL    HW233969   2.394   0.380   3.456  0.2023  0.2215  1.5183
 7504SOL     OW33970   1.135   0.597   6.427  0.3484  0.3329  0.2097
 7504SOL    HW133971   1.149   0.628   6.517  1.4927  0.1359  0.0977
 7504SOL    HW233972   1.058   0.540   6.430  0.2129  0.4663 -0.8331
 7505SOL     OW33973   1.152   2.431  10.732 -0.2580  0.6891  0.3217
 7505SOL    HW133974   1.190   2.349  10.702 -2.0962 -0.1059  0.1763
 7505SOL    HW233975   1.145   2.410  10.825 -1.3132  0.1913  0.1345
 7506SOL     OW33976   0.042   2.127  13.018 -0.1494 -0.3120  0.3298
 7506SOL    HW133977   0.010   2.143  13.106 -3.8569 -2.8933 -0.5572
 7506SOL    HW233978   0.137   2.139  13.027 -0.0037 -0.7922 -0.4843
 7507SOL     OW33979   1.909   3.887   8.088 -0.9823 -0.1994 -0.0849
 7507SOL    HW133980   1.887   3.807   8.040 -1.7500  0.2762 -0.5361
 7507SOL    HW233981   2.004   3.893   8.092 -1.1634  2.3267  0.7047
 7508SOL     OW33982   2.572   3.860   5.314 -0.0819  0.4394 -0.3613
 7508SOL    HW133983   2.552   3.925   5.381 -1.3664 -0.3478  0.0137
 7508SOL    HW233984   2.489   3.869   5.267 -0.7950 -1.9381  0.4835
 7509SOL     OW33985   4.024   1.004  15.674  0.5486 -0.1975  0.1566
 7509SOL    HW133986   4.061   0.974  15.591 -1.5713 -0.1189 -0.8172
 7509SOL    HW233987   4.067   1.087  15.696 -0.0008  0.4889 -1.3004
 7510SOL     OW33988   3.134   4.388   7.150 -0.2758 -0.4845  0.5275
 7510SOL    HW133989   3.144   4.323   7.220 -2.7166 -1.3749  0.0385
 7510SOL    HW233990   3.218   4.367   7.109 -0.2266  0.2680  0.2580
 7511SOL     OW33991   3.377   3.144   6.042  0.0612  0.0194 -0.6245
 7511SOL    HW133992   3.423   3.222   6.072 -2.1674  1.1740 -0.2776
 7511SOL    HW233993   3.403   3.135   5.950 -1.4251 -0.7701 -0.9634
 7512SOL     OW33994   2.887   2.232   7.506  0.1698  0.0861 -0.2493
 7512SOL    HW133995   2.925   2.266   7.425 -2.3880  0.6645 -1.2185
 7512SOL    HW233996   2.888   2.305   7.568  1.2744 -0.3078  0.1822
 7513SOL     OW33997   0.884   3.957  13.545  0.0820  0.3011  0.0648
 7513SOL    HW133998   0.829   3.901  13.491  2.2938 -1.5223 -0.2651
 7513SOL    HW233999   0.896   4.028  13.481  1.3312  0.0904  0.0689
 7514SOL     OW34000   2.285   1.514   4.194  0.2253  0.3465 -0.3599
 7514SOL    HW134001   2.258   1.434   4.238  0.6227  0.8848  0.8525
 7514SOL    HW234002   2.370   1.486   4.160  1.9944  1.9470  2.7390
 7515SOL     OW34003   3.503   1.500   4.768  0.0199 -0.0366  0.0330
 7515SOL    HW134004   3.448   1.574   4.743  0.0844 -0.4582 -1.3552
 7515SOL    HW234005   3.490   1.437   4.697  2.0292 -2.4996  1.8191
 7516SOL     OW34006   1.113   3.543   8.219 -0.3723  0.2121  0.0288
 7516SOL    HW134007   1.147   3.627   8.251 -0.7454  0.5022 -0.3321
 7516SOL    HW234008   1.020   3.566   8.212 -0.1793  1.2301  0.7988
 7517SOL     OW34009   1.313   4.517   6.417  0.0035 -0.0125 -0.3904
 7517SOL    HW134010   1.374   4.589   6.401  0.2724 -0.5254 -1.7333
 7517SOL    HW234011   1.306   4.483   6.327  0.3484  0.8148 -0.7262
 7518SOL     OW34012   1.850   3.939   9.041 -0.2627  0.0731  0.0366
 7518SOL    HW134013   1.916   3.954   8.973  0.8665  1.3317  1.4380
 7518SOL    HW234014   1.902   3.926   9.120  3.0491  1.5067 -1.9406
 7519SOL     OW34015   3.106   0.019  11.239 -0.0107  0.6375 -0.0786
 7519SOL    HW134016   3.164   0.028  11.315 -1.3855 -2.2809  1.3277
 7519SOL    HW234017   3.117   0.098  11.187  2.8789 -0.3664 -1.0262
 7520SOL     OW34018   0.057   2.753  13.609 -0.4188  0.4056  0.5099
 7520SOL    HW134019   4.717   2.716  13.670 -1.4171 -0.8241 -1.2693
 7520SOL    HW234020   0.122   2.790  13.669  0.8149 -2.1867  0.7731
 7521SOL     OW34021   2.581   1.369  10.561  0.1488  0.2019 -0.4053
 7521SOL    HW134022   2.653   1.432  10.557 -0.1697  0.3024 -4.0427
 7521SOL    HW234023   2.597   1.323  10.478  0.6508  0.6224 -0.5370
 7522SOL     OW34024   3.839   1.371   5.982  0.2186  0.3436 -0.1066
 7522SOL    HW134025   3.921   1.414   6.005 -0.2890  0.4974  1.4463
 7522SOL    HW234026   3.793   1.402   6.060  1.2366 -0.0432  0.6403
 7523SOL     OW34027   0.603   0.266   1.786  0.4661 -0.2591  0.0863
 7523SOL    HW134028   0.690   0.245   1.821  1.3016 -1.2178 -2.5967
 7523SOL    HW234029   0.625   0.290   1.696  0.6313 -0.1069  0.1679
 7524SOL     OW34030   1.785   4.717   3.060 -0.2234 -0.3471 -0.1570
 7524SOL    HW134031   1.828   4.684   3.139  1.2719 -1.5719 -1.4944
 7524SOL    HW234032   1.811   0.085   3.050 -0.7957 -0.2341 -0.6187
 7525SOL     OW34033   0.981   0.974   3.484 -0.5476  0.3537  0.1098
 7525SOL    HW134034   1.006   0.909   3.549 -0.9511  0.5779  0.4948
 7525SOL    HW234035   0.992   1.054   3.536  0.8104  0.1038  0.1969
 7526SOL     OW34036   1.452   3.687   3.303 -0.5624  0.5810 -0.2807
 7526SOL    HW134037   1.472   3.760   3.244  1.2761  0.2935 -0.0175
 7526SOL    HW234038   1.420   3.622   3.241  2.7795 -1.0224 -0.3182
 7527SOL     OW34039   0.674   2.047  10.447 -0.0128 -0.7309  0.6204
 7527SOL    HW134040   0.599   2.000  10.483 -1.8445  1.1124 -0.7633
 7527SOL    HW234041   0.735   2.038  10.520  0.0196 -0.8951  0.5727
 7528SOL     OW34042   1.758   4.567  17.262 -0.2019  0.0747  0.0119
 7528SOL    HW134043   1.677   4.579  17.311 -0.7891 -1.8716 -0.4827
 7528SOL    HW234044   1.718   4.577  17.176  0.1281  1.6570  0.0408
 7529SOL     OW34045   1.630   3.551   7.989 -0.1163  0.2435  0.1803
 7529SOL    HW134046   1.624   3.467   8.033  1.3561  0.7593  1.3522
 7529SOL    HW234047   1.725   3.564   7.987  0.1352 -1.5221  0.3177
 7530SOL     OW34048   3.998   3.687   8.283  0.5589 -0.3431 -0.2043
 7530SOL    HW134049   4.092   3.686   8.301  0.4266 -1.4501  0.4640
 7530SOL    HW234050   4.001   3.612   8.223  1.7279 -0.8316  0.4681
 7531SOL     OW34051   2.360   2.774   3.466 -0.8769  0.3282 -0.7053
 7531SOL    HW134052   2.418   2.796   3.539  0.1108 -0.2033 -1.3319
 7531SOL    HW234053   2.372   2.855   3.417  0.9500  0.3842 -0.1799
 7532SOL     OW34054   2.378   0.769   6.818 -0.1912  0.2972 -0.7430
 7532SOL    HW134055   2.472   0.754   6.803 -0.6438 -1.6686 -1.6552
 7532SOL    HW234056   2.380   0.864   6.830  1.5766 -0.2398  3.3793
 7533SOL     OW34057   0.978   0.255   0.868 -0.6221  0.0093 -0.0113
 7533SOL    HW134058   0.893   0.298   0.860  0.3747  1.7848 -0.9539
 7533SOL    HW234059   1.007   0.299   0.948  0.7965 -1.9465  0.5597
 7534SOL     OW34060   4.703   0.015  16.629  0.6291  0.1582  1.1502
 7534SOL    HW134061   0.010   4.653  16.598 -0.0467  0.8762 -1.5058
 7534SOL    HW234062   0.056   0.045  16.678  0.1473  2.4584  0.4886
 7535SOL     OW34063   1.978   1.090   3.857 -0.1918  0.2175 -0.1465
 7535SOL    HW134064   2.029   1.171   3.850  1.8090 -1.0509 -0.0568
 7535SOL    HW234065   2.040   1.018   3.850 -1.4255 -0.6852 -1.9507
 7536SOL     OW34066   4.320   2.782   1.916 -0.4460  0.6835 -0.3944
 7536SOL    HW134067   4.225   2.777   1.912 -0.4936  0.8812  0.5966
 7536SOL    HW234068   4.329   2.866   1.871  1.2716 -1.0935 -3.3713
 7537SOL     OW34069   4.022   2.235  13.700 -0.6836  0.3591  0.4644
 7537SOL    HW134070   4.082   2.282  13.758 -2.1268  0.6280  1.7379
 7537SOL    HW234071   4.009   2.151  13.744  1.8491  1.0705  2.5424
 7538SOL     OW34072   4.181   1.334  11.548  0.1021 -0.1465 -0.2172
 7538SOL    HW134073   4.210   1.379  11.469  0.1812 -0.3146 -0.2830
 7538SOL    HW234074   4.229   1.390  11.609 -0.6269 -0.3949  0.5853
 7539SOL     OW34075   3.545   4.671  11.458 -0.2337 -0.2529 -0.1092
 7539SOL    HW134076   3.603   4.618  11.514 -1.4947 -1.3628  0.1480
 7539SOL    HW234077   3.506   4.594  11.417 -0.9191  0.1836 -0.2824
 7540SOL     OW34078   4.048   3.139   2.054  0.1982 -0.5489  0.0184
 7540SOL    HW134079   4.076   3.116   2.142 -2.1227 -1.6105  0.4856
 7540SOL    HW234080   4.132   3.148   2.009 -0.7049  1.6393 -1.1936
 7541SOL     OW34081   3.034   4.105   7.963  0.2283 -0.2755 -0.0757
 7541SOL    HW134082   3.119   4.062   7.957 -0.3367 -1.1211 -2.0142
 7541SOL    HW234083   2.981   4.027   7.951  1.2743 -1.2120  1.3064
 7542SOL     OW34084   2.819   2.159   2.323 -0.0735 -0.2629  0.3259
 7542SOL    HW134085   2.863   2.224   2.378 -0.5526 -0.5053  0.9930
 7542SOL    HW234086   2.752   2.213   2.280 -0.0843 -1.7700 -1.5802
 7543SOL     OW34087   1.746   3.915  15.981 -0.0506  0.3661 -0.3639
 7543SOL    HW134088   1.743   3.821  16.003 -2.1582  0.8672  1.5044
 7543SOL    HW234089   1.718   3.904  15.890 -1.5195  0.4421  0.0819
 7544SOL     OW34090   2.922   3.924   2.540  0.1414  0.2441  0.0704
 7544SOL    HW134091   2.978   3.849   2.516  0.0895  0.5308 -0.9797
 7544SOL    HW234092   2.939   3.977   2.462 -0.2656  1.3904  0.7692
 7545SOL     OW34093   2.077   2.784   7.385 -0.4060  0.0151 -0.5946
 7545SOL    HW134094   2.109   2.697   7.361 -1.0904 -0.1653 -0.8601
 7545SOL    HW234095   2.131   2.834   7.324  0.1561  0.3093  0.1431
 7546SOL     OW34096   2.192   3.142   3.055 -0.8074 -0.0903  0.3596
 7546SOL    HW134097   2.135   3.123   2.981 -0.3862  0.7388 -0.1741
 7546SOL    HW234098   2.272   3.146   3.003  0.5459 -0.9959  2.4064
 7547SOL     OW34099   4.471   2.609   2.398 -0.0211  0.2377 -0.2904
 7547SOL    HW134100   4.455   2.650   2.313 -0.6158 -1.8970 -1.2118
 7547SOL    HW234101   4.384   2.574   2.418 -0.0616  0.3694 -0.2371
 7548SOL     OW34102   1.516   4.453   9.154  0.3078  0.0639  0.1536
 7548SOL    HW134103   1.583   4.385   9.162  0.3264 -0.1663 -2.0765
 7548SOL    HW234104   1.531   4.511   9.229 -0.9664  1.3672 -0.5898
 7549SOL     OW34105   1.223   3.087   9.921 -0.2260 -0.7216  0.1924
 7549SOL    HW134106   1.306   3.120   9.888 -0.7312  1.3442  0.9704
 7549SOL    HW234107   1.176   3.058   9.843 -0.2392 -0.2131  0.0143
 7550SOL     OW34108   3.949   4.624   4.743  0.1150 -0.7078 -0.0881
 7550SOL    HW134109   3.883   4.570   4.786  2.0441 -1.6929  1.6476
 7550SOL    HW234110   3.981   4.686   4.810 -1.9196 -0.1453  0.3581
 7551SOL     OW34111   4.267   2.218  11.441 -0.5179 -0.6552  0.1225
 7551SOL    HW134112   4.176   2.250  11.445  0.0922  1.0330  0.6413
 7551SOL    HW234113   4.317   2.291  11.405 -0.1098  0.2859  2.6093
 7552SOL     OW34114   3.630   2.850   2.587 -0.3118  0.0077  0.4153
 7552SOL    HW134115   3.717   2.840   2.548 -0.0588 -2.0169  1.5101
 7552SOL    HW234116   3.658   2.898   2.666  0.2779 -0.6055  0.5828
 7553SOL     OW34117   1.058   0.986   6.531 -0.0664 -0.1830 -0.0919
 7553SOL    HW134118   1.099   0.917   6.583 -1.7057  0.3754  1.9450
 7553SOL    HW234119   1.110   0.972   6.452 -1.7368 -2.0630 -0.8504
 7554SOL     OW34120   4.310   3.480   7.721  0.2515  0.0220 -0.5429
 7554SOL    HW134121   4.306   3.569   7.685 -0.6987  0.8552  1.6090
 7554SOL    HW234122   4.216   3.466   7.730  0.3482 -0.3509 -0.0929
 7555SOL     OW34123   3.272   4.602  14.042  0.2804 -0.0558  0.0583
 7555SOL    HW134124   3.350   4.547  14.037  2.2514  3.0605 -3.6115
 7555SOL    HW234125   3.269   4.636  13.953  3.7177 -2.0447 -0.8435
 7556SOL     OW34126   0.434   3.790  16.315  0.4002 -0.0648 -0.5524
 7556SOL    HW134127   0.420   3.700  16.285  0.8144 -0.0554 -0.7642
 7556SOL    HW234128   0.485   3.828  16.243 -3.1429 -0.3948 -3.2971
 7557SOL     OW34129   2.052   2.771  12.816  0.1171 -0.2127 -0.5404
 7557SOL    HW134130   2.130   2.822  12.834 -1.2625  1.7265 -0.0413
 7557SOL    HW234131   2.058   2.708  12.888 -0.7278 -0.5076 -0.7283
 7558SOL     OW34132   0.707   3.492   7.305 -0.2960  0.2263 -0.5168
 7558SOL    HW134133   0.703   3.521   7.396 -1.7605 -0.6158 -0.3158
 7558SOL    HW234134   0.627   3.441   7.293 -0.9040  1.2407 -0.6975
 7559SOL     OW34135   4.696   2.352   8.764 -0.3644 -0.2910 -0.2949
 7559SOL    HW134136   0.061   2.384   8.779 -0.5346 -0.1104  0.3328
 7559SOL    HW234137   4.698   2.306   8.680 -3.2259 -0.1303 -0.4664
 7560SOL     OW34138   1.253   1.115   6.996  0.3028  0.5782  0.0818
 7560SOL    HW134139   1.164   1.085   6.979  0.5419 -0.8381  1.3323
 7560SOL    HW234140   1.266   1.159   6.912  0.8322 -1.8587 -1.1020
 7561SOL     OW34141   0.270   2.674  13.056 -0.3389 -0.5444  0.2659
 7561SOL    HW134142   0.273   2.679  13.152 -2.2407  0.2170  0.2830
 7561SOL    HW234143   0.364   2.681  13.040 -0.3455 -0.3976  0.2910
 7562SOL     OW34144   2.323   2.218   5.067  0.1772 -0.0688  0.0048
 7562SOL    HW134145   2.400   2.242   5.119  0.5209 -0.7640 -0.1799
 7562SOL    HW234146   2.270   2.297   5.067  0.6758  0.2652  0.1107
 7563SOL     OW34147   1.940   3.248   5.524 -0.5791  0.3783  0.0124
 7563SOL    HW134148   1.864   3.217   5.574 -0.5092 -0.6454 -0.5278
 7563SOL    HW234149   1.999   3.176   5.543 -1.6065  0.1278  2.2798
 7564SOL     OW34150   2.512   4.092   6.991 -0.3695  0.1997  0.5189
 7564SOL    HW134151   2.471   4.119   7.073  0.5780  0.7336  0.8117
 7564SOL    HW234152   2.450   4.123   6.925  2.1081  1.0818 -1.3947
 7565SOL     OW34153   3.699   1.916   0.726  0.0925 -0.5211  0.3114
 7565SOL    HW134154   3.671   1.843   0.780  1.3528 -1.8624 -0.8477
 7565SOL    HW234155   3.790   1.895   0.705 -0.1961 -0.9494 -0.5399
 7566SOL     OW34156   2.170   1.013   1.367 -0.0610 -0.2719  0.2215
 7566SOL    HW134157   2.179   1.092   1.313 -1.2380  0.1951  0.7195
 7566SOL    HW234158   2.077   0.990   1.360  0.3616 -2.2871  1.5577
 7567SOL     OW34159   2.838   3.882  15.835  0.4512 -0.1124 -0.8635
 7567SOL    HW134160   2.753   3.855  15.802 -0.3061 -1.7655  2.4536
 7567SOL    HW234161   2.873   3.916  15.752  0.1397  3.0127  0.3111
 7568SOL     OW34162   2.581   3.681  12.227 -0.2853  0.0441 -0.1967
 7568SOL    HW134163   2.651   3.680  12.163 -0.2308 -3.0716 -0.1270
 7568SOL    HW234164   2.633   3.692  12.306 -1.3043  1.2397  0.3092
 7569SOL     OW34165   1.910   4.568   0.143 -1.0520 -0.1586 -0.0778
 7569SOL    HW134166   1.923   4.533   0.231 -0.6223 -0.5676 -0.3094
 7569SOL    HW234167   1.836   4.513   0.115 -0.8239  0.6693 -2.3132
 7570SOL     OW34168   0.270   1.424   6.910 -0.0881  0.1550 -0.7531
 7570SOL    HW134169   0.239   1.359   6.973  0.5069  0.1593 -0.4568
 7570SOL    HW234170   0.191   1.459   6.868 -0.8482  0.0179  0.5536
 7571SOL     OW34171   0.407   0.648  14.218  0.6981 -0.4721 -0.4017
 7571SOL    HW134172   0.380   0.708  14.287  0.1310  0.3942 -1.3885
 7571SOL    HW234173   0.327   0.643  14.165  0.7596  0.5999 -0.5956
 7572SOL     OW34174   3.360   4.314   7.017  0.0371 -0.6392 -0.1762
 7572SOL    HW134175   3.412   4.352   6.946  0.1987 -1.0140 -0.2578
 7572SOL    HW234176   3.343   4.232   6.972 -0.4880 -0.0937 -0.9710
 7573SOL     OW34177   1.295   3.819  15.101  0.4296  0.2004 -0.2145
 7573SOL    HW134178   1.295   3.825  15.006  2.1468  1.1194 -0.1505
 7573SOL    HW234179   1.359   3.747  15.109  1.1786  1.0575  1.5152
 7574SOL     OW34180   1.311   1.873  11.266  0.1502 -0.0935  0.4654
 7574SOL    HW134181   1.257   1.928  11.210  0.4702 -1.3810 -1.0876
 7574SOL    HW234182   1.253   1.825  11.325  0.9816 -0.8484  0.6750
 7575SOL     OW34183   0.392   0.421   6.612 -0.4032 -0.1793  0.2417
 7575SOL    HW134184   0.464   0.464   6.658  0.7493 -1.5028 -0.3363
 7575SOL    HW234185   0.350   0.489   6.560 -0.3931 -1.6762 -1.7110
 7576SOL     OW34186   3.399   2.686   1.387 -0.1947  0.6808  0.6380
 7576SOL    HW134187   3.318   2.717   1.348 -1.3006 -0.9386  1.6558
 7576SOL    HW234188   3.451   2.767   1.391  0.9145 -0.1036  2.3549
 7577SOL     OW34189   1.199   1.476   4.510  0.1866  0.1932 -0.2093
 7577SOL    HW134190   1.125   1.472   4.569  0.0130 -0.2013 -0.4517
 7577SOL    HW234191   1.195   1.563   4.472 -2.6241  0.9994  1.9758
 7578SOL     OW34192   2.187   4.303   7.374  0.0505  0.0020  0.7253
 7578SOL    HW134193   2.257   4.367   7.361 -1.3783  1.0553 -1.8188
 7578SOL    HW234194   2.109   4.355   7.352  0.2412  0.1903  0.4984
 7579SOL     OW34195   2.476   3.169   2.444 -0.0387 -0.0466  0.2817
 7579SOL    HW134196   2.497   3.078   2.461 -0.0908  0.3956  2.6919
 7579SOL    HW234197   2.521   3.218   2.512  0.1051  0.2042  0.0082
 7580SOL     OW34198   0.945   4.149  13.331 -0.2096 -0.3369 -0.0894
 7580SOL    HW134199   1.012   4.183  13.391  2.3954  0.8125 -3.6829
 7580SOL    HW234200   0.891   4.227  13.321 -0.6826 -0.9685 -2.3937
 7581SOL     OW34201   2.635   1.062   3.404  0.4488  0.0517  0.1916
 7581SOL    HW134202   2.709   1.111   3.367 -0.4170  0.9310 -0.3802
 7581SOL    HW234203   2.673   1.012   3.476  0.5682  0.4518  0.4098
 7582SOL     OW34204   3.577   1.766   4.219 -0.2759  0.3962  0.3475
 7582SOL    HW134205   3.646   1.792   4.281  2.4038 -0.9612 -2.0965
 7582SOL    HW234206   3.499   1.770   4.274  0.1453  3.2760  0.7726
 7583SOL     OW34207   2.407   4.463   2.792 -0.5422 -0.1510  0.3020
 7583SOL    HW134208   2.420   4.394   2.857 -0.8280 -0.3734  0.1219
 7583SOL    HW234209   2.493   4.457   2.750 -0.8342 -2.8157  0.0507
 7584SOL     OW34210   4.571   0.183   8.096  0.0701 -0.0079 -0.0458
 7584SOL    HW134211   4.481   0.212   8.110 -0.0595 -0.3937 -0.0894
 7584SOL    HW234212   4.613   0.252   8.149 -0.6719  1.0002 -0.7653
 7585SOL     OW34213   1.770   1.078   3.680 -0.3338  0.7587 -0.1082
 7585SOL    HW134214   1.779   1.158   3.628 -0.6361  0.5658 -0.4569
 7585SOL    HW234215   1.813   1.100   3.763  2.9216 -1.2986 -1.2286
 7586SOL     OW34216   2.505   2.415   7.031 -0.1793 -0.0810  0.0494
 7586SOL    HW134217   2.477   2.373   6.950  0.0427  0.8262 -0.4890
 7586SOL    HW234218   2.421   2.431   7.074  0.2569 -0.6226  1.1054
 7587SOL     OW34219   3.896   3.276   4.481 -0.3613 -0.0786  0.2710
 7587SOL    HW134220   3.863   3.191   4.449  0.0667 -1.0041  2.3290
 7587SOL    HW234221   3.820   3.329   4.456  0.8199  1.0414 -0.8948
 7588SOL     OW34222   0.671   2.372   6.235 -0.0073  0.6949  0.2682
 7588SOL    HW134223   0.664   2.377   6.331  1.5352  2.8786  0.2702
 7588SOL    HW234224   0.731   2.298   6.226 -1.3658 -0.3205 -0.4264
 7589SOL     OW34225   2.511   2.113   7.239 -0.0921 -0.1458  0.4771
 7589SOL    HW134226   2.504   2.044   7.173 -1.9472  1.5782 -1.1458
 7589SOL    HW234227   2.433   2.091   7.290 -1.0605  1.5502 -0.2499
 7590SOL     OW34228   0.549   2.715   2.742  0.5665  0.1558 -0.0047
 7590SOL    HW134229   0.593   2.791   2.705 -0.2045  0.0322 -1.1588
 7590SOL    HW234230   0.627   2.660   2.756  1.1996  0.2889 -2.9629
 7591SOL     OW34231   3.449   3.709  15.024 -0.0653 -0.5669  0.5005
 7591SOL    HW134232   3.368   3.680  14.980  0.7984 -1.5087 -0.4831
 7591SOL    HW234233   3.492   3.742  14.945 -1.7915 -0.1446 -0.2724
 7592SOL     OW34234   1.266   1.013  16.709  0.1988 -0.2905  0.3471
 7592SOL    HW134235   1.210   0.961  16.652 -1.0738  1.6375 -0.1796
 7592SOL    HW234236   1.201   1.079  16.732  0.6502  0.4912 -0.6337
 7593SOL     OW34237   2.428   2.413  13.590  0.2576 -0.0633  0.0768
 7593SOL    HW134238   2.392   2.429  13.503 -0.5554 -1.1887  0.2048
 7593SOL    HW234239   2.514   2.454  13.582  1.0760 -1.8871 -0.4576
 7594SOL     OW34240   3.528   4.400   5.689 -0.4553  0.4215 -0.0330
 7594SOL    HW134241   3.552   4.379   5.599  0.0673 -2.1643  0.7078
 7594SOL    HW234242   3.463   4.336   5.717 -0.2068 -0.5096 -1.5877
 7595SOL     OW34243   1.832   1.704   8.894 -0.0611  0.2884  0.3816
 7595SOL    HW134244   1.753   1.702   8.841  0.9373 -0.5701 -1.0909
 7595SOL    HW234245   1.894   1.685   8.822  0.4281 -2.9990  1.6613
 7596SOL     OW34246   0.542   1.564   4.870 -0.4088  0.1923  0.2928
 7596SOL    HW134247   0.563   1.584   4.962  0.0977  0.2198  0.1712
 7596SOL    HW234248   0.566   1.472   4.864 -1.1714  0.0881 -1.0441
 7597SOL     OW34249   4.525   1.093   6.519  0.1734  0.0861  0.0802
 7597SOL    HW134250   4.532   1.051   6.605 -0.9688  1.9289  1.0838
 7597SOL    HW234251   4.568   1.178   6.528  0.3242  0.0054  0.1296
 7598SOL     OW34252   1.389   3.693   6.980 -0.0737  0.0244 -0.4757
 7598SOL    HW134253   1.421   3.605   7.002  1.7190  0.3195 -1.9520
 7598SOL    HW234254   1.312   3.692   7.037  0.1433 -2.0360 -0.2238
 7599SOL     OW34255   1.739   2.064   4.715 -0.0869 -0.3942 -0.0719
 7599SOL    HW134256   1.655   2.109   4.712 -1.4305 -2.8215  0.4761
 7599SOL    HW234257   1.707   1.974   4.701  0.3810 -0.6264  0.3861
 7600SOL     OW34258   2.770   0.245   2.567  0.0574 -0.0336  0.0240
 7600SOL    HW134259   2.802   0.257   2.478 -0.7448 -2.4579 -0.6025
 7600SOL    HW234260   2.759   0.335   2.598 -1.5173 -0.9456  2.1493
 7601SOL     OW34261   2.662   4.464   2.702 -0.5572 -0.0796  0.1174
 7601SOL    HW134262   2.659   4.385   2.648 -1.0933  0.7458 -1.0650
 7601SOL    HW234263   2.711   4.530   2.653  0.7922 -0.9020  0.3609
 7602SOL     OW34264   0.003   0.281   7.333  0.4169  0.0839  0.2685
 7602SOL    HW134265   0.049   0.366   7.340 -1.4369  0.9255  2.0493
 7602SOL    HW234266   4.664   0.298   7.403 -0.2518  0.2078 -0.3494
 7603SOL     OW34267   0.876   3.772  10.600  0.5006  0.0756  0.0154
 7603SOL    HW134268   0.867   3.738  10.689  1.4532 -1.4430 -0.4848
 7603SOL    HW234269   0.870   3.700  10.537 -1.5716  1.5403 -1.4700
 7604SOL     OW34270   4.566   1.260   3.092 -0.0951 -0.1450 -1.0319
 7604SOL    HW134271   4.581   1.247   3.186 -1.4728  4.5312 -0.1859
 7604SOL    HW234272   4.646   1.213   3.071  0.5606  0.0000  1.2067
 7605SOL     OW34273   2.172   0.457   3.653  0.8727  0.3544  0.1187
 7605SOL    HW134274   2.218   0.384   3.611  1.2780 -0.4349  1.9705
 7605SOL    HW234275   2.146   0.510   3.577  1.0096 -1.0753 -0.9336
 7606SOL     OW34276   0.434   0.516   6.007  0.0039 -0.4067 -0.4057
 7606SOL    HW134277   0.522   0.506   6.041  0.2050  1.8885 -0.2623
 7606SOL    HW234278   0.383   0.511   6.088  1.7297  1.5182  0.7886
 7607SOL     OW34279   0.084   0.241   2.178 -0.4823  0.1615 -0.1924
 7607SOL    HW134280   0.125   0.204   2.100  0.1354  0.1114  0.1581
 7607SOL    HW234281   0.015   0.296   2.140  0.0195  3.1344  3.1880
 7608SOL     OW34282   1.525   3.328  10.648  0.3006  0.2724 -0.8876
 7608SOL    HW134283   1.450   3.387  10.652  1.0063  0.9835  1.5390
 7608SOL    HW234284   1.492   3.252  10.695  1.6921 -0.1932 -0.6703
 7609SOL     OW34285   0.692   3.035  16.093 -0.4348 -0.0197 -0.1136
 7609SOL    HW134286   0.691   2.940  16.091  2.3590 -0.1922  5.1087
 7609SOL    HW234287   0.627   3.045  16.163 -0.5558  0.0796 -0.2383
 7610SOL     OW34288   2.941   0.454  14.342  0.2403 -0.4225 -0.1042
 7610SOL    HW134289   2.875   0.523  14.346  2.2602  1.5967 -1.1986
 7610SOL    HW234290   2.920   0.408  14.424  0.1937  2.6396  1.6121
 7611SOL     OW34291   4.112   3.782   0.636 -0.3816  0.0537  0.4432
 7611SOL    HW134292   4.117   3.759   0.729  2.2190 -2.7372 -0.3971
 7611SOL    HW234293   4.204   3.784   0.611 -0.7962 -1.6092 -1.2410
 7612SOL     OW34294   3.302   4.033   7.127 -0.7985  0.0491 -0.0733
 7612SOL    HW134295   3.243   4.054   7.055  0.6462  1.3420 -0.8846
 7612SOL    HW234296   3.240   3.986   7.182  0.6254 -0.2913  1.2530
 7613SOL     OW34297   3.881   2.175  16.280  0.3407 -0.4122 -0.0013
 7613SOL    HW134298   3.862   2.118  16.205  0.7569 -0.7020  0.1097
 7613SOL    HW234299   3.974   2.195  16.270  0.6086 -2.0579 -0.7140
 7614SOL     OW34300   2.567   0.150   8.085 -0.2691  0.7180  0.7686
 7614SOL    HW134301   2.495   0.200   8.124 -1.7870 -1.3116  0.5921
 7614SOL    HW234302   2.646   0.198   8.108  2.1334 -1.2585 -3.3335
 7615SOL     OW34303   3.524   0.363   4.565  0.0464  0.1758 -0.1873
 7615SOL    HW134304   3.448   0.420   4.578  1.1328  1.2803  1.4367
 7615SOL    HW234305   3.550   0.356   4.657 -1.5362 -1.8415  0.0708
 7616SOL     OW34306   2.520   1.078   0.873  0.0231  0.3065  0.0941
 7616SOL    HW134307   2.575   1.030   0.811 -0.3221 -0.1131  0.1122
 7616SOL    HW234308   2.457   1.102   0.806  1.1027 -1.9520 -1.7390
 7617SOL     OW34309   4.579   1.000  13.598  0.1540 -0.1484 -0.8949
 7617SOL    HW134310   4.548   1.081  13.558  0.1800  0.7979  0.9901
 7617SOL    HW234311   4.553   0.938  13.530 -0.5197  1.6456 -2.2678
 7618SOL     OW34312   2.696   2.181  16.830 -0.2325 -0.7321  0.0157
 7618SOL    HW134313   2.767   2.161  16.769  0.6696  1.7536  0.2676
 7618SOL    HW234314   2.710   2.118  16.900  1.5603  0.7976  1.0206
 7619SOL     OW34315   2.921   0.238   4.673  0.0045  0.0188 -0.0978
 7619SOL    HW134316   2.901   0.325   4.707 -1.1640 -0.4021  0.2917
 7619SOL    HW234317   2.845   0.186   4.701 -0.5061  0.2223 -1.1118
 7620SOL     OW34318   0.493   4.658   3.568 -0.0053 -0.0434 -0.1886
 7620SOL    HW134319   0.521   4.576   3.608  1.1585 -0.5762 -2.0642
 7620SOL    HW234320   0.472   4.714   3.642  1.6074 -0.0616  0.2858
 7621SOL     OW34321   2.881   4.600   3.533 -0.2082  0.4465  0.0670
 7621SOL    HW134322   2.806   4.650   3.501  0.4237  1.1721 -0.2645
 7621SOL    HW234323   2.857   4.508   3.526  2.2963 -0.1762 -0.2624
 7622SOL     OW34324   0.556   3.912  13.696  0.2141 -0.1351  0.4988
 7622SOL    HW134325   0.491   3.916  13.626  0.2982  0.7007  0.4724
 7622SOL    HW234326   0.537   3.990  13.748  0.8381 -0.4985  1.2813
 7623SOL     OW34327   0.691   3.778   7.594 -0.2253  0.0714  0.3048
 7623SOL    HW134328   0.739   3.836   7.535  0.9866  0.3954  1.5862
 7623SOL    HW234329   0.760   3.744   7.651  0.3883  0.5999 -0.1262
 7624SOL     OW34330   2.365   0.387   4.886 -0.0113  0.1896 -0.2373
 7624SOL    HW134331   2.325   0.316   4.937 -0.5083 -1.3198 -2.7192
 7624SOL    HW234332   2.428   0.338   4.832 -0.4439  0.7409 -1.2314
 7625SOL     OW34333   0.400   3.967  11.424 -0.2956 -0.1236 -0.0244
 7625SOL    HW134334   0.388   3.884  11.469  0.1811 -0.8519 -1.2652
 7625SOL    HW234335   0.426   3.940  11.336 -1.4634  2.4377 -1.1562
 7626SOL     OW34336   1.616   3.274  13.147 -0.1204 -0.1743  0.3845
 7626SOL    HW134337   1.696   3.326  13.136 -1.6463  1.7016 -1.6761
 7626SOL    HW234338   1.569   3.279  13.064  1.3339 -0.1737 -0.4429
 7627SOL     OW34339   0.920   3.027   8.819  0.0883 -0.6716 -0.5246
 7627SOL    HW134340   0.943   3.057   8.907  1.8227  1.3178 -1.6350
 7627SOL    HW234341   1.007   3.015   8.781  0.4153  2.2243 -0.7342
 7628SOL     OW34342   2.090   4.317  17.631 -0.3947 -0.5652  0.5664
 7628SOL    HW134343   2.125   4.284  17.548 -2.4976 -1.6770  0.1168
 7628SOL    HW234344   2.027   4.385  17.607 -0.3795  0.2791  2.9681
 7629SOL     OW34345   3.427   3.207   2.736  0.2961  0.5054  0.1657
 7629SOL    HW134346   3.513   3.247   2.734  0.8087 -0.5685  0.7597
 7629SOL    HW234347   3.451   3.114   2.733 -0.0627  0.4030  0.3202
 7630SOL     OW34348   1.683   3.245  10.906 -0.2899 -0.1571 -0.2870
 7630SOL    HW134349   1.598   3.209  10.884 -0.6026  0.2727  0.2265
 7630SOL    HW234350   1.695   3.294  10.824  2.0787 -3.3398 -1.8580
 7631SOL     OW34351   1.420   0.122  17.692 -0.5828 -0.2192  0.8979
 7631SOL    HW134352   1.369   0.056  17.646 -2.0212  0.8337  0.9612
 7631SOL    HW234353   1.441   0.083   0.082  0.4999  0.1550  0.8016
 7632SOL     OW34354   2.742   0.974   6.647 -0.3428  0.1134 -0.1366
 7632SOL    HW134355   2.719   1.000   6.737 -0.1460  0.5109 -0.2027
 7632SOL    HW234356   2.711   0.883   6.643  0.7031 -0.3125  1.3260
 7633SOL     OW34357   0.881   3.772   4.617  0.0774  0.8113 -0.0801
 7633SOL    HW134358   0.927   3.835   4.672 -0.0233 -0.9541  2.0296
 7633SOL    HW234359   0.850   3.711   4.684  0.5654  0.9897  0.3093
 7634SOL     OW34360   3.191   3.166  15.849  0.0715 -0.1917  0.7460
 7634SOL    HW134361   3.153   3.187  15.763  0.7365  0.0385  0.5057
 7634SOL    HW234362   3.203   3.251  15.891  0.3894  0.2951 -0.3162
 7635SOL     OW34363   0.804   0.175  17.386  0.1573  0.0342 -0.2041
 7635SOL    HW134364   0.734   0.165  17.322 -0.0253 -2.0711  0.3159
 7635SOL    HW234365   0.870   0.230  17.344 -2.1140  1.1681 -2.2312
 7636SOL     OW34366   0.574   4.149  13.838 -0.0715 -0.2681  0.6467
 7636SOL    HW134367   0.662   4.159  13.802 -0.1839 -3.8187 -0.5891
 7636SOL    HW234368   0.566   4.234  13.883 -0.0324  0.7975 -1.3585
 7637SOL     OW34369   4.279   0.742  15.267  0.0726  0.3513  0.4343
 7637SOL    HW134370   4.316   0.655  15.283  0.8171  1.1423  2.9594
 7637SOL    HW234371   4.186   0.721  15.256  0.2872 -1.0156  1.2561
 7638SOL     OW34372   3.835   0.893  15.007 -0.2651  0.1572  0.3603
 7638SOL    HW134373   3.915   0.919  14.962 -0.4527  0.7526  0.3711
 7638SOL    HW234374   3.765   0.930  14.953  1.2495 -0.4618 -2.0379
 7639SOL     OW34375   3.280   1.007  14.609 -0.1876 -0.0262  0.3427
 7639SOL    HW134376   3.310   0.918  14.631  0.9684 -0.4334 -2.9704
 7639SOL    HW234377   3.311   1.013  14.519 -0.1497  0.2869  0.3776
 7640SOL     OW34378   3.918   1.611   1.517  0.2489  0.0680  0.3406
 7640SOL    HW134379   3.825   1.608   1.494  0.3650 -2.3613  0.1857
 7640SOL    HW234380   3.947   1.701   1.526  0.5499  0.1318 -1.2002
 7641SOL     OW34381   4.290   1.630   2.931  0.3464 -0.3439  0.0732
 7641SOL    HW134382   4.212   1.635   2.986 -0.1173 -2.3721 -0.3962
 7641SOL    HW234383   4.317   1.539   2.946 -0.2832 -0.3392  1.2445
 7642SOL     OW34384   3.199   3.645   2.727  0.1316  0.8895 -0.1038
 7642SOL    HW134385   3.155   3.692   2.656 -1.2887 -0.8262 -0.3944
 7642SOL    HW234386   3.138   3.578   2.760  1.5593  0.3979  1.5174
 7643SOL     OW34387   2.448   3.575   8.508  0.5872  0.1264  0.1550
 7643SOL    HW134388   2.473   3.483   8.503  2.0512  0.5380 -0.1209
 7643SOL    HW234389   2.421   3.604   8.421 -1.4056  2.1317  1.4392
 7644SOL     OW34390   0.749   3.228   6.307  0.5300 -0.1352 -0.6557
 7644SOL    HW134391   0.823   3.267   6.352  1.8741 -0.3346 -2.6735
 7644SOL    HW234392   0.684   3.270   6.363 -1.4297 -0.6502 -2.4904
 7645SOL     OW34393   0.260   4.157   3.384 -0.2780  0.3552  0.5080
 7645SOL    HW134394   0.218   4.094   3.325  0.8504 -0.7582  0.9166
 7645SOL    HW234395   0.187   4.220   3.389 -1.8532 -1.5508  1.5541
 7646SOL     OW34396   4.324   2.446   8.131 -0.3243 -0.6149 -0.2684
 7646SOL    HW134397   4.410   2.486   8.114  0.5110 -2.1797  0.2542
 7646SOL    HW234398   4.313   2.460   8.225  2.3075  1.6690 -0.3107
 7647SOL     OW34399   4.297   3.268   3.831 -0.0369 -0.0501  0.3971
 7647SOL    HW134400   4.332   3.193   3.879  1.5381  0.5553  0.2008
 7647SOL    HW234401   4.219   3.218   3.809  1.0375 -1.0949 -1.1286
 7648SOL     OW34402   0.216   0.506  10.113 -0.0076 -0.1589  0.4278
 7648SOL    HW134403   0.231   0.595  10.082  3.5275 -0.2237  1.8344
 7648SOL    HW234404   0.292   0.503  10.172  0.2901 -2.0062 -0.0479
 7649SOL     OW34405   4.631   1.402  17.331  0.3980 -0.4182  0.4171
 7649SOL    HW134406   4.686   1.471  17.295 -1.4631  0.0801 -1.4387
 7649SOL    HW234407   4.618   1.423  17.424  1.0741 -1.5287  0.7679
 7650SOL     OW34408   4.687   4.030   8.248  0.0347  0.4210  0.4097
 7650SOL    HW134409   4.613   3.970   8.240 -0.0670  0.5844  0.1104
 7650SOL    HW234410   4.653   4.073   8.326  3.6262 -0.2853  2.3552
 7651SOL     OW34411   3.842   1.517   7.836 -0.7322  0.1232  0.1216
 7651SOL    HW134412   3.825   1.464   7.758 -2.8534 -0.1904  0.7962
 7651SOL    HW234413   3.815   1.454   7.903 -3.2176  0.9823 -0.0777
 7652SOL     OW34414   0.497   2.477   7.861 -0.0939  0.0105  0.4990
 7652SOL    HW134415   0.473   2.443   7.775  0.3108 -0.3085  0.5137
 7652SOL    HW234416   0.469   2.569   7.851  0.2937  0.0296 -0.3917
 7653SOL     OW34417   4.420   3.357   6.335 -0.2048  0.9849 -0.1231
 7653SOL    HW134418   4.342   3.397   6.373 -0.6632 -0.8559  0.8722
 7653SOL    HW234419   4.405   3.266   6.360 -0.5424  0.7652 -1.1565
 7654SOL     OW34420   4.455   2.920   8.622  0.8216  0.0975  0.4163
 7654SOL    HW134421   4.422   2.998   8.666 -1.2562  0.2888 -1.4731
 7654SOL    HW234422   4.506   2.892   8.698  1.4298  0.6685  0.2273
 7655SOL     OW34423   0.845   4.721   8.074  0.9059 -0.0416 -0.3766
 7655SOL    HW134424   0.899   4.696   7.999  1.0399 -0.9236  0.0207
 7655SOL    HW234425   0.882   4.658   8.136  0.2654  0.3087  0.3634
 7656SOL     OW34426   1.368   4.347  10.989 -0.1075  0.2268  0.2204
 7656SOL    HW134427   1.431   4.286  10.951 -1.6378 -1.3174  0.1646
 7656SOL    HW234428   1.289   4.326  10.940 -1.0318  2.2349  0.8700
 7657SOL     OW34429   0.356   3.728  10.910  0.0589 -0.5649 -0.2486
 7657SOL    HW134430   0.374   3.639  10.881 -0.8609 -0.8151 -0.0292
 7657SOL    HW234431   0.281   3.752  10.856 -0.2617 -0.6230  0.1641
 7658SOL     OW34432   0.554   3.704   1.014 -0.0058 -0.4025 -0.0528
 7658SOL    HW134433   0.472   3.666   0.982 -0.9524  0.6620  1.1182
 7658SOL    HW234434   0.598   3.630   1.055  0.3391 -0.7479 -1.0316
 7659SOL     OW34435   0.197   4.519   3.764 -0.1186 -0.6333  0.3957
 7659SOL    HW134436   0.214   4.612   3.773  0.4732 -0.5332 -1.7349
 7659SOL    HW234437   0.132   4.526   3.694  0.5480 -0.3210 -0.1891
 7660SOL     OW34438   2.838   4.718  11.201  0.0552 -0.1901 -0.0810
 7660SOL    HW134439   2.806   4.712  11.291 -0.7427  2.2666 -0.2116
 7660SOL    HW234440   2.933   4.719  11.212 -0.1140 -1.8651  1.5559
 7661SOL     OW34441   1.713   0.210  11.775  0.2722  0.5288  0.1189
 7661SOL    HW134442   1.730   0.298  11.740 -0.0420  0.8259  0.7153
 7661SOL    HW234443   1.753   0.146  11.717 -2.2293  0.3671 -1.4359
 7662SOL     OW34444   0.592   2.033  14.562  0.2097 -0.2544  0.3370
 7662SOL    HW134445   0.662   2.090  14.592  1.1401 -2.1903  1.8438
 7662SOL    HW234446   0.645   1.954  14.552 -1.7213 -1.3280 -1.6140
 7663SOL     OW34447   2.583   3.347   3.772  0.3975  0.0372 -0.6564
 7663SOL    HW134448   2.616   3.417   3.828 -1.6311 -0.6343  1.4134
 7663SOL    HW234449   2.496   3.340   3.811 -0.6338  1.3714 -2.6863
 7664SOL     OW34450   0.168   3.772   1.626  0.5534 -0.2201  0.2170
 7664SOL    HW134451   0.211   3.687   1.619  0.9962  0.0946 -0.8623
 7664SOL    HW234452   0.159   3.764   1.721  3.2206 -1.3399  0.3825
 7665SOL     OW34453   1.001   4.511   2.659 -0.0768  0.0317  0.1158
 7665SOL    HW134454   1.045   4.538   2.739  0.1203  0.8495 -0.2678
 7665SOL    HW234455   1.055   4.439   2.626  1.2873  0.5976  1.0791
 7666SOL     OW34456   1.576   3.431  16.114  0.1154  0.3914  0.0541
 7666SOL    HW134457   1.590   3.351  16.165  0.2797 -0.1480 -0.8387
 7666SOL    HW234458   1.511   3.403  16.049  0.0397 -0.7791  0.6297
 7667SOL     OW34459   2.675   1.870  14.492  0.0218  0.0128 -0.1270
 7667SOL    HW134460   2.669   1.907  14.580 -1.2909 -0.2539 -0.1052
 7667SOL    HW234461   2.585   1.884  14.464 -0.6460 -0.4307  1.8349
 7668SOL     OW34462   0.317   3.479   8.993  0.3953 -0.3444 -0.1194
 7668SOL    HW134463   0.235   3.521   8.966  0.1971  0.7047  2.1104
 7668SOL    HW234464   0.381   3.495   8.924  0.0389  1.8816  0.0632
 7669SOL     OW34465   4.664   1.429   2.709  0.0538  0.4752  0.3402
 7669SOL    HW134466   4.688   1.476   2.788 -0.2189  3.1751 -1.1639
 7669SOL    HW234467   4.615   1.508   2.683 -0.2678 -0.1334 -0.9283
 7670SOL     OW34468   1.418   2.056  13.739  0.2218  0.7639 -0.0865
 7670SOL    HW134469   1.504   2.098  13.735  0.7875 -0.1470  2.0725
 7670SOL    HW234470   1.365   2.126  13.777 -2.2753 -2.1410  1.8003
 7671SOL     OW34471   2.857   2.096   6.080  0.0265  0.3436 -0.0899
 7671SOL    HW134472   2.827   2.076   6.168  1.3981 -0.9764  0.0623
 7671SOL    HW234473   2.909   2.018   6.062 -0.0678  0.2499  0.0492
 7672SOL     OW34474   0.687   2.773  13.644 -0.0731  0.4654  0.8528
 7672SOL    HW134475   0.635   2.853  13.643 -0.3002  0.3210  1.0037
 7672SOL    HW234476   0.644   2.726  13.572  0.2730 -0.9654  1.5794
 7673SOL     OW34477   2.591   0.152   2.754  0.4627  0.3955  0.2568
 7673SOL    HW134478   2.539   0.074   2.737  1.5907 -0.1969 -0.4614
 7673SOL    HW234479   2.635   0.160   2.669  2.4772  1.0584  1.3674
 7674SOL     OW34480   1.226   4.580   8.133 -0.7379 -0.0129  0.4181
 7674SOL    HW134481   1.261   4.545   8.215  0.6179  0.7415  0.1723
 7674SOL    HW234482   1.201   4.669   8.156  0.4061  0.1346  1.0711
 7675SOL     OW34483   4.102   3.346  13.861  0.1958  0.5423  0.1755
 7675SOL    HW134484   4.140   3.260  13.844 -2.2918  0.0154 -2.8468
 7675SOL    HW234485   4.036   3.336  13.930  0.9868 -1.9035  0.5578
 7676SOL     OW34486   1.556   4.542  16.176 -0.2742 -0.2742 -0.1906
 7676SOL    HW134487   1.577   4.505  16.091 -1.5062  0.4309 -0.7906
 7676SOL    HW234488   1.604   4.625  16.181 -0.9639  0.1348 -0.2920
 7677SOL     OW34489   1.204   0.727   3.178  0.2807  0.3330 -0.1284
 7677SOL    HW134490   1.180   0.635   3.191 -0.1696  0.3616 -0.8257
 7677SOL    HW234491   1.121   0.757   3.143 -0.3058  2.4346  3.0447
 7678SOL     OW34492   4.056   4.604   6.362  0.2351  0.1984  0.6657
 7678SOL    HW134493   4.148   4.628   6.353  0.4113 -1.1796 -1.1747
 7678SOL    HW234494   4.019   4.691   6.377 -1.0393 -0.3015  0.3875
 7679SOL     OW34495   1.400   0.018   8.834  0.0645  0.4851  0.3378
 7679SOL    HW134496   1.445   0.007   8.750 -0.6154 -0.7549  0.1344
 7679SOL    HW234497   1.460   0.080   8.876  0.1856  0.6918 -0.1412
 7680SOL     OW34498   0.289   4.525   5.952 -0.0902  0.5817  0.3603
 7680SOL    HW134499   0.292   4.441   5.998 -1.3619  0.1584 -0.3107
 7680SOL    HW234500   0.327   4.585   6.017 -1.1789  0.3816  1.1869
 7681SOL     OW34501   3.645   2.234   8.545 -0.1032 -0.1340 -0.5715
 7681SOL    HW134502   3.563   2.211   8.502  0.2880 -1.4526 -0.6077
 7681SOL    HW234503   3.690   2.236   8.460  0.7227 -3.0682 -0.2023
 7682SOL     OW34504   0.547   1.397  10.229  0.1605  0.0089  0.2077
 7682SOL    HW134505   0.486   1.444  10.286 -1.1729 -1.4383 -0.0280
 7682SOL    HW234506   0.609   1.467  10.207  0.0114 -0.2980 -1.1950
 7683SOL     OW34507   4.540   3.066  17.380  0.1644 -0.0297  0.0239
 7683SOL    HW134508   4.588   3.143  17.349 -0.8333  0.8662  0.7248
 7683SOL    HW234509   4.467   3.104  17.429  0.2730  0.4166 -0.1632
 7684SOL     OW34510   0.938   3.395   1.101 -0.1451  0.0673  0.2016
 7684SOL    HW134511   1.004   3.420   1.166  0.8134 -1.8684 -0.0535
 7684SOL    HW234512   0.984   3.423   1.022 -2.5946 -0.5938 -1.4806
 7685SOL     OW34513   4.322   4.182  14.750  0.1521 -0.3447  0.3962
 7685SOL    HW134514   4.368   4.098  14.746  0.1150 -0.3576  0.2514
 7685SOL    HW234515   4.389   4.247  14.772  0.4620 -0.9134  1.1146
 7686SOL     OW34516   3.771   4.661   1.311  0.6419 -0.1562  0.2886
 7686SOL    HW134517   3.798   0.008   1.250  0.9201  1.2626  2.0443
 7686SOL    HW234518   3.852   4.641   1.358 -0.1130 -1.6998  0.9161
 7687SOL     OW34519   0.653   3.280   7.729 -0.0438  0.6672 -0.3214
 7687SOL    HW134520   0.677   3.333   7.804  0.9644  0.2275 -0.3244
 7687SOL    HW234521   0.721   3.306   7.666 -0.2786 -1.4131 -1.4603
 7688SOL     OW34522   2.307   0.806   3.271 -0.4931  0.1307 -0.2331
 7688SOL    HW134523   2.287   0.853   3.352  0.7874 -0.0393  0.1803
 7688SOL    HW234524   2.270   0.721   3.296 -3.4671  1.4813  0.0209
 7689SOL     OW34525   4.685   4.261   5.193  0.1811  0.2050  0.3232
 7689SOL    HW134526   4.627   4.220   5.128  2.3089 -0.2809 -1.2720
 7689SOL    HW234527   0.040   4.221   5.155 -0.8959 -0.9204 -0.7505
 7690SOL     OW34528   0.451   0.562   5.073  0.2175 -0.4540  0.1495
 7690SOL    HW134529   0.400   0.513   5.137 -0.4616 -1.5241 -1.2106
 7690SOL    HW234530   0.538   0.536   5.101 -0.0767 -0.2797  1.2251
 7691SOL     OW34531   3.877   1.404   2.863 -0.5429 -0.0490 -0.5623
 7691SOL    HW134532   3.890   1.345   2.938  0.7831 -0.1400 -0.8634
 7691SOL    HW234533   3.965   1.407   2.826 -0.8937  3.5188 -1.0595
 7692SOL     OW34534   2.641   4.161   2.088 -0.9457  0.5585  0.0171
 7692SOL    HW134535   2.629   4.123   2.175  1.2906  2.3512  1.1074
 7692SOL    HW234536   2.559   4.153   2.040  0.9777 -2.9365 -2.6969
 7693SOL     OW34537   0.545   3.560   8.205  0.1864 -0.0422 -0.0500
 7693SOL    HW134538   0.550   3.595   8.294 -2.4285  0.9089 -0.2641
 7693SOL    HW234539   0.556   3.640   8.153 -0.7645 -0.6214 -1.1468
 7694SOL     OW34540   3.310   3.622  11.069  0.1932  0.1812 -0.2097
 7694SOL    HW134541   3.319   3.706  11.024  1.1551  0.6002  0.7718
 7694SOL    HW234542   3.221   3.599  11.044  0.8070 -2.5282  0.1724
 7695SOL     OW34543   0.491   4.243   5.955 -0.6876 -0.0124  0.0353
 7695SOL    HW134544   0.574   4.202   5.931 -1.5947 -1.0946 -1.2762
 7695SOL    HW234545   0.424   4.210   5.895  0.8471  1.0942 -2.2931
 7696SOL     OW34546   1.571   3.769   9.170 -0.2662  0.0639  0.1923
 7696SOL    HW134547   1.478   3.756   9.152 -0.5160 -1.3902  2.5134
 7696SOL    HW234548   1.611   3.763   9.083  0.8114 -0.2218  0.7033
 7697SOL     OW34549   1.814   1.083   4.721  0.5343  0.4239 -0.1096
 7697SOL    HW134550   1.878   1.015   4.700 -0.9292 -1.1002  0.3697
 7697SOL    HW234551   1.761   1.073   4.642  0.4115 -0.8832  0.1525
 7698SOL     OW34552   1.724   0.451   7.455 -1.0893  0.3358 -0.1623
 7698SOL    HW134553   1.719   0.494   7.541  0.7510  1.1008 -0.4246
 7698SOL    HW234554   1.676   0.371   7.475  1.0641 -0.4905  1.7545
 7699SOL     OW34555   4.676   2.177  12.707  0.5944  0.0470 -0.1015
 7699SOL    HW134556   4.682   2.273  12.702 -2.5357  0.2346 -0.6020
 7699SOL    HW234557   4.671   2.167  12.802  1.6468  1.6564  0.1354
 7700SOL     OW34558   0.216   1.162  12.588 -0.1173 -0.1257  0.0007
 7700SOL    HW134559   0.265   1.239  12.616  0.5481 -1.2130  1.8358
 7700SOL    HW234560   0.252   1.158  12.499  1.2118 -1.3082  0.5811
 7701SOL     OW34561   3.833   1.949  17.254  0.4183  0.2581 -0.1813
 7701SOL    HW134562   3.861   1.860  17.234  1.8997  0.5431  0.6257
 7701SOL    HW234563   3.899   1.990  17.198  1.0033  0.0501  0.3519
 7702SOL     OW34564   3.037   1.289   2.541 -0.0647  0.1435  0.1447
 7702SOL    HW134565   3.061   1.222   2.477  3.2486  0.9065  0.6037
 7702SOL    HW234566   3.022   1.361   2.481  0.1331 -0.5210 -0.7045
 7703SOL     OW34567   2.817   1.331  11.054  0.4858 -0.2911 -0.1113
 7703SOL    HW134568   2.762   1.304  10.980 -2.6519 -1.0752  2.4976
 7703SOL    HW234569   2.826   1.248  11.100  0.4066 -0.8813 -1.1533
 7704SOL     OW34570   2.624   4.588   8.106 -0.1892 -0.2026  0.0582
 7704SOL    HW134571   2.685   4.594   8.179 -0.8727 -0.0735  0.6152
 7704SOL    HW234572   2.592   4.678   8.101  2.2742  0.7280  0.6771
 7705SOL     OW34573   4.436   3.255   7.648  0.0668 -0.1877  0.9230
 7705SOL    HW134574   4.379   3.322   7.685  0.4314  0.1862  0.8059
 7705SOL    HW234575   4.473   3.301   7.573  0.6331 -0.2933  1.1312
 7706SOL     OW34576   1.067   3.243   4.696  0.6017  0.4924 -0.3448
 7706SOL    HW134577   1.075   3.286   4.781 -0.5674 -0.1332  0.0913
 7706SOL    HW234578   1.017   3.167   4.727 -1.2886  1.4196 -1.1339
 7707SOL     OW34579   2.220   1.203  17.420  0.1540  0.5020  0.2734
 7707SOL    HW134580   2.301   1.152  17.421 -0.1673  0.0380  3.3095
 7707SOL    HW234581   2.149   1.138  17.429 -2.3635  3.4958  2.0661
 7708SOL     OW34582   0.697   1.970   5.903  0.0098  0.5162  0.2754
 7708SOL    HW134583   0.699   1.876   5.889 -1.1164  0.4015  0.8985
 7708SOL    HW234584   0.793   1.976   5.904  0.0060  1.0085 -1.5922
 7709SOL     OW34585   0.979   1.055   7.793 -0.3509 -0.7275  0.4352
 7709SOL    HW134586   0.891   1.083   7.770 -0.0155 -1.3659 -1.5979
 7709SOL    HW234587   1.022   1.059   7.708  0.6467  0.2167  0.9795
 7710SOL     OW34588   3.806   3.303   1.585 -0.0297 -0.7897  0.0234
 7710SOL    HW134589   3.785   3.343   1.670 -0.7219  0.5388 -0.7664
 7710SOL    HW234590   3.888   3.344   1.558 -0.1713  0.8394  2.0176
 7711SOL     OW34591   4.473   3.151   4.569  0.1734 -0.3966  0.0051
 7711SOL    HW134592   4.455   3.237   4.532  0.0608  0.4712  2.0538
 7711SOL    HW234593   4.386   3.133   4.605  1.1133 -1.9401  1.5037
 7712SOL     OW34594   1.035   2.120   6.891  0.1566  0.3927 -0.2706
 7712SOL    HW134595   0.968   2.057   6.920  2.2820 -2.4665 -1.5076
 7712SOL    HW234596   1.018   2.117   6.797  2.1307 -0.6208 -0.6080
 7713SOL     OW34597   2.293   4.616  16.166  0.3431 -0.1999 -0.0827
 7713SOL    HW134598   2.327   4.705  16.159  1.1792 -0.5435 -0.5247
 7713SOL    HW234599   2.340   4.575  16.093  0.8271 -1.5778  0.9887
 7714SOL     OW34600   0.183   3.335   1.759 -0.4580 -0.4887 -0.2431
 7714SOL    HW134601   0.273   3.304   1.755 -0.6501 -1.2005  0.9237
 7714SOL    HW234602   0.164   3.354   1.851  0.6894 -1.3350  0.1651
 7715SOL     OW34603   1.227   0.527   7.236  0.1153  0.5990 -0.1369
 7715SOL    HW134604   1.211   0.438   7.205 -0.3901  0.3148  0.9600
 7715SOL    HW234605   1.144   0.545   7.279  1.1921 -1.0535  2.6677
 7716SOL     OW34606   4.193   2.270  13.231 -0.1061  0.9219 -0.2237
 7716SOL    HW134607   4.208   2.176  13.241  1.3147  1.1798 -0.0077
 7716SOL    HW234608   4.276   2.300  13.195  0.9264 -0.0811  1.3409
 7717SOL     OW34609   0.046   4.485   5.692  0.0101 -0.3569  0.0547
 7717SOL    HW134610   0.020   4.574   5.671 -0.4437 -0.8023 -1.2669
 7717SOL    HW234611   0.124   4.499   5.746 -1.0076  1.3530  1.0589
 7718SOL     OW34612   2.557   1.175   6.376  0.0999 -0.6108 -0.4529
 7718SOL    HW134613   2.623   1.106   6.377 -0.9967 -1.6413  0.6573
 7718SOL    HW234614   2.618   1.238   6.337 -2.1946  0.9904 -1.4825
 7719SOL     OW34615   0.317   1.872   2.562 -0.3936 -0.5789 -0.2438
 7719SOL    HW134616   0.319   1.968   2.558 -1.6504 -0.6199 -2.1120
 7719SOL    HW234617   0.408   1.846   2.553 -0.6588 -0.8114 -2.1659
 7720SOL     OW34618   0.531   4.553  14.469  0.2164  0.6186 -0.2143
 7720SOL    HW134619   0.503   4.622  14.529 -0.6360  0.4271 -0.3837
 7720SOL    HW234620   0.542   4.488  14.538  1.4001 -0.4706 -1.4389
 7721SOL     OW34621   0.031   0.542   2.354 -0.5009  0.2071 -0.1134
 7721SOL    HW134622   4.683   0.548   2.290  1.8784  0.8599 -2.6735
 7721SOL    HW234623   0.109   0.529   2.300 -0.1765 -0.3010  0.4827
 7722SOL     OW34624   0.862   3.995   3.682 -0.3921  0.2969 -0.8085
 7722SOL    HW134625   0.917   4.047   3.741 -0.8918 -1.1171  0.8821
 7722SOL    HW234626   0.931   3.947   3.636 -0.4655  0.4070 -1.0313
 7723SOL     OW34627   1.732   2.442   6.723  0.1522 -0.0221  1.0187
 7723SOL    HW134628   1.729   2.532   6.756  3.0301  0.7726 -0.9558
 7723SOL    HW234629   1.656   2.448   6.664  0.4564 -0.4080  0.5913
 7724SOL     OW34630   1.101   4.187  10.586 -0.4860  0.0844 -0.5648
 7724SOL    HW134631   1.124   4.269  10.542 -0.0732 -0.5619 -1.5491
 7724SOL    HW234632   1.176   4.138  10.553  0.0947  1.9903 -2.0941
 7725SOL     OW34633   2.679   2.689   4.483 -0.1604  0.0715 -0.1939
 7725SOL    HW134634   2.663   2.595   4.489 -1.0254  0.2005 -0.4948
 7725SOL    HW234635   2.696   2.704   4.390  2.2121 -0.3063  0.1932
 7726SOL     OW34636   2.683   4.046   2.623  0.6486 -0.3687  0.1838
 7726SOL    HW134637   2.770   4.009   2.609 -0.1296 -2.2500  0.2858
 7726SOL    HW234638   2.692   4.121   2.564  0.9325 -1.3456 -1.0237
 7727SOL     OW34639   0.483   1.717  10.208 -0.2554 -0.2730 -0.1671
 7727SOL    HW134640   0.420   1.697  10.277  0.7455 -1.1784  0.4687
 7727SOL    HW234641   0.432   1.701  10.129 -0.7492 -0.7793  0.2570
 7728SOL     OW34642   3.836   3.346   6.511 -0.1512  0.1431 -0.4449
 7728SOL    HW134643   3.824   3.347   6.416 -0.1234  0.0529 -0.4498
 7728SOL    HW234644   3.793   3.426   6.542 -0.6638 -1.1363  2.1504
 7729SOL     OW34645   2.917   1.548  10.948 -0.0284 -0.0846 -0.0712
 7729SOL    HW134646   2.890   1.465  10.988 -2.0571  0.3032 -0.6431
 7729SOL    HW234647   2.959   1.586  11.025 -1.0363 -0.0974  0.4825
 7730SOL     OW34648   1.381   0.889  10.906  0.3990  0.2946 -0.0918
 7730SOL    HW134649   1.475   0.891  10.924  0.4417 -0.2737 -0.2463
 7730SOL    HW234650   1.368   0.816  10.846  0.0295  1.2938 -1.2239
 7731SOL     OW34651   0.354   2.482   6.326  0.4519  0.4279  0.3635
 7731SOL    HW134652   0.387   2.416   6.387  1.2064 -0.0368 -0.5434
 7731SOL    HW234653   0.283   2.520   6.378  0.4302  1.2192 -0.2389
 7732SOL     OW34654   3.419   0.762  14.635 -0.4611 -0.2418  0.3934
 7732SOL    HW134655   3.382   0.674  14.640  0.9120 -0.8587 -0.2829
 7732SOL    HW234656   3.514   0.747  14.642 -0.2561  0.1104 -1.6278
 7733SOL     OW34657   2.843   2.409   2.696  0.0627 -0.1825 -0.1325
 7733SOL    HW134658   2.923   2.389   2.745  0.6374 -0.7212 -1.2797
 7733SOL    HW234659   2.785   2.452   2.758 -2.1912 -0.3232 -2.1639
 7734SOL     OW34660   1.771   1.965  12.608  0.3116  0.1101  0.3960
 7734SOL    HW134661   1.686   1.972  12.563  1.8197 -1.8728 -2.8080
 7734SOL    HW234662   1.742   1.925  12.690 -1.7664 -0.3396 -0.5447
 7735SOL     OW34663   4.642   2.710  12.529  0.0933  0.4193 -0.0103
 7735SOL    HW134664   4.594   2.653  12.470 -0.1726 -0.6041  1.1888
 7735SOL    HW234665   4.718   2.728  12.475 -0.4545  2.6093 -0.0541
 7736SOL     OW34666   0.198   3.682   7.578  0.0622  0.2861 -0.1721
 7736SOL    HW134667   0.139   3.667   7.651 -2.4556  1.5062 -1.9551
 7736SOL    HW234668   0.282   3.692   7.623  0.1774 -0.4231 -0.2340
 7737SOL     OW34669   0.202   2.041   5.537  0.0154  0.1968  0.4649
 7737SOL    HW134670   0.292   2.012   5.555  0.2791  0.3506 -0.6230
 7737SOL    HW234671   0.167   2.091   5.611  1.8742  1.2117  0.6631
 7738SOL     OW34672   2.566   0.144   6.199  0.2141  0.8727 -0.5238
 7738SOL    HW134673   2.495   0.192   6.158 -0.7625 -1.2931 -1.3883
 7738SOL    HW234674   2.646   0.195   6.206  1.2358 -0.8021  0.1785
 7739SOL     OW34675   1.911   0.054   5.048  0.0757 -0.4204  0.1319
 7739SOL    HW134676   1.988   0.019   5.092  0.2832  0.6546  0.6402
 7739SOL    HW234677   1.848   4.706   5.058  0.7534 -1.2402 -1.5130
 7740SOL     OW34678   0.291   4.360   8.203 -0.4411  0.4575  0.2776
 7740SOL    HW134679   0.239   4.303   8.147 -0.4598  1.5019 -0.7782
 7740SOL    HW234680   0.254   4.443   8.173 -1.0964  0.0044 -0.1668
 7741SOL     OW34681   0.418   4.418   6.366  0.1621  0.3608  0.0564
 7741SOL    HW134682   0.491   4.440   6.423 -0.3696  2.2585  0.0312
 7741SOL    HW234683   0.351   4.474   6.407  0.7180  0.8240  0.3255
 7742SOL     OW34684   2.868   2.927   2.713 -0.0715  0.1139 -0.0488
 7742SOL    HW134685   2.911   3.012   2.703  1.8517 -0.5712  2.2699
 7742SOL    HW234686   2.901   2.915   2.802 -2.1258  0.8095  0.8033
 7743SOL     OW34687   4.091   2.436   9.051 -0.2156 -0.2724 -0.3524
 7743SOL    HW134688   4.054   2.524   9.042 -0.9817 -0.4699  0.8086
 7743SOL    HW234689   4.104   2.434   9.146 -0.2527 -1.2498 -0.3669
 7744SOL     OW34690   0.691   2.007   2.195 -0.7117  0.7711  0.4387
 7744SOL    HW134691   0.659   2.038   2.110  1.1055  0.6148 -0.2930
 7744SOL    HW234692   0.652   2.072   2.254  0.5706  1.0650  0.9760
 7745SOL     OW34693   3.475   0.136  12.286 -0.2254 -0.5352 -0.8499
 7745SOL    HW134694   3.569   0.134  12.265 -0.6404  0.9336 -2.8674
 7745SOL    HW234695   3.432   0.087  12.216 -0.8258 -1.0202 -0.1399
 7746SOL     OW34696   2.960   1.395  12.701 -0.1003  0.4611  0.4445
 7746SOL    HW134697   3.055   1.402  12.687  0.0379 -0.8142  0.7811
 7746SOL    HW234698   2.934   1.455  12.631 -1.3780  0.4412  0.9068
 7747SOL     OW34699   3.448   2.317   7.900 -0.9771 -0.1156 -0.2764
 7747SOL    HW134700   3.394   2.292   7.826 -0.1289 -0.7641 -0.6745
 7747SOL    HW234701   3.538   2.291   7.882 -1.7879 -0.8787 -3.1664
 7748SOL     OW34702   3.350   4.162   3.600  0.3172  0.1384  0.0517
 7748SOL    HW134703   3.270   4.154   3.549  0.8133 -0.9584 -0.5611
 7748SOL    HW234704   3.415   4.142   3.532  0.4515 -1.2991  0.6078
 7749SOL     OW34705   2.224   4.146   3.078 -1.1450  0.4192 -0.4909
 7749SOL    HW134706   2.251   4.115   3.164  0.4692 -0.5285 -1.3360
 7749SOL    HW234707   2.279   4.224   3.070  0.3607 -0.5254  0.6531
 7750SOL     OW34708   1.791   2.052   4.075  0.7878 -0.0008 -0.1784
 7750SOL    HW134709   1.701   2.034   4.048  0.5097  1.3303 -0.0990
 7750SOL    HW234710   1.783   2.026   4.167 -2.1613 -0.8524 -0.6824
 7751SOL     OW34711   3.484   1.380   5.221 -0.4628  0.1159 -0.0366
 7751SOL    HW134712   3.552   1.446   5.238  2.3257 -2.5291 -0.7939
 7751SOL    HW234713   3.515   1.340   5.140  0.4008 -1.4397  1.0405
 7752SOL     OW34714   1.788   3.681   5.208  0.6458  0.2087 -0.1869
 7752SOL    HW134715   1.766   3.764   5.166 -0.5392  0.3831  0.7688
 7752SOL    HW234716   1.710   3.658   5.258  0.4234  0.9124 -0.2163
 7753SOL     OW34717   2.508   1.868   8.137 -0.4933  0.0418  0.2935
 7753SOL    HW134718   2.502   1.777   8.108  0.9681  0.5421 -1.6041
 7753SOL    HW234719   2.585   1.862   8.193  0.7477  4.0118 -0.9763
 7754SOL     OW34720   0.211   4.212  17.163  0.0183  0.1501  0.3893
 7754SOL    HW134721   0.146   4.142  17.151 -0.3615  0.3493  1.2440
 7754SOL    HW234722   0.163   4.285  17.123  0.0263  0.0610  0.2183
 7755SOL     OW34723   0.529   4.150   2.308 -0.6578 -0.8479  0.2215
 7755SOL    HW134724   0.440   4.184   2.297  0.0689  1.5186  1.6409
 7755SOL    HW234725   0.528   4.071   2.254 -0.1896 -0.6651 -0.0566
 7756SOL     OW34726   0.249   1.811   6.080 -0.3729 -0.0424  0.1533
 7756SOL    HW134727   0.241   1.745   6.149 -0.5415 -1.2199 -1.0079
 7756SOL    HW234728   0.344   1.814   6.071 -0.1108 -2.2628  2.2994
 7757SOL     OW34729   0.611   1.591   9.150 -0.1030 -0.0656 -0.1420
 7757SOL    HW134730   0.560   1.651   9.096  0.2018 -0.6232 -1.0393
 7757SOL    HW234731   0.545   1.522   9.145  1.2920 -1.2721 -2.1067
 7758SOL     OW34732   4.707   0.932   1.516 -0.5340  0.5753  0.5369
 7758SOL    HW134733   4.680   1.015   1.555 -0.1149  1.1894 -0.4563
 7758SOL    HW234734   4.675   0.868   1.579 -0.6457 -1.7631 -1.8759
 7759SOL     OW34735   1.665   1.058   1.541  0.0417 -0.7505 -0.3853
 7759SOL    HW134736   1.666   0.972   1.583 -2.3502 -1.0634 -0.9415
 7759SOL    HW234737   1.583   1.055   1.492 -0.3484  0.0315  0.2182
 7760SOL     OW34738   1.032   0.979   2.728  0.3219 -0.6161 -0.3536
 7760SOL    HW134739   1.015   0.899   2.679 -1.0606 -0.4120 -0.2205
 7760SOL    HW234740   1.116   0.966   2.771  0.2313 -1.7872 -0.5284
 7761SOL     OW34741   1.392   1.585  15.446  0.2898 -0.3460  0.4060
 7761SOL    HW134742   1.434   1.507  15.481  2.1642 -0.7036 -2.6593
 7761SOL    HW234743   1.301   1.561  15.466  1.1489 -1.2717  3.2420
 7762SOL     OW34744   0.251   1.828   3.363 -0.6479  0.2404  0.1965
 7762SOL    HW134745   0.322   1.866   3.414 -0.5301 -0.7296  0.7498
 7762SOL    HW234746   0.206   1.769   3.423 -0.5292 -0.6090 -0.5523
 7763SOL     OW34747   0.400   2.026   7.541 -0.5924 -0.1327  0.6471
 7763SOL    HW134748   0.358   2.085   7.604 -0.6999 -1.1314  1.4982
 7763SOL    HW234749   0.490   2.041   7.571 -0.0129 -0.7508 -0.8089
 7764SOL     OW34750   4.089   0.334  17.410 -0.3927  0.0035  0.2866
 7764SOL    HW134751   4.041   0.407  17.371  1.3210  1.7007  1.3432
 7764SOL    HW234752   4.182   0.357  17.401 -0.2630  0.0707  1.8242
 7765SOL     OW34753   4.572   1.227   4.254 -0.3205 -0.0512 -0.1078
 7765SOL    HW134754   4.520   1.291   4.303  1.0066  0.0492  1.1652
 7765SOL    HW234755   4.655   1.274   4.251 -0.9936  1.0920 -0.9157
 7766SOL     OW34756   1.460   3.206   4.035 -0.6549 -0.1061  0.0230
 7766SOL    HW134757   1.518   3.277   4.063 -0.0291 -0.1517 -1.1711
 7766SOL    HW234758   1.519   3.132   4.053 -0.9421 -0.0422  1.2413
 7767SOL     OW34759   0.503   4.709   4.452  0.0165  0.5794 -0.0110
 7767SOL    HW134760   0.591   0.005   4.419 -0.4273  0.1723 -1.4448
 7767SOL    HW234761   0.468   4.662   4.376 -0.2672  0.9559 -0.1137
 7768SOL     OW34762   1.876   1.992   3.783  0.0442 -0.1962 -0.3741
 7768SOL    HW134763   1.820   1.923   3.747 -1.4192  1.3649 -1.0569
 7768SOL    HW234764   1.842   1.987   3.872 -0.9517  1.6445 -0.6637
 7769SOL     OW34765   2.294   1.309   3.270  0.1488  0.6995 -0.2793
 7769SOL    HW134766   2.325   1.226   3.305  0.8244  1.5048  1.0630
 7769SOL    HW234767   2.283   1.356   3.353  0.9946 -0.0013  0.2300
 7770SOL     OW34768   4.528   4.084  16.309 -0.4985  0.4134  0.2926
 7770SOL    HW134769   4.597   4.042  16.361  1.3581  1.0171 -1.6877
 7770SOL    HW234770   4.442   4.069  16.348 -0.8262 -0.7313 -0.8589
 7771SOL     OW34771   2.688   2.424   5.975 -0.0704 -0.2587  0.2629
 7771SOL    HW134772   2.695   2.329   5.966 -0.8597 -0.3145  0.2184
 7771SOL    HW234773   2.595   2.433   5.953 -0.1656 -1.2094  0.3123
 7772SOL     OW34774   4.689   0.322   6.936  0.6122 -0.2432 -0.9526
 7772SOL    HW134775   4.642   0.266   6.997 -2.2280  1.2444 -1.7417
 7772SOL    HW234776   4.723   0.253   6.879  2.4239 -0.7916  0.8173
 7773SOL     OW34777   2.793   2.068   4.273  0.4025 -0.0144  0.2356
 7773SOL    HW134778   2.870   2.029   4.231  0.1988 -1.1990  0.9520
 7773SOL    HW234779   2.728   2.018   4.224 -1.5413  2.1980  0.5657
 7774SOL     OW34780   0.135   4.698   6.321 -0.0580  0.2136  0.4893
 7774SOL    HW134781   0.082   4.634   6.273  0.2871  0.0508  0.3149
 7774SOL    HW234782   0.164   4.653   6.401 -2.5337 -0.3298  1.0577
 7775SOL     OW34783   3.188   0.396   6.201  0.0498 -0.2202 -0.0958
 7775SOL    HW134784   3.206   0.472   6.144  0.7169  0.1406  0.6003
 7775SOL    HW234785   3.125   0.422   6.269  2.5461  1.7272  1.4734
 7776SOL     OW34786   3.812   2.575   8.057 -0.0605  0.0665 -0.1594
 7776SOL    HW134787   3.862   2.631   7.997  0.6061  1.1901  1.4533
 7776SOL    HW234788   3.728   2.615   8.034  0.7747  2.0306  0.2093
 7777SOL     OW34789   1.773   2.657   2.990  0.4927  0.0367 -0.3588
 7777SOL    HW134790   1.802   2.706   2.913  1.3526 -0.6690 -0.4683
 7777SOL    HW234791   1.720   2.589   2.949  0.5103  0.8000 -1.6594
 7778SOL     OW34792   1.656   0.942   7.750  0.3881  0.0115  0.4889
 7778SOL    HW134793   1.720   0.956   7.681  0.6191 -0.0035  0.7007
 7778SOL    HW234794   1.693   0.998   7.819 -0.4218  1.6023 -0.3559
 7779SOL     OW34795   4.503   1.606   7.809  0.1568  0.3357  0.1641
 7779SOL    HW134796   4.458   1.658   7.875  1.5872  0.2531  1.1930
 7779SOL    HW234797   4.570   1.672   7.793 -0.6840  1.0938 -0.2825
 7780SOL     OW34798   4.524   4.004  13.026  0.3867 -0.1622  0.4766
 7780SOL    HW134799   4.617   3.998  13.003  0.3964 -0.8479  0.6830
 7780SOL    HW234800   4.520   4.099  13.018 -4.1026 -0.3188  1.0715
 7781SOL     OW34801   2.611   1.578   3.812 -0.2356 -0.4551 -0.1264
 7781SOL    HW134802   2.641   1.663   3.781  1.7318 -0.4043  1.9943
 7781SOL    HW234803   2.629   1.526   3.733  2.2355  2.0949 -1.2541
 7782SOL     OW34804   1.794   0.607   2.986 -0.1459 -0.9488  0.3204
 7782SOL    HW134805   1.826   0.687   2.943 -2.6936  0.4957  1.1208
 7782SOL    HW234806   1.864   0.592   3.049  0.3697 -0.0332 -0.0382
 7783SOL     OW34807   0.624   4.587  11.587 -0.1116  0.2558 -0.3577
 7783SOL    HW134808   0.626   4.640  11.508  4.4453 -0.8337 -1.0149
 7783SOL    HW234809   0.693   4.522  11.573  2.4718  3.0544 -0.7327
 7784SOL     OW34810   2.181   3.538   2.242 -0.0862 -0.4387  0.5145
 7784SOL    HW134811   2.136   3.604   2.189  0.0446 -0.3584  0.5015
 7784SOL    HW234812   2.273   3.554   2.219  0.0468  0.1998  1.4721
 7785SOL     OW34813   4.719   2.510   3.616  0.2313  0.1672 -0.7104
 7785SOL    HW134814   0.042   2.429   3.636 -0.6405  0.0749  0.9943
 7785SOL    HW234815   4.647   2.487   3.557 -0.3563 -2.6351  1.1076
 7786SOL     OW34816   2.792   3.284   5.173 -0.2781 -0.7354  0.0345
 7786SOL    HW134817   2.811   3.278   5.080  1.3138  1.7798  0.1970
 7786SOL    HW234818   2.699   3.302   5.179  0.3553  1.7779  2.4396
 7787SOL     OW34819   0.140   2.910   0.224 -0.1053 -0.3866  0.0144
 7787SOL    HW134820   0.192   2.908   0.143 -0.5683  2.1096 -0.3558
 7787SOL    HW234821   0.176   2.980   0.279 -0.1850 -1.3654  1.2995
 7788SOL     OW34822   3.637   0.853   3.533  0.2708 -0.0654 -0.5039
 7788SOL    HW134823   3.692   0.854   3.612 -0.0937  1.7821 -0.2663
 7788SOL    HW234824   3.597   0.767   3.523  1.2522 -0.4849 -0.8507
 7789SOL     OW34825   2.030   0.729   2.594 -0.3563  0.8383 -0.1772
 7789SOL    HW134826   1.981   0.763   2.520  0.2664  0.8349 -0.5957
 7789SOL    HW234827   1.973   0.663   2.633  2.2097  0.3499  2.7777
 7790SOL     OW34828   2.281   1.476  12.807  0.3254  0.3299  0.1852
 7790SOL    HW134829   2.312   1.399  12.856 -1.4005 -1.2589 -1.2184
 7790SOL    HW234830   2.272   1.549  12.869  2.0062  1.8398 -1.3673
 7791SOL     OW34831   2.040   0.637   4.385 -0.3238  0.3242  0.4658
 7791SOL    HW134832   1.989   0.562   4.356  0.2847 -0.4937  1.4788
 7791SOL    HW234833   2.110   0.603   4.441 -0.1308  0.4594  0.3103
 7792SOL     OW34834   0.761   0.974   0.019 -0.3863  0.4518 -0.0631
 7792SOL    HW134835   0.691   0.970   0.084 -0.3342 -2.2253 -0.1580
 7792SOL    HW234836   0.727   0.918  17.644 -1.6685  2.4878 -1.0445
 7793SOL     OW34837   3.760   1.580   7.199  0.3212  0.1504  0.0031
 7793SOL    HW134838   3.676   1.583   7.153 -1.7690 -0.2520  3.8018
 7793SOL    HW234839   3.808   1.509   7.157  2.4928  1.7813 -0.2412
 7794SOL     OW34840   2.049   2.455   3.298 -0.2108  0.1677 -0.6669
 7794SOL    HW134841   2.092   2.538   3.279 -0.7397  0.4382 -0.6647
 7794SOL    HW234842   1.966   2.487   3.331 -0.8589 -2.4473  0.2493
 7795SOL     OW34843   2.984   0.127   5.623  0.5927 -0.4202  0.4463
 7795SOL    HW134844   3.069   0.088   5.645  0.0759 -2.1697 -0.6565
 7795SOL    HW234845   2.932   0.108   5.701 -0.1430 -0.1925  0.0090
 7796SOL     OW34846   1.977   1.998   9.579  0.1867 -1.1534  0.6251
 7796SOL    HW134847   1.986   2.045   9.496  0.8248 -0.4053  1.1083
 7796SOL    HW234848   2.009   2.065   9.640  1.1966 -0.7567 -0.3417
 7797SOL     OW34849   1.962   2.495  12.139 -0.2667 -0.2208 -0.1004
 7797SOL    HW134850   1.983   2.447  12.219  1.9510  0.4252 -0.2920
 7797SOL    HW234851   1.871   2.470  12.123  0.4434 -2.2751 -1.0446
 7798SOL     OW34852   4.305   2.211  12.817 -0.7337 -0.7030 -0.0516
 7798SOL    HW134853   4.326   2.290  12.766  0.7568  1.4383  3.8831
 7798SOL    HW234854   4.311   2.256  12.901  1.5829  0.1628 -0.6819
 7799SOL     OW34855   3.741   4.132   9.100  0.7328 -0.1231 -0.1868
 7799SOL    HW134856   3.707   4.086   9.023 -0.0620 -0.2594  0.2486
 7799SOL    HW234857   3.672   4.190   9.135  1.5576  0.6351  0.1969
 7800SOL     OW34858   1.837   4.171   9.755  0.7291  0.2810 -0.4906
 7800SOL    HW134859   1.780   4.099   9.728  2.4365 -1.0743 -0.5085
 7800SOL    HW234860   1.814   4.230   9.684 -2.6208 -0.7522 -0.2946
 7801SOL     OW34861   1.068   1.147   3.218 -0.3499 -0.6694  0.3110
 7801SOL    HW134862   1.070   1.065   3.267  1.7697 -0.7136  0.1552
 7801SOL    HW234863   1.084   1.120   3.128 -0.0166  1.6610 -0.3299
 7802SOL     OW34864   1.965   4.451  17.042  0.2508 -0.8290  0.0061
 7802SOL    HW134865   1.992   4.536  17.077  1.2544 -0.2448 -2.2113
 7802SOL    HW234866   1.885   4.489  17.005 -0.5186 -1.3711  1.1114
 7803SOL     OW34867   2.599   0.488   9.331 -0.2442  0.3206  0.1302
 7803SOL    HW134868   2.550   0.442   9.264  1.4708 -1.6877  0.2353
 7803SOL    HW234869   2.550   0.570   9.331  0.2109  0.5856 -0.8246
 7804SOL     OW34870   1.031   4.560  12.217 -0.2501  0.7731 -0.5491
 7804SOL    HW134871   1.015   4.577  12.124  0.6829 -1.3017 -1.0964
 7804SOL    HW234872   0.962   4.612  12.258  2.3880  1.6740  2.7121
 7805SOL     OW34873   3.676   1.157   9.535  0.9378 -0.2337  0.2289
 7805SOL    HW134874   3.623   1.088   9.498 -0.1782  1.1299 -0.7179
 7805SOL    HW234875   3.636   1.162   9.621  0.4890 -0.9292  0.0550
 7806SOL     OW34876   3.159   3.853   5.507 -0.0489 -0.1326 -0.0205
 7806SOL    HW134877   3.070   3.888   5.498 -0.1462 -0.8841 -1.9884
 7806SOL    HW234878   3.187   3.815   5.423 -0.4148 -1.3089  0.3823
 7807SOL     OW34879   2.440   3.039   8.181 -0.0967  0.1856 -1.2272
 7807SOL    HW134880   2.524   2.998   8.201 -1.3030 -1.5800  0.2988
 7807SOL    HW234881   2.449   3.065   8.090  1.6860  0.7956 -0.8658
 7808SOL     OW34882   0.478   2.180  16.073 -0.6156  0.0341 -0.1988
 7808SOL    HW134883   0.457   2.087  16.076 -0.7702  0.0799  0.1036
 7808SOL    HW234884   0.565   2.179  16.033 -1.5933  0.1446 -2.3712
 7809SOL     OW34885   0.731   1.923   6.879 -0.2021  0.1761 -0.0043
 7809SOL    HW134886   0.640   1.933   6.853  0.4269  4.6371 -0.4645
 7809SOL    HW234887   0.711   1.942   6.971  1.3999 -0.2903  0.4533
 7810SOL     OW34888   1.288   4.703  14.572 -0.1928  0.1409  0.0406
 7810SOL    HW134889   1.237   0.007  14.496  4.4187 -0.8800 -3.4543
 7810SOL    HW234890   1.279   0.057  14.627 -0.3890  0.4588 -0.4406
 7811SOL     OW34891   4.316   1.592   0.598  0.4763  0.1187 -0.5318
 7811SOL    HW134892   4.369   1.668   0.621 -0.3120  0.4793  0.1062
 7811SOL    HW234893   4.230   1.633   0.594 -0.5391 -1.9397  0.0328
 7812SOL     OW34894   1.335   2.792   7.025  0.3796 -1.0620  0.3972
 7812SOL    HW134895   1.304   2.876   6.991  0.8365 -2.0288 -2.3988
 7812SOL    HW234896   1.411   2.823   7.075  1.7982 -1.9913 -1.2020
 7813SOL     OW34897   4.372   4.236   8.503 -0.0658 -0.4079 -0.1027
 7813SOL    HW134898   4.308   4.255   8.435 -2.9351  1.7284  3.1939
 7813SOL    HW234899   4.395   4.327   8.521  0.7337 -0.7921  0.8099
 7814SOL     OW34900   1.779   3.236   6.818 -0.0226  0.0054 -0.2439
 7814SOL    HW134901   1.704   3.294   6.817 -0.8254 -1.0353 -0.3874
 7814SOL    HW234902   1.730   3.162   6.783  0.5562 -0.3200 -0.3766
 7815SOL     OW34903   3.693   3.264   4.254  0.4142 -0.2698  0.2809
 7815SOL    HW134904   3.729   3.349   4.229  0.8423 -1.6667 -3.8483
 7815SOL    HW234905   3.673   3.226   4.169  0.9938 -0.9744  0.4508
 7816SOL     OW34906   4.075   1.685   6.807 -0.0369  0.3396 -0.0785
 7816SOL    HW134907   4.035   1.655   6.725 -1.0260  2.0931 -0.2447
 7816SOL    HW234908   4.025   1.637   6.874 -4.6210  1.5020 -2.7021
 7817SOL     OW34909   3.642   0.639   2.414  0.4888 -0.0022  0.2322
 7817SOL    HW134910   3.686   0.662   2.333 -1.1553 -0.9485 -0.9122
 7817SOL    HW234911   3.596   0.719   2.438 -1.4248 -0.4912 -1.8575
 7818SOL     OW34912   3.611   1.604   8.949 -0.3578  0.0932 -0.4182
 7818SOL    HW134913   3.692   1.655   8.952 -0.0931 -0.1728 -2.8379
 7818SOL    HW234914   3.565   1.646   8.876  0.8354  1.7677 -0.2055
 7819SOL     OW34915   3.108   2.651   0.915  0.0046  0.2815  0.3648
 7819SOL    HW134916   3.136   2.653   1.007  1.0016  0.7419  0.0588
 7819SOL    HW234917   3.076   2.562   0.903 -0.6043  0.3379  1.6074
 7820SOL     OW34918   3.690   4.154   7.691 -0.2127 -0.1072  0.2582
 7820SOL    HW134919   3.719   4.084   7.633  1.3120  1.3386 -0.6976
 7820SOL    HW234920   3.603   4.174   7.655  0.3511  3.2437  0.7385
 7821SOL     OW34921   1.886   0.007   2.035  0.3715 -0.3777  0.9875
 7821SOL    HW134922   1.795   4.707   2.014  0.2136  0.1149  1.1285
 7821SOL    HW234923   1.923   4.644   2.017  2.4506  1.0610 -1.7864
 7822SOL     OW34924   0.394   3.277   5.022  0.3116  0.2734 -0.2262
 7822SOL    HW134925   0.411   3.238   5.108  0.9576 -0.0693 -0.5028
 7822SOL    HW234926   0.429   3.365   5.032  0.4570  0.1201  0.5732
 7823SOL     OW34927   3.106   3.234   3.950 -0.4337  0.3806  0.2902
 7823SOL    HW134928   3.088   3.326   3.966 -2.8110 -0.1951  0.9197
 7823SOL    HW234929   3.084   3.196   4.035 -1.0122  0.6513  0.2632
 7824SOL     OW34930   4.626   2.333  11.987 -0.2629 -0.3799  0.1631
 7824SOL    HW134931   4.638   2.312  12.080 -1.8657  1.1839  0.7222
 7824SOL    HW234932   4.558   2.267  11.975 -1.9269  1.4318 -0.2461
 7825SOL     OW34933   2.177   3.718  16.592 -0.2623 -0.1532  0.1238
 7825SOL    HW134934   2.143   3.638  16.552  1.1589  0.0792 -1.5444
 7825SOL    HW234935   2.155   3.706  16.685  0.7601 -0.1022  0.3723
 7826SOL     OW34936   2.223   0.238   7.965  0.1741  0.0211  0.1709
 7826SOL    HW134937   2.315   0.229   7.940  0.1129  2.3450 -0.8870
 7826SOL    HW234938   2.235   0.252   8.059 -0.5657 -0.3425  0.3175
 7827SOL     OW34939   2.642   0.305   0.826 -0.0168 -0.3544 -0.4964
 7827SOL    HW134940   2.645   0.363   0.750  1.6690  0.1959  0.0041
 7827SOL    HW234941   2.721   0.255   0.804  0.3005 -0.6970  1.4124
 7828SOL     OW34942   3.937   0.135   3.178 -0.0850 -0.1454  0.4391
 7828SOL    HW134943   3.920   0.119   3.086  1.6962  1.6573 -0.2006
 7828SOL    HW234944   4.018   0.185   3.175  0.2626 -0.7712 -0.4590
 7829SOL     OW34945   2.947   1.847   2.026 -0.1192  0.4792 -0.1764
 7829SOL    HW134946   3.001   1.844   1.947 -0.2822  0.6896 -0.2953
 7829SOL    HW234947   3.014   1.877   2.088 -3.5669  3.8203  1.9563
 7830SOL     OW34948   1.192   1.648   2.486  0.4345  0.0549  0.0854
 7830SOL    HW134949   1.261   1.633   2.550 -0.9919  0.6725  1.7798
 7830SOL    HW234950   1.204   1.575   2.426 -1.5544  0.7722 -1.2005
 7831SOL     OW34951   2.862   3.203   8.957  0.1489 -0.4309  0.2690
 7831SOL    HW134952   2.779   3.156   8.965 -0.2924  0.4515  0.9083
 7831SOL    HW234953   2.875   3.252   9.039  0.9635 -1.0177  0.4882
 7832SOL     OW34954   1.924   2.281  16.992  0.1821 -0.2707  0.4500
 7832SOL    HW134955   1.991   2.349  16.983  0.2023 -0.2839  0.5047
 7832SOL    HW234956   1.872   2.316  17.065  1.5689  0.1520  1.2318
 7833SOL     OW34957   0.897   1.279   4.903 -0.2222 -0.7800 -0.0443
 7833SOL    HW134958   0.803   1.295   4.897  0.2347  2.4829  1.8402
 7833SOL    HW234959   0.903   1.196   4.855 -0.3768 -1.4929  1.1617
 7834SOL     OW34960   2.298   2.251   3.158 -0.1870  0.2548 -0.4633
 7834SOL    HW134961   2.293   2.256   3.254  1.9801 -0.2367 -0.3359
 7834SOL    HW234962   2.291   2.344   3.134  1.3504  0.1687 -1.2389
 7835SOL     OW34963   3.178   2.555   7.424  0.0614  0.4592  0.5863
 7835SOL    HW134964   3.171   2.602   7.508 -0.8833 -2.0850  1.9330
 7835SOL    HW234965   3.083   2.547   7.417 -0.0501  1.9930  0.2683
 7836SOL     OW34966   1.263   0.387  15.781 -0.4373 -0.2359 -0.1107
 7836SOL    HW134967   1.352   0.410  15.753 -0.2020 -1.3970 -0.3147
 7836SOL    HW234968   1.232   0.337  15.705  3.9982  0.2676 -2.2363
 7837SOL     OW34969   0.641   4.185   2.562  0.5773 -0.4862 -0.3536
 7837SOL    HW134970   0.690   4.106   2.583 -0.0494 -0.8223 -0.1584
 7837SOL    HW234971   0.597   4.146   2.486 -1.1618  1.5280 -0.3740
 7838SOL     OW34972   1.950   0.320  15.204  0.7497  0.0747  0.5091
 7838SOL    HW134973   1.917   0.334  15.116 -0.9885  1.2076  1.3237
 7838SOL    HW234974   1.950   0.225  15.212 -0.6327 -0.0023 -0.4798
 7839SOL     OW34975   1.601   2.637   4.764  0.1444  0.0197 -0.5296
 7839SOL    HW134976   1.688   2.607   4.790  0.1867  0.1443 -0.5275
 7839SOL    HW234977   1.583   2.712   4.821 -0.3208  0.0040 -0.6565
 7840SOL     OW34978   1.294   1.958   5.884 -0.2020  0.3914  0.0113
 7840SOL    HW134979   1.359   1.908   5.835 -0.3733  1.8325 -1.6641
 7840SOL    HW234980   1.249   2.020   5.827 -1.1212  1.8021  2.2546
 7841SOL     OW34981   1.523   3.874  16.723  0.2053 -0.2524  0.1829
 7841SOL    HW134982   1.450   3.905  16.669  0.8065 -0.0249 -0.5026
 7841SOL    HW234983   1.564   3.954  16.757 -2.2765  0.8879  0.4680
 7842SOL     OW34984   2.791   3.744  15.414 -0.4488 -0.1446 -0.2657
 7842SOL    HW134985   2.792   3.655  15.451 -1.6017 -0.4989 -1.0573
 7842SOL    HW234986   2.699   3.761  15.393  0.0555  0.7937 -1.7107
 7843SOL     OW34987   0.680   0.999   2.703 -0.2802  0.2321  0.2178
 7843SOL    HW134988   0.628   0.986   2.624  0.6335 -0.7776 -0.2227
 7843SOL    HW234989   0.688   0.909   2.732 -0.8701  0.6886  1.8046
 7844SOL     OW34990   0.850   1.701  10.156 -0.2336 -0.4249 -0.6362
 7844SOL    HW134991   0.825   1.707  10.064 -1.2797  1.0437 -0.2440
 7844SOL    HW234992   0.911   1.774  10.170  0.8320 -1.5693  0.6965
 7845SOL     OW34993   3.890   2.729   3.384  0.4791 -0.1949  0.0265
 7845SOL    HW134994   3.865   2.814   3.347 -0.9922 -0.4853  0.3590
 7845SOL    HW234995   3.803   2.700   3.412  0.7165 -0.5958  0.3513
 7846SOL     OW34996   3.726   4.269   4.115  0.0313 -0.1431 -0.3141
 7846SOL    HW134997   3.636   4.301   4.121 -0.7314 -2.5293  0.6156
 7846SOL    HW234998   3.701   4.179   4.136 -0.8748  1.0252  3.6070
 7847SOL     OW34999   0.008   4.394   8.505  0.5984 -0.2969  0.2958
 7847SOL    HW135000   4.701   4.304   8.502  2.4104 -0.8725 -0.7640
 7847SOL    HW235001   0.084   4.388   8.563  1.0861  0.6635 -0.2381
 7848SOL     OW35002   3.237   0.482   7.603 -0.5907  0.0550  0.4998
 7848SOL    HW135003   3.167   0.515   7.546  0.0690 -0.5685 -0.6681
 7848SOL    HW235004   3.225   0.552   7.667  1.0832 -0.5674  1.4814
 7849SOL     OW35005   3.283   4.390   9.719  0.7131 -0.3873 -0.4986
 7849SOL    HW135006   3.333   4.459   9.762  0.4580 -0.6164  0.1608
 7849SOL    HW235007   3.204   4.435   9.689 -0.3276 -1.4770  0.6538
 7850SOL     OW35008   3.946   2.875   7.944  0.6891 -0.6376 -0.2458
 7850SOL    HW135009   3.981   2.921   7.868  2.6902  0.5483  1.3920
 7850SOL    HW235010   3.966   2.783   7.926 -1.4205 -1.4813  1.6525
 7851SOL     OW35011   3.497   0.581  10.453 -0.1044 -0.0179  0.7061
 7851SOL    HW135012   3.435   0.555  10.385  0.0411 -1.0214  0.9570
 7851SOL    HW235013   3.546   0.648  10.405 -2.4132  1.4559  0.4121
 7852SOL     OW35014   0.452   0.758   5.776 -0.1448  0.3625  0.4034
 7852SOL    HW135015   0.498   0.727   5.698 -2.1687  0.1946 -0.6926
 7852SOL    HW235016   0.468   0.685   5.836 -0.5890 -0.5308 -0.5672
 7853SOL     OW35017   1.524   0.686   7.482 -0.1006  0.4537 -0.0318
 7853SOL    HW135018   1.544   0.762   7.427  0.4978 -0.6489 -1.3239
 7853SOL    HW235019   1.438   0.710   7.516 -0.4062 -1.7293  0.6902
 7854SOL     OW35020   1.568   4.386   4.830  0.2848  0.2976  0.0999
 7854SOL    HW135021   1.521   4.431   4.901 -1.1550 -2.9688  1.2235
 7854SOL    HW235022   1.585   4.300   4.868  0.8510  1.0009  1.4180
 7855SOL     OW35023   4.511   3.367   1.990  0.2111  0.1287 -0.4480
 7855SOL    HW135024   4.506   3.281   2.032  0.6944  0.5515  0.4753
 7855SOL    HW235025   4.532   3.333   1.903 -0.4712  1.3579 -1.0965
 7856SOL     OW35026   3.077   0.716   8.924  0.1097 -0.5710  0.5135
 7856SOL    HW135027   3.135   0.655   8.970  0.7555 -1.4282 -1.4390
 7856SOL    HW235028   3.108   0.790   8.975 -2.3579  0.3986  0.6002
 7857SOL     OW35029   0.883   1.395   7.490  0.3355 -0.3882 -0.8318
 7857SOL    HW135030   0.821   1.384   7.563  1.2987 -1.6432 -0.1927
 7857SOL    HW235031   0.861   1.487   7.478  0.7780 -0.0763  0.6998
 7858SOL     OW35032   4.099   3.020   5.073 -0.1783 -0.6416  0.4148
 7858SOL    HW135033   4.118   3.034   5.166  0.9316 -0.1664  0.1110
 7858SOL    HW235034   4.170   2.960   5.050  0.1168 -0.3735  0.6263
 7859SOL     OW35035   4.423   3.084   6.433  0.6519  0.3398 -0.0081
 7859SOL    HW135036   4.493   3.020   6.425 -1.1860 -1.5561 -0.7416
 7859SOL    HW235037   4.437   3.117   6.522  2.0737 -1.0272  0.2715
 7860SOL     OW35038   1.188   0.322   3.510  0.1739  0.3520 -0.2625
 7860SOL    HW135039   1.136   0.257   3.464  2.6909 -1.3777 -0.6506
 7860SOL    HW235040   1.275   0.306   3.473  0.0357  0.8981 -0.8368
 7861SOL     OW35041   3.584   4.085  17.034  0.0322  0.0661  0.1102
 7861SOL    HW135042   3.679   4.093  17.025 -0.2285  1.9098 -1.0546
 7861SOL    HW235043   3.582   4.073  17.129  0.8763 -2.9121 -0.2585
 7862SOL     OW35044   2.424   4.381   3.257 -0.4552 -0.1799  0.1960
 7862SOL    HW135045   2.338   4.393   3.217 -0.8650 -3.7457  0.0371
 7862SOL    HW235046   2.489   4.428   3.205 -0.1534 -3.1866 -2.1642
 7863SOL     OW35047   3.369   1.970  11.525  0.0226 -0.1713  0.3847
 7863SOL    HW135048   3.442   1.946  11.468  2.1089  3.9208  1.3602
 7863SOL    HW235049   3.340   2.046  11.474 -1.2192 -0.3475  0.8281
 7864SOL     OW35050   0.399   2.007   3.079 -0.3842 -0.1626  0.2677
 7864SOL    HW135051   0.415   1.914   3.095 -0.2304  0.1329  1.8633
 7864SOL    HW235052   0.307   2.012   3.103 -0.5497 -2.9845  0.1608
 7865SOL     OW35053   0.339   2.780  13.755 -0.3045  0.4550  0.7631
 7865SOL    HW135054   0.422   2.821  13.776  0.5204  1.4065 -4.2733
 7865SOL    HW235055   0.354   2.694  13.796 -4.2808 -0.3376  0.5947
 7866SOL     OW35056   2.163   2.396   7.522 -0.3581 -0.2347 -0.8514
 7866SOL    HW135057   2.100   2.371   7.455 -0.8627  1.7447 -1.1115
 7866SOL    HW235058   2.198   2.477   7.484  0.8235 -0.4755 -0.3051
 7867SOL     OW35059   2.790   2.305   6.311  0.3511  0.1075 -0.5934
 7867SOL    HW135060   2.761   2.396   6.302  0.2784  0.3959  2.4942
 7867SOL    HW235061   2.702   2.270   6.325  0.5695 -0.2625 -0.1427
 7868SOL     OW35062   3.978   1.527   7.497 -0.0213 -0.5220 -0.5541
 7868SOL    HW135063   4.050   1.512   7.436  1.4491  2.2316  0.4951
 7868SOL    HW235064   3.996   1.466   7.569  0.4989  0.6726  0.3224
 7869SOL     OW35065   1.732   4.697  10.845 -0.3400  0.2959 -0.2248
 7869SOL    HW135066   1.816   4.659  10.820 -0.2421 -0.2391  0.9355
 7869SOL    HW235067   1.670   4.647  10.792  1.4286 -1.4848 -0.6145
 7870SOL     OW35068   2.581   2.539   9.226  0.4193 -0.0530  0.0323
 7870SOL    HW135069   2.527   2.471   9.186 -0.4259 -0.5880  2.0445
 7870SOL    HW235070   2.553   2.538   9.318  1.9099  2.4725  0.5132
 7871SOL     OW35071   2.654   3.461  12.788 -0.8396 -0.4362 -0.4030
 7871SOL    HW135072   2.748   3.463  12.806 -0.9875 -2.7838  0.6395
 7871SOL    HW235073   2.646   3.519  12.713  2.4888 -0.7967 -1.0462
 7872SOL     OW35074   2.448   0.740   7.276  0.2359  0.7666  0.5992
 7872SOL    HW135075   2.372   0.773   7.325  0.7157  1.3059  0.9871
 7872SOL    HW235076   2.414   0.679   7.211  1.6687  0.1428  0.4315
 7873SOL     OW35077   0.062   3.135   8.427 -0.1664 -0.1604 -0.3439
 7873SOL    HW135078   4.696   3.118   8.455  0.0221 -1.8815 -0.8125
 7873SOL    HW235079   0.047   3.227   8.403  1.8921  0.1636 -0.4505
 7874SOL     OW35080   4.431   1.849  10.570  0.0918 -0.0482  0.5351
 7874SOL    HW135081   4.526   1.849  10.584 -0.2104 -3.2063  2.4994
 7874SOL    HW235082   4.404   1.879  10.656  0.1304  0.9063  0.2123
 7875SOL     OW35083   1.609   4.097  13.712  0.2703  0.6373  0.2331
 7875SOL    HW135084   1.648   4.046  13.640 -1.2846 -1.9712  1.2318
 7875SOL    HW235085   1.524   4.054  13.713  2.2847 -3.4483 -2.4192
 7876SOL     OW35086   1.191   1.089   8.239  0.2525  0.2038 -0.2934
 7876SOL    HW135087   1.168   1.093   8.146  2.6110  1.1809 -0.8273
 7876SOL    HW235088   1.129   1.020   8.263 -1.4692  0.3144 -4.3350
 7877SOL     OW35089   0.493   0.768   3.169  0.1484 -0.5027  0.0091
 7877SOL    HW135090   0.415   0.791   3.118  0.5772 -1.1762 -0.9509
 7877SOL    HW235091   0.477   0.823   3.246 -1.8602 -0.7987 -0.1769
 7878SOL     OW35092   4.548   0.257  17.604 -0.0605  0.3770  0.0832
 7878SOL    HW135093   4.472   0.308  17.632 -0.2152 -0.3884  1.0315
 7878SOL    HW235094   4.592   0.311  17.538 -0.8375  2.9850  1.6748
 7879SOL     OW35095   2.678   1.110  15.996 -0.5843  0.6409  0.2051
 7879SOL    HW135096   2.605   1.172  15.994  0.0544  1.4132  0.3785
 7879SOL    HW235097   2.662   1.059  16.075  0.7983 -1.1862 -0.7042
 7880SOL     OW35098   3.262   3.388   6.755 -0.2930  0.3701 -0.2893
 7880SOL    HW135099   3.330   3.364   6.692 -0.0847  1.2348 -0.4045
 7880SOL    HW235100   3.320   3.410   6.828 -0.7930  0.3153  0.1207
 7881SOL     OW35101   0.876   0.399  16.652 -0.0398 -0.2217  0.4444
 7881SOL    HW135102   0.883   0.383  16.558  2.3863 -0.1272  0.6265
 7881SOL    HW235103   0.967   0.409  16.681 -0.3724 -0.1993  1.4764
 7882SOL     OW35104   2.765   2.343   1.782  0.0900  0.4071  0.0567
 7882SOL    HW135105   2.776   2.248   1.789 -0.7118  0.3656  0.8623
 7882SOL    HW235106   2.691   2.357   1.841 -0.4505 -1.8268 -0.0770
 7883SOL     OW35107   3.106   2.848   8.326  0.0966 -0.4859  0.1729
 7883SOL    HW135108   3.153   2.931   8.329  1.3923 -1.2015 -0.2223
 7883SOL    HW235109   3.152   2.795   8.391  0.9368 -0.2620 -0.2316
 7884SOL     OW35110   4.021   2.168   9.844 -0.3541  0.4096  0.8636
 7884SOL    HW135111   3.941   2.171   9.791  0.9543 -0.4055 -1.1430
 7884SOL    HW235112   3.997   2.235   9.908  0.8292 -0.4116  2.1648
 7885SOL     OW35113   4.588   4.542   4.350  0.2659  0.3215 -0.3236
 7885SOL    HW135114   4.496   4.553   4.374  0.4178  1.4686 -0.2584
 7885SOL    HW235115   4.577   4.579   4.263 -2.3746  0.7002  0.1746
 7886SOL     OW35116   1.998   2.976   7.883 -0.1759  0.8972 -0.3888
 7886SOL    HW135117   2.053   3.048   7.852  1.1736 -0.1660 -0.5043
 7886SOL    HW235118   1.964   2.950   7.798  1.0307  0.1389 -0.6439
 7887SOL     OW35119   0.980   0.790   9.351  0.0297  0.5349 -0.3127
 7887SOL    HW135120   0.920   0.734   9.302 -0.1123  1.7723 -1.5711
 7887SOL    HW235121   0.966   0.754   9.438 -0.2880  1.8394  0.1874
 7888SOL     OW35122   4.587   4.356   6.663 -0.5875  0.8931  0.5273
 7888SOL    HW135123   4.509   4.343   6.609 -0.5875  1.0104  0.4985
 7888SOL    HW235124   4.550   4.359   6.751 -1.1081 -0.6245  0.3581
 7889SOL     OW35125   4.126   3.470   8.625  0.7518  0.8692  0.1891
 7889SOL    HW135126   4.074   3.480   8.546 -3.8604  1.6645  3.3278
 7889SOL    HW235127   4.161   3.558   8.638  0.4259  0.9713  0.3569
 7890SOL     OW35128   2.636   3.367   4.690 -0.1764 -0.0712  0.3077
 7890SOL    HW135129   2.606   3.300   4.752 -0.7428  1.4995  1.7432
 7890SOL    HW235130   2.716   3.397   4.732 -0.3006 -0.8752  1.1258
 7891SOL     OW35131   2.032   4.150   9.958 -0.3514 -0.3298  0.3289
 7891SOL    HW135132   2.039   4.093   9.881  0.9681 -0.8692  0.8540
 7891SOL    HW235133   1.972   4.215   9.920 -0.3895 -0.1766  0.6510
 7892SOL     OW35134   3.720   0.230   3.330 -0.1440 -0.1670 -0.1733
 7892SOL    HW135135   3.663   0.192   3.263  0.6936 -1.2975 -0.2451
 7892SOL    HW235136   3.802   0.202   3.290 -0.0794  0.9916 -0.8386
 7893SOL     OW35137   0.154   3.059   5.287  0.4833  0.2340 -0.3070
 7893SOL    HW135138   0.179   2.970   5.311 -1.1426 -1.1717 -3.8356
 7893SOL    HW235139   0.242   3.091   5.269  0.5454  1.0898  1.5524
 7894SOL     OW35140   0.085   1.487   1.058  0.5124  0.4384  0.1146
 7894SOL    HW135141   0.169   1.490   1.103  0.6710  0.4487 -0.1807
 7894SOL    HW235142   0.071   1.396   1.083  1.5995 -0.3119 -1.9688
 7895SOL     OW35143   3.109   0.725   6.227 -0.3073 -0.4237 -0.3249
 7895SOL    HW135144   3.074   0.763   6.308 -0.0877  2.0884 -1.4240
 7895SOL    HW235145   3.187   0.680   6.261  0.0471  0.3883 -0.0615
 7896SOL     OW35146   3.117   4.131   4.992 -0.4061 -0.4248 -0.0365
 7896SOL    HW135147   3.045   4.086   5.036 -1.5219  3.0383  1.6959
 7896SOL    HW235148   3.196   4.085   5.020  0.0294  0.7189  0.6158
 7897SOL     OW35149   4.160   0.859  10.458  0.3291 -0.0352  0.4406
 7897SOL    HW135150   4.111   0.940  10.443 -0.2524 -0.0865  2.1305
 7897SOL    HW235151   4.248   0.893  10.472  0.0490  1.3531 -1.1169
 7898SOL     OW35152   1.074   0.251   2.959  0.3980 -0.2888 -0.2632
 7898SOL    HW135153   0.993   0.233   2.911  0.1577 -1.1212  0.4600
 7898SOL    HW235154   1.076   0.168   3.006 -0.8612 -0.0428  0.2203
 7899SOL     OW35155   3.277   4.699   5.486 -0.2414 -0.3480  0.5393
 7899SOL    HW135156   3.307   0.035   5.417  0.2459 -0.7335  0.4183
 7899SOL    HW235157   3.291   4.610   5.454  1.0866  0.6261 -1.5464
 7900SOL     OW35158   0.441   0.209   0.274  0.2888  0.0711 -0.3836
 7900SOL    HW135159   0.399   0.220   0.359  0.8349 -0.0287 -0.0959
 7900SOL    HW235160   0.527   0.183   0.307 -0.2180 -0.5107  0.4850
 7901SOL     OW35161   1.305   0.082   7.795  0.3781  0.3039  0.1779
 7901SOL    HW135162   1.319   0.061   7.888 -4.4703  2.2920  1.3775
 7901SOL    HW235163   1.288   0.176   7.807 -0.4216  0.1205  0.4364
 7902SOL     OW35164   3.958   3.674   6.824  0.1575  0.0273 -0.8550
 7902SOL    HW135165   3.903   3.733   6.773 -0.0303  0.5089 -0.0949
 7902SOL    HW235166   3.915   3.650   6.907  0.4215 -0.3520 -0.8255
 7903SOL     OW35167   4.064   1.196  12.704  0.4343  0.0628 -0.1411
 7903SOL    HW135168   4.066   1.148  12.787  1.0415 -1.1644 -0.8622
 7903SOL    HW235169   3.983   1.158  12.670 -1.1122  2.5758  0.6965
 7904SOL     OW35170   2.388   2.343   4.412 -0.3770  0.4126 -0.4160
 7904SOL    HW135171   2.310   2.393   4.434 -0.2179 -0.8487  3.0730
 7904SOL    HW235172   2.382   2.346   4.317 -0.5832  0.3072 -0.4047
 7905SOL     OW35173   2.373   1.284   4.988  0.6519  0.0833 -0.4865
 7905SOL    HW135174   2.329   1.232   5.055  2.4177 -2.5461 -1.3790
 7905SOL    HW235175   2.453   1.237   4.965  1.0160  1.1934 -1.4829
 7906SOL     OW35176   2.051   2.230   8.977  0.0901 -0.5491 -0.0586
 7906SOL    HW135177   1.959   2.208   8.990  0.7418 -2.5569  1.1332
 7906SOL    HW235178   2.071   2.137   8.982 -1.0997 -0.7233  1.4500
 7907SOL     OW35179   3.500   3.875   8.440 -0.5100  0.7961 -0.3918
 7907SOL    HW135180   3.556   3.828   8.502  1.7640  0.6612 -2.5584
 7907SOL    HW235181   3.449   3.923   8.504 -0.0947  0.9083 -0.1470
 7908SOL     OW35182   0.084   0.927  17.457 -0.7762 -0.4116 -0.3136
 7908SOL    HW135183   0.065   1.007  17.409 -1.9455 -0.3333  0.2608
 7908SOL    HW235184   0.055   0.865  17.390 -0.1198 -1.3297  0.2559
 7909SOL     OW35185   3.796   0.937  14.638  0.1003  0.5764  0.0354
 7909SOL    HW135186   3.721   0.977  14.682  1.8278  1.2049  2.3775
 7909SOL    HW235187   3.755   0.851  14.636  0.0711  0.5444  2.1978
 7910SOL     OW35188   0.730   2.545   4.465 -0.1163 -0.7013 -0.0266
 7910SOL    HW135189   0.641   2.514   4.446 -0.0851 -1.6697  1.4024
 7910SOL    HW235190   0.763   2.526   4.377  1.1503 -0.0092  0.2936
 7911SOL     OW35191   2.968   0.497  10.652  0.5090  0.1318 -0.3901
 7911SOL    HW135192   3.059   0.486  10.624  0.6335  0.6363 -0.2047
 7911SOL    HW235193   2.923   0.422  10.615 -0.2029  1.2620 -1.8151
 7912SOL     OW35194   4.682   4.167   1.721 -0.0258 -0.4351 -0.4482
 7912SOL    HW135195   4.592   4.135   1.720 -0.3780  0.5127  0.5966
 7912SOL    HW235196   4.670   4.261   1.733  1.4744 -0.4016  0.8239
 7913SOL     OW35197   2.556   0.285   4.722 -0.2060 -0.1809  0.0267
 7913SOL    HW135198   2.600   0.201   4.733 -0.3991 -0.1612  0.9609
 7913SOL    HW235199   2.533   0.294   4.630 -0.4947 -1.0755  0.0142
 7914SOL     OW35200   4.382   2.304  16.345 -0.1173 -0.4535  0.4839
 7914SOL    HW135201   4.447   2.245  16.307  0.3761 -0.7810  1.8396
 7914SOL    HW235202   4.436   2.382  16.339 -1.0602  0.0541 -1.4301
 7915SOL     OW35203   2.288   1.336   6.679 -0.6433 -0.3090  0.2221
 7915SOL    HW135204   2.282   1.315   6.773 -0.3404  1.0715  0.5427
 7915SOL    HW235205   2.307   1.254   6.633  0.5800  0.6331 -0.9230
 7916SOL     OW35206   1.785   3.225   7.776 -0.3261  0.4336 -0.0706
 7916SOL    HW135207   1.799   3.130   7.776 -2.3349  0.1257 -1.1475
 7916SOL    HW235208   1.861   3.249   7.723 -0.2973  0.5872  0.0397
 7917SOL     OW35209   2.627   2.538   8.511 -0.1593 -0.0793  0.3667
 7917SOL    HW135210   2.549   2.498   8.548  0.5090 -0.2895  1.5565
 7917SOL    HW235211   2.671   2.580   8.585  1.1659 -0.6982 -0.0665
 7918SOL     OW35212   1.309   4.107   9.437  0.1049  0.4601  0.2313
 7918SOL    HW135213   1.240   4.085   9.375 -0.1338 -3.3779  1.8533
 7918SOL    HW235214   1.380   4.078   9.380  0.1380  1.8563 -0.4431
 7919SOL     OW35215   2.273   1.118   7.087 -0.0796  0.5311 -0.3548
 7919SOL    HW135216   2.295   1.075   7.005  0.5875 -2.5184  1.4178
 7919SOL    HW235217   2.276   1.209   7.058  1.0634  0.5646 -0.1648
 7920SOL     OW35218   2.598   4.035   8.233 -0.3175 -0.1636 -0.2115
 7920SOL    HW135219   2.571   4.049   8.323  0.2912 -1.2694  0.1556
 7920SOL    HW235220   2.666   4.100   8.216  0.0631 -0.6778 -0.7011
 7921SOL     OW35221   2.195   1.238   3.848  0.2886  0.3914 -0.4623
 7921SOL    HW135222   2.263   1.269   3.908 -0.3449 -0.3637  0.6330
 7921SOL    HW235223   2.234   1.269   3.766 -0.5560  2.2663 -0.1689
 7922SOL     OW35224   3.237   0.360  10.505  0.1281  0.0666  0.1913
 7922SOL    HW135225   3.268   0.390  10.419  0.7283 -0.9793  0.0399
 7922SOL    HW235226   3.176   0.292  10.477  1.1525  0.1394 -2.2224
 7923SOL     OW35227   0.856   2.195   4.704 -0.4738 -0.1584  0.2593
 7923SOL    HW135228   0.884   2.150   4.623 -0.9459 -2.2329  1.2365
 7923SOL    HW235229   0.791   2.129   4.727 -0.8630  0.6696  1.4520
 7924SOL     OW35230   3.895   2.380   9.313  0.3877 -0.4726  0.0865
 7924SOL    HW135231   3.978   2.385   9.362 -0.2537 -1.3487  1.2872
 7924SOL    HW235232   3.855   2.306   9.358 -3.4360  1.3008 -0.4659
 7925SOL     OW35233   3.503   1.978  17.055  0.0157 -0.3518  0.3476
 7925SOL    HW135234   3.507   2.044  17.124 -2.4114  0.3706 -0.1844
 7925SOL    HW235235   3.524   1.897  17.102  1.0694  0.7089  1.6992
 7926SOL     OW35236   4.588   0.648   0.376  0.1632 -0.7030  0.5362
 7926SOL    HW135237   4.496   0.668   0.397 -0.3312  0.1223 -2.4259
 7926SOL    HW235238   4.628   0.706   0.442  1.3746  0.6486 -1.4065
 7927SOL     OW35239   2.911   2.564   7.492  0.2272 -0.1503  0.1644
 7927SOL    HW135240   2.825   2.575   7.451  0.0750  3.6422  1.5052
 7927SOL    HW235241   2.878   2.507   7.561  1.3347  0.7553  1.4451
 7928SOL     OW35242   0.150   0.700   6.753 -0.7065  0.7482  0.3308
 7928SOL    HW135243   0.096   0.725   6.828  0.0295 -3.7877  2.4147
 7928SOL    HW235244   0.140   0.774   6.694  2.4848 -0.8722 -2.2627
 7929SOL     OW35245   4.712   0.634   5.270  0.1273 -0.1992 -0.0638
 7929SOL    HW135246   0.063   0.659   5.215 -0.7245 -0.1555 -1.1874
 7929SOL    HW235247   4.666   0.717   5.285  2.2362  0.7400  1.2525
 7930SOL     OW35248   0.225   1.479   7.757 -0.5000  0.7088  0.0027
 7930SOL    HW135249   0.296   1.474   7.693 -1.4583 -1.1635 -0.8798
 7930SOL    HW235250   0.238   1.569   7.788  1.5251  0.4999 -0.2503
 7931SOL     OW35251   0.065   0.163   3.924 -0.2827  0.1417 -0.8430
 7931SOL    HW135252   4.709   0.111   3.922 -1.1969  1.4876  0.5705
 7931SOL    HW235253   0.038   0.228   3.858  0.0589  0.9787 -0.1585
 7932SOL     OW35254   2.761   3.987   5.733  0.4045  0.4861 -0.0744
 7932SOL    HW135255   2.840   4.030   5.764  1.6048 -1.9815  0.3341
 7932SOL    HW235256   2.793   3.896   5.733  1.7075  0.9522  0.4436
 7933SOL     OW35257   1.080   4.554  16.531  0.2338  0.2880  0.0592
 7933SOL    HW135258   1.028   4.616  16.584 -1.2437  0.8850 -2.1088
 7933SOL    HW235259   1.134   4.610  16.476  0.3852  3.1978  3.1749
 7934SOL     OW35260   3.711   2.645   4.414 -0.4858  0.1598  0.9017
 7934SOL    HW135261   3.688   2.724   4.365 -0.4703  0.7848  1.9120
 7934SOL    HW235262   3.649   2.578   4.385 -1.9514  2.3477 -1.1114
 7935SOL     OW35263   4.660   0.858  15.098 -0.5560  0.3153  0.0563
 7935SOL    HW135264   0.015   0.879  15.046 -0.8947  0.4068 -0.4145
 7935SOL    HW235265   4.661   0.763  15.101 -0.4690  0.3616  1.2205
 7936SOL     OW35266   3.456   2.312   9.156 -0.3845 -0.1255  0.3836
 7936SOL    HW135267   3.477   2.372   9.084  1.4182 -0.4954  0.5926
 7936SOL    HW235268   3.533   2.257   9.172  0.8190  1.9018  1.5711
 7937SOL     OW35269   0.561   0.506   2.769  0.0838 -0.8663 -1.0581
 7937SOL    HW135270   0.513   0.472   2.693 -1.3171 -1.2398  0.0124
 7937SOL    HW235271   0.483   0.535   2.815 -0.5125  1.0764 -3.2949
 7938SOL     OW35272   1.805   1.862   2.013  0.3587 -0.4472 -0.4136
 7938SOL    HW135273   1.732   1.913   1.979  0.8397  0.8553  0.5324
 7938SOL    HW235274   1.832   1.824   1.929  0.6028 -0.4369 -0.3413
 7939SOL     OW35275   4.317   4.298   7.765  0.0052  0.0814 -0.2986
 7939SOL    HW135276   4.356   4.247   7.693  0.2870 -0.2909  0.1148
 7939SOL    HW235277   4.391   4.309   7.825 -1.0458 -0.3354  1.0668
 7940SOL     OW35278   4.274   2.480   2.546 -0.6239  0.0835 -0.2329
 7940SOL    HW135279   4.259   2.407   2.606  1.2634 -0.3129 -0.2477
 7940SOL    HW235280   4.219   2.448   2.475 -2.3689 -1.9093  2.0279
 7941SOL     OW35281   0.721   2.421   2.568  0.7902 -0.3135  0.2364
 7941SOL    HW135282   0.804   2.428   2.521  1.1927 -0.2124  0.9559
 7941SOL    HW235283   0.744   2.470   2.648  2.7594 -1.8113  0.5864
 7942SOL     OW35284   2.443   0.911   3.051  0.5192  1.1471 -0.1908
 7942SOL    HW135285   2.371   0.895   2.990  0.5037  1.3956 -0.2378
 7942SOL    HW235286   2.405   0.883   3.134 -1.3983  0.1589 -1.4040
 7943SOL     OW35287   2.249   3.425   7.865  0.2367 -0.2801 -0.6122
 7943SOL    HW135288   2.275   3.418   7.774  1.3685  2.5794 -0.5281
 7943SOL    HW235289   2.319   3.478   7.903  0.2180 -1.4128  0.9969
 7944SOL     OW35290   1.335   4.462   6.131 -0.4050  0.0721  0.0534
 7944SOL    HW135291   1.299   4.386   6.086 -2.4714  0.6066  0.8305
 7944SOL    HW235292   1.267   4.530   6.128  1.1638  1.5843 -1.8749
 7945SOL     OW35293   1.103   0.348   5.268 -0.1201  0.4700 -0.4668
 7945SOL    HW135294   1.058   0.274   5.226 -1.9859  2.4796 -1.9617
 7945SOL    HW235295   1.187   0.359   5.223  0.8390  1.3925  1.5615
 7946SOL     OW35296   4.297   0.260   1.854 -0.2710  0.0048 -0.0145
 7946SOL    HW135297   4.311   0.292   1.943  0.0225  2.4277 -0.9238
 7946SOL    HW235298   4.207   0.287   1.838 -0.7740 -1.2397  0.6783
 7947SOL     OW35299   0.777   3.658   1.382 -0.4464 -0.5988 -0.0283
 7947SOL    HW135300   0.870   3.638   1.392  0.2875  3.5583  1.4345
 7947SOL    HW235301   0.769   3.720   1.454  5.1520 -2.1377  1.9429
 7948SOL     OW35302   4.365   0.250  16.527 -0.7684  0.3825 -0.0074
 7948SOL    HW135303   4.325   0.301  16.456  0.0888  1.5716  0.3765
 7948SOL    HW235304   4.453   0.286  16.521  0.0988 -1.6032  0.7169
 7949SOL     OW35305   0.679   3.038   6.950 -0.2711  0.3724 -0.5126
 7949SOL    HW135306   0.642   2.952   6.974  1.0776  0.6227  2.4304
 7949SOL    HW235307   0.633   3.047   6.866 -0.6604  1.2702 -0.1954
 7950SOL     OW35308   3.785   3.180  15.301  0.2242 -0.2672 -0.5186
 7950SOL    HW135309   3.703   3.227  15.286  0.2199 -1.2478 -3.4802
 7950SOL    HW235310   3.803   3.222  15.385  1.0792 -0.8138 -0.4242
 7951SOL     OW35311   3.928   0.840   9.744  0.0956 -0.5723 -0.2807
 7951SOL    HW135312   4.022   0.833   9.760  0.5458  0.8663 -2.2461
 7951SOL    HW235313   3.913   0.777   9.674 -0.3466 -2.5426  1.6106
 7952SOL     OW35314   0.499   2.210   8.518  0.1437  0.4994  0.0845
 7952SOL    HW135315   0.488   2.151   8.443 -0.4900  1.5098 -0.6293
 7952SOL    HW235316   0.454   2.289   8.488 -1.4245  0.1634  1.5701
 7953SOL     OW35317   0.380   0.049   5.390 -0.0672  0.1207  0.2133
 7953SOL    HW135318   0.419   0.078   5.472  1.1259  1.8502 -0.9663
 7953SOL    HW235319   0.285   0.048   5.395 -0.0811  0.8130  0.0279
 7954SOL     OW35320   3.253   0.438   3.293  0.0601 -0.0298  0.1247
 7954SOL    HW135321   3.345   0.442   3.318  0.3085 -0.2404 -0.7670
 7954SOL    HW235322   3.249   0.351   3.253 -1.2629  0.2017 -0.2431
 7955SOL     OW35323   1.802   4.184   4.147 -0.8844  0.5906 -0.2271
 7955SOL    HW135324   1.822   4.267   4.103 -2.0908  0.6747 -0.6062
 7955SOL    HW235325   1.887   4.140   4.144  0.4913  3.4139 -2.2526
 7956SOL     OW35326   0.602   1.715  11.886 -0.3331 -0.7538  0.2454
 7956SOL    HW135327   0.534   1.663  11.929 -0.4172 -0.8677 -0.0238
 7956SOL    HW235328   0.593   1.689  11.794  0.0028 -1.1766  0.3347
 7957SOL     OW35329   0.844   0.390   4.994  0.2678 -0.2887 -0.3367
 7957SOL    HW135330   0.866   0.435   4.912 -1.6663 -0.1907 -0.8001
 7957SOL    HW235331   0.930   0.404   5.034 -0.4091  1.3925  0.5080
 7958SOL     OW35332   1.871   3.612   7.166 -0.6867 -0.7926  0.1240
 7958SOL    HW135333   1.900   3.660   7.244 -0.8658  0.0227 -0.3002
 7958SOL    HW235334   1.942   3.549   7.164 -0.6217 -0.6965 -0.7772
 7959SOL     OW35335   2.581   0.744   3.547 -0.1694 -0.1975  0.0045
 7959SOL    HW135336   2.632   0.762   3.626 -1.0143  0.0103  0.5032
 7959SOL    HW235337   2.658   0.727   3.493 -0.9295  1.7602 -1.6709
 7960SOL     OW35338   3.819   0.952   2.952  0.0224 -0.3617 -0.2293
 7960SOL    HW135339   3.872   0.921   2.878  1.4814  0.7603  0.3687
 7960SOL    HW235340   3.735   0.950   2.906 -0.1217  2.3126 -0.0615
 7961SOL     OW35341   0.942   0.085   9.608  0.6823 -0.0288 -0.1479
 7961SOL    HW135342   1.004   0.035   9.661  0.3662 -0.8292 -0.5339
 7961SOL    HW235343   0.860   0.088   9.659 -0.1010 -0.2012 -1.3915
 7962SOL     OW35344   2.264   1.615   7.305 -0.9641  0.5231 -0.2653
 7962SOL    HW135345   2.194   1.596   7.367  0.8127 -0.8002  1.3508
 7962SOL    HW235346   2.281   1.523   7.283 -0.8203  0.4894 -0.0137
 7963SOL     OW35347   3.026   1.229  10.756 -0.3119  0.1261  0.1457
 7963SOL    HW135348   2.984   1.307  10.720 -1.1172 -0.1760  0.4245
 7963SOL    HW235349   2.992   1.170  10.690 -1.4415  1.6158 -0.6137
 7964SOL     OW35350   4.706   1.769   5.209  0.2263 -0.2734 -0.0999
 7964SOL    HW135351   4.719   1.862   5.228  0.3652 -0.8254  2.4498
 7964SOL    HW235352   4.665   1.772   5.123  0.8297 -1.2866 -0.4242
 7965SOL     OW35353   1.756   1.851  13.755 -0.2365  0.4953  0.2233
 7965SOL    HW135354   1.671   1.848  13.710 -0.5455  0.3841  0.8188
 7965SOL    HW235355   1.735   1.902  13.833  1.3289  1.0818  0.2497
 7966SOL     OW35356   2.094   3.269  13.279  0.3244 -0.2643 -0.1374
 7966SOL    HW135357   2.090   3.174  13.287  0.5778 -0.1963  0.8644
 7966SOL    HW235358   2.061   3.280  13.190  2.1029  1.1299 -0.6341
 7967SOL     OW35359   0.841   2.472  14.646 -0.7505  0.4948  0.0959
 7967SOL    HW135360   0.883   2.547  14.688 -0.7855  0.2740  0.5279
 7967SOL    HW235361   0.787   2.518  14.582 -1.9223 -0.2117  0.5905
 7968SOL     OW35362   0.447   0.187   0.708  0.0883  0.6381  0.5726
 7968SOL    HW135363   0.518   0.161   0.649 -2.5837 -2.0903 -1.4605
 7968SOL    HW235364   0.375   0.165   0.649  0.1960  0.5302  0.4828
 7969SOL     OW35365   2.096   3.154   0.710 -0.1749  0.2188  0.3374
 7969SOL    HW135366   2.070   3.079   0.656 -1.1548  0.1683  0.8772
 7969SOL    HW235367   2.009   3.176   0.745  1.1188 -0.3013  3.8714
 7970SOL     OW35368   0.053   0.974   6.259 -0.2476  0.3603  0.8881
 7970SOL    HW135369   0.005   0.891   6.251 -0.6762  0.7702 -0.9193
 7970SOL    HW235370   0.119   0.966   6.190  0.4511 -1.4554  1.7920
 7971SOL     OW35371   3.815   3.773  10.861  0.1466  0.5613  0.0057
 7971SOL    HW135372   3.877   3.759  10.932 -0.2158 -2.1378 -0.2341
 7971SOL    HW235373   3.750   3.830  10.903  1.5802  2.4258 -0.2788
 7972SOL     OW35374   1.446   0.841   0.301  0.2516 -0.2269  0.4096
 7972SOL    HW135375   1.403   0.774   0.248 -1.8381  1.5549 -0.1438
 7972SOL    HW235376   1.523   0.801   0.342 -1.4340 -0.9283  2.8997
 7973SOL     OW35377   0.569   1.908  13.615 -0.7888  0.4992 -0.1597
 7973SOL    HW135378   0.629   1.840  13.583 -2.9899 -0.8130 -1.4864
 7973SOL    HW235379   0.487   1.889  13.568 -2.6662  2.1242  2.5000
 7974SOL     OW35380   3.429   4.613   9.828 -0.2470 -0.3534  0.2447
 7974SOL    HW135381   3.488   4.612   9.904 -1.0556  1.2068  0.8915
 7974SOL    HW235382   3.360   4.668   9.865 -0.9787 -0.0927 -1.5401
 7975SOL     OW35383   2.734   2.256   0.518 -0.7496 -0.2311 -0.0857
 7975SOL    HW135384   2.663   2.257   0.582 -1.4858 -2.1402 -0.8902
 7975SOL    HW235385   2.689   2.267   0.434 -1.8277 -1.3172  0.3580
 7976SOL     OW35386   3.288   3.668   4.846 -0.0898  0.0677  0.6999
 7976SOL    HW135387   3.321   3.716   4.922 -0.1376  0.0138  0.7538
 7976SOL    HW235388   3.230   3.734   4.807  1.3834  0.4952 -0.7778
 7977SOL     OW35389   2.340   4.379   4.390  0.1045  0.1168 -0.2493
 7977SOL    HW135390   2.263   4.354   4.339 -0.4305  0.6107  0.3173
 7977SOL    HW235391   2.402   4.426   4.334 -2.7463  2.7521 -1.1904
 7978SOL     OW35392   2.070   2.607  14.445 -0.1224 -0.2501 -0.0922
 7978SOL    HW135393   2.062   2.515  14.421 -1.9012  0.5642 -2.5895
 7978SOL    HW235394   1.985   2.635  14.411 -0.1938 -1.2782 -0.7523
 7979SOL     OW35395   3.325   3.809   5.727  0.1488 -0.2616 -0.0696
 7979SOL    HW135396   3.279   3.821   5.643 -1.0212 -0.2827  0.5628
 7979SOL    HW235397   3.371   3.891   5.744  0.4694 -0.5346  0.3462
 7980SOL     OW35398   4.154   1.444   7.300  0.0126  0.5572  0.5221
 7980SOL    HW135399   4.233   1.430   7.352 -0.0208  3.7862  1.4435
 7980SOL    HW235400   4.190   1.481   7.219  0.3591  1.8783  1.2909
 7981SOL     OW35401   3.616   4.372   2.966  0.4603 -0.1226 -0.1269
 7981SOL    HW135402   3.594   4.323   2.886 -1.7225  0.0910  0.3341
 7981SOL    HW235403   3.539   4.428   2.963 -2.3177 -3.9988 -2.3420
 7982SOL     OW35404   3.583   0.471   8.024 -0.0466 -0.2698 -0.3395
 7982SOL    HW135405   3.559   0.495   7.934  1.1542  0.2159 -0.5358
 7982SOL    HW235406   3.512   0.516   8.070  0.1711  1.5490 -1.7723
 7983SOL     OW35407   4.164   4.139   2.028  0.2618 -0.5723  0.2226
 7983SOL    HW135408   4.123   4.058   1.999 -1.0756 -0.2223  1.1032
 7983SOL    HW235409   4.131   4.144   2.118  0.2698  2.7245  0.0690
 7984SOL     OW35410   3.327   2.431   5.418  0.2627  0.1437 -0.2559
 7984SOL    HW135411   3.331   2.336   5.421 -0.4714  0.0855 -0.9491
 7984SOL    HW235412   3.413   2.445   5.378  0.7204 -2.8583 -0.3065
 7985SOL     OW35413   0.667   4.487   7.391  0.0471 -0.2579  0.2154
 7985SOL    HW135414   0.602   4.452   7.329  1.2501  0.0500 -1.2345
 7985SOL    HW235415   0.638   4.454   7.476  0.3765 -0.5940  0.1950
 7986SOL     OW35416   1.861   4.692   4.064 -0.0085 -0.8075  0.3175
 7986SOL    HW135417   1.766   4.707   4.061  0.2087  0.8562  2.1003
 7986SOL    HW235418   1.893   0.057   4.045 -2.6526 -0.1013 -0.8500
 7987SOL     OW35419   3.728   3.819   2.029  0.4642  0.1357  0.5231
 7987SOL    HW135420   3.747   3.743   1.975  3.5183  2.2897 -1.4644
 7987SOL    HW235421   3.782   3.890   1.993 -1.7283  1.0015 -1.0308
 7988SOL     OW35422   2.635   2.388   9.855 -0.0962  0.4607 -0.1866
 7988SOL    HW135423   2.620   2.300   9.889 -0.3424  0.1581 -1.0911
 7988SOL    HW235424   2.684   2.429   9.927 -0.5501  0.7880 -0.0597
 7989SOL     OW35425   1.134   0.467  16.295  0.4669 -0.5476 -0.5745
 7989SOL    HW135426   1.163   0.471  16.204  2.3352  1.1584  0.0964
 7989SOL    HW235427   1.201   0.514  16.345  0.4860  0.1057 -1.2081
 7990SOL     OW35428   1.280   4.629  17.529  0.2017  0.3154  0.3510
 7990SOL    HW135429   1.208   4.683  17.497 -0.8521 -0.5903  1.2099
 7990SOL    HW235430   1.266   4.556  17.469  0.9897 -0.4350  1.0818
 7991SOL     OW35431   1.478   3.185   9.815 -0.3226 -0.5411 -0.3722
 7991SOL    HW135432   1.519   3.179   9.729 -1.2062 -0.1342 -0.8274
 7991SOL    HW235433   1.481   3.092   9.836  1.5359 -0.2509  0.6617
 7992SOL     OW35434   4.276   2.198   7.056 -0.0813 -0.0405 -0.4294
 7992SOL    HW135435   4.315   2.119   7.095 -2.1284  0.0964  1.8343
 7992SOL    HW235436   4.230   2.237   7.130 -1.5164  0.1924 -1.4564
 7993SOL     OW35437   3.731   2.480   6.231 -0.1524 -0.1154  0.1041
 7993SOL    HW135438   3.699   2.561   6.269 -1.5948 -0.8483  0.4448
 7993SOL    HW235439   3.651   2.429   6.222 -1.4126  1.8960  0.0413
 7994SOL     OW35440   2.359   2.498   3.045  0.3847 -0.4224 -0.1386
 7994SOL    HW135441   2.398   2.585   3.054 -1.7566  0.4690  0.4488
 7994SOL    HW235442   2.265   2.509   3.033  0.5160  1.2155  0.2814
 7995SOL     OW35443   0.120   1.726   2.454 -0.3772 -0.0896 -0.1244
 7995SOL    HW135444   0.208   1.759   2.476 -0.2648  0.1476 -0.9268
 7995SOL    HW235445   0.121   1.644   2.503 -0.3700  0.4434  0.7721
 7996SOL     OW35446   1.907   3.946   3.861  0.1262  0.2408  0.3619
 7996SOL    HW135447   1.843   4.013   3.838 -1.5936 -1.5249 -0.0138
 7996SOL    HW235448   1.992   3.970   3.825 -0.0955 -1.2391 -1.1526
 7997SOL     OW35449   2.911   3.697  17.259  0.2618  0.2745 -0.0856
 7997SOL    HW135450   2.854   3.771  17.240  2.8791  2.5660  1.0267
 7997SOL    HW235451   2.944   3.714  17.347  0.7215  0.5283 -0.3056
 7998SOL     OW35452   1.367   4.693   5.855  0.0442  0.1530  0.3858
 7998SOL    HW135453   1.361   0.055   5.813 -2.5638 -0.5094 -0.6275
 7998SOL    HW235454   1.462   4.692   5.863  0.0523  2.9576  0.6766
 7999SOL     OW35455   2.419   1.219  14.956  0.3750  0.3584 -0.0677
 7999SOL    HW135456   2.482   1.185  14.893  0.1655 -1.1950  0.5698
 7999SOL    HW235457   2.351   1.252  14.897 -2.5874 -0.0590  3.1047
 8000SOL     OW35458   2.082   2.765   5.931 -0.4821  0.0382  0.3095
 8000SOL    HW135459   2.080   2.773   6.026  1.9039  1.4594  0.2404
 8000SOL    HW235460   2.055   2.855   5.911 -0.8069 -0.1760 -0.2229
 8001SOL     OW35461   4.620   1.623   1.240 -0.5902 -1.0366  0.4660
 8001SOL    HW135462   4.704   1.661   1.266 -0.8205 -1.5659  1.9501
 8001SOL    HW235463   4.645   1.585   1.155  1.4466  1.0284  0.1523
 8002SOL     OW35464   3.108   2.079   0.603 -0.0823  0.1349 -0.0513
 8002SOL    HW135465   3.054   2.158   0.604 -2.6539 -1.6241 -0.5940
 8002SOL    HW235466   3.182   2.108   0.549 -0.0277  0.3057  0.1142
 8003SOL     OW35467   4.168   0.837   3.728 -0.2470 -0.3159 -0.0046
 8003SOL    HW135468   4.160   0.777   3.802  2.9887 -1.1662 -0.3527
 8003SOL    HW235469   4.166   0.775   3.656 -2.5125  0.0480 -0.2565
 8004SOL     OW35470   4.175   1.411   4.610  0.2097  0.3359 -0.4101
 8004SOL    HW135471   4.095   1.362   4.628  0.5400  0.7609  2.2677
 8004SOL    HW235472   4.176   1.422   4.515 -1.7093  0.3993 -0.4200
 8005SOL     OW35473   1.697   3.403  15.081 -0.3097 -0.5787 -1.1519
 8005SOL    HW135474   1.643   3.374  15.008 -1.7958  0.3043 -0.3984
 8005SOL    HW235475   1.746   3.323  15.097 -0.1085 -0.1934  0.1788
 8006SOL     OW35476   0.562   1.861   1.538  0.3903 -0.0410  0.0613
 8006SOL    HW135477   0.578   1.937   1.594  0.9776 -0.1436  0.0358
 8006SOL    HW235478   0.514   1.916   1.477 -1.4521 -0.4736  1.1024
 8007SOL     OW35479   1.832   0.772   6.218  0.2710  0.4625  0.0168
 8007SOL    HW135480   1.920   0.807   6.204  0.6932 -2.0774 -3.8418
 8007SOL    HW235481   1.850   0.697   6.275 -1.1475 -0.0704 -0.2426
 8008SOL     OW35482   3.263   2.797   4.679 -0.2782 -0.0511 -0.8391
 8008SOL    HW135483   3.183   2.752   4.703 -0.6067  0.3109 -1.2559
 8008SOL    HW235484   3.329   2.734   4.707 -0.2887 -0.1859 -1.1118
 8009SOL     OW35485   0.980   4.177   3.297 -0.3191 -0.0533  0.4166
 8009SOL    HW135486   0.998   4.092   3.337  1.1430 -1.2664 -2.8249
 8009SOL    HW235487   0.885   4.178   3.282 -0.5782 -2.9139  1.8428
 8010SOL     OW35488   3.313   3.875   8.243 -0.3920 -0.1229  0.5579
 8010SOL    HW135489   3.375   3.870   8.316 -0.9946  0.7133  1.1238
 8010SOL    HW235490   3.260   3.946   8.279  0.4923 -0.4118  2.4499
 8011SOL     OW35491   0.139   3.352   4.883 -0.3514  0.7427 -0.1330
 8011SOL    HW135492   0.065   3.303   4.919  0.7731 -1.7487 -1.2302
 8011SOL    HW235493   0.217   3.320   4.928 -0.0757  3.3715  1.2284
 8012SOL     OW35494   1.931   4.413   4.048 -0.3910 -0.4229 -0.5880
 8012SOL    HW135495   2.025   4.420   4.029 -0.5335  1.4186 -0.6135
 8012SOL    HW235496   1.905   4.504   4.058  0.1502  0.1143 -4.3581
 8013SOL     OW35497   3.207   1.477   1.895 -0.2752 -0.3009  0.1452
 8013SOL    HW135498   3.241   1.430   1.819 -0.9352 -0.7577  0.1332
 8013SOL    HW235499   3.113   1.467   1.884 -0.2830  0.7477 -0.7835
 8014SOL     OW35500   1.817   4.238   2.512 -0.2181  0.1775 -0.3642
 8014SOL    HW135501   1.801   4.267   2.422  0.9399 -1.4509 -1.0943
 8014SOL    HW235502   1.818   4.143   2.502  0.7331  0.0377  1.1116
 8015SOL     OW35503   1.164   0.413   1.047 -0.2690  0.6776 -0.7056
 8015SOL    HW135504   1.236   0.374   0.997 -0.1785  0.2413 -0.2374
 8015SOL    HW235505   1.195   0.391   1.135 -1.3618 -3.9428 -1.5113
 8016SOL     OW35506   4.160   2.932  11.347 -0.0981  0.1259  0.0140
 8016SOL    HW135507   4.167   2.836  11.344  0.6784  0.1171  1.7990
 8016SOL    HW235508   4.068   2.952  11.364  0.1110  0.4707  0.7274
 8017SOL     OW35509   4.381   0.751   2.621  0.7086 -0.9903  0.2445
 8017SOL    HW135510   4.475   0.754   2.602  0.6057  1.1265  0.1604
 8017SOL    HW235511   4.370   0.761   2.716 -1.4428  0.6990 -0.1873
 8018SOL     OW35512   4.269   4.421   2.925 -0.3384 -0.2814  0.1047
 8018SOL    HW135513   4.267   4.500   2.980  0.2973 -0.9903  1.1566
 8018SOL    HW235514   4.248   4.357   2.993 -0.4841  1.1210  1.3952
 8019SOL     OW35515   2.705   1.889   3.195  0.0128  0.2715 -0.5111
 8019SOL    HW135516   2.664   1.929   3.118 -0.6554 -1.1936 -0.9285
 8019SOL    HW235517   2.665   1.802   3.194 -1.8641  1.1098 -0.1326
 8020SOL     OW35518   3.607   3.865   8.161  0.5183 -0.2419  0.2799
 8020SOL    HW135519   3.545   3.862   8.234 -0.3735 -1.4281 -0.5387
 8020SOL    HW235520   3.634   3.956   8.172 -0.7585  0.3248 -1.3542
 8021SOL     OW35521   1.254   1.438  17.340  0.1855  0.2510  0.1900
 8021SOL    HW135522   1.247   1.460  17.247 -2.1154  1.6795  0.7043
 8021SOL    HW235523   1.201   1.511  17.374 -1.7045 -0.1345 -1.8954
 8022SOL     OW35524   4.592   2.098   6.803  0.5799  0.4808 -0.2519
 8022SOL    HW135525   4.513   2.136   6.842 -0.2645 -2.3681  0.8689
 8022SOL    HW235526   4.624   2.175   6.757  1.3276  0.7942  0.8137
 8023SOL     OW35527   1.692   2.245   6.128 -0.0448 -0.2781  0.2164
 8023SOL    HW135528   1.622   2.181   6.139  1.7199 -2.2852 -0.4713
 8023SOL    HW235529   1.670   2.286   6.044 -0.5458 -3.3534 -1.1382
 8024SOL     OW35530   4.149   0.079   5.272 -0.2250 -0.1838  0.3438
 8024SOL    HW135531   4.116   0.155   5.319  1.1701  0.3658  0.4358
 8024SOL    HW235532   4.231   0.116   5.240 -0.1274 -1.6461 -1.1318
 8025SOL     OW35533   4.321   3.738   7.633  0.1666  0.3391  0.6455
 8025SOL    HW135534   4.367   3.716   7.552  0.0592  1.6828  0.2290
 8025SOL    HW235535   4.377   3.805   7.673 -0.9794  2.6207 -1.5808
 8026SOL     OW35536   0.910   3.350   4.506 -0.0136 -0.0500  0.0108
 8026SOL    HW135537   0.958   3.433   4.498 -0.0182 -0.2359 -1.8426
 8026SOL    HW235538   0.955   3.315   4.582 -1.1212  1.9429  1.5923
 8027SOL     OW35539   1.060   1.417   6.401 -0.6129  0.1615 -0.6942
 8027SOL    HW135540   0.987   1.383   6.349 -1.1189  1.3552 -0.7759
 8027SOL    HW235541   1.013   1.463   6.471 -1.0453 -0.2793 -0.6944
 8028SOL     OW35542   4.281   3.019   8.993  1.1956 -0.1849 -0.3881
 8028SOL    HW135543   4.187   3.019   8.975  0.7587 -1.9454  1.8076
 8028SOL    HW235544   4.296   2.927   8.973  1.7787 -0.4334  1.1522
 8029SOL     OW35545   1.983   4.068   2.986 -0.1182  0.5146  0.0799
 8029SOL    HW135546   2.048   4.125   3.027 -0.9736  0.9566  0.7838
 8029SOL    HW235547   2.023   3.981   2.996  0.2441  0.8036  1.0945
 8030SOL     OW35548   0.716   2.746  16.137 -0.5110 -0.8539  0.4988
 8030SOL    HW135549   0.628   2.711  16.120  0.1495 -1.4880 -1.5708
 8030SOL    HW235550   0.726   2.706  16.224  0.9130 -0.9073  0.3070
 8031SOL     OW35551   4.456   0.013   2.249  0.0871  0.2042  0.1189
 8031SOL    HW135552   4.484   4.706   2.335 -0.3335 -1.4465 -0.3090
 8031SOL    HW235553   4.532   4.720   2.194  0.7691 -2.6214  1.9130
 8032SOL     OW35554   3.925   2.290   6.257 -0.1130 -0.3898  1.0838
 8032SOL    HW135555   3.869   2.366   6.243  1.0990  0.2525 -0.2197
 8032SOL    HW235556   3.933   2.264   6.165  1.5908  0.6575  0.9346
 8033SOL     OW35557   2.046   3.637   4.602 -0.3555  0.1246 -0.3583
 8033SOL    HW135558   2.107   3.567   4.578  0.7400  1.7441 -2.3383
 8033SOL    HW235559   2.007   3.678   4.525 -2.4462 -1.1977 -0.0054
 8034SOL     OW35560   2.366   0.808   6.528 -0.2288 -0.5879 -0.1029
 8034SOL    HW135561   2.366   0.790   6.622  0.0402 -0.0764 -0.0041
 8034SOL    HW235562   2.273   0.790   6.511  0.3007 -1.0845 -2.4746
 8035SOL     OW35563   2.617   3.806   5.010  0.3596 -0.5516 -0.0639
 8035SOL    HW135564   2.708   3.822   5.033 -0.4103  1.3659  1.6406
 8035SOL    HW235565   2.579   3.894   5.012  1.2397 -0.1838  0.1471
 8036SOL     OW35566   1.184   3.464   1.214  0.0157  0.0605  0.3608
 8036SOL    HW135567   1.251   3.443   1.150 -0.3561 -1.4943  0.4859
 8036SOL    HW235568   1.230   3.433   1.292 -0.7942 -0.4946  0.6184
 8037SOL     OW35569   4.543   1.658   2.613  0.3112 -0.0491  1.0756
 8037SOL    HW135570   4.521   1.742   2.654  0.9862 -1.0344  3.4467
 8037SOL    HW235571   4.513   1.668   2.523 -0.6057 -1.0641  1.2776
 8038SOL     OW35572   3.785   3.935   2.763 -0.3993  0.1584 -0.1869
 8038SOL    HW135573   3.843   3.863   2.738  0.0395  0.4528 -0.0157
 8038SOL    HW235574   3.847   3.994   2.805  1.3023 -0.2547 -2.1230
 8039SOL     OW35575   0.161   0.108  13.746  0.6323  0.0285 -0.0303
 8039SOL    HW135576   0.189   0.108  13.838 -1.0914 -1.7707  0.4840
 8039SOL    HW235577   0.247   0.095  13.706  0.3430  1.0888 -1.0015
 8040SOL     OW35578   0.133   3.984   3.209 -0.0941  0.3832 -0.0090
 8040SOL    HW135579   0.104   3.917   3.271  0.3066 -1.2784 -1.6269
 8040SOL    HW235580   0.050   4.032   3.205 -0.8515 -0.9842 -0.6768
 8041SOL     OW35581   3.266   0.004  14.432 -0.0718  0.0403 -0.5341
 8041SOL    HW135582   3.199   0.023  14.366  1.8112 -1.1100 -2.7727
 8041SOL    HW235583   3.290   0.095  14.451 -1.3545  0.1916  0.3569
 8042SOL     OW35584   2.824   1.351   3.026 -0.4000 -0.2983 -0.8235
 8042SOL    HW135585   2.789   1.262   3.027 -1.6145  0.1923  0.5632
 8042SOL    HW235586   2.913   1.334   2.996 -0.5782 -0.4105 -1.2926
 8043SOL     OW35587   3.200   2.857   2.955 -0.6251  0.1960 -0.0886
 8043SOL    HW135588   3.184   2.763   2.957 -1.1441  0.2636 -0.9380
 8043SOL    HW235589   3.116   2.889   2.923 -1.3793 -0.9041  0.8113
 8044SOL     OW35590   0.087   3.940  12.305 -0.2690  0.4477  0.4639
 8044SOL    HW135591   0.121   3.993  12.232  0.8888 -2.1130 -0.8512
 8044SOL    HW235592   0.102   3.852  12.270  0.7189  0.5445  0.6566
 8045SOL     OW35593   1.049   3.110   3.497 -0.0669  0.0277  0.2701
 8045SOL    HW135594   1.032   3.182   3.557  3.0069 -0.0469  1.2059
 8045SOL    HW235595   1.071   3.161   3.420  3.0719  1.0290  1.8124
 8046SOL     OW35596   1.417   0.861  15.964  0.1565 -0.1747  0.8073
 8046SOL    HW135597   1.395   0.804  16.038  0.8289 -1.5306 -0.0551
 8046SOL    HW235598   1.345   0.827  15.911 -0.6619  1.1497  1.0454
 8047SOL     OW35599   2.386   4.715   2.743  0.7628  0.3586  0.2135
 8047SOL    HW135600   2.397   4.628   2.782  1.7344  0.6069  0.4821
 8047SOL    HW235601   2.308   4.708   2.688 -1.6731  1.7914  3.4454
 8048SOL     OW35602   2.590   4.570   4.491  0.0931  0.0368 -0.6008
 8048SOL    HW135603   2.678   4.561   4.529  0.6191 -0.3774 -1.8984
 8048SOL    HW235604   2.589   4.517   4.411  0.9011 -2.1284  0.8354
 8049SOL     OW35605   2.303   0.658   6.130 -0.4079 -0.2321  0.3201
 8049SOL    HW135606   2.306   0.621   6.042 -0.3966 -1.7849  0.9818
 8049SOL    HW235607   2.344   0.589   6.181  2.4109  1.6382  0.5624
 8050SOL     OW35608   4.281   3.926   1.065  0.4595 -0.2338  0.7109
 8050SOL    HW135609   4.280   3.973   1.148  1.1916 -0.3142  0.7649
 8050SOL    HW235610   4.340   3.856   1.094  1.6225  1.0317  1.3587
 8051SOL     OW35611   4.120   3.176   6.690  0.3385 -0.1459  0.1596
 8051SOL    HW135612   4.214   3.189   6.675  0.0245  0.4731 -1.3191
 8051SOL    HW235613   4.131   3.156   6.783  2.8279  1.4458  0.2091
 8052SOL     OW35614   4.026   2.759   9.813 -0.0975  0.3630 -0.4592
 8052SOL    HW135615   4.073   2.691   9.862  0.1221  0.0038 -1.1768
 8052SOL    HW235616   4.038   2.840   9.863  0.0713  1.2487 -1.9353
 8053SOL     OW35617   4.471   2.849   4.310  0.3439  0.4551  0.4615
 8053SOL    HW135618   4.543   2.892   4.356 -0.8316  2.0134  0.8182
 8053SOL    HW235619   4.514   2.775   4.267 -1.7815 -0.6153  0.1610
 8054SOL     OW35620   1.497   0.797  16.443 -0.5303 -0.4405  0.1408
 8054SOL    HW135621   1.535   0.847  16.516 -3.2625 -1.3041  2.1455
 8054SOL    HW235622   1.527   0.850  16.370 -0.7396 -1.0175 -0.3631
 8055SOL     OW35623   2.606   1.598   1.185 -0.3826 -0.5463  0.0674
 8055SOL    HW135624   2.576   1.649   1.261 -1.9492  0.5423 -1.2786
 8055SOL    HW235625   2.600   1.674   1.127 -2.9627  1.6963  3.3079
 8056SOL     OW35626   2.002   2.145   9.352 -0.0217 -0.4384 -0.4391
 8056SOL    HW135627   2.055   2.225   9.352 -0.1678 -0.3397 -2.3325
 8056SOL    HW235628   2.049   2.090   9.289  0.3463 -1.6463  0.8888
 8057SOL     OW35629   2.445   3.831   7.066 -0.2842  0.2867  0.4869
 8057SOL    HW135630   2.394   3.751   7.081  1.3973 -0.9556 -0.4332
 8057SOL    HW235631   2.386   3.878   7.007  1.4081  0.2805 -1.2241
 8058SOL     OW35632   3.028   4.301  10.463  0.1460  0.2505  0.1915
 8058SOL    HW135633   3.024   4.223  10.518 -0.3442  1.1378  1.4070
 8058SOL    HW235634   2.947   4.290  10.413  0.4483 -2.1509  0.2155
 8059SOL     OW35635   0.469   1.468   4.313  0.1183  0.0657 -0.4040
 8059SOL    HW135636   0.414   1.544   4.292  1.3771  0.5885 -1.7453
 8059SOL    HW235637   0.418   1.426   4.383  0.0129 -1.2223 -1.2667
 8060SOL     OW35638   1.496   2.037   8.475 -0.0666  0.3693 -0.1002
 8060SOL    HW135639   1.551   1.970   8.515  1.1087  1.0614 -0.5694
 8060SOL    HW235640   1.546   2.118   8.484 -0.1901  0.2356  1.7315
 8061SOL     OW35641   4.199   1.882  10.413  0.1872  0.1713  0.0922
 8061SOL    HW135642   4.147   1.803  10.425  2.4611 -1.3983 -0.3295
 8061SOL    HW235643   4.281   1.861  10.458 -0.1797  1.2547  1.2705
 8062SOL     OW35644   3.963   1.535   9.879  0.1644  0.5297  0.1696
 8062SOL    HW135645   3.955   1.612   9.936  0.8963 -0.5493  1.7286
 8062SOL    HW235646   3.895   1.481   9.919 -0.1762  1.0688  0.3206
 8063SOL     OW35647   1.446   0.675   8.226 -0.3641  0.9725  0.6344
 8063SOL    HW135648   1.389   0.742   8.188 -0.4791 -0.2609 -1.3537
 8063SOL    HW235649   1.502   0.668   8.149  0.3410 -0.1983  1.2529
 8064SOL     OW35650   2.671   3.582   6.192 -0.0717  0.1094  0.3536
 8064SOL    HW135651   2.608   3.553   6.127  0.9188 -0.2173 -0.4550
 8064SOL    HW235652   2.659   3.676   6.180 -2.2659 -0.4368 -1.5880
 8065SOL     OW35653   2.030   1.383   3.180 -0.0520 -1.4941 -0.0687
 8065SOL    HW135654   2.005   1.314   3.119 -0.3204 -1.2576 -0.2238
 8065SOL    HW235655   2.034   1.332   3.261  2.0395  0.6443  1.1620
 8066SOL     OW35656   0.693   3.376   4.253  0.1122 -0.3039  0.2315
 8066SOL    HW135657   0.697   3.290   4.294  2.6181  1.3899  3.5142
 8066SOL    HW235658   0.613   3.420   4.282 -0.2552 -0.2361 -0.8766
 8067SOL     OW35659   0.529   1.487   3.780 -0.4256  0.1129 -0.4552
 8067SOL    HW135660   0.571   1.473   3.695  2.5450 -0.3958  1.1114
 8067SOL    HW235661   0.592   1.444   3.838 -0.9873 -1.8896 -1.3326
 8068SOL     OW35662   0.120   3.200   2.185  0.0134  0.4937  0.2293
 8068SOL    HW135663   0.086   3.221   2.272  1.5993 -0.1682  1.0051
 8068SOL    HW235664   0.142   3.108   2.203  1.4575  0.8812  0.4475
 8069SOL     OW35665   2.318   3.296  17.576 -0.2613  0.4184 -0.6962
 8069SOL    HW135666   2.388   3.354  17.604  1.5260 -1.4370 -1.3196
 8069SOL    HW235667   2.239   3.333  17.614  1.7258  2.2226  1.6761
 8070SOL     OW35668   0.508   1.291   4.590 -0.0591 -0.0959 -0.1682
 8070SOL    HW135669   0.436   1.352   4.573  3.0550  4.4224  2.7049
 8070SOL    HW235670   0.484   1.218   4.533  1.1322  0.2191 -1.0852
 8071SOL     OW35671   4.057   4.334   5.111  0.1629  0.0821  0.3605
 8071SOL    HW135672   4.052   4.293   5.197 -1.5591 -1.1054 -0.2978
 8071SOL    HW235673   4.111   4.409   5.138 -0.2263  0.3844  0.3013
 8072SOL     OW35674   4.487   0.979   6.784  0.3481 -0.0462  0.2358
 8072SOL    HW135675   4.443   1.056   6.819 -2.2494 -1.0669 -0.8060
 8072SOL    HW235676   4.423   0.910   6.800 -0.0876  0.2739 -0.1453
 8073SOL     OW35677   2.485   4.588   6.834 -0.0283 -0.2514  0.5042
 8073SOL    HW135678   2.535   4.628   6.905  2.1698 -0.6211 -0.8198
 8073SOL    HW235679   2.555   4.529   6.804 -1.2482 -2.3969  1.9057
 8074SOL     OW35680   3.314   3.623  12.879 -0.5005 -0.1527  0.7182
 8074SOL    HW135681   3.342   3.708  12.844 -2.4051 -0.8126 -2.4099
 8074SOL    HW235682   3.229   3.609  12.837 -0.6384 -0.5171  1.1333
 8075SOL     OW35683   2.137   2.938   6.528  0.1558 -0.6483  0.2401
 8075SOL    HW135684   2.133   3.006   6.461 -1.1277 -0.1519  0.8238
 8075SOL    HW235685   2.076   2.876   6.489 -1.0651  0.4489  0.3943
 8076SOL     OW35686   2.156   4.353   3.833 -0.4076 -0.2344  0.0649
 8076SOL    HW135687   2.217   4.357   3.759 -0.9886  0.0013 -0.3989
 8076SOL    HW235688   2.222   4.324   3.896 -1.2668 -0.8738  0.6771
 8077SOL     OW35689   0.466   3.938   9.975 -0.1847  0.7650 -0.3799
 8077SOL    HW135690   0.551   3.908   9.943 -0.9238  1.4578 -3.0297
 8077SOL    HW235691   0.489   4.026  10.004 -0.6181  1.1658 -1.2451
 8078SOL     OW35692   4.634   3.179   5.222  0.0223  0.2010  0.2553
 8078SOL    HW135693   4.718   3.146   5.254  1.1931  0.7153 -2.2815
 8078SOL    HW235694   4.648   3.169   5.128 -0.2778  2.6275 -0.0487
 8079SOL     OW35695   1.851   1.391  14.670 -0.0601  0.6658  0.0668
 8079SOL    HW135696   1.791   1.324  14.701 -0.1176  0.5966 -0.1989
 8079SOL    HW235697   1.790   1.464  14.683  0.8558  0.7072  4.2376
 8080SOL     OW35698   1.512   2.789   6.736  0.4277  0.6745  0.2292
 8080SOL    HW135699   1.483   2.716   6.790  1.3338  2.4924  3.1604
 8080SOL    HW235700   1.426   2.821   6.710  1.2413 -0.5517 -3.9301
 8081SOL     OW35701   4.354   0.490   7.458 -0.6638 -0.7969  0.3413
 8081SOL    HW135702   4.425   0.428   7.470 -1.5357 -1.6205  1.2225
 8081SOL    HW235703   4.299   0.464   7.532 -0.3422  0.4292  1.0114
 8082SOL     OW35704   2.260   2.064   8.321  0.5808 -0.1715  0.2461
 8082SOL    HW135705   2.350   2.087   8.340  0.9627  0.0571 -1.8796
 8082SOL    HW235706   2.231   2.134   8.263 -0.5537 -0.0499  0.9532
 8083SOL     OW35707   0.518   0.618  13.321 -0.4641 -0.2220  0.5166
 8083SOL    HW135708   0.506   0.566  13.400  1.2997  1.5061  1.9122
 8083SOL    HW235709   0.446   0.578  13.272  0.1058 -1.9113  1.0787
 8084SOL     OW35710   3.606   1.497   3.685 -0.5204 -0.9010 -0.4985
 8084SOL    HW135711   3.531   1.447   3.654 -0.7551  0.4503 -2.0552
 8084SOL    HW235712   3.673   1.439   3.649  2.6063  1.5432  1.4129
 8085SOL     OW35713   2.913   3.205   7.512  0.5288 -0.1306 -0.5341
 8085SOL    HW135714   2.936   3.264   7.440 -0.6203 -0.9552 -1.5739
 8085SOL    HW235715   2.838   3.254   7.547  1.3565  0.4508  0.4223
 8086SOL     OW35716   4.325   4.256   3.993 -0.5512 -0.2327 -0.3502
 8086SOL    HW135717   4.406   4.291   4.031  0.6734 -1.9628 -1.3749
 8086SOL    HW235718   4.318   4.308   3.914 -0.5976  0.3969  0.0701
 8087SOL     OW35719   1.987   1.613   5.699  0.5040  0.6160 -0.1954
 8087SOL    HW135720   2.020   1.702   5.710  3.9510 -0.2660 -3.3633
 8087SOL    HW235721   2.060   1.561   5.665  0.7271  0.3922  0.6065
 8088SOL     OW35722   1.440   4.636   3.131 -0.0137 -0.3139 -0.2014
 8088SOL    HW135723   1.487   4.553   3.131  0.1479 -0.2217  0.1107
 8088SOL    HW235724   1.455   4.670   3.043  2.1509  0.1573  0.3634
 8089SOL     OW35725   0.309   0.981   8.411  0.4090 -0.6669 -0.4919
 8089SOL    HW135726   0.383   0.993   8.352  0.9654  2.3294  0.7772
 8089SOL    HW235727   0.352   0.920   8.471 -1.1353 -0.2027  1.1130
 8090SOL     OW35728   4.508   2.679  12.008  0.1811 -0.2316  0.0502
 8090SOL    HW135729   4.496   2.734  12.085 -2.6793 -0.0922 -0.4722
 8090SOL    HW235730   4.588   2.629  12.021 -0.5897 -1.8274 -1.2834
 8091SOL     OW35731   3.747   3.436   8.761  0.3842 -0.1892  0.2236
 8091SOL    HW135732   3.733   3.449   8.668 -0.8814  1.1524  0.6131
 8091SOL    HW235733   3.721   3.344   8.770  0.1008 -0.1725 -0.4582
 8092SOL     OW35734   3.144   2.811   1.418  0.1501  0.4537  0.1740
 8092SOL    HW135735   3.127   2.906   1.418  0.6859  0.5441  1.8137
 8092SOL    HW235736   3.099   2.791   1.500 -0.8258 -0.0316 -0.4872
 8093SOL     OW35737   0.311   2.059  14.630  0.0766 -0.3188  0.1764
 8093SOL    HW135738   0.406   2.054  14.623  0.1810  0.3297  1.1508
 8093SOL    HW235739   0.288   2.125  14.564  2.3690  1.0981  0.8122
 8094SOL     OW35740   1.588   4.476   8.858  0.5124 -0.2278  0.1631
 8094SOL    HW135741   1.642   4.549   8.888 -0.4925  0.5185  0.1395
 8094SOL    HW235742   1.551   4.451   8.943  1.2194  1.3991  0.9344
 8095SOL     OW35743   3.548   2.326   2.637  0.3246  0.2620 -0.1823
 8095SOL    HW135744   3.528   2.233   2.651  1.3990  0.0249 -0.2327
 8095SOL    HW235745   3.535   2.333   2.542  3.1793 -1.0705 -0.6751
 8096SOL     OW35746   0.932   0.295  16.399  0.0948 -0.2831 -0.6462
 8096SOL    HW135747   0.914   0.221  16.341  0.5115 -1.4384  0.6928
 8096SOL    HW235748   0.984   0.349  16.340  1.3989  2.4318  3.0114
 8097SOL     OW35749   4.215   1.609   2.379 -0.4245  0.4649 -0.4217
 8097SOL    HW135750   4.261   1.588   2.460  1.8295 -1.6442 -2.2789
 8097SOL    HW235751   4.170   1.526   2.361 -0.4080  0.5324 -0.7678
 8098SOL     OW35752   1.735   3.452  12.666 -0.8318 -0.5797 -0.4692
 8098SOL    HW135753   1.780   3.371  12.642  0.5784 -0.3747  1.4195
 8098SOL    HW235754   1.663   3.423  12.723  1.5440 -1.3361  2.1843
 8099SOL     OW35755   3.868   2.135  12.191  0.2584 -0.0307 -0.3865
 8099SOL    HW135756   3.855   2.065  12.254  0.7225  1.0577  0.9089
 8099SOL    HW235757   3.894   2.084  12.114 -1.0227  1.0870 -1.5812
 8100SOL     OW35758   0.316   3.710  11.528  0.1733 -0.5640 -0.4447
 8100SOL    HW135759   0.266   3.628  11.529 -0.5793 -0.0952  0.1543
 8100SOL    HW235760   0.400   3.675  11.498  1.2985  2.3799 -0.6796
 8101SOL     OW35761   4.486   2.259   6.068 -0.0970 -0.5869  0.4130
 8101SOL    HW135762   4.516   2.168   6.069 -2.5929 -1.4080  1.5459
 8101SOL    HW235763   4.427   2.258   6.144  1.3062 -1.1291  1.5135
 8102SOL     OW35764   0.776   0.122  17.660 -0.0553  0.5949 -0.5140
 8102SOL    HW135765   0.786   0.132  17.566  0.3022 -0.1528 -0.5582
 8102SOL    HW235766   0.824   0.199  17.692  1.3135  1.5665 -4.9354
 8103SOL     OW35767   2.906   2.699   8.151  0.2895 -0.2512 -0.2401
 8103SOL    HW135768   2.918   2.633   8.220 -1.9787 -0.7717 -0.3587
 8103SOL    HW235769   2.819   2.728   8.177 -0.8765 -1.5730 -2.6545
 8104SOL     OW35770   4.455   2.859   6.239 -0.1439 -0.2693 -0.1419
 8104SOL    HW135771   4.364   2.880   6.220  0.0820  0.7614 -0.0780
 8104SOL    HW235772   4.477   2.800   6.167 -0.1656 -1.4275  0.7975
 8105SOL     OW35773   2.939   4.174   4.333  0.4037  0.1566 -0.3783
 8105SOL    HW135774   3.022   4.216   4.358  0.6526  0.0841 -1.0848
 8105SOL    HW235775   2.883   4.251   4.333 -1.9267 -1.5353  1.1703
 8106SOL     OW35776   3.985   0.487   7.095 -0.1449  0.0454  0.0119
 8106SOL    HW135777   3.917   0.550   7.071 -0.3488 -0.1335  0.1135
 8106SOL    HW235778   3.936   0.407   7.116 -0.8434  0.0419 -1.5813
 8107SOL     OW35779   2.132   1.082   4.497 -0.0370  0.4531  0.9338
 8107SOL    HW135780   2.085   1.019   4.552 -0.4970  0.6669  0.7895
 8107SOL    HW235781   2.061   1.142   4.474  1.2713  2.0885  1.1874
 8108SOL     OW35782   4.405   2.370  13.078 -0.7217 -0.1910  0.0796
 8108SOL    HW135783   4.426   2.434  13.010  0.3670  0.9221  1.4528
 8108SOL    HW235784   4.484   2.377  13.132  0.2706 -1.2835 -1.2238
 8109SOL     OW35785   4.535   0.107   3.870 -0.0207 -0.0235  1.0429
 8109SOL    HW135786   4.533   0.173   3.801 -0.2908  0.0003  1.0716
 8109SOL    HW235787   4.572   0.036   3.818 -0.1004 -0.5663  1.7268
 8110SOL     OW35788   3.023   1.084  12.553  0.5680 -0.0029  0.0627
 8110SOL    HW135789   3.033   1.178  12.542  0.9897  0.3107  3.1437
 8110SOL    HW235790   3.002   1.051  12.466  0.1721 -0.2941  0.2661
 8111SOL     OW35791   1.567   4.669  10.297  0.8893 -0.2468 -0.1549
 8111SOL    HW135792   1.513   0.024  10.309  1.8055  0.5132 -0.9484
 8111SOL    HW235793   1.552   4.643  10.388 -0.5288 -0.7201 -0.5327
 8112SOL     OW35794   4.268   3.477   3.168  0.2635 -0.0011  0.8099
 8112SOL    HW135795   4.294   3.486   3.260  0.7140  0.6918  0.6170
 8112SOL    HW235796   4.219   3.397   3.187 -0.6836 -0.2704 -2.8201
 8113SOL     OW35797   4.102   2.635  11.572  0.0463 -0.3856  0.3714
 8113SOL    HW135798   4.054   2.587  11.504  0.2309 -0.2122  0.1169
 8113SOL    HW235799   4.035   2.701  11.592  1.4190  1.4857 -1.2600
 8114SOL     OW35800   1.224   0.010   0.500 -0.3600 -0.0654  0.1845
 8114SOL    HW135801   1.135   4.698   0.492 -0.3535  0.0058 -0.2369
 8114SOL    HW235802   1.202   0.098   0.531 -0.1543  0.0240  0.0696
 8115SOL     OW35803   4.371   2.249   8.746  0.7357 -0.7019 -0.2880
 8115SOL    HW135804   4.415   2.286   8.823  1.1004 -0.9653 -0.3689
 8115SOL    HW235805   4.284   2.288   8.749  1.2654  0.7082 -3.0175
 8116SOL     OW35806   1.082   1.008  10.678 -0.5492  0.2503 -0.4705
 8116SOL    HW135807   1.062   0.957  10.757  0.5606  1.0743  0.3337
 8116SOL    HW235808   1.166   0.973  10.647 -0.8385  1.0915 -2.2265
 8117SOL     OW35809   1.087   0.097   2.325  0.0777 -0.3912 -0.4622
 8117SOL    HW135810   1.017   0.114   2.389  0.6190  1.1278 -0.2750
 8117SOL    HW235811   1.049   0.142   2.249  0.2193  1.6829  0.6870
 8118SOL     OW35812   1.181   1.286  11.642  0.1380  0.2258 -0.0944
 8118SOL    HW135813   1.129   1.359  11.679 -0.7039  0.2878 -1.4070
 8118SOL    HW235814   1.112   1.225  11.617 -1.4950  2.1320 -0.3432
 8119SOL     OW35815   3.766   2.384   3.664 -0.8470 -0.1399 -0.2637
 8119SOL    HW135816   3.677   2.359   3.688 -0.8090  0.1781  0.2176
 8119SOL    HW235817   3.817   2.305   3.676  2.1139  1.4453 -2.3704
 8120SOL     OW35818   4.628   4.072   1.066  0.1507 -0.1185  0.4870
 8120SOL    HW135819   4.617   4.016   1.142  1.6489  0.1175  0.8740
 8120SOL    HW235820   4.679   4.007   1.017 -0.7861  0.5727 -1.3937
 8121SOL     OW35821   0.586   1.886   3.362 -0.0426 -0.0901  0.3489
 8121SOL    HW135822   0.620   1.895   3.451 -0.3059  3.2315  0.1444
 8121SOL    HW235823   0.639   1.946   3.309  1.7041 -0.9093  1.1767
 8122SOL     OW35824   0.750   1.419   4.506 -0.1405 -0.7517 -0.2665
 8122SOL    HW135825   0.670   1.379   4.540 -1.0661  0.2186 -1.3068
 8122SOL    HW235826   0.807   1.343   4.515  0.3784 -0.3059  0.1930
 8123SOL     OW35827   3.760   3.667   7.071 -0.3367  0.5845  0.5435
 8123SOL    HW135828   3.742   3.573   7.076  0.0102  0.5108  0.4120
 8123SOL    HW235829   3.707   3.683   6.993 -1.6149 -0.7554  1.1292
 8124SOL     OW35830   0.219   2.947  12.670 -0.1445  0.1637  0.1946
 8124SOL    HW135831   0.134   2.986  12.651 -0.4854  0.6157  2.6334
 8124SOL    HW235832   0.282   3.018  12.652  3.4221 -3.1997 -0.6956
 8125SOL     OW35833   2.574   3.480   4.171 -0.1036 -0.2905  0.3355
 8125SOL    HW135834   2.618   3.557   4.135  1.8612 -1.7663 -0.4118
 8125SOL    HW235835   2.649   3.439   4.215 -1.7030  0.4866  3.8048
 8126SOL     OW35836   1.133   1.421   4.141  0.1725  0.1309  0.6794
 8126SOL    HW135837   1.104   1.383   4.224 -1.2182  1.7953  0.9687
 8126SOL    HW235838   1.213   1.374   4.119 -0.3609 -0.1033 -0.7658
 8127SOL     OW35839   4.454   0.951  15.269 -0.6299  0.4161 -0.0358
 8127SOL    HW135840   4.415   0.864  15.276  1.4127 -0.4780  0.3549
 8127SOL    HW235841   4.516   0.938  15.196 -0.8336  2.2942 -0.5301
 8128SOL     OW35842   3.321   2.078   5.894 -0.0024  0.9633  0.1696
 8128SOL    HW135843   3.387   2.077   5.964  1.3879 -1.2848 -1.1795
 8128SOL    HW235844   3.264   2.151   5.917  0.1118  0.6936  1.3244
 8129SOL     OW35845   3.193   2.219   9.726  0.1191  0.4356  0.3919
 8129SOL    HW135846   3.233   2.306   9.732  0.2907  0.5646 -2.2711
 8129SOL    HW235847   3.184   2.192   9.817 -1.6112  2.4775  0.8164
 8130SOL     OW35848   0.768   2.569   6.770  0.5882  0.0399  0.0551
 8130SOL    HW135849   0.732   2.588   6.683  2.5576  0.8511 -0.5985
 8130SOL    HW235850   0.736   2.644   6.820  1.2036  0.1803  0.2398
 8131SOL     OW35851   4.286   1.455   7.731 -0.3326 -0.4430 -0.2130
 8131SOL    HW135852   4.240   1.500   7.801  0.8227 -1.4621  1.2086
 8131SOL    HW235853   4.374   1.465   7.767 -0.4815 -3.8024  1.1005
 8132SOL     OW35854   3.760   3.843   6.693 -0.1237  0.3095  0.7159
 8132SOL    HW135855   3.732   3.932   6.712  2.0755  1.6623 -2.3168
 8132SOL    HW235856   3.809   3.862   6.613 -0.9426  1.9920  0.6167
 8133SOL     OW35857   1.807   3.919   4.973  0.2920 -0.6613 -0.4334
 8133SOL    HW135858   1.738   3.933   5.038 -0.3184 -0.1301 -1.1933
 8133SOL    HW235859   1.850   4.005   4.973  0.0117 -0.5186  2.0561
 8134SOL     OW35860   3.518   1.121  16.948  0.0174  0.2026 -0.0857
 8134SOL    HW135861   3.583   1.055  16.926  0.3442  0.4128  0.2389
 8134SOL    HW235862   3.580   1.182  16.989  0.7431  0.2752 -1.3145
 8135SOL     OW35863   1.378   2.785  10.965 -0.1553 -0.4625 -0.4133
 8135SOL    HW135864   1.310   2.826  10.911 -0.3991 -0.5685 -0.1875
 8135SOL    HW235865   1.325   2.721  11.012 -1.8300  0.0385 -1.6237
 8136SOL     OW35866   2.003   1.692   7.156 -0.2014  0.0602 -0.1381
 8136SOL    HW135867   1.996   1.604   7.119  0.5514 -0.7748  1.7184
 8136SOL    HW235868   2.097   1.712   7.161 -0.5990  2.0750 -0.6634
 8137SOL     OW35869   3.845   4.314   8.317  0.0068 -0.2710  0.2496
 8137SOL    HW135870   3.923   4.320   8.262 -1.2925  0.5631 -1.4790
 8137SOL    HW235871   3.872   4.249   8.383  1.3773 -0.2595 -0.2905
 8138SOL     OW35872   4.665   0.743   0.141  0.3665  0.6588  0.0686
 8138SOL    HW135873   4.666   0.836   0.159  1.6995  0.8402 -0.9178
 8138SOL    HW235874   4.649   0.705   0.227 -0.5475  3.4383  1.0991
 8139SOL     OW35875   0.098   1.272  14.685  0.3311  0.4639  0.3230
 8139SOL    HW135876   0.084   1.365  14.700  1.0353  0.4690  0.9584
 8139SOL    HW235877   0.188   1.260  14.716  0.2946 -3.5056 -1.0514
 8140SOL     OW35878   3.182   0.220   5.940 -0.1276 -0.0599 -0.5429
 8140SOL    HW135879   3.250   0.275   5.978 -1.5794  2.0756 -0.9825
 8140SOL    HW235880   3.234   0.148   5.904 -0.6437  0.0960 -1.6105
 8141SOL     OW35881   2.178   0.855   4.754 -0.5623 -0.2561  0.3555
 8141SOL    HW135882   2.211   0.768   4.732  0.8445  0.3158  0.2239
 8141SOL    HW235883   2.101   0.850   4.697  1.1561 -0.2692 -1.9530
 8142SOL     OW35884   2.586   3.835  15.685  0.6565  0.1274 -0.1403
 8142SOL    HW135885   2.552   3.820  15.597  0.3945 -1.8415  0.3043
 8142SOL    HW235886   2.542   3.914  15.719 -0.5773 -0.7512  0.2828
 8143SOL     OW35887   1.157   0.680   5.166 -0.3595 -0.0673  0.3747
 8143SOL    HW135888   1.166   0.775   5.155  0.4060  0.2244  3.4714
 8143SOL    HW235889   1.078   0.663   5.115 -0.3543  0.1613  0.2905
 8144SOL     OW35890   2.353   4.246   4.645 -0.4542  0.6944  0.0430
 8144SOL    HW135891   2.338   4.285   4.558  1.0725  0.0272 -0.5124
 8144SOL    HW235892   2.271   4.196   4.647 -0.3397  0.5900  1.7720
 8145SOL     OW35893   0.249   0.080  10.205 -0.2082 -0.8049 -0.2246
 8145SOL    HW135894   0.323   0.140  10.197 -0.3490 -0.6690 -0.5255
 8145SOL    HW235895   0.174   0.140  10.206  1.5818  1.4132 -0.3439
 8146SOL     OW35896   3.547   0.212   3.555 -0.0490  0.1149  0.1142
 8146SOL    HW135897   3.563   0.119   3.572 -2.5180 -0.3205 -0.0103
 8146SOL    HW235898   3.609   0.227   3.484 -2.0691 -0.2424 -1.6940
 8147SOL     OW35899   1.255   2.863   6.451 -0.3622 -0.2958 -0.7023
 8147SOL    HW135900   1.188   2.894   6.512  0.0244  0.8179 -0.8355
 8147SOL    HW235901   1.197   2.841   6.377 -1.8382  2.3438 -0.3285
 8148SOL     OW35902   3.477   4.636   7.083  0.2320  0.1874 -0.0714
 8148SOL    HW135903   3.446   4.615   7.171  0.2504 -1.5020 -0.4596
 8148SOL    HW235904   3.399   4.658   7.033  0.7004 -1.3565 -1.5031
 8149SOL     OW35905   0.675   2.749   3.522 -0.7412 -0.2080  0.2823
 8149SOL    HW135906   0.685   2.837   3.484 -2.7338  1.5990  3.9864
 8149SOL    HW235907   0.607   2.731   3.457 -1.5892 -0.6467  1.3034
 8150SOL     OW35908   4.439   2.528  10.069 -0.9746 -0.2016 -0.1747
 8150SOL    HW135909   4.468   2.444  10.031 -0.8020 -0.2707  0.1097
 8150SOL    HW235910   4.502   2.591  10.035 -0.1265 -2.2320 -2.4038
 8151SOL     OW35911   0.785   2.654   6.278  0.1365 -0.6168 -0.6683
 8151SOL    HW135912   0.814   2.569   6.311  2.9038  0.7960  0.4985
 8151SOL    HW235913   0.871   2.697   6.273 -0.3341 -0.1203 -4.6052
 8152SOL     OW35914   1.740   4.203   2.998 -0.2289 -0.5489 -0.0041
 8152SOL    HW135915   1.709   4.191   2.909 -0.2844  1.5747 -0.2600
 8152SOL    HW235916   1.815   4.143   3.000 -0.0162 -0.3081 -1.1066
 8153SOL     OW35917   0.124   4.475  11.592  0.1087 -0.2873 -0.0739
 8153SOL    HW135918   0.062   4.432  11.533  0.9946 -0.3695 -0.9340
 8153SOL    HW235919   0.138   4.556  11.543 -1.7325 -1.0139 -1.8097
 8154SOL     OW35920   2.828   1.798   6.768 -0.3442  0.8429 -0.1724
 8154SOL    HW135921   2.874   1.746   6.702 -0.3400  0.4720  0.1246
 8154SOL    HW235922   2.817   1.730   6.835  0.7298  1.5370  0.7174
 8155SOL     OW35923   3.945   0.220   5.747 -0.0808  0.0768 -0.0968
 8155SOL    HW135924   3.876   0.275   5.709 -0.1445 -0.5124 -0.8173
 8155SOL    HW235925   4.004   0.291   5.771 -1.0750  0.8207  0.1917
 8156SOL     OW35926   4.296   2.704   2.885 -0.2187 -0.0201  0.0068
 8156SOL    HW135927   4.375   2.657   2.859 -0.4827 -1.5390  1.9423
 8156SOL    HW235928   4.226   2.652   2.847  0.9830 -0.5857 -1.4372
 8157SOL     OW35929   0.112   4.641   0.437  0.2049 -0.5778 -0.0752
 8157SOL    HW135930   0.164   4.595   0.504  0.3177  0.6694  0.6959
 8157SOL    HW235931   0.105   0.006   0.473 -0.3875 -0.4838 -0.4289
 8158SOL     OW35932   3.592   3.647   6.874  0.1538 -0.5139  0.2612
 8158SOL    HW135933   3.614   3.714   6.808 -0.3380 -0.4599  0.1524
 8158SOL    HW235934   3.502   3.677   6.888 -0.3896 -1.0561 -2.0003
 8159SOL     OW35935   4.290   2.552   9.610  0.3896 -0.1149 -0.8347
 8159SOL    HW135936   4.378   2.558   9.646 -0.0250 -0.6973  0.2786
 8159SOL    HW235937   4.250   2.536   9.695  1.7512  0.8443 -0.0115
 8160SOL     OW35938   2.971   1.115   6.677 -0.1357  0.0209 -0.8760
 8160SOL    HW135939   2.944   1.192   6.627  2.1469  0.4121 -1.4850
 8160SOL    HW235940   2.897   1.056   6.664 -0.1771  0.0206 -0.6464
 8161SOL     OW35941   2.856   1.058  13.647 -0.2141 -0.4531 -0.4132
 8161SOL    HW135942   2.767   1.081  13.618  0.2602  0.1709 -1.3900
 8161SOL    HW235943   2.850   1.046  13.741 -0.1244 -0.5724 -0.4239
 8162SOL     OW35944   2.724   0.777  12.052 -0.2569 -0.0166 -0.6010
 8162SOL    HW135945   2.816   0.806  12.054 -0.2613  0.0058 -0.7342
 8162SOL    HW235946   2.734   0.683  12.069 -1.2028  0.4566  2.6869
 8163SOL     OW35947   1.897   1.957   2.567 -0.2134 -0.0508 -0.1990
 8163SOL    HW135948   1.802   1.967   2.560 -0.2689 -0.5561 -0.1993
 8163SOL    HW235949   1.912   1.892   2.497 -0.7447  0.7124 -1.0178
 8164SOL     OW35950   2.765   1.111   5.316 -0.6101  0.3223  0.3377
 8164SOL    HW135951   2.807   1.191   5.285  1.4396 -0.7752  0.2770
 8164SOL    HW235952   2.729   1.071   5.236 -0.5768 -1.6037  1.2920
 8165SOL     OW35953   4.317   1.243   5.748  0.2197  0.5188 -0.2434
 8165SOL    HW135954   4.343   1.151   5.753  0.2947  0.5764  0.4050
 8165SOL    HW235955   4.229   1.234   5.712 -0.3411  1.0958  0.9743
 8166SOL     OW35956   1.123   0.911   6.259 -0.6979 -0.4965 -0.3259
 8166SOL    HW135957   1.099   0.881   6.172  0.0490  0.8482 -0.9977
 8166SOL    HW235958   1.211   0.874   6.268  1.0439  3.7444  0.2927
 8167SOL     OW35959   1.982   3.591  12.819 -0.4460  0.4519  0.0660
 8167SOL    HW135960   2.060   3.556  12.777 -0.6892 -1.5626  1.2867
 8167SOL    HW235961   1.915   3.564  12.756 -0.2561 -0.7048  0.3594
 8168SOL     OW35962   2.278   2.528  13.126  0.2256 -0.6397  0.3728
 8168SOL    HW135963   2.270   2.554  13.218  0.4714 -0.8205  0.4442
 8168SOL    HW235964   2.354   2.579  13.101  1.5742 -2.0236  1.6489
 8169SOL     OW35965   4.723   0.800   0.551 -0.3655  0.0961  0.7624
 8169SOL    HW135966   4.696   0.771   0.639 -1.5012 -2.6376 -0.4810
 8169SOL    HW235967   0.093   0.821   0.556 -0.2413 -0.4020  0.5706
 8170SOL     OW35968   1.729   1.835   7.969  0.1186  0.7524  0.3200
 8170SOL    HW135969   1.745   1.886   8.048 -1.4093 -2.6376  2.7920
 8170SOL    HW235970   1.680   1.762   8.007  1.8308  0.2730  1.5977
 8171SOL     OW35971   1.032   3.014   9.690  0.3262  1.0242  0.3250
 8171SOL    HW135972   1.028   2.921   9.712 -1.0445  0.7444 -1.1032
 8171SOL    HW235973   1.104   3.003   9.628  0.1434  1.2709  0.0737
 8172SOL     OW35974   3.754   0.899   1.657  0.0423  0.1241  0.3801
 8172SOL    HW135975   3.809   0.950   1.597 -1.4910  2.5082  0.9894
 8172SOL    HW235976   3.712   0.968   1.708  2.5527  2.0062 -0.1155
 8173SOL     OW35977   2.121   2.831  14.583  0.1493  0.7562 -0.2629
 8173SOL    HW135978   2.042   2.875  14.551  0.2218  0.8929 -0.2540
 8173SOL    HW235979   2.118   2.749  14.534 -0.0682 -0.3507  1.6255
 8174SOL     OW35980   3.006   0.073   8.753 -0.7502 -0.0562  0.4902
 8174SOL    HW135981   3.003   4.706   8.785  2.5988 -0.2805  0.2377
 8174SOL    HW235982   3.079   0.109   8.803 -1.2531  0.4197  0.8745
 8175SOL     OW35983   0.269   1.134   3.495 -0.4517 -0.0609  0.0826
 8175SOL    HW135984   0.288   1.178   3.412 -1.1465  0.4261  0.1818
 8175SOL    HW235985   0.323   1.055   3.492 -0.3728 -0.0404  1.2091
 8176SOL     OW35986   0.225   2.588   4.541  0.5491 -0.0812 -0.3816
 8176SOL    HW135987   0.148   2.534   4.557  0.9731 -0.9292 -1.2346
 8176SOL    HW235988   0.182   2.674   4.542 -2.0545 -1.3917 -0.8414
 8177SOL     OW35989   3.309   2.544   1.984  0.1278  0.3771 -0.0834
 8177SOL    HW135990   3.350   2.459   1.998 -2.1404 -0.8444 -0.8604
 8177SOL    HW235991   3.252   2.551   2.060 -2.0294 -0.8588 -1.5723
 8178SOL     OW35992   1.377   3.601   7.870  0.0082  0.0079  0.3341
 8178SOL    HW135993   1.416   3.572   7.788  1.5135  0.1367  1.0112
 8178SOL    HW235994   1.439   3.573   7.937  0.4607  0.6329  0.1783
 8179SOL     OW35995   3.854   4.000   4.357 -0.0261  0.1381  0.0670
 8179SOL    HW135996   3.860   4.085   4.401 -1.0952  0.6628 -0.7746
 8179SOL    HW235997   3.825   3.943   4.428  0.4552  0.1990  0.3131
 8180SOL     OW35998   2.822   0.728   5.172 -0.2306 -0.0201 -0.0842
 8180SOL    HW135999   2.785   0.676   5.244  1.3026  0.4700  1.0684
 8180SOL    HW236000   2.753   0.726   5.106  1.9672  0.7503 -2.3912
 8181SOL     OW36001   2.165   1.450  14.775 -0.1458 -0.2748  0.5297
 8181SOL    HW136002   2.171   1.507  14.852 -0.8432  0.7478 -0.1627
 8181SOL    HW236003   2.260   1.446  14.763 -0.1895 -0.7967  0.3867
 8182SOL     OW36004   3.334   2.756   1.646  0.0089  0.0986 -0.2207
 8182SOL    HW136005   3.366   2.711   1.568 -2.6801  0.4731 -1.5431
 8182SOL    HW236006   3.338   2.850   1.626 -1.1297  0.2671  0.3693
 8183SOL     OW36007   0.607   2.356  15.331 -0.0312 -0.1795  0.4256
 8183SOL    HW136008   0.525   2.306  15.325 -0.0483 -0.2090  0.8668
 8183SOL    HW236009   0.575   2.443  15.309 -0.7418 -1.4554 -3.4206
 8184SOL     OW36010   3.585   2.485   7.665  0.2102 -0.1231  0.5565
 8184SOL    HW136011   3.518   2.454   7.604 -0.1625  0.8670  0.4599
 8184SOL    HW236012   3.536   2.534   7.730 -0.0256 -1.1188  1.1179
 8185SOL     OW36013   3.013   1.291   3.277 -0.3535 -0.4248  0.2742
 8185SOL    HW136014   2.970   1.369   3.241  0.9751  0.6650  1.0838
 8185SOL    HW236015   3.104   1.304   3.252 -0.4110  0.5132  0.5536
 8186SOL     OW36016   3.617   3.441   9.142  0.1955 -0.1949  0.0953
 8186SOL    HW136017   3.699   3.442   9.191 -0.1806  1.8866  0.7311
 8186SOL    HW236018   3.611   3.353   9.106 -1.1756  0.8826 -2.3132
 8187SOL     OW36019   1.806   3.934  15.416  0.2510  0.2125  0.0020
 8187SOL    HW136020   1.882   3.904  15.366  0.4062 -1.6425  1.3188
 8187SOL    HW236021   1.784   3.849  15.455  1.3291  1.0867  2.4928
 8188SOL     OW36022   0.927   2.748   3.201 -0.1527 -0.1125  0.6165
 8188SOL    HW136023   1.011   2.786   3.229 -1.0672  1.5517  1.0604
 8188SOL    HW236024   0.918   2.683   3.271  2.2965  0.0605  1.1067
 8189SOL     OW36025   2.617   0.469   0.597  0.5730 -0.5373 -0.2074
 8189SOL    HW136026   2.555   0.531   0.635  2.1909 -0.3191  2.0727
 8189SOL    HW236027   2.703   0.507   0.618 -1.1838  0.6920  4.6080
 8190SOL     OW36028   3.181   3.023   1.889 -0.5958  0.4078  0.3226
 8190SOL    HW136029   3.199   2.975   1.970 -2.0821  0.6004  0.7574
 8190SOL    HW236030   3.106   2.980   1.849 -1.5919  1.4640  1.0730
 8191SOL     OW36031   3.400   0.957   7.371  0.2016  0.1862 -0.3455
 8191SOL    HW136032   3.316   0.954   7.417  0.8232  0.7454  0.8438
 8191SOL    HW236033   3.453   1.005   7.435 -2.0743  1.4714  0.5941
 8192SOL     OW36034   3.573   4.079   7.080  0.2085 -0.3245 -0.0882
 8192SOL    HW136035   3.559   4.099   6.988 -0.6219 -0.9986 -0.1010
 8192SOL    HW236036   3.481   4.068   7.104  0.4699 -1.5582  0.3372
 8193SOL     OW36037   2.152   2.924   9.613  0.3973  0.6383  0.3593
 8193SOL    HW136038   2.164   3.001   9.558 -1.9286  1.5839  1.1829
 8193SOL    HW236039   2.143   2.852   9.550  0.1019 -0.6268  1.8242
 8194SOL     OW36040   0.977   4.563  10.822 -0.1550  0.1247  0.2025
 8194SOL    HW136041   0.911   4.568  10.753 -0.5460  1.9994  0.6957
 8194SOL    HW236042   0.928   4.598  10.896  1.7040 -0.7290  1.8548
 8195SOL     OW36043   0.444   0.446   8.580  0.1044 -0.2130  0.0196
 8195SOL    HW136044   0.368   0.504   8.586 -0.3055 -0.9381  1.8219
 8195SOL    HW236045   0.403   0.374   8.533  1.4133 -0.8320 -0.1820
 8196SOL     OW36046   1.519   1.850  10.736  0.2015 -0.4278 -0.0725
 8196SOL    HW136047   1.486   1.774  10.784 -2.3968 -0.9524 -2.6977
 8196SOL    HW236048   1.596   1.875  10.788  0.7820  1.1618 -1.6962
 8197SOL     OW36049   3.327   3.709   6.471 -0.7502  0.0826  0.1243
 8197SOL    HW136050   3.356   3.728   6.559 -0.8577 -1.9620  0.6117
 8197SOL    HW236051   3.232   3.708   6.484 -0.7333  2.0449  0.2764
 8198SOL     OW36052   2.324   2.120  17.479 -0.2296  0.2766 -0.2077
 8198SOL    HW136053   2.250   2.068  17.447  1.8386 -1.6394 -1.8704
 8198SOL    HW236054   2.400   2.062  17.468  0.7257  1.5256 -0.1810
 8199SOL     OW36055   0.810   2.457   2.134 -0.2417 -0.0153  0.6701
 8199SOL    HW136056   0.887   2.409   2.103 -0.8080 -0.4546 -0.0418
 8199SOL    HW236057   0.756   2.439   2.057 -0.7111  1.0473  0.7607
 8200SOL     OW36058   4.669   3.294  17.343 -0.0036  0.2553 -0.7235
 8200SOL    HW136059   0.015   3.355  17.316  0.9808 -1.4022 -1.8832
 8200SOL    HW236060   4.598   3.319  17.285 -1.6933  1.1259  1.7198
 8201SOL     OW36061   4.291   0.697   0.305 -0.5072 -0.2294 -0.2926
 8201SOL    HW136062   4.320   0.772   0.253 -0.6360 -0.6039 -0.9004
 8201SOL    HW236063   4.208   0.720   0.346 -0.0339 -1.4037  1.3467
 8202SOL     OW36064   0.938   4.630   3.633  0.1454  0.2484 -0.8026
 8202SOL    HW136065   0.868   4.680   3.674 -0.2877 -1.9327  1.1194
 8202SOL    HW236066   0.993   4.619   3.711  1.6212 -0.9345 -1.9893
 8203SOL     OW36067   3.385   3.681   4.321 -0.2343 -0.0403 -0.0507
 8203SOL    HW136068   3.344   3.624   4.257 -0.4472  1.7762 -1.5341
 8203SOL    HW236069   3.472   3.692   4.283 -0.4799  0.4731 -0.4623
 8204SOL     OW36070   3.481   4.368   5.102 -0.4048  0.1615 -0.1806
 8204SOL    HW136071   3.455   4.394   5.013  1.8925  2.4891 -0.1848
 8204SOL    HW236072   3.499   4.449   5.149  2.7807 -0.6802  0.0391
 8205SOL     OW36073   2.321   2.692   7.780 -0.5606 -1.0362  0.2621
 8205SOL    HW136074   2.320   2.633   7.855 -2.0751 -1.1375  0.1625
 8205SOL    HW236075   2.385   2.643   7.728  0.7717 -1.5150  2.3515
 8206SOL     OW36076   0.097   3.170   6.337 -0.5379 -0.1760 -0.4184
 8206SOL    HW136077   0.083   3.226   6.413  1.0029 -0.3779  0.0219
 8206SOL    HW236078   0.048   3.215   6.269  0.3793 -0.0901 -1.0265
 8207SOL     OW36079   1.670   1.393   3.786 -0.3562  0.2379 -0.4238
 8207SOL    HW136080   1.645   1.406   3.694  0.6027 -0.3355 -0.7668
 8207SOL    HW236081   1.745   1.451   3.797  1.9409 -1.9920 -4.2025
 8208SOL     OW36082   1.914   2.282   7.344 -0.4399  0.2542  0.5079
 8208SOL    HW136083   1.940   2.345   7.276 -3.6184  0.0682 -0.8538
 8208SOL    HW236084   1.821   2.290   7.324  0.0713  0.3862 -1.8776
 8209SOL     OW36085   3.908   4.208   4.540  0.8731 -0.0715 -0.3044
 8209SOL    HW136086   4.002   4.208   4.518  0.6471 -0.7238 -1.2483
 8209SOL    HW236087   3.921   4.212   4.634  1.2613  2.1539 -0.4518
 8210SOL     OW36088   0.062   0.551   3.639 -0.1183 -0.4330  0.2890
 8210SOL    HW136089   0.094   0.517   3.555 -0.6943  1.9226 -0.9032
 8210SOL    HW236090   0.146   0.594   3.656 -0.1045 -0.6908  0.8423
 8211SOL     OW36091   2.398   3.283   0.729  0.0312 -0.1766 -0.3645
 8211SOL    HW136092   2.466   3.218   0.748 -0.1547  0.1486  1.4825
 8211SOL    HW236093   2.450   3.364   0.732  1.4139 -1.0318 -1.4598
 8212SOL     OW36094   4.388   1.837   7.312  0.2686 -0.5411  0.2459
 8212SOL    HW136095   4.297   1.831   7.283  0.5564 -3.1471 -0.1969
 8212SOL    HW236096   4.436   1.765   7.269  0.1279 -1.7607  2.1472
 8213SOL     OW36097   1.056   0.001  17.418 -0.0493  0.0605 -0.2328
 8213SOL    HW136098   0.991   0.071  17.410 -2.4829 -1.9753  1.5298
 8213SOL    HW236099   1.060   4.695  17.327 -1.9300 -1.4805  0.1661
 8214SOL     OW36100   3.317   2.840  10.742 -1.1169  0.0631  0.1985
 8214SOL    HW136101   3.279   2.795  10.817  1.7019 -1.9557  0.4092
 8214SOL    HW236102   3.246   2.858  10.680 -2.3137 -1.1200  1.2230
 8215SOL     OW36103   2.538   0.523   6.486 -0.1543 -0.0934  0.1551
 8215SOL    HW136104   2.588   0.441   6.483  0.2996  0.1915 -0.0704
 8215SOL    HW236105   2.486   0.508   6.564 -1.9087  0.3165 -0.9431
 8216SOL     OW36106   2.003   0.576   8.804 -0.2833 -0.2295  0.1439
 8216SOL    HW136107   1.949   0.644   8.763 -3.0335 -1.5543  1.5414
 8216SOL    HW236108   2.029   0.618   8.886 -1.1138  1.3304 -0.3823
 8217SOL     OW36109   3.900   4.598   4.284  0.0978  0.5345 -0.3083
 8217SOL    HW136110   3.858   4.553   4.358  2.3459 -2.5744 -0.9418
 8217SOL    HW236111   3.986   4.619   4.319  0.5536 -1.3477 -0.3164
 8218SOL     OW36112   0.390   4.306   5.498  0.2576 -0.9864 -0.2913
 8218SOL    HW136113   0.398   4.346   5.584 -0.7847 -0.4209 -0.4643
 8218SOL    HW236114   0.377   4.387   5.448  4.1503  0.2291  0.6289
 8219SOL     OW36115   3.378   0.043  12.013 -0.4974  0.1154 -0.2862
 8219SOL    HW136116   3.370   0.110  11.945 -0.5050 -0.3337 -0.7316
 8219SOL    HW236117   3.415   4.687  11.973  1.1727  1.1305 -0.7328
 8220SOL     OW36118   2.783   2.937   3.747  0.0856 -0.2595  0.2188
 8220SOL    HW136119   2.697   2.915   3.782 -1.2855  1.2353 -2.1550
 8220SOL    HW236120   2.768   3.018   3.698 -0.1069 -0.9314 -0.8559
 8221SOL     OW36121   0.711   4.542   4.237  0.4526 -0.3420 -0.1422
 8221SOL    HW136122   0.757   4.473   4.189 -1.7250 -1.3541 -0.8028
 8221SOL    HW236123   0.625   4.550   4.195  0.3840 -1.8851 -0.2869
 8222SOL     OW36124   1.160   0.117   8.170  0.7065 -1.0267  0.3230
 8222SOL    HW136125   1.098   0.167   8.118  1.8993 -1.6335 -1.6605
 8222SOL    HW236126   1.107   0.111   8.250 -0.5145 -0.3887 -0.4379
 8223SOL     OW36127   3.898   3.959   6.493  0.0509  0.4188  0.3158
 8223SOL    HW136128   3.966   4.012   6.533  0.6355 -0.6721  0.7698
 8223SOL    HW236129   3.943   3.949   6.410  0.5759 -0.1858  0.6697
 8224SOL     OW36130   1.521   3.155   7.725 -0.1858 -0.2384  0.1934
 8224SOL    HW136131   1.502   3.188   7.813  0.4286 -0.6132  0.4661
 8224SOL    HW236132   1.605   3.194   7.702 -0.6641 -0.0428 -1.1876
 8225SOL     OW36133   0.140   3.891  17.480  0.1942  0.0755 -0.3161
 8225SOL    HW136134   0.196   3.928  17.547  1.4170 -1.4758 -0.4875
 8225SOL    HW236135   0.087   3.968  17.457  0.2457 -0.0744 -0.9331
 8226SOL     OW36136   0.768   1.572  10.358 -0.1193 -0.4409 -0.4376
 8226SOL    HW136137   0.777   1.620  10.275 -1.4590 -0.6335 -0.6917
 8226SOL    HW236138   0.846   1.516  10.352  1.2384  1.5357 -1.5574
 8227SOL     OW36139   3.458   3.736  15.569  0.3071  0.1329 -0.1796
 8227SOL    HW136140   3.428   3.821  15.601  1.3714  0.8415 -1.0994
 8227SOL    HW236141   3.552   3.749  15.567  0.3606 -0.1143  0.4796
 8228SOL     OW36142   0.874   4.323   6.324  0.1602 -0.4489  0.1211
 8228SOL    HW136143   0.959   4.287   6.347 -0.0559 -1.2417 -0.3118
 8228SOL    HW236144   0.898   4.345   6.234 -2.3332  1.8197  0.0007
 8229SOL     OW36145   0.460   4.350  15.572  0.0436  0.0578 -0.9911
 8229SOL    HW136146   0.376   4.339  15.617  0.4768  0.8707  0.0010
 8229SOL    HW236147   0.499   4.424  15.619  2.4429 -1.4890 -0.5274
 8230SOL     OW36148   2.480   4.259  13.160  0.0931 -0.7580  0.8018
 8230SOL    HW136149   2.537   4.183  13.171  1.3834  0.1447  0.3216
 8230SOL    HW236150   2.498   4.315  13.235 -0.5207  0.3343  0.1293
 8231SOL     OW36151   4.633   1.192  11.110  0.1941  0.1237 -0.4320
 8231SOL    HW136152   4.719   1.235  11.113  0.3682 -0.3631  2.0842
 8231SOL    HW236153   4.573   1.266  11.114  0.5022  0.3405  0.3554
 8232SOL     OW36154   3.714   0.732  11.503 -0.6634 -0.8971  0.0250
 8232SOL    HW136155   3.634   0.681  11.491 -1.0755 -0.2851  0.1589
 8232SOL    HW236156   3.759   0.712  11.422  0.7811  1.1150  0.3353
 8233SOL     OW36157   0.977   1.564   5.922  0.0622  0.6676  0.0602
 8233SOL    HW136158   0.914   1.514   5.974  1.8454 -1.5135  0.1399
 8233SOL    HW236159   1.063   1.530   5.948 -0.5964 -0.7861  0.3633
 8234SOL     OW36160   4.390   0.215   6.867 -0.0842  0.1575  0.5766
 8234SOL    HW136161   4.431   0.190   6.950  0.0219 -0.2600  0.3991
 8234SOL    HW236162   4.337   0.137   6.855 -1.8113  1.3111  0.7266
 8235SOL     OW36163   3.054   3.247  11.640  0.0267  0.5853 -0.2973
 8235SOL    HW136164   2.965   3.263  11.672  0.0556  2.6670 -1.2278
 8235SOL    HW236165   3.037   3.257  11.547 -1.0340  1.8995  0.0309
 8236SOL     OW36166   3.775   0.110   2.703 -0.2286 -0.3205  0.5852
 8236SOL    HW136167   3.796   0.203   2.694  0.3562 -0.5100 -0.0367
 8236SOL    HW236168   3.813   0.088   2.788  1.7893  1.5342  0.1823
 8237SOL     OW36169   0.600   1.765   5.570 -0.0160  0.1940  0.5818
 8237SOL    HW136170   0.695   1.755   5.576  0.1480 -0.1561 -2.7196
 8237SOL    HW236171   0.569   1.784   5.658 -1.6805 -1.6773  0.4007
 8238SOL     OW36172   1.192   1.725  15.228 -0.1518 -0.0964  1.1988
 8238SOL    HW136173   1.137   1.753  15.155  0.1126 -1.1263  0.6006
 8238SOL    HW236174   1.236   1.646  15.196 -0.3280  0.0308  0.6454
 8239SOL     OW36175   2.114   4.686   5.216 -0.6520 -0.2678 -0.0103
 8239SOL    HW136176   2.207   4.685   5.240 -0.4843 -1.9267 -0.7128
 8239SOL    HW236177   2.083   4.720   5.300 -0.6251  2.0115 -0.9279
 8240SOL     OW36178   1.770   2.748   8.302  0.4670  0.4468 -0.0098
 8240SOL    HW136179   1.679   2.725   8.285  1.3186 -2.0761 -1.1859
 8240SOL    HW236180   1.780   2.816   8.236 -0.6766  0.8232  0.2165
 8241SOL     OW36181   0.648   2.107   3.194 -0.1191 -0.6945 -0.1559
 8241SOL    HW136182   0.707   2.129   3.122  0.9760  0.7976  1.2038
 8241SOL    HW236183   0.573   2.078   3.142 -1.5664  1.4097  0.8188
 8242SOL     OW36184   4.172   2.205   7.786 -0.4063 -0.7725  0.0437
 8242SOL    HW136185   4.185   2.123   7.739  1.8796  1.0729 -2.5107
 8242SOL    HW236186   4.119   2.179   7.862  1.9169 -1.3481  1.4619
 8243SOL     OW36187   1.180   4.614   7.401 -0.0941  0.0888  0.2769
 8243SOL    HW136188   1.161   4.705   7.377 -0.0731  0.2001  0.6885
 8243SOL    HW236189   1.247   4.620   7.468  0.3211  1.4373 -0.2602
 8244SOL     OW36190   1.554   4.598  17.529 -0.1086  0.1974 -0.8122
 8244SOL    HW136191   1.527   4.606  17.438 -0.9597  2.0782 -0.3903
 8244SOL    HW236192   1.466   4.594  17.566 -0.5721  1.1710 -1.8160
 8245SOL     OW36193   3.186   4.175   5.361 -0.3480 -0.1207 -0.0713
 8245SOL    HW136194   3.247   4.109   5.327 -0.4360 -0.4283  0.3796
 8245SOL    HW236195   3.216   4.200   5.448 -0.0968  1.7651 -0.6952
 8246SOL     OW36196   4.255   2.424  15.023  0.1907 -0.2139 -0.1306
 8246SOL    HW136197   4.206   2.346  14.998 -0.7031  0.6348 -0.9928
 8246SOL    HW236198   4.342   2.392  15.049  0.8064  1.8144  0.2619
 8247SOL     OW36199   1.997   0.958   7.382 -0.3772 -0.3518 -0.1528
 8247SOL    HW136200   1.945   0.932   7.306 -0.7742 -0.4476  0.1542
 8247SOL    HW236201   2.057   0.884   7.377 -3.6814 -3.2459  3.0061
 8248SOL     OW36202   3.563   1.150   6.563 -0.6998  0.2010  0.3114
 8248SOL    HW136203   3.498   1.144   6.494 -1.2412 -0.2856  0.8681
 8248SOL    HW236204   3.629   1.082   6.548 -1.4028 -0.7221  1.4568
 8249SOL     OW36205   2.225   1.713   6.687 -0.4535  0.0994 -0.0331
 8249SOL    HW136206   2.202   1.682   6.599  1.5382  0.0911 -0.5735
 8249SOL    HW236207   2.158   1.780   6.695 -0.5575 -0.1081  0.8376
 8250SOL     OW36208   1.908   1.363   6.147 -0.7833  0.5971 -0.8956
 8250SOL    HW136209   1.857   1.391   6.222 -1.0263  2.2802 -1.6767
 8250SOL    HW236210   1.930   1.451   6.118  0.7935  0.0173 -1.4610
 8251SOL     OW36211   4.076   0.824   7.881  0.9027 -0.3483 -0.2210
 8251SOL    HW136212   4.110   0.900   7.929 -0.0600 -0.1272  0.1130
 8251SOL    HW236213   4.054   0.866   7.797  1.3902  0.5719  0.1079
 8252SOL     OW36214   2.391   3.648   5.038  0.0495 -0.3321  0.2307
 8252SOL    HW136215   2.470   3.699   5.059  0.1174 -0.3201 -0.0590
 8252SOL    HW236216   2.429   3.581   4.982  1.4475  1.5413 -1.0544
 8253SOL     OW36217   3.793   1.801   2.972  0.1283  0.1330  0.0789
 8253SOL    HW136218   3.749   1.737   3.028  0.1454  1.2875  1.4251
 8253SOL    HW236219   3.875   1.752   2.971 -0.0347 -0.1776  1.3829
 8254SOL     OW36220   3.893   1.303   3.487 -0.0238  0.3305  0.3540
 8254SOL    HW136221   3.959   1.299   3.556  0.3120 -0.5386 -0.0090
 8254SOL    HW236222   3.924   1.232   3.431 -0.6185 -0.6696  1.2961
 8255SOL     OW36223   0.125   2.546   7.084  0.0745 -0.3835 -0.2396
 8255SOL    HW136224   0.171   2.619   7.042 -1.2114  1.2089  1.1162
 8255SOL    HW236225   0.168   2.537   7.169  0.7813 -2.6935 -0.8461
 8256SOL     OW36226   1.705   2.784   9.772 -0.0294  0.1032 -0.2569
 8256SOL    HW136227   1.710   2.724   9.846 -0.3972 -1.8048 -1.7942
 8256SOL    HW236228   1.755   2.738   9.705 -0.8486 -1.3751  0.1491
 8257SOL     OW36229   1.846   0.315   8.553  0.0817  0.3591 -0.0853
 8257SOL    HW136230   1.843   0.286   8.644  0.1033 -0.9901 -0.5232
 8257SOL    HW236231   1.871   0.239   8.502 -1.1458  0.9536 -1.5791
 8258SOL     OW36232   0.187   1.882   6.487  0.3241  0.1163 -0.3927
 8258SOL    HW136233   0.190   1.831   6.406  0.6878  1.5575 -1.2782
 8258SOL    HW236234   0.125   1.825   6.532  2.0602 -0.6982  0.9781
 8259SOL     OW36235   4.709   1.808  14.910  0.1326  0.0144 -0.0231
 8259SOL    HW136236   4.693   1.715  14.894 -0.5311  0.3942 -1.5094
 8259SOL    HW236237   4.620   1.841  14.916  0.0602 -0.2731  0.5874
 8260SOL     OW36238   4.162   4.304   7.030 -0.4656  0.1734 -0.2211
 8260SOL    HW136239   4.085   4.282   7.083  1.3306 -1.6536  1.6269
 8260SOL    HW236240   4.136   4.261   6.947  1.0191  2.0302 -1.6351
 8261SOL     OW36241   2.975   3.846  13.452  0.2296 -0.1230 -0.1291
 8261SOL    HW136242   2.942   3.876  13.537 -3.6409  0.9943 -2.0680
 8261SOL    HW236243   3.062   3.811  13.476  0.0023  0.0995  1.0467
 8262SOL     OW36244   0.332   3.855  13.537 -0.0256 -0.1951  0.3736
 8262SOL    HW136245   0.272   3.787  13.569 -2.6997  1.3920 -1.1767
 8262SOL    HW236246   0.306   3.861  13.445  3.7292  2.5238 -0.4587
 8263SOL     OW36247   4.186   3.368   9.504  1.0427  0.4602 -0.0460
 8263SOL    HW136248   4.202   3.346   9.596  2.3819  1.4887 -0.0431
 8263SOL    HW236249   4.119   3.307   9.473  1.1265 -0.2856  1.2615
 8264SOL     OW36250   3.536   3.965  13.443  0.4327  0.4463 -0.4681
 8264SOL    HW136251   3.629   3.976  13.424  0.1262  0.5907 -1.9007
 8264SOL    HW236252   3.504   4.028  13.379  0.0780 -0.8182 -1.5515
 8265SOL     OW36253   0.250   3.321   3.696  0.3371 -0.3382 -0.3191
 8265SOL    HW136254   0.182   3.375   3.656 -0.2866 -1.0083 -0.1700
 8265SOL    HW236255   0.230   3.243   3.644 -0.5295  0.4461 -1.1779
 8266SOL     OW36256   3.367   4.514   6.004 -0.2903  0.0163 -0.2553
 8266SOL    HW136257   3.285   4.530   5.957  0.2081  2.9169 -0.1442
 8266SOL    HW236258   3.419   4.593   5.991  1.0386 -1.0274 -1.2020
 8267SOL     OW36259   2.763   1.771   9.963 -0.4101  0.5716 -0.4927
 8267SOL    HW136260   2.844   1.821   9.952 -0.3863  0.4384 -0.9227
 8267SOL    HW236261   2.695   1.836   9.944 -3.0957 -2.5789 -1.5701
 8268SOL     OW36262   2.409   4.484   7.328 -0.8572  0.0748 -0.1705
 8268SOL    HW136263   2.503   4.465   7.322 -1.8423 -3.9498 -2.6445
 8268SOL    HW236264   2.406   4.495   7.423  1.2479  2.9638 -0.4129
 8269SOL     OW36265   0.316   2.078   3.551 -0.0027 -0.0142  0.0169
 8269SOL    HW136266   0.352   2.117   3.631 -0.3411 -2.7649  1.5200
 8269SOL    HW236267   0.343   2.138   3.482 -1.6112  0.6283 -0.0608
 8270SOL     OW36268   4.121   0.335   3.219 -0.3798 -0.5304  0.0306
 8270SOL    HW136269   4.150   0.411   3.169 -1.6014 -0.4653 -0.5680
 8270SOL    HW236270   4.199   0.280   3.231 -0.0679  0.5839  3.0615
 8271SOL     OW36271   0.715   4.239   8.752  0.1929 -0.2772  0.1040
 8271SOL    HW136272   0.797   4.242   8.800 -1.0404  2.4575  2.0651
 8271SOL    HW236273   0.706   4.159   8.699  0.8904  0.0821 -0.5520
 8272SOL     OW36274   3.345   1.381   3.599  0.3032  0.3270 -0.3104
 8272SOL    HW136275   3.362   1.349   3.511  0.2353 -2.2153  0.5891
 8272SOL    HW236276   3.259   1.423   3.598 -0.4727 -1.2428  0.1152
 8273SOL     OW36277   2.544   0.002   5.926 -0.8198  0.2499 -0.0766
 8273SOL    HW136278   2.551   4.663   5.998  1.3160  1.2786  0.6179
 8273SOL    HW236279   2.637   0.002   5.900 -0.7954 -1.4715  0.0527
 8274SOL     OW36280   2.808   3.181   3.551  0.1405 -0.4652  0.2888
 8274SOL    HW136281   2.894   3.176   3.593 -0.1880 -2.6747  0.6628
 8274SOL    HW236282   2.761   3.255   3.590 -0.5888 -0.4382 -0.6411
 8275SOL     OW36283   0.574   3.486   6.885 -0.1406  0.4773  0.7646
 8275SOL    HW136284   0.654   3.512   6.839 -1.0710 -0.6341 -1.4598
 8275SOL    HW236285   0.508   3.528   6.829  0.2572 -2.1070 -1.6226
 8276SOL     OW36286   0.995   4.284  12.187  0.3481  0.5889  0.3490
 8276SOL    HW136287   1.057   4.260  12.117 -1.6341 -0.1621 -1.1470
 8276SOL    HW236288   1.004   4.379  12.190 -1.2802  0.7207  1.0015
 8277SOL     OW36289   2.810   0.058   6.521 -0.2048  0.4365 -0.0593
 8277SOL    HW136290   2.846   4.694   6.504 -0.5165  0.4263 -0.6737
 8277SOL    HW236291   2.890   0.111   6.527 -0.7966  1.4810 -1.2228
 8278SOL     OW36292   4.383   2.590   4.035 -0.3888  0.4940  0.2768
 8278SOL    HW136293   4.458   2.649   4.033 -0.2795  0.3486  0.1001
 8278SOL    HW236294   4.431   2.515   4.000  0.5460  0.8175  0.8638
 8279SOL     OW36295   3.726   1.567  14.764  0.0520 -0.0093 -0.5133
 8279SOL    HW136296   3.679   1.578  14.681  1.6273  0.3714 -1.3424
 8279SOL    HW236297   3.729   1.659  14.790  1.1011 -0.5931  1.5113
 8280SOL     OW36298   4.498   1.388   2.373  0.2305 -0.0128  0.2912
 8280SOL    HW136299   4.542   1.310   2.407  2.3188  1.2873  0.5939
 8280SOL    HW236300   4.533   1.381   2.284 -2.7254 -1.2037 -0.7748
 8281SOL     OW36301   3.417   0.271   1.240 -0.0912 -0.2268  0.2161
 8281SOL    HW136302   3.335   0.319   1.251 -0.4966 -1.4020  2.2209
 8281SOL    HW236303   3.438   0.312   1.156 -0.2210 -1.4128 -0.4001
 8282SOL     OW36304   3.477   4.627   9.566  0.0338  0.2302  0.3444
 8282SOL    HW136305   3.446   4.547   9.523 -0.5955 -0.4433  2.0556
 8282SOL    HW236306   3.447   4.625   9.657 -1.2638  0.0468 -0.0846
 8283SOL     OW36307   4.469   0.869   5.102  0.1419 -0.5702 -0.1060
 8283SOL    HW136308   4.383   0.906   5.084  1.3758  0.5961 -3.5784
 8283SOL    HW236309   4.443   0.788   5.147 -1.0830  0.0748  0.3513
 8284SOL     OW36310   4.351   1.595   6.824  0.3700 -0.2713 -0.3826
 8284SOL    HW136311   4.419   1.662   6.818 -1.7230  2.2297  3.3446
 8284SOL    HW236312   4.269   1.642   6.805  1.2708  1.1791 -0.6444
 8285SOL     OW36313   2.755   2.346   1.014  0.3748 -0.2472 -0.4248
 8285SOL    HW136314   2.728   2.268   1.062 -0.0917 -0.2273 -0.6601
 8285SOL    HW236315   2.809   2.391   1.080 -0.8278  0.0480  0.3542
 8286SOL     OW36316   4.427   4.132   6.823 -0.2724 -0.3523 -0.3889
 8286SOL    HW136317   4.358   4.196   6.805 -1.1279 -0.1690  3.4556
 8286SOL    HW236318   4.369   4.058   6.839 -1.3602  0.5564 -0.0720
 8287SOL     OW36319   0.598   4.194   7.074  0.1211  0.4184  0.5320
 8287SOL    HW136320   0.628   4.116   7.120  0.4740 -1.2090 -2.4794
 8287SOL    HW236321   0.528   4.164   7.017  0.2459 -1.5263  1.4364
 8288SOL     OW36322   0.898   4.714   8.812  0.0461 -0.8861 -0.3200
 8288SOL    HW136323   0.932   4.685   8.897 -1.4990 -1.2669  0.1561
 8288SOL    HW236324   0.877   0.084   8.822  0.1742 -0.9469  0.4697
 8289SOL     OW36325   0.527   3.039   1.813 -0.4073  0.3293  0.0250
 8289SOL    HW136326   0.487   2.959   1.778  1.7376 -1.5228  1.8575
 8289SOL    HW236327   0.609   2.999   1.841  1.1381  2.4724 -1.3860
 8290SOL     OW36328   4.272   4.372   8.270 -0.0311  0.0833 -0.2677
 8290SOL    HW136329   4.226   4.452   8.292  1.6149  1.4485 -1.7698
 8290SOL    HW236330   4.203   4.318   8.230  0.0930 -0.7285  0.6080
 8291SOL     OW36331   0.563   4.308   1.947 -0.2026 -0.2540 -0.1510
 8291SOL    HW136332   0.566   4.357   2.029 -0.9570 -1.6584  0.7215
 8291SOL    HW236333   0.493   4.246   1.968  1.0930 -1.4702  0.6053
 8292SOL     OW36334   1.069   3.996  13.767 -0.9109  0.0193  0.4709
 8292SOL    HW136335   1.029   3.934  13.827  0.3714  0.5167  1.8309
 8292SOL    HW236336   1.040   3.966  13.680  2.0580 -0.8383 -0.2147
 8293SOL     OW36337   2.416   4.025  17.586  0.9676 -0.6192 -0.0034
 8293SOL    HW136338   2.478   4.082  17.540  0.1264  0.9391  0.7736
 8293SOL    HW236339   2.444   4.031  17.678 -0.2635  0.3477  0.3155
 8294SOL     OW36340   1.392   4.262   7.947  0.8366 -0.4969  0.0073
 8294SOL    HW136341   1.388   4.213   8.030 -1.2877 -2.2094 -1.1051
 8294SOL    HW236342   1.459   4.329   7.958 -0.0505  0.0865  1.8731
 8295SOL     OW36343   4.340   2.049  11.688 -1.0041  0.1161  0.4236
 8295SOL    HW136344   4.274   1.994  11.729  0.8710 -1.1813  1.7578
 8295SOL    HW236345   4.294   2.096  11.619 -0.8286 -0.1967  0.0914
 8296SOL     OW36346   3.758   4.264  10.375 -0.1287 -0.1674  0.1648
 8296SOL    HW136347   3.747   4.359  10.381  1.1747  0.0680 -1.0273
 8296SOL    HW236348   3.725   4.250  10.286  0.1354  2.8688 -0.4098
 8297SOL     OW36349   0.455   3.502   1.230  0.4082 -0.3528 -0.2471
 8297SOL    HW136350   0.477   3.508   1.323 -1.2791  0.2274  0.1027
 8297SOL    HW236351   0.544   3.481   1.200  0.9436  2.6281 -0.6834
 8298SOL     OW36352   2.808   4.287  13.028 -0.8180  0.2964 -0.6257
 8298SOL    HW136353   2.887   4.294  12.974 -2.2574  2.0500 -2.5162
 8298SOL    HW236354   2.750   4.343  12.976  2.3758  2.1760 -2.1760
 8299SOL     OW36355   1.437   2.902   8.202  0.1437  0.0663 -0.1548
 8299SOL    HW136356   1.363   2.952   8.166  0.4506  1.5828  1.3494
 8299SOL    HW236357   1.492   2.967   8.245 -1.4567  1.7464 -0.6345
 8300SOL     OW36358   0.447   3.056   3.390 -0.2251 -0.1307 -0.8174
 8300SOL    HW136359   0.413   2.967   3.385 -1.0844  0.1219  0.8135
 8300SOL    HW236360   0.541   3.041   3.398 -0.4116 -1.2044 -0.6905
 8301SOL     OW36361   0.574   2.657  12.951  0.2337 -0.6237  0.3073
 8301SOL    HW136362   0.565   2.725  12.884 -1.2588 -0.9120  0.2175
 8301SOL    HW236363   0.667   2.636  12.951  0.5201  0.6647 -1.1420
 8302SOL     OW36364   0.190   3.833  12.751  0.0142  0.1520  0.4618
 8302SOL    HW136365   0.132   3.909  12.742  1.1953  1.0416  0.4496
 8302SOL    HW236366   0.128   3.760  12.738  0.4531  0.5755 -3.9290
 8303SOL     OW36367   3.129   2.011   9.407 -0.0213 -0.6915 -0.1738
 8303SOL    HW136368   3.062   1.963   9.358 -0.2647 -0.5647  0.0379
 8303SOL    HW236369   3.098   2.101   9.415  1.8341  0.0414 -1.1861
 8304SOL     OW36370   1.928   4.626   3.260 -0.0769 -0.3124  0.3279
 8304SOL    HW136371   1.883   4.638   3.344 -0.0369 -1.3624  0.5056
 8304SOL    HW236372   2.018   4.642   3.289  0.0468 -1.3262  0.5157
 8305SOL     OW36373   3.875   3.480   2.957  0.0233  0.2312  0.7924
 8305SOL    HW136374   3.921   3.563   2.945 -0.8302  0.6155  0.1738
 8305SOL    HW236375   3.948   3.418   2.959  1.1590  1.5117 -1.2765
 8306SOL     OW36376   4.703   4.599   1.530 -0.1068 -0.1859  0.4256
 8306SOL    HW136377   0.038   4.524   1.518  2.2194  1.9597 -1.6688
 8306SOL    HW236378   4.684   4.582   1.623 -2.0269 -0.6488 -0.0486
 8307SOL     OW36379   0.983   4.446   7.518 -0.1383 -0.2727  0.3000
 8307SOL    HW136380   1.024   4.523   7.478  0.2963 -1.8256 -2.2450
 8307SOL    HW236381   0.895   4.472   7.545  0.1092  1.7158 -0.8167
 8308SOL     OW36382   0.954   2.485   3.319  0.1631  0.1129 -0.1956
 8308SOL    HW136383   0.860   2.470   3.313  0.3167 -0.4234 -1.2561
 8308SOL    HW236384   1.002   2.425   3.262  0.3773 -1.6503  1.8550
 8309SOL     OW36385   1.151   3.043  14.380  0.0380 -0.2552  0.0994
 8309SOL    HW136386   1.102   2.994  14.446  0.4549  1.7478  1.8854
 8309SOL    HW236387   1.149   2.987  14.302  0.5617  0.0385 -0.1250
 8310SOL     OW36388   3.728   2.743   8.274 -0.3250 -0.0727 -0.5100
 8310SOL    HW136389   3.637   2.762   8.293 -0.5519 -0.9448 -0.7138
 8310SOL    HW236390   3.727   2.707   8.185 -0.1658  2.3789 -1.4898
 8311SOL     OW36391   0.551   1.210   5.736  0.6734  0.1439  0.2786
 8311SOL    HW136392   0.518   1.134   5.784  1.9948 -0.4621  0.2219
 8311SOL    HW236393   0.477   1.256   5.696  3.2353  5.1384  1.2005
 8312SOL     OW36394   4.395   1.776   5.328 -0.7994 -0.1762 -0.2618
 8312SOL    HW136395   4.454   1.839   5.287 -0.7797  0.7252  1.1588
 8312SOL    HW236396   4.415   1.703   5.270 -2.1185 -0.9066  0.1960
 8313SOL     OW36397   3.268   4.691   0.863  0.2347 -0.2175  0.3932
 8313SOL    HW136398   3.354   4.720   0.832 -0.5923  0.2651 -1.4845
 8313SOL    HW236399   3.236   0.038   0.919 -0.4535 -1.0169  1.0015
 8314SOL     OW36400   1.610   0.330  13.003 -0.3616 -0.3998  0.4126
 8314SOL    HW136401   1.666   0.255  13.022  0.4078  0.6235  2.1257
 8314SOL    HW236402   1.567   0.299  12.922 -2.7121 -1.7447  2.1584
 8315SOL     OW36403   1.196   4.170   6.679  0.3829  0.1277  0.3833
 8315SOL    HW136404   1.274   4.177   6.734  0.4611 -0.0871  0.2983
 8315SOL    HW236405   1.123   4.196   6.736  2.6557  2.3929  2.2567
 8316SOL     OW36406   2.453   0.354   9.134 -0.6194 -0.4195 -0.2258
 8316SOL    HW136407   2.486   0.313   9.054  1.2385  1.9332 -0.6678
 8316SOL    HW236408   2.385   0.414   9.103 -0.8944  0.9481  2.9596
 8317SOL     OW36409   0.111   0.078   2.633 -0.2398 -0.2190  0.0665
 8317SOL    HW136410   0.050   0.062   2.704 -0.5465  1.6337  0.2163
 8317SOL    HW236411   0.058   0.132   2.576  0.3911  1.7310  1.3406
 8318SOL     OW36412   4.118   1.984  15.468  0.4012 -0.4096  0.0505
 8318SOL    HW136413   4.081   2.057  15.518  0.4153 -0.9668  0.8758
 8318SOL    HW236414   4.087   1.911  15.522  2.1086 -0.7795  0.5025
 8319SOL     OW36415   1.926   1.695  14.830  0.0039 -0.0626  0.1753
 8319SOL    HW136416   2.015   1.670  14.854  0.7933  2.9265  0.2972
 8319SOL    HW236417   1.888   1.608  14.847 -1.0210  0.6115  1.3183
 8320SOL     OW36418   0.165   0.771  10.085 -0.4604  0.7289  0.1475
 8320SOL    HW136419   0.236   0.753  10.146 -0.2688  0.4850 -0.1464
 8320SOL    HW236420   0.110   0.833  10.132 -0.7278  1.1292 -0.6878
 8321SOL     OW36421   0.467   3.264   6.976 -0.0222 -0.0179  0.5113
 8321SOL    HW136422   0.482   3.355   6.951 -1.0395  0.1442  0.5006
 8321SOL    HW236423   0.558   3.234   6.978 -0.3460 -0.9707  0.9800
 8322SOL     OW36424   0.407   4.245   4.185 -0.3459 -0.2395  0.3027
 8322SOL    HW136425   0.413   4.155   4.153 -0.3846  0.0194 -0.4401
 8322SOL    HW236426   0.497   4.266   4.210 -0.2827 -0.2481  0.0823
 8323SOL     OW36427   2.240   3.003  14.948 -0.1463 -0.1134 -0.3022
 8323SOL    HW136428   2.222   2.915  14.982 -0.0176 -0.0669 -0.1110
 8323SOL    HW236429   2.163   3.049  14.983 -0.8243 -0.5081 -1.2758
 8324SOL     OW36430   3.310   1.579   5.983 -0.1426 -0.3481 -0.1004
 8324SOL    HW136431   3.215   1.575   5.976 -0.0857  0.6594 -1.5110
 8324SOL    HW236432   3.323   1.673   5.993 -0.5974 -0.3804  0.7573
 8325SOL     OW36433   2.882   3.688   3.817 -0.3819 -0.1636 -0.0546
 8325SOL    HW136434   2.935   3.759   3.853  0.6986 -0.9831 -0.0424
 8325SOL    HW236435   2.836   3.726   3.742 -1.6462 -1.3778  0.0956
 8326SOL     OW36436   4.074   2.170   6.478  0.5117  0.1793 -0.7650
 8326SOL    HW136437   4.038   2.213   6.400  4.1482  1.1784 -1.9042
 8326SOL    HW236438   4.010   2.101   6.493  0.7447  0.3333  0.9334
 8327SOL     OW36439   3.813   0.032  12.287  0.5603  0.0186  0.5538
 8327SOL    HW136440   3.820   4.665  12.255 -1.8306 -0.1695  0.5828
 8327SOL    HW236441   3.825   0.019  12.381  1.7767 -0.9221  0.2697
 8328SOL     OW36442   3.658   4.254  13.741  0.5784 -0.2018 -0.5213
 8328SOL    HW136443   3.659   4.160  13.755  2.7688 -0.1680 -0.3765
 8328SOL    HW236444   3.610   4.268  13.659 -1.4207  1.1583  0.8767
 8329SOL     OW36445   2.631   0.710   6.759 -0.1006  0.3541  0.6444
 8329SOL    HW136446   2.665   0.623   6.738 -1.0868  0.4701 -1.4353
 8329SOL    HW236447   2.629   0.714   6.854 -2.5864 -0.6465  0.6424
 8330SOL     OW36448   2.663   0.759  16.131  0.0684  0.5167 -0.6070
 8330SOL    HW136449   2.574   0.726  16.118 -0.3624  1.3859  0.1594
 8330SOL    HW236450   2.652   0.851  16.156 -1.3264  0.4404 -0.8935
 8331SOL     OW36451   1.851   0.854   2.865 -0.0418  0.5745 -0.3817
 8331SOL    HW136452   1.789   0.926   2.870  1.3921  1.9459 -2.0116
 8331SOL    HW236453   1.892   0.862   2.778 -0.5983 -2.2591 -0.9017
 8332SOL     OW36454   4.156   3.427   4.276 -0.1178 -0.8223 -0.2868
 8332SOL    HW136455   4.080   3.481   4.297  1.3410  1.4501 -0.9131
 8332SOL    HW236456   4.155   3.424   4.181 -1.1242 -0.4593 -0.2917
 8333SOL     OW36457   0.431   0.871   4.836  0.0466  0.5336  0.1112
 8333SOL    HW136458   0.430   0.902   4.746  0.8564 -0.1603 -0.1368
 8333SOL    HW236459   0.337   0.862   4.848  0.2057  0.2147  1.2073
 8334SOL     OW36460   2.806   2.590   5.357 -0.5187 -0.4537  0.3319
 8334SOL    HW136461   2.788   2.606   5.265  2.0974 -1.6864 -0.3941
 8334SOL    HW236462   2.900   2.586   5.346 -0.2325 -0.3589  2.7029
 8335SOL     OW36463   1.842   4.330   8.354  0.1391  0.6494  0.3641
 8335SOL    HW136464   1.812   4.346   8.265  1.1421  0.8327  0.0565
 8335SOL    HW236465   1.858   4.236   8.359 -1.2286  0.4325  0.5243
 8336SOL     OW36466   3.760   4.611   9.426  0.4474 -0.5826 -0.3309
 8336SOL    HW136467   3.747   4.524   9.464 -3.7548  1.5490  3.0699
 8336SOL    HW236468   3.670   4.641   9.416  0.9669  0.3885 -2.0165
 8337SOL     OW36469   2.008   1.202   5.441  0.3666 -0.2158  0.2866
 8337SOL    HW136470   1.931   1.250   5.409 -1.3545 -1.8688  1.9029
 8337SOL    HW236471   2.024   1.139   5.370  2.5259  1.5389 -0.7588
 8338SOL     OW36472   1.830   0.565   2.674 -0.0572  0.5069  0.2714
 8338SOL    HW136473   1.836   0.531   2.763 -0.0870  0.4553  0.2544
 8338SOL    HW236474   1.742   0.602   2.678 -0.4181 -0.2084 -1.0423
 8339SOL     OW36475   1.094   3.634  12.417 -0.2057  0.5742 -0.3489
 8339SOL    HW136476   1.127   3.721  12.396  2.1418 -0.1074  0.5817
 8339SOL    HW236477   1.141   3.622  12.500  0.2228  0.2412 -0.6397
 8340SOL     OW36478   4.586   3.969   4.160 -0.0663  0.1118 -0.5745
 8340SOL    HW136479   4.580   3.921   4.078 -2.5306  0.6026 -0.6666
 8340SOL    HW236480   4.666   4.018   4.142 -0.4046  0.4536 -1.1274
 8341SOL     OW36481   2.333   4.586   8.240  0.6292 -0.2196 -0.6157
 8341SOL    HW136482   2.379   4.643   8.301 -1.3142 -1.1044  1.6708
 8341SOL    HW236483   2.402   4.525   8.215  0.6082 -0.4476 -0.1009
 8342SOL     OW36484   1.352   3.954   6.917  0.2915 -0.0003 -0.0848
 8342SOL    HW136485   1.382   3.866   6.942 -1.2139 -0.0403  1.5588
 8342SOL    HW236486   1.392   3.948   6.830 -0.7956  2.6710 -0.7642
 8343SOL     OW36487   4.379   3.906  16.643 -0.3100  0.1361  0.0910
 8343SOL    HW136488   4.335   3.857  16.573 -0.3065 -0.0941  0.2510
 8343SOL    HW236489   4.325   3.985  16.643  0.5864  0.7412  0.5925
 8344SOL     OW36490   2.300   2.613   7.419  0.1370  0.1211 -0.4582
 8344SOL    HW136491   2.360   2.601   7.346 -2.6792  1.0953 -2.9060
 8344SOL    HW236492   2.362   2.642   7.486  1.3778 -2.7945 -0.3338
 8345SOL     OW36493   1.988   3.996   6.557  0.0877 -0.3401  0.6570
 8345SOL    HW136494   2.009   3.951   6.475  0.1505  1.6407 -0.4067
 8345SOL    HW236495   1.945   3.927   6.609  0.8421 -0.6142  0.9268
 8346SOL     OW36496   3.631   2.888   8.886 -0.3301 -0.4648 -0.4670
 8346SOL    HW136497   3.601   2.943   8.814  1.9794  2.7019  0.9624
 8346SOL    HW236498   3.713   2.848   8.856  0.3208  0.4009  0.1450
 8347SOL     OW36499   1.402   2.733   6.182  0.4079  0.1038  0.2462
 8347SOL    HW136500   1.479   2.746   6.238 -2.6465  2.9169  3.7791
 8347SOL    HW236501   1.404   2.637   6.175  0.8878  0.1513 -0.3350
 8348SOL     OW36502   0.161   2.088   6.026  0.0324 -0.1340 -0.3242
 8348SOL    HW136503   0.175   1.993   6.020 -0.1792 -0.1167 -1.1397
 8348SOL    HW236504   0.247   2.129   6.037  0.4759 -1.2363  0.3708
 8349SOL     OW36505   0.901   0.327   8.283  0.1243  0.4542 -0.5620
 8349SOL    HW136506   0.806   0.318   8.285 -0.0676  2.3868 -1.3844
 8349SOL    HW236507   0.928   0.256   8.342 -0.4820 -1.4502 -2.5697
 8350SOL     OW36508   0.294   4.237  11.709 -0.6782  0.6748 -0.3847
 8350SOL    HW136509   0.389   4.240  11.718 -0.6876  1.9418 -0.7340
 8350SOL    HW236510   0.259   4.255  11.797  1.2052  0.2039  0.4611
 8351SOL     OW36511   4.100   3.517  11.433 -0.0155  0.1982 -0.2657
 8351SOL    HW136512   4.171   3.482  11.486 -1.9306 -0.4175  1.9057
 8351SOL    HW236513   4.061   3.575  11.498  0.2650  0.9953 -0.8046
 8352SOL     OW36514   2.296   1.762   8.455  0.2556 -0.0211 -0.4309
 8352SOL    HW136515   2.209   1.801   8.450  0.9829  1.1914 -3.2231
 8352SOL    HW236516   2.342   1.839   8.489  2.1989 -0.8494 -1.1886
 8353SOL     OW36517   0.413   1.824  16.769 -0.1189 -0.0124  0.1642
 8353SOL    HW136518   0.371   1.765  16.832  0.9214 -0.2907  0.5981
 8353SOL    HW236519   0.455   1.888  16.826 -1.5160  0.6458  0.4661
 8354SOL     OW36520   3.152   3.297   9.069 -0.5718  0.4269  1.1394
 8354SOL    HW136521   3.156   3.357   9.143  0.9187  0.1669  1.2745
 8354SOL    HW236522   3.134   3.214   9.112 -0.2170 -0.4199 -0.3319
 8355SOL     OW36523   1.040   1.005  14.963  0.4450  0.1192  0.2478
 8355SOL    HW136524   0.959   1.005  14.912 -0.7990 -1.6038  2.2425
 8355SOL    HW236525   1.102   0.965  14.902 -3.7159 -2.8569 -2.0088
 8356SOL     OW36526   2.255   2.326   3.451 -0.1562  0.0167  0.2408
 8356SOL    HW136527   2.213   2.336   3.537 -1.3667 -0.4171 -0.3025
 8356SOL    HW236528   2.203   2.394   3.407  1.8277 -0.2024 -2.4218
 8357SOL     OW36529   1.794   0.133  13.052 -0.0799  1.0066  0.2471
 8357SOL    HW136530   1.868   0.118  13.110 -0.7257  0.5228  0.9502
 8357SOL    HW236531   1.842   0.140  12.970 -0.7600 -2.2829 -0.4365
 8358SOL     OW36532   2.236   1.236   3.011  0.1950 -0.2010  0.1699
 8358SOL    HW136533   2.144   1.229   2.987 -0.5756 -0.4749  3.1656
 8358SOL    HW236534   2.219   1.238   3.105 -2.0763 -1.2198 -0.2153
 8359SOL     OW36535   0.601   1.110   3.062 -0.2318  0.6343 -0.8272
 8359SOL    HW136536   0.678   1.147   3.019  0.2981  1.8092  1.1306
 8359SOL    HW236537   0.587   1.175   3.131 -1.0519  2.3362 -2.5760
 8360SOL     OW36538   4.509   1.021  10.959 -0.9157 -0.1460  0.2184
 8360SOL    HW136539   4.538   1.090  11.019 -1.9090  0.5745 -0.1270
 8360SOL    HW236540   4.479   0.954  11.021 -1.6130  1.4750  1.6364
 8361SOL     OW36541   2.754   3.680   5.532  0.4307  0.5152  0.5708
 8361SOL    HW136542   2.837   3.711   5.498  0.6655 -1.3196 -0.5261
 8361SOL    HW236543   2.695   3.743   5.491  1.8170  0.0154 -2.1594
 8362SOL     OW36544   0.850   1.331   2.368  0.3777  1.0064  0.1975
 8362SOL    HW136545   0.873   1.247   2.408  1.9171  1.4007  0.1521
 8362SOL    HW236546   0.823   1.381   2.444  2.3514 -0.3186  1.7669
 8363SOL     OW36547   4.556   2.467  11.722  0.4516 -0.3873 -0.4907
 8363SOL    HW136548   4.579   2.426  11.805  2.8948  3.6208  0.8107
 8363SOL    HW236549   4.462   2.453  11.714  0.0296  1.3489  1.4434
 8364SOL     OW36550   1.557   2.754   3.572  0.0840  0.5031  0.1295
 8364SOL    HW136551   1.517   2.754   3.659 -1.3228 -0.3377 -0.5306
 8364SOL    HW236552   1.493   2.759   3.501 -1.0826  1.0526  1.2198
 8365SOL     OW36553   0.929   1.463   5.132 -0.5364 -0.6617 -0.2750
 8365SOL    HW136554   1.000   1.437   5.190 -0.1583 -0.7460 -0.7731
 8365SOL    HW236555   0.933   1.388   5.074  0.3076 -0.7583 -0.0945
 8366SOL     OW36556   1.921   2.389   4.231  0.2093 -0.0467  0.1468
 8366SOL    HW136557   1.826   2.392   4.233  0.2013 -0.5451  0.4007
 8366SOL    HW236558   1.923   2.415   4.139  0.6602  2.4207  0.8319
 8367SOL     OW36559   0.940   1.798   8.186  0.3865  0.3884  0.0687
 8367SOL    HW136560   1.010   1.751   8.232  0.1231 -0.5883 -0.5280
 8367SOL    HW236561   0.925   1.747   8.106 -3.8446  1.0844  0.4355
 8368SOL     OW36562   2.019   1.417   4.655 -0.5114  0.3713  0.4449
 8368SOL    HW136563   2.076   1.349   4.691 -1.3646  0.6773  2.3630
 8368SOL    HW236564   1.951   1.409   4.721 -0.0097  0.4999  0.9826
 8369SOL     OW36565   4.327   4.538   4.486 -0.4407  0.3502  0.1991
 8369SOL    HW136566   4.317   4.446   4.512 -0.0169  0.7166  1.6646
 8369SOL    HW236567   4.237   4.570   4.489 -0.1525  1.0947  0.8075
 8370SOL     OW36568   2.094   2.954   4.398 -0.3146 -0.5733  0.0003
 8370SOL    HW136569   2.014   2.903   4.410 -0.8873  0.3268  0.0268
 8370SOL    HW236570   2.149   2.916   4.467  0.0604  0.2162  0.1397
 8371SOL     OW36571   2.306   0.179   8.682  0.2763 -0.3864 -0.5151
 8371SOL    HW136572   2.259   0.262   8.673  0.1867 -0.4353 -0.4954
 8371SOL    HW236573   2.341   0.196   8.769  2.0462 -0.7339 -1.1502
 8372SOL     OW36574   1.443   4.475   2.816  0.0345  0.2221  0.1975
 8372SOL    HW136575   1.449   4.409   2.747  0.0979 -1.8104  2.1735
 8372SOL    HW236576   1.535   4.491   2.835 -0.4431  2.2357  0.8799
 8373SOL     OW36577   4.126   3.527  15.769 -0.3899  0.0947 -0.2866
 8373SOL    HW136578   4.192   3.464  15.740 -0.3064  0.6989 -1.4431
 8373SOL    HW236579   4.088   3.475  15.839 -1.2389 -0.0492 -0.8517
 8374SOL     OW36580   4.092   4.357   9.286  0.3267  0.2152  0.9324
 8374SOL    HW136581   4.038   4.434   9.269  0.0415 -0.6732 -2.0780
 8374SOL    HW236582   4.186   4.373   9.276  0.3702 -0.7624 -0.1675
 8375SOL     OW36583   4.586   3.775   1.823 -0.1173  0.2095  0.1435
 8375SOL    HW136584   4.578   3.711   1.895 -1.3131 -1.1084 -1.1550
 8375SOL    HW236585   4.579   3.718   1.746  0.2619  0.2495  0.0820
 8376SOL     OW36586   4.662   4.516   7.240  0.0923  0.3399 -0.1316
 8376SOL    HW136587   4.703   4.592   7.283 -1.9670  2.1074 -1.2896
 8376SOL    HW236588   4.577   4.513   7.284 -0.4108  0.5562 -1.0796
 8377SOL     OW36589   3.752   4.038   5.202  0.5011  0.3138  0.1861
 8377SOL    HW136590   3.717   3.953   5.230 -0.6683 -0.0743 -2.4749
 8377SOL    HW236591   3.675   4.066   5.153 -0.9685 -0.1538  2.2389
 8378SOL     OW36592   0.689   1.838   2.944  0.0057  0.3112 -0.3172
 8378SOL    HW136593   0.647   1.924   2.942 -0.1190  0.2661  0.4032
 8378SOL    HW236594   0.631   1.784   2.890  1.9929 -1.3551 -0.7934
 8379SOL     OW36595   3.017   4.355  10.879 -0.0036  0.1865 -0.1055
 8379SOL    HW136596   3.040   4.264  10.901 -3.1875  0.1595  3.2116
 8379SOL    HW236597   3.096   4.367  10.828  1.4134  0.8949  2.2710
 8380SOL     OW36598   0.446   3.714   7.663 -0.4732 -0.6400  0.8450
 8380SOL    HW136599   0.534   3.747   7.646 -0.7545 -0.3687 -0.0901
 8380SOL    HW236600   0.462   3.622   7.640 -1.9588 -0.3756 -1.2639
 8381SOL     OW36601   0.459   4.261   8.991  0.5521  0.0054 -0.7344
 8381SOL    HW136602   0.393   4.273   9.060 -0.9402 -0.4676 -2.0907
 8381SOL    HW236603   0.447   4.331   8.926 -2.2796 -0.0720 -0.2914
 8382SOL     OW36604   0.226   2.217   7.307 -0.2409 -0.2253  0.0824
 8382SOL    HW136605   0.299   2.158   7.286 -1.0297 -1.0668 -0.2685
 8382SOL    HW236606   0.183   2.170   7.378 -1.7178  2.0426  0.7009
 8383SOL     OW36607   1.374   3.360   5.505  0.0561 -0.5991  0.1761
 8383SOL    HW136608   1.450   3.327   5.457  0.1594 -1.4887  0.9699
 8383SOL    HW236609   1.402   3.340   5.594  0.6507 -2.0584 -0.3300
 8384SOL     OW36610   4.556   2.975   2.734  0.0041  0.0333 -1.0092
 8384SOL    HW136611   4.562   2.883   2.711  0.0582  0.2468 -1.8420
 8384SOL    HW236612   4.478   2.971   2.789  2.0041  0.4914  1.8560
 8385SOL     OW36613   3.191   0.103  15.906 -0.1132 -0.4113 -0.4816
 8385SOL    HW136614   3.158   0.170  15.846 -0.0945  0.9269  1.0030
 8385SOL    HW236615   3.255   0.049  15.859  0.4390  1.1659 -1.5334
 8386SOL     OW36616   0.893   3.505   3.196 -0.4322  0.2129 -0.1687
 8386SOL    HW136617   0.839   3.428   3.178 -1.0380  0.2997  1.2576
 8386SOL    HW236618   0.874   3.555   3.117  0.3116  1.0762  0.1931
 8387SOL     OW36619   3.254   3.694  12.026  0.6154 -0.0117  0.4903
 8387SOL    HW136620   3.346   3.668  12.022  1.2527  2.5771 -1.8774
 8387SOL    HW236621   3.209   3.630  11.971  1.9980 -0.1982 -0.4228
 8388SOL     OW36622   0.884   1.306   8.337 -0.0415  0.1132  0.0476
 8388SOL    HW136623   0.952   1.272   8.394  0.6345 -0.3070 -1.0212
 8388SOL    HW236624   0.853   1.220   8.310  2.6904 -0.6002 -0.8162
 8389SOL     OW36625   0.853   4.049   9.654 -0.2206  0.0237 -0.0049
 8389SOL    HW136626   0.823   3.992   9.724 -0.2788  0.7096  0.5305
 8389SOL    HW236627   0.947   4.033   9.659 -0.5522 -1.7924  0.3289
 8390SOL     OW36628   0.182   2.889   9.384  0.5477 -0.0847  0.5028
 8390SOL    HW136629   0.158   2.971   9.428  4.9324 -0.1241  2.8866
 8390SOL    HW236630   0.111   2.830   9.412  3.0568 -3.3530 -0.0667
 8391SOL     OW36631   2.981   0.835   6.433 -0.2786 -0.0982  0.6039
 8391SOL    HW136632   2.890   0.861   6.417  0.2122  2.2204  1.6661
 8391SOL    HW236633   2.993   0.820   6.526  0.7244 -1.4308  0.2733
 8392SOL     OW36634   0.723   1.584   4.299  0.0552  0.0549  0.6028
 8392SOL    HW136635   0.757   1.527   4.368 -0.8875 -0.9962  0.1948
 8392SOL    HW236636   0.639   1.538   4.290  0.9928 -1.3854 -0.9133
 8393SOL     OW36637   2.168   2.663   9.479 -0.1448  0.2016 -0.2704
 8393SOL    HW136638   2.262   2.676   9.465 -0.6364  4.5314  0.4807
 8393SOL    HW236639   2.172   2.637   9.571  2.0782  0.6270 -0.2439
 8394SOL     OW36640   4.047   2.387   4.786 -0.1778 -0.0367  0.7436
 8394SOL    HW136641   3.960   2.381   4.745 -0.2346  2.9787  0.3595
 8394SOL    HW236642   4.081   2.301   4.764  0.3427  0.2719  0.3470
 8395SOL     OW36643   1.841   3.921   0.216  0.7832  0.0015 -0.3959
 8395SOL    HW136644   1.747   3.905   0.215 -0.0295  5.0785 -3.2229
 8395SOL    HW236645   1.879   3.853   0.160 -0.6555 -2.0911  1.1499
 8396SOL     OW36646   2.347   3.589   4.257  0.1514  1.1472  0.1809
 8396SOL    HW136647   2.424   3.560   4.209 -1.6556 -0.3572 -1.8111
 8396SOL    HW236648   2.300   3.507   4.275  1.7725 -0.0448 -0.9737
 8397SOL     OW36649   4.188   1.824   1.916  0.1620  0.4817 -0.2608
 8397SOL    HW136650   4.132   1.746   1.913 -0.0600  0.6243  0.1498
 8397SOL    HW236651   4.133   1.893   1.878 -0.7094 -0.0650 -0.0108
 8398SOL     OW36652   2.732   2.963   6.912  0.3229 -0.0756 -0.0069
 8398SOL    HW136653   2.653   2.914   6.889 -0.1798  0.8032 -0.1166
 8398SOL    HW236654   2.718   3.048   6.870  1.3980  0.6474  1.1044
 8399SOL     OW36655   2.261   4.233   6.391 -0.3745  0.0119  0.4522
 8399SOL    HW136656   2.204   4.241   6.314  1.1685 -0.7246 -0.7579
 8399SOL    HW236657   2.330   4.298   6.378  0.4066 -0.6647  1.1895
 8400SOL     OW36658   2.927   1.863   9.306 -0.0971 -0.9483  0.2021
 8400SOL    HW136659   2.839   1.892   9.281 -0.3911 -2.1813 -0.2406
 8400SOL    HW236660   2.900   1.783   9.351 -0.6979 -1.5804 -1.2643
 8401SOL     OW36661   4.520   0.222   5.999 -0.3467  0.1118 -0.5328
 8401SOL    HW136662   4.596   0.239   5.942  0.4634 -1.6442  0.0403
 8401SOL    HW236663   4.570   0.250   6.076 -0.9312 -0.3317  0.0061
 8402SOL     OW36664   3.080   2.920  15.501 -0.1480  0.8628  0.0848
 8402SOL    HW136665   3.133   2.864  15.559 -2.2047 -1.4378 -0.2573
 8402SOL    HW236666   3.070   2.997  15.556 -2.8760  1.7538 -1.7189
 8403SOL     OW36667   2.292   3.006  14.686 -0.0716  0.4994  0.1932
 8403SOL    HW136668   2.221   2.953  14.649  0.1569  0.3748 -0.0714
 8403SOL    HW236669   2.276   2.991  14.779  1.3330  0.9583  0.4976
 8404SOL     OW36670   0.830   3.854  11.160  0.1641 -0.1340  0.5399
 8404SOL    HW136671   0.799   3.921  11.221  0.0088 -0.4599  0.8180
 8404SOL    HW236672   0.853   3.785  11.222 -0.0881 -0.6669  0.0430
 8405SOL     OW36673   0.167   4.006   8.725  0.1350 -0.0532  0.1702
 8405SOL    HW136674   0.179   3.913   8.706 -3.9980 -0.6034  0.3232
 8405SOL    HW236675   0.237   4.023   8.789  0.6246  2.1595 -0.9477
 8406SOL     OW36676   1.272   2.440   0.660 -0.4489 -0.6816  0.2350
 8406SOL    HW136677   1.273   2.351   0.696  0.7945 -0.9288 -0.4003
 8406SOL    HW236678   1.316   2.419   0.578  1.6911  2.1424  0.6142
 8407SOL     OW36679   2.906   3.644   4.991 -0.0541 -0.0725 -0.6111
 8407SOL    HW136680   2.850   3.675   4.920 -0.7161 -0.4650 -0.2515
 8407SOL    HW236681   2.962   3.579   4.947 -0.4863 -0.5583 -0.4444
 8408SOL     OW36682   3.836   2.238   5.340 -0.2073  0.0537 -0.0941
 8408SOL    HW136683   3.755   2.187   5.340 -0.8250  1.0128 -1.3710
 8408SOL    HW236684   3.823   2.332   5.352  2.2318  0.4514 -0.4080
 8409SOL     OW36685   0.279   4.212   9.637  0.2332 -0.4325 -0.0774
 8409SOL    HW136686   0.330   4.132   9.652 -0.2688 -0.8881 -0.8292
 8409SOL    HW236687   0.224   4.204   9.715  1.5854 -1.3991  0.7772
 8410SOL     OW36688   1.833   0.803  17.690  0.0360  0.0337 -0.6466
 8410SOL    HW136689   1.922   0.834  17.671 -0.3315  1.3227 -0.2197
 8410SOL    HW236690   1.848   0.718   0.038 -2.2199 -0.0813 -0.1243
 8411SOL     OW36691   0.322   1.712   0.135 -0.0536 -0.4093  0.0698
 8411SOL    HW136692   0.259   1.749   0.073 -0.4527  0.4421  0.9858
 8411SOL    HW236693   0.373   1.660   0.073  0.5889 -0.2758  0.4782
 8412SOL     OW36694   3.846   1.172   2.198 -0.1366  0.1278  0.3123
 8412SOL    HW136695   3.767   1.132   2.233  0.1181 -1.9218 -1.4715
 8412SOL    HW236696   3.907   1.099   2.201  0.4881  0.7577  2.7257
 8413SOL     OW36697   0.100   1.479   6.167  0.2361 -0.5091 -0.0392
 8413SOL    HW136698   0.050   1.491   6.086 -0.4759  1.1863  0.6526
 8413SOL    HW236699   0.157   1.404   6.149  2.1949  1.0238 -0.2885
 8414SOL     OW36700   0.337   2.764  17.216 -0.0642  0.2547 -0.0880
 8414SOL    HW136701   0.425   2.780  17.249 -0.3533  1.6548  0.0084
 8414SOL    HW236702   0.292   2.724  17.290 -0.8613  0.2294 -0.5774
 8415SOL     OW36703   2.658   2.276   1.477 -0.0433  0.6745  0.4945
 8415SOL    HW136704   2.655   2.372   1.481 -1.8653  0.5831  1.1825
 8415SOL    HW236705   2.704   2.268   1.560  1.9795 -0.1480 -0.7033
 8416SOL     OW36706   2.779   3.571   3.086  0.1754  0.1687  0.9243
 8416SOL    HW136707   2.848   3.513   3.053 -0.7430 -1.4911  1.9155
 8416SOL    HW236708   2.699   3.534   3.050  1.4307 -0.3695 -1.3091
 8417SOL     OW36709   1.455   1.990   2.885  0.0641 -0.1043 -0.0474
 8417SOL    HW136710   1.445   1.897   2.904 -0.7750 -0.4705 -2.3193
 8417SOL    HW236711   1.485   2.020   2.971 -0.3486 -1.0712  0.4366
 8418SOL     OW36712   1.023   3.637  15.065  0.7825 -0.8831  0.3133
 8418SOL    HW136713   1.071   3.703  15.115  0.7881 -0.1561 -0.6487
 8418SOL    HW236714   0.937   3.679  15.067  0.6930 -0.9774 -1.0209
 8419SOL     OW36715   2.825   3.758   3.264  0.2686 -0.0781  0.1339
 8419SOL    HW136716   2.838   3.726   3.353 -0.2195 -1.2987 -0.2403
 8419SOL    HW236717   2.801   3.682   3.212  0.8494  0.2986 -0.6993
 8420SOL     OW36718   2.218   4.231   0.762  0.5797 -0.3338  0.0748
 8420SOL    HW136719   2.139   4.284   0.753  1.6454  1.2327 -0.1336
 8420SOL    HW236720   2.203   4.174   0.687 -0.2193 -1.0517  0.7769
 8421SOL     OW36721   0.294   1.497   1.257 -0.0493 -0.0805  0.3667
 8421SOL    HW136722   0.310   1.467   1.346 -0.1509 -1.8182 -0.1939
 8421SOL    HW236723   0.366   1.454   1.211 -1.9672 -1.9358 -0.9155
 8422SOL     OW36724   2.965   3.413   3.652 -0.3593  0.2792 -0.2221
 8422SOL    HW136725   3.023   3.470   3.702 -1.3383 -0.7725  2.1280
 8422SOL    HW236726   3.016   3.332   3.656 -0.6765  0.1564  1.2358
 8423SOL     OW36727   0.049   0.981  12.745  0.2609 -0.5025  0.3004
 8423SOL    HW136728   0.111   0.923  12.700  1.0614 -0.9768  2.0333
 8423SOL    HW236729   0.078   1.063  12.705  2.3912 -1.4390 -0.0759
 8424SOL     OW36730   1.283   0.700  16.135  0.3023 -0.3720 -0.3759
 8424SOL    HW136731   1.254   0.620  16.091 -2.4276  0.9441 -0.9893
 8424SOL    HW236732   1.372   0.677  16.158  0.7151  1.7689  0.2095
 8425SOL     OW36733   4.299   3.659   0.191 -0.2501 -0.2486  1.0871
 8425SOL    HW136734   4.393   3.671   0.174 -0.9126  2.4519 -0.6241
 8425SOL    HW236735   4.298   3.596   0.263  0.2556  0.6932  1.9070
 8426SOL     OW36736   4.064   3.403   3.407 -0.0402 -0.0012  0.2101
 8426SOL    HW136737   4.149   3.380   3.443  0.0969  1.0444  0.5579
 8426SOL    HW236738   4.029   3.481   3.450 -1.5284 -1.4932  1.7701
 8427SOL     OW36739   3.786   4.489  17.227 -0.3243  0.0798  0.3711
 8427SOL    HW136740   3.847   4.422  17.195  0.7198  0.2331  2.0145
 8427SOL    HW236741   3.710   4.440  17.255  0.6024 -3.4369 -3.1991
 8428SOL     OW36742   4.289   0.583  16.621  0.1397  0.7362  0.0580
 8428SOL    HW136743   4.259   0.520  16.555  0.1482  0.3782  0.3966
 8428SOL    HW236744   4.369   0.622  16.588  2.2681 -1.3827  2.7392
 8429SOL     OW36745   2.472   2.394   0.454 -0.2859 -0.2876 -0.4567
 8429SOL    HW136746   2.480   2.489   0.465 -2.9477 -0.0351 -0.7569
 8429SOL    HW236747   2.530   2.379   0.379 -0.4888 -1.8029 -0.3076
 8430SOL     OW36748   1.518   2.699   4.094 -0.4842  0.0584  0.6649
 8430SOL    HW136749   1.437   2.722   4.048  1.1311  1.8010 -1.3130
 8430SOL    HW236750   1.506   2.605   4.082 -0.1792 -0.2216  2.5932
 8431SOL     OW36751   3.922   0.686  12.161 -0.0147  0.1394 -0.1929
 8431SOL    HW136752   3.971   0.709  12.082  0.3651  2.6680  0.7466
 8431SOL    HW236753   3.997   0.675  12.219 -1.4745 -2.4141  1.2035
 8432SOL     OW36754   0.632   1.024   8.477  0.3404 -0.0701  0.5428
 8432SOL    HW136755   0.601   1.018   8.386 -0.1217  2.7608  0.5305
 8432SOL    HW236756   0.661   0.933   8.488 -1.2696 -0.8405 -1.5414
 8433SOL     OW36757   3.251   3.646  14.863 -0.1469  0.0555 -0.4594
 8433SOL    HW136758   3.165   3.610  14.839 -0.4558  0.2492  0.3450
 8433SOL    HW236759   3.257   3.727  14.812 -0.3653  0.0296 -0.5275
 8434SOL     OW36760   4.693   0.659   7.476 -0.5991 -0.4758  0.0626
 8434SOL    HW136761   0.047   0.662   7.533 -0.9090  1.7687  0.3676
 8434SOL    HW236762   0.010   0.621   7.398 -0.2528 -1.8625  0.9196
 8435SOL     OW36763   2.113   0.065   1.812 -0.3372  0.0499 -0.5795
 8435SOL    HW136764   2.033   0.015   1.802 -0.0026 -0.4182 -0.8907
 8435SOL    HW236765   2.160   0.028   1.737  2.7766 -0.0286  1.3786
 8436SOL     OW36766   1.629   1.793   3.585 -0.3450 -0.2240 -0.1061
 8436SOL    HW136767   1.718   1.776   3.554  0.1292  0.4052  0.9191
 8436SOL    HW236768   1.638   1.772   3.678  1.5423  1.4779  0.0920
 8437SOL     OW36769   1.934   3.456  13.045  0.6909 -0.5383  0.0475
 8437SOL    HW136770   1.946   3.524  12.979 -1.0605 -0.2030  0.0658
 8437SOL    HW236771   1.960   3.385  12.987  0.3783  1.3366 -2.4009
 8438SOL     OW36772   2.691   0.690   5.531  0.5654  1.0125 -0.1991
 8438SOL    HW136773   2.738   0.773   5.545  1.1907  0.5799  0.2626
 8438SOL    HW236774   2.761   0.643   5.486 -0.7958 -1.8704  0.6950
 8439SOL     OW36775   0.220   3.412   7.900  0.0393  0.0135  0.0703
 8439SOL    HW136776   0.217   3.495   7.948  1.2291  0.0681  0.0405
 8439SOL    HW236777   0.276   3.429   7.825  0.3738  0.6092  0.4491
 8440SOL     OW36778   0.500   3.816  11.179  0.4140 -0.2061  0.1644
 8440SOL    HW136779   0.469   3.749  11.119 -0.9441  1.9406 -1.5419
 8440SOL    HW236780   0.491   3.897  11.128  2.0749  0.4413  0.9048
 8441SOL     OW36781   1.668   3.460   1.833 -0.3621 -0.0232 -0.3167
 8441SOL    HW136782   1.752   3.443   1.876 -0.0173  0.0441 -0.9734
 8441SOL    HW236783   1.649   3.368   1.814  0.2589 -0.7417  2.4649
 8442SOL     OW36784   1.042   0.855   7.983 -0.2539  0.1365 -0.2781
 8442SOL    HW136785   1.069   0.947   7.974 -0.6820  0.1360 -1.7371
 8442SOL    HW236786   0.948   0.865   8.000 -0.2764 -1.4759  0.5287
 8443SOL     OW36787   3.546   0.552  13.281  0.1591  0.0552  0.6536
 8443SOL    HW136788   3.531   0.615  13.210 -0.9990 -2.2884 -1.1406
 8443SOL    HW236789   3.630   0.524  13.244 -0.0844  0.8773 -0.5062
 8444SOL     OW36790   1.841   2.953   7.658 -0.6643  0.9585 -0.1145
 8444SOL    HW136791   1.828   2.956   7.563 -1.6297 -1.3956 -0.0626
 8444SOL    HW236792   1.791   2.875   7.680 -1.0820  0.8823 -1.3401
 8445SOL     OW36793   1.189   3.100   4.162 -0.4830 -0.1603  0.0965
 8445SOL    HW136794   1.177   3.172   4.224 -0.5148 -0.5558  0.5481
 8445SOL    HW236795   1.270   3.125   4.118  0.0295 -2.3708 -0.1897
 8446SOL     OW36796   2.496   4.189   3.605  0.7329 -0.1163  0.3847
 8446SOL    HW136797   2.588   4.185   3.579 -0.1879  2.6626 -3.4290
 8446SOL    HW236798   2.497   4.101   3.642  2.4456 -0.9119 -1.5931
 8447SOL     OW36799   4.355   4.504   7.313 -0.1622 -0.1079 -0.3569
 8447SOL    HW136800   4.317   4.416   7.314 -0.5122  0.0444 -0.4473
 8447SOL    HW236801   4.356   4.525   7.407 -2.7310 -0.2058 -0.3109
 8448SOL     OW36802   1.279   3.919   0.477 -0.1815 -0.4026  0.5849
 8448SOL    HW136803   1.287   3.973   0.556 -1.4337 -2.5056  2.1444
 8448SOL    HW236804   1.230   3.847   0.516  1.3647 -1.3924  0.6947
 8449SOL     OW36805   0.009   0.190   0.456  0.0717 -0.3779  0.0700
 8449SOL    HW136806   0.020   0.240   0.375 -0.1230 -2.2316 -1.1095
 8449SOL    HW236807   4.642   0.198   0.488  0.2154 -0.2739  0.4439
 8450SOL     OW36808   0.305   1.366   5.265 -0.6708  0.4208  0.1531
 8450SOL    HW136809   0.291   1.456   5.233  0.3798  0.0423 -1.3649
 8450SOL    HW236810   0.239   1.356   5.333  0.0991 -0.3445  0.7898
 8451SOL     OW36811   4.256   3.981  12.888 -0.1250  0.3390  0.7276
 8451SOL    HW136812   4.324   3.948  12.947  1.0613 -0.2838 -0.9787
 8451SOL    HW236813   4.272   4.075  12.896  0.2900  0.2058  1.4599
 8452SOL     OW36814   2.814   3.998   0.093  0.2873  0.2400  0.8481
 8452SOL    HW136815   2.825   4.060   0.020  2.6497  0.7035  1.6245
 8452SOL    HW236816   2.904   3.978   0.118  0.4556 -0.7592 -0.5886
 8453SOL     OW36817   4.086   2.499  10.397 -0.1924 -0.7679 -0.0910
 8453SOL    HW136818   4.148   2.504  10.325  0.2268  1.8725  0.4590
 8453SOL    HW236819   4.091   2.589  10.429 -0.6312  0.2536 -2.8569
 8454SOL     OW36820   0.779   0.818   8.045 -0.5582  0.1144 -0.2042
 8454SOL    HW136821   0.779   0.740   7.990  3.3384  0.0466 -0.0936
 8454SOL    HW236822   0.725   0.788   8.119  2.3932 -4.1640  0.2565
 8455SOL     OW36823   2.342   1.101   6.538 -0.0718 -0.0086 -0.0913
 8455SOL    HW136824   2.330   1.014   6.498  0.2634  0.5176 -1.3358
 8455SOL    HW236825   2.399   1.140   6.471  0.0991  0.3991  0.2960
 8456SOL     OW36826   3.897   1.020   0.742 -0.2253  0.0865  0.6386
 8456SOL    HW136827   3.877   1.095   0.798 -1.0022  0.2727  0.1036
 8456SOL    HW236828   3.849   1.045   0.664 -0.1595  1.6275  1.1023
 8457SOL     OW36829   1.472   3.033   2.713 -0.2044  0.0801  0.0197
 8457SOL    HW136830   1.507   2.946   2.694 -1.1694 -0.2555 -0.1941
 8457SOL    HW236831   1.405   3.048   2.646 -0.0212  2.0992  0.3101
 8458SOL     OW36832   3.123   2.080  17.024  0.3403  0.0848 -0.0097
 8458SOL    HW136833   3.052   2.060  17.085 -0.1471 -1.1299 -0.9884
 8458SOL    HW236834   3.160   1.992  17.032 -0.0110 -0.2069 -1.6830
 8459SOL     OW36835   3.348   3.483   9.224  0.0310 -0.0209 -0.3184
 8459SOL    HW136836   3.369   3.436   9.305  0.7235  0.2873 -0.3201
 8459SOL    HW236837   3.424   3.458   9.171  0.3736  0.6056 -0.1140
 8460SOL     OW36838   1.132   3.354   4.934 -0.1479  0.4388  0.2048
 8460SOL    HW136839   1.216   3.337   4.892 -0.4779 -0.2021 -0.1959
 8460SOL    HW236840   1.166   3.347   5.023  2.1396  1.0727 -0.6221
 8461SOL     OW36841   4.320   3.085   2.005 -0.2359 -0.1532  0.3664
 8461SOL    HW136842   4.407   3.085   2.047 -0.0452 -0.5744 -0.0303
 8461SOL    HW236843   4.327   3.042   1.920 -0.5052  1.0537 -0.2727
 8462SOL     OW36844   4.276   1.169   4.403  0.3377  0.4774 -0.0470
 8462SOL    HW136845   4.339   1.123   4.348  0.7866 -0.2493  1.0748
 8462SOL    HW236846   4.264   1.119   4.484 -1.7113 -0.1240 -0.7343
 8463SOL     OW36847   3.027   2.417   7.908 -0.1471 -0.7482  0.5325
 8463SOL    HW136848   3.051   2.340   7.960 -2.1763 -1.8305 -0.1082
 8463SOL    HW236849   3.093   2.477   7.943  1.5172 -1.4035 -1.5403
 8464SOL     OW36850   2.781   0.060   5.820  0.4479  0.2293  0.6595
 8464SOL    HW136851   2.730   0.095   5.747  2.0093  1.4821  0.1536
 8464SOL    HW236852   2.815   0.134   5.870  1.1253  0.0765  0.4357
 8465SOL     OW36853   2.533   1.686  10.426 -0.2967  0.3684  0.4739
 8465SOL    HW136854   2.609   1.636  10.455 -0.8616 -1.6456 -1.5171
 8465SOL    HW236855   2.480   1.613  10.394 -0.6356 -0.6656  3.3429
 8466SOL     OW36856   0.024   2.269   3.839 -0.1415  0.0389 -0.2854
 8466SOL    HW136857   4.675   2.304   3.892  0.1848  0.8608 -0.3789
 8466SOL    HW236858   0.103   2.282   3.892  0.5427 -0.7251 -1.1167
 8467SOL     OW36859   4.484   2.074   9.848  0.2366  0.3513 -0.4289
 8467SOL    HW136860   4.508   2.020   9.773 -1.8425  0.7745 -1.3948
 8467SOL    HW236861   4.389   2.069   9.836  0.3773 -2.1328 -0.5215
 8468SOL     OW36862   3.977   0.054   0.992  0.3133  0.1360  0.0289
 8468SOL    HW136863   3.911   0.015   0.934  1.9334 -1.0408 -1.0458
 8468SOL    HW236864   3.923   0.095   1.059 -1.3274 -2.9969  0.6464
 8469SOL     OW36865   4.008   1.045   0.339  0.1509  0.4919 -0.0202
 8469SOL    HW136866   4.074   1.112   0.321  0.5926  0.6039  2.0191
 8469SOL    HW236867   3.956   1.079   0.413  1.6200  1.6916  0.4774
 8470SOL     OW36868   1.916   3.347   2.976  0.3882  0.2081 -0.3531
 8470SOL    HW136869   1.860   3.333   2.900 -2.2087 -2.1638  2.0307
 8470SOL    HW236870   1.867   3.304   3.046 -0.1421 -1.6353 -1.8525
 8471SOL     OW36871   4.386   3.541   9.611 -0.2217 -0.6094  0.1723
 8471SOL    HW136872   4.311   3.557   9.553  0.7706 -0.7507 -1.1485
 8471SOL    HW236873   4.342   3.481   9.672 -0.4363 -0.2237  0.3924
 8472SOL     OW36874   1.717   4.668   9.991  0.1308  0.1764 -0.6158
 8472SOL    HW136875   1.735   4.586   9.945 -4.3002 -0.1283 -1.7980
 8472SOL    HW236876   1.785   0.005   9.962  0.4041  1.5648  2.8864
 8473SOL     OW36877   3.811   2.948   7.568 -0.1849 -0.1454 -0.2500
 8473SOL    HW136878   3.757   2.877   7.532  2.2272 -0.2061 -3.7681
 8473SOL    HW236879   3.761   2.974   7.645  2.4941  0.9885  1.1018
 8474SOL     OW36880   2.474   0.870  11.886 -0.2703 -0.0861  0.5751
 8474SOL    HW136881   2.518   0.826  11.959  2.3413  0.9328 -0.3722
 8474SOL    HW236882   2.394   0.899  11.930 -2.1807 -0.8009 -2.4412
 8475SOL     OW36883   0.916   2.316   0.865  0.2200 -0.7532  0.1918
 8475SOL    HW136884   0.930   2.298   0.772  0.8741  3.2168 -0.4716
 8475SOL    HW236885   1.002   2.354   0.884 -0.4319 -0.3458  2.3786
 8476SOL     OW36886   2.035   2.870  10.853  0.8414  0.1517 -0.2945
 8476SOL    HW136887   2.109   2.812  10.872  0.8354  0.9401  2.0429
 8476SOL    HW236888   1.993   2.806  10.794 -0.0509  2.0223 -1.6804
 8477SOL     OW36889   2.923   4.186   3.262  0.1871  0.0487 -0.0169
 8477SOL    HW136890   2.832   4.181   3.231 -0.1448 -0.6887  1.0594
 8477SOL    HW236891   2.951   4.108   3.214  3.2564  0.2747  1.3898
 8478SOL     OW36892   1.044   2.343  12.167 -0.1812  0.4985  0.3252
 8478SOL    HW136893   0.955   2.332  12.134 -0.5585  0.2734  1.4306
 8478SOL    HW236894   1.036   2.295  12.249  0.6346 -0.2896 -0.0530
 8479SOL     OW36895   1.044   3.789   3.922 -0.1794  0.1079 -0.4739
 8479SOL    HW136896   1.100   3.718   3.952  2.1394  2.1646  0.0584
 8479SOL    HW236897   1.026   3.762   3.832 -0.4552  0.9260 -0.6661
 8480SOL     OW36898   3.635   4.125  14.265  0.1055  0.2346 -0.1408
 8480SOL    HW136899   3.621   4.121  14.360 -2.0443  0.7483 -0.4506
 8480SOL    HW236900   3.546   4.129  14.230 -0.0984  0.3648  0.3842
 8481SOL     OW36901   3.871   2.834   0.265 -0.3921 -0.0411 -0.1447
 8481SOL    HW136902   3.902   2.749   0.233  2.9429  1.4909 -0.9169
 8481SOL    HW236903   3.862   2.869   0.176 -1.3399 -1.9718 -0.7930
 8482SOL     OW36904   3.464   3.493  12.494 -0.7196  0.4759 -0.0615
 8482SOL    HW136905   3.375   3.504  12.527 -0.8642  0.2686 -0.3763
 8482SOL    HW236906   3.480   3.581  12.462  0.7692  0.8644  1.7401
 8483SOL     OW36907   2.373   4.212   5.691  0.6232 -0.0000 -0.3015
 8483SOL    HW136908   2.414   4.190   5.775  1.5620 -0.6631 -0.9345
 8483SOL    HW236909   2.302   4.149   5.683 -0.8947  1.6181  0.2065
 8484SOL     OW36910   4.578   3.503   2.852 -0.6117 -0.3612 -0.5600
 8484SOL    HW136911   4.606   3.461   2.933 -1.8168  1.1229  0.6132
 8484SOL    HW236912   4.659   3.547   2.826 -0.9552 -1.6642 -3.9087
 8485SOL     OW36913   0.988   2.820   6.327 -0.4477  0.2117  0.0726
 8485SOL    HW136914   0.943   2.892   6.282  0.1078  0.6796  0.2666
 8485SOL    HW236915   0.997   2.851   6.418 -1.0378  0.4568  0.0506
 8486SOL     OW36916   2.624   3.619   3.890 -0.3072  0.4949  0.2730
 8486SOL    HW136917   2.715   3.636   3.866  0.4360  0.7551  3.3232
 8486SOL    HW236918   2.605   3.690   3.951  1.6944 -0.4593  1.9796
 8487SOL     OW36919   0.853   1.078   6.043  0.7137  0.0591  0.0947
 8487SOL    HW136920   0.825   1.114   5.959  0.9669  0.0063 -0.0134
 8487SOL    HW236921   0.901   1.002   6.009 -0.7762  0.1139 -2.0660
 8488SOL     OW36922   3.083   0.935   6.068 -0.5170 -0.0626 -0.2532
 8488SOL    HW136923   3.093   0.866   6.133  0.3402 -1.4039 -1.7932
 8488SOL    HW236924   3.002   0.899   6.033 -0.9102  0.7463 -0.1786
 8489SOL     OW36925   1.020   2.133   4.044  0.2457  0.7173  0.1936
 8489SOL    HW136926   1.090   2.146   4.107  0.1697  1.9876  0.0063
 8489SOL    HW236927   0.995   2.217   4.007 -1.5714 -0.0289 -0.2786
 8490SOL     OW36928   1.600   1.998   7.667  0.1824  0.2934  0.0576
 8490SOL    HW136929   1.554   1.981   7.749 -0.2151 -0.3334 -0.2942
 8490SOL    HW236930   1.688   2.005   7.704  0.6179  0.3971 -0.9941
 8491SOL     OW36931   0.843   4.082   0.509 -0.3862  0.3708 -0.1597
 8491SOL    HW136932   0.826   3.989   0.526  0.5358  0.0860 -0.8038
 8491SOL    HW236933   0.788   4.126   0.574 -1.8453 -3.6299  1.2857
 8492SOL     OW36934   4.703   2.491   4.595 -0.5643 -0.4897  0.1877
 8492SOL    HW136935   4.649   2.552   4.645  0.4705  0.9703 -0.5097
 8492SOL    HW236936   4.630   2.439   4.561 -0.0483 -0.9622 -0.1861
 8493SOL     OW36937   3.135   1.042   6.859  0.4156  0.8587  0.2676
 8493SOL    HW136938   3.202   0.975   6.842 -0.4529  0.1536 -0.3405
 8493SOL    HW236939   3.079   1.038   6.782  0.5877  0.9109  0.1383
 8494SOL     OW36940   2.062   4.538   8.195 -0.1588 -0.6349 -0.0102
 8494SOL    HW136941   2.152   4.519   8.221  0.1293  0.6661 -0.0419
 8494SOL    HW236942   2.063   4.631   8.173 -0.1180 -0.8158 -0.7893
 8495SOL     OW36943   0.314   1.150  12.015  0.5087 -0.5944 -0.2491
 8495SOL    HW136944   0.231   1.181  11.978  1.0590 -2.0847 -2.7520
 8495SOL    HW236945   0.346   1.232  12.053  0.3190  0.2703 -1.9634
 8496SOL     OW36946   0.213   4.427   3.137  0.3498  0.2717 -0.0171
 8496SOL    HW136947   0.289   4.403   3.083 -0.6286 -1.1225 -0.7839
 8496SOL    HW236948   0.244   4.495   3.197 -0.8309  1.8432 -1.1712
 8497SOL     OW36949   2.170   4.251   8.977 -0.4014  0.3070  0.5478
 8497SOL    HW136950   2.156   4.306   8.901 -3.1955  1.5367  1.9640
 8497SOL    HW236951   2.257   4.213   8.965 -1.6575 -2.3578 -0.2566
 8498SOL     OW36952   0.608   3.695   2.655 -0.0078 -0.5875  0.0827
 8498SOL    HW136953   0.628   3.606   2.683  1.4223 -1.1944 -2.8222
 8498SOL    HW236954   0.537   3.715   2.715  0.4675  0.7151  0.2062
 8499SOL     OW36955   0.703   0.702   6.314 -0.4181  0.1146  0.4886
 8499SOL    HW136956   0.725   0.792   6.338 -1.4741 -0.3393  3.2101
 8499SOL    HW236957   0.652   0.674   6.390  1.5041 -1.5665  1.1713
 8500SOL     OW36958   1.686   3.194  13.397 -0.2475 -0.8091  0.1580
 8500SOL    HW136959   1.610   3.174  13.453 -0.9341  0.6941 -0.2341
 8500SOL    HW236960   1.643   3.225  13.317 -2.6351 -3.1092  0.5407
 8501SOL     OW36961   2.333   0.822   4.207 -0.8246  0.4740 -0.1039
 8501SOL    HW136962   2.239   0.807   4.216 -0.7218  0.3805  0.7715
 8501SOL    HW236963   2.356   0.854   4.294 -1.0556 -1.4006  0.6467
 8502SOL     OW36964   4.004   0.621  13.627 -0.9371  0.3485 -0.1213
 8502SOL    HW136965   4.022   0.562  13.699 -2.8626 -0.6637 -0.4726
 8502SOL    HW236966   3.936   0.674  13.667 -0.0327  0.2918  1.4983
 8503SOL     OW36967   1.047   1.866   6.515  0.5400  0.7120  0.1390
 8503SOL    HW136968   1.009   1.794   6.466 -0.7326  0.2785  1.7886
 8503SOL    HW236969   1.134   1.869   6.475  1.3597  2.3411  2.0405
 8504SOL     OW36970   4.604   0.564  14.204  0.1866 -0.1587 -0.0483
 8504SOL    HW136971   4.556   0.496  14.157 -3.6887  2.6717 -0.2037
 8504SOL    HW236972   4.649   0.526  14.280 -0.2790 -1.0109 -0.2024
 8505SOL     OW36973   2.240   2.133   9.976 -0.3073 -0.4316 -0.1760
 8505SOL    HW136974   2.246   2.202  10.041  1.7626 -0.8351  0.0462
 8505SOL    HW236975   2.239   2.047  10.017 -1.6970 -0.3746 -0.0686
 8506SOL     OW36976   2.945   1.959  17.505  0.0829 -0.2781  0.0138
 8506SOL    HW136977   2.867   2.009  17.529  1.1977  0.1522  2.7476
 8506SOL    HW236978   2.906   1.872  17.507  0.4739 -0.4307  0.8207
 8507SOL     OW36979   1.543   2.091   7.966 -0.5346 -0.3255 -0.5461
 8507SOL    HW136980   1.465   2.118   8.014 -1.1645 -2.4965 -0.3515
 8507SOL    HW236981   1.568   2.030   8.035  1.1928 -1.1837 -1.9093
 8508SOL     OW36982   0.986   1.506  15.865 -0.0643 -0.1195  0.0293
 8508SOL    HW136983   0.912   1.455  15.900 -0.0640 -1.5334 -2.0227
 8508SOL    HW236984   1.039   1.516  15.943  0.3628 -2.5213  0.0638
 8509SOL     OW36985   1.339   3.630  12.233  0.5216  0.1109  0.1075
 8509SOL    HW136986   1.375   3.614  12.320  1.6377 -3.2947 -0.9409
 8509SOL    HW236987   1.254   3.588  12.245 -0.0507  1.5611  1.0583
 8510SOL     OW36988   3.746   3.879  14.220  0.3342 -0.8342 -0.5588
 8510SOL    HW136989   3.692   3.959  14.213  0.0651 -0.8301  1.6627
 8510SOL    HW236990   3.827   3.909  14.179 -0.9023  2.0558 -0.9242
 8511SOL     OW36991   3.524   1.389   2.541  0.0711  0.3779  0.6378
 8511SOL    HW136992   3.504   1.377   2.448  3.1348  1.0502 -0.1235
 8511SOL    HW236993   3.534   1.483   2.549 -0.9529  0.5460 -0.0819
 8512SOL     OW36994   0.568   2.537   0.881 -0.1574  0.5743  0.2858
 8512SOL    HW136995   0.546   2.511   0.970 -2.2760  2.0977  0.2129
 8512SOL    HW236996   0.660   2.565   0.884  0.3449 -1.0424 -0.1870
 8513SOL     OW36997   0.046   2.048   3.669 -0.1515  0.4843 -0.2733
 8513SOL    HW136998   0.040   2.132   3.715 -1.6260 -0.4646  1.2524
 8513SOL    HW236999   0.123   2.058   3.613  1.3621 -0.6864  1.6025
 8514SOL     OW37000   1.129   1.832   4.590  0.3221 -0.0807  0.2534
 8514SOL    HW137001   1.206   1.791   4.629  1.0200  2.3252  1.4017
 8514SOL    HW237002   1.131   1.779   4.511  0.7474  1.2029 -0.5978
 8515SOL     OW37003   2.363   3.060   6.115  0.0466 -0.0295 -0.1795
 8515SOL    HW137004   2.379   3.138   6.167 -0.5510 -0.3634  0.5085
 8515SOL    HW237005   2.431   3.000   6.146 -0.2650  0.0190  0.6008
 8516SOL     OW37006   0.179   3.146   1.225  0.3150 -0.3252  0.1314
 8516SOL    HW137007   0.223   3.211   1.171 -1.1875  0.6060  0.0453
 8516SOL    HW237008   0.231   3.066   1.214 -1.6567 -1.7958  1.3750
 8517SOL     OW37009   2.804   2.043   6.621  0.2758  0.1879 -0.4461
 8517SOL    HW137010   2.816   1.960   6.668 -1.1348 -0.1887 -0.7621
 8517SOL    HW237011   2.792   2.014   6.531 -0.0296 -0.3460 -0.2342
 8518SOL     OW37012   2.070   0.468  16.291 -0.0321 -0.5952  0.2282
 8518SOL    HW137013   2.050   0.481  16.198  2.2964 -1.5509 -0.4053
 8518SOL    HW237014   2.060   0.374  16.301  2.5590 -1.1730 -2.5886
 8519SOL     OW37015   4.646   4.719   2.046 -0.3929  0.0598  0.0999
 8519SOL    HW137016   4.719   0.049   2.013 -0.7786  1.9010  2.2601
 8519SOL    HW237017   4.579   0.020   1.982  0.4786 -0.4165 -0.9971
 8520SOL     OW37018   0.406   4.221   7.774 -0.2187  0.3673  0.0097
 8520SOL    HW137019   0.321   4.257   7.799 -0.2553  0.4711 -0.2659
 8520SOL    HW237020   0.375   4.135   7.747 -1.6607  1.4468 -1.7356
 8521SOL     OW37021   0.737   4.722   7.226 -0.2238 -0.0469 -0.2911
 8521SOL    HW137022   0.728   4.649   7.287 -0.9073 -0.3339 -0.7331
 8521SOL    HW237023   0.709   4.690   7.140  1.0712 -0.4588 -0.5469
 8522SOL     OW37024   3.096   2.238   4.716  0.0907 -0.0403  0.1509
 8522SOL    HW137025   3.026   2.302   4.724 -0.7696 -1.1085  1.3726
 8522SOL    HW237026   3.170   2.295   4.699 -0.3461  0.5185  0.1223
 8523SOL     OW37027   4.044   3.995   9.964 -0.0618  0.1709  0.0563
 8523SOL    HW137028   4.016   4.082   9.935  0.3730 -0.3188 -1.8253
 8523SOL    HW237029   3.990   3.941   9.907  0.5785 -0.2034 -0.1952
 8524SOL     OW37030   3.522   1.890  14.381  0.4178  0.0146  0.2730
 8524SOL    HW137031   3.530   1.951  14.454 -0.5428  0.5439 -0.0666
 8524SOL    HW237032   3.600   1.834  14.378 -0.1962 -0.8034 -0.5801
 8525SOL     OW37033   3.680   4.435  11.540 -0.2831  0.3769  0.4567
 8525SOL    HW137034   3.670   4.359  11.598  0.8810 -0.0741  0.0741
 8525SOL    HW237035   3.762   4.472  11.575  0.9304 -1.1862 -0.7221
 8526SOL     OW37036   2.448   3.368  11.580  0.2111  0.4301 -0.8115
 8526SOL    HW137037   2.473   3.301  11.517  3.4625  0.9748 -0.0809
 8526SOL    HW237038   2.532   3.412  11.579  0.5898 -0.3097 -1.4265
 8527SOL     OW37039   4.502   2.513   2.829 -0.3610 -0.1765 -0.5943
 8527SOL    HW137040   4.442   2.443   2.805 -1.6815  0.1980  1.6505
 8527SOL    HW237041   4.570   2.457   2.866  0.2435  1.2744  0.4773
 8528SOL     OW37042   3.386   3.873  12.761  0.1255  0.6126  0.0454
 8528SOL    HW137043   3.325   3.946  12.753  0.2755  0.5584 -1.6092
 8528SOL    HW237044   3.425   3.872  12.674 -1.1299 -2.1221 -0.4938
 8529SOL     OW37045   0.961   2.743   2.556  0.3603  0.4533  0.1676
 8529SOL    HW137046   1.008   2.679   2.610 -1.2915 -1.7681 -1.0057
 8529SOL    HW237047   0.936   2.682   2.486 -0.8395 -0.5288  1.4681
 8530SOL     OW37048   0.387   3.727  13.042 -0.0579  1.1089 -0.5348
 8530SOL    HW137049   0.449   3.736  13.115  1.2363 -2.3057 -1.1695
 8530SOL    HW237050   0.374   3.632  13.044 -0.7564  1.2328  0.5287
 8531SOL     OW37051   2.660   2.754   4.183  0.0539  0.6246 -0.0684
 8531SOL    HW137052   2.621   2.814   4.118 -2.7297 -3.1594 -1.8797
 8531SOL    HW237053   2.582   2.724   4.230  0.7821 -0.7643  0.2422
 8532SOL     OW37054   3.255   0.587   6.489  0.5260  0.6633 -0.2962
 8532SOL    HW137055   3.161   0.577   6.476  0.5914 -1.8449  1.3253
 8532SOL    HW237056   3.268   0.571   6.582  3.5377  0.8489 -0.6910
 8533SOL     OW37057   2.349   3.716  12.397  0.2372 -0.5243 -0.6151
 8533SOL    HW137058   2.374   3.808  12.406  0.9291 -0.6950 -0.8467
 8533SOL    HW237059   2.430   3.672  12.374 -0.0628 -1.8161  0.7546
 8534SOL     OW37060   1.230   3.044   9.246 -0.3923  0.4054  0.1006
 8534SOL    HW137061   1.242   3.004   9.333  0.1491 -0.8779 -0.5572
 8534SOL    HW237062   1.315   3.088   9.245 -0.3062  0.2346 -0.0794
 8535SOL     OW37063   3.606   4.350   1.808  0.5547 -0.1170  0.2332
 8535SOL    HW137064   3.548   4.408   1.857  2.5716  1.9982  0.0856
 8535SOL    HW237065   3.565   4.266   1.830  0.6890 -0.6045 -1.3644
 8536SOL     OW37066   4.454   3.758   6.252 -0.1167  0.0632 -0.6644
 8536SOL    HW137067   4.413   3.673   6.236 -1.1204  0.4191  0.0123
 8536SOL    HW237068   4.548   3.744   6.264 -0.4109 -0.7652  0.7490
 8537SOL     OW37069   0.539   1.385   1.182  0.4529 -1.1531 -0.1861
 8537SOL    HW137070   0.536   1.328   1.106 -0.5553  2.1944 -2.6625
 8537SOL    HW237071   0.631   1.408   1.192  0.4669 -1.4844  0.4680
 8538SOL     OW37072   1.412   2.925  15.781  0.3002  0.3222 -0.0593
 8538SOL    HW137073   1.468   2.872  15.839 -0.7099  0.8027  1.3673
 8538SOL    HW237074   1.374   2.848  15.739 -1.4167  1.1547  0.0123
 8539SOL     OW37075   0.039   3.820  11.250  0.4396 -0.0297 -0.7659
 8539SOL    HW137076   0.031   3.907  11.211 -1.8830  0.6037  1.1324
 8539SOL    HW237077   0.081   3.773  11.178  1.0664 -3.2958  1.7006
 8540SOL     OW37078   1.268   3.572   8.879  0.1015  0.5103 -0.2937
 8540SOL    HW137079   1.248   3.624   8.801 -5.7718  0.2931  1.0363
 8540SOL    HW237080   1.292   3.635   8.947 -2.3670  0.5987  0.5056
 8541SOL     OW37081   3.838   1.863   2.075 -0.8850 -0.1952 -0.1421
 8541SOL    HW137082   3.812   1.930   2.011  0.2551  1.1822  0.8404
 8541SOL    HW237083   3.752   1.823   2.089 -1.0650 -0.6810 -2.5382
 8542SOL     OW37084   0.481   4.512  14.872 -0.0430 -0.1114 -0.0001
 8542SOL    HW137085   0.477   4.456  14.794  1.2431 -1.1415  0.6710
 8542SOL    HW237086   0.540   4.462  14.929 -3.0446 -2.2165  1.2553
 8543SOL     OW37087   3.447   4.183   7.587  0.0196 -0.1493  0.2022
 8543SOL    HW137088   3.458   4.117   7.519  1.2243  0.4485 -0.1920
 8543SOL    HW237089   3.353   4.184   7.603  0.0257 -1.1519  0.2832
 8544SOL     OW37090   0.755   4.376  11.894  0.3591 -0.0234  0.0404
 8544SOL    HW137091   0.777   4.292  11.935 -0.6466  1.2829  3.2123
 8544SOL    HW237092   0.832   4.427  11.920 -1.3267  2.0061  1.0261
 8545SOL     OW37093   0.500   2.787   5.877 -0.3454 -0.0463  0.2889
 8545SOL    HW137094   0.417   2.783   5.830 -0.6047  1.0439  0.6314
 8545SOL    HW237095   0.491   2.722   5.947  1.9504 -0.0719  0.5651
 8546SOL     OW37096   2.395   3.855   4.798  0.0743 -0.4401  0.4114
 8546SOL    HW137097   2.489   3.853   4.817  0.5063 -0.4204 -1.7856
 8546SOL    HW237098   2.380   3.773   4.751 -0.8821  0.6495 -1.1687
 8547SOL     OW37099   2.984   0.853  14.793 -0.4329  0.1077 -0.1363
 8547SOL    HW137100   3.022   0.929  14.837 -1.1779  0.9993 -1.0274
 8547SOL    HW237101   3.022   0.784  14.847  1.6046  0.1520 -1.5498
 8548SOL     OW37102   0.522   0.145  17.583  0.2303 -0.1526 -0.0782
 8548SOL    HW137103   0.542   0.052  17.592  2.0759 -0.0488 -3.1358
 8548SOL    HW237104   0.611   0.166  17.611  0.0111  0.5859  0.0762
 8549SOL     OW37105   2.240   0.103   3.492  0.0109 -0.5922 -0.1470
 8549SOL    HW137106   2.259   0.190   3.457  3.3228 -1.1774  0.1959
 8549SOL    HW237107   2.244   0.044   3.417  1.5245 -0.7117  0.0195
 8550SOL     OW37108   0.169   3.884   8.333 -0.0710  0.2301  0.5915
 8550SOL    HW137109   0.229   3.950   8.366  3.1450 -3.0617  1.2775
 8550SOL    HW237110   0.100   3.943   8.302  1.0201  1.6649  0.8605
 8551SOL     OW37111   1.425   2.295   7.774 -0.3170  0.1233  0.2383
 8551SOL    HW137112   1.472   2.255   7.846 -0.5907 -1.1427 -0.2890
 8551SOL    HW237113   1.439   2.388   7.793 -0.6629 -0.3569  2.7141
 8552SOL     OW37114   4.721   1.452   5.696  0.3511  0.0897 -0.3548
 8552SOL    HW137115   4.715   1.358   5.683  1.2365  0.0613 -0.5900
 8552SOL    HW237116   4.640   1.494   5.667 -0.2208  0.1523  1.2888
 8553SOL     OW37117   3.301   0.095  11.415 -0.1912 -0.4550  0.2543
 8553SOL    HW137118   3.297   0.191  11.414 -0.0332 -0.4315  1.6485
 8553SOL    HW237119   3.393   0.068  11.418 -0.6216 -1.9553 -0.0918
 8554SOL     OW37120   3.464   2.059   6.158  0.2070 -0.2065 -0.4820
 8554SOL    HW137121   3.496   2.143   6.123 -2.1348  0.3336 -1.3077
 8554SOL    HW237122   3.515   2.062   6.239  0.0472 -0.7558 -0.3669
 8555SOL     OW37123   2.236   2.177   0.427  0.4094  0.3011 -0.2870
 8555SOL    HW137124   2.217   2.129   0.346  1.6731 -0.0870 -0.3544
 8555SOL    HW237125   2.158   2.230   0.438 -0.8832 -1.9654  1.3678
 8556SOL     OW37126   1.034   2.873  10.841 -0.1304  0.3117  0.1523
 8556SOL    HW137127   1.071   2.812  10.777  0.1908  1.1010 -0.4205
 8556SOL    HW237128   0.939   2.873  10.830 -0.2551  0.0457  1.2500
 8557SOL     OW37129   0.494   2.821   2.986  0.5047 -0.6840 -0.1309
 8557SOL    HW137130   0.579   2.862   3.000  0.4207 -0.6093  0.1647
 8557SOL    HW237131   0.495   2.787   2.897  0.9590 -0.6937 -0.1238
 8558SOL     OW37132   2.271   4.038   7.269 -0.1014  0.5130  0.4415
 8558SOL    HW137133   2.204   4.016   7.204 -0.0278  1.8391 -0.0702
 8558SOL    HW237134   2.239   4.122   7.302  0.1970  0.1544  1.6296
 8559SOL     OW37135   4.245   1.837   0.364 -0.0019 -0.1200  0.4709
 8559SOL    HW137136   4.152   1.859   0.361  0.5216  1.8201 -1.7797
 8559SOL    HW237137   4.251   1.839   0.459 -0.7241 -0.1423  0.5184
 8560SOL     OW37138   2.897   4.179   7.736  0.1942 -0.0486  0.0613
 8560SOL    HW137139   2.920   4.169   7.828  1.0438 -3.2059 -0.4755
 8560SOL    HW237140   2.811   4.138   7.731 -0.3590  0.9043  2.1099
 8561SOL     OW37141   1.930   4.140   5.623 -0.1060 -0.0035  0.1032
 8561SOL    HW137142   1.842   4.103   5.632  0.2610 -1.0180 -0.4246
 8561SOL    HW237143   1.936   4.146   5.528 -1.1424 -0.2934  0.0286
 8562SOL     OW37144   1.413   1.093   1.422 -0.3017 -0.3343 -0.4286
 8562SOL    HW137145   1.391   1.034   1.494  1.6971 -0.0041  0.4671
 8562SOL    HW237146   1.374   1.177   1.447  0.1854  0.1769 -1.4123
 8563SOL     OW37147   1.499   4.111  11.529  0.0534 -0.1158 -0.4151
 8563SOL    HW137148   1.553   4.085  11.604 -1.3325  1.3871  1.1289
 8563SOL    HW237149   1.553   4.180  11.491  0.6003 -0.7286 -0.7542
 8564SOL     OW37150   4.316   1.364   8.745 -0.3822  0.5453 -0.1384
 8564SOL    HW137151   4.302   1.275   8.778 -1.1635  0.5701 -0.4037
 8564SOL    HW237152   4.375   1.387   8.817  0.5677 -1.5249 -0.2653
 8565SOL     OW37153   1.694   1.787   3.844  0.1820  0.0486  0.1006
 8565SOL    HW137154   1.611   1.830   3.865 -0.7092 -1.4614 -0.2800
 8565SOL    HW237155   1.728   1.755   3.927  0.6377  2.1698  0.7186
 8566SOL     OW37156   4.238   4.617  12.434 -0.4631 -0.8250  0.0130
 8566SOL    HW137157   4.331   4.613  12.455 -0.3837 -1.4409 -0.4625
 8566SOL    HW237158   4.194   4.605  12.518 -0.5921 -0.7395 -0.0403
 8567SOL     OW37159   3.098   4.588   4.614 -0.7408 -0.4881 -0.1374
 8567SOL    HW137160   3.098   4.673   4.571  0.7478 -0.0687  0.7073
 8567SOL    HW237161   3.173   4.545   4.573  1.2879  2.5404  0.3991
 8568SOL     OW37162   1.516   4.336   3.191 -0.1793  0.3047  0.2090
 8568SOL    HW137163   1.461   4.311   3.117 -0.0876 -1.3751  0.7212
 8568SOL    HW237164   1.601   4.299   3.166 -1.0233 -1.6013  0.2115
 8569SOL     OW37165   3.228   2.332  13.245  0.0435  0.1305 -0.1334
 8569SOL    HW137166   3.216   2.379  13.163 -3.7266 -1.0249 -0.2636
 8569SOL    HW237167   3.194   2.243  13.229  0.6014 -0.0537 -0.2882
 8570SOL     OW37168   1.644   2.444  13.639  0.0609  0.4731 -0.3267
 8570SOL    HW137169   1.730   2.479  13.663 -0.9892  0.8793  2.8687
 8570SOL    HW237170   1.588   2.518  13.664 -0.0340  0.9367 -1.9494
 8571SOL     OW37171   0.484   1.272   2.547 -0.0542  0.1872 -0.4359
 8571SOL    HW137172   0.494   1.178   2.561 -1.0782  0.3717  1.6033
 8571SOL    HW237173   0.519   1.312   2.626  0.7495 -0.0641 -0.6693
 8572SOL     OW37174   1.805   1.907   4.319 -0.5403 -0.5777 -0.0327
 8572SOL    HW137175   1.792   1.813   4.332  2.5872 -0.6837  2.3835
 8572SOL    HW237176   1.797   1.938   4.410 -1.0401 -0.9884  0.0660
 8573SOL     OW37177   3.285   0.066   9.976  0.3833 -0.1308 -0.5277
 8573SOL    HW137178   3.228   4.717  10.001 -0.0963  0.8186  1.0930
 8573SOL    HW237179   3.241   0.098   9.897  1.8019  2.8101 -0.0987
 8574SOL     OW37180   1.938   2.899   8.737 -0.3382 -0.0388  0.5825
 8574SOL    HW137181   1.889   2.902   8.655 -0.7242  0.1281  0.8206
 8574SOL    HW237182   1.979   2.814   8.723 -2.9878 -1.2071 -0.0803
 8575SOL     OW37183   3.545   2.740   9.079  0.6928  0.0271 -0.3327
 8575SOL    HW137184   3.579   2.793   9.007  0.7614  0.7498  0.2336
 8575SOL    HW237185   3.519   2.658   9.037 -1.8973  1.0179 -0.6330
 8576SOL     OW37186   1.642   1.320   5.054  0.2015 -0.1094  0.3866
 8576SOL    HW137187   1.694   1.307   5.133 -0.1461 -1.7335  0.3378
 8576SOL    HW237188   1.684   1.399   5.020  1.3133 -0.8578  0.0244
 8577SOL     OW37189   2.715   3.097  14.327 -0.9394 -0.5453 -0.1229
 8577SOL    HW137190   2.704   3.004  14.348 -0.5245 -0.6499 -0.3779
 8577SOL    HW237191   2.689   3.139  14.410 -1.2157  1.9539 -1.4664
 8578SOL     OW37192   4.224   2.566   4.862  0.6789 -0.2918 -0.4603
 8578SOL    HW137193   4.158   2.509   4.821 -0.9866  0.0912  1.6965
 8578SOL    HW237194   4.235   2.516   4.942 -1.3962 -0.1819 -0.0961
 8579SOL     OW37195   2.288   1.680  12.067  0.1629  0.1796  0.5960
 8579SOL    HW137196   2.281   1.696  11.972  1.0681  1.2662  0.7160
 8579SOL    HW237197   2.211   1.623  12.074  0.5528 -0.2255  1.5799
 8580SOL     OW37198   2.773   1.742   2.948 -0.0915  0.0605  0.9145
 8580SOL    HW137199   2.752   1.834   2.965  2.1978  0.5457  1.0778
 8580SOL    HW237200   2.695   1.699   2.984 -1.5519  2.2451  0.3148
 8581SOL     OW37201   1.241   3.678  15.773 -0.0561 -0.1540  0.0834
 8581SOL    HW137202   1.195   3.594  15.779 -2.7504  1.3091  0.0522
 8581SOL    HW237203   1.244   3.694  15.678  2.0117  2.5957  0.6154
 8582SOL     OW37204   4.630   1.662  16.276 -0.5596 -0.4574  0.5937
 8582SOL    HW137205   4.590   1.738  16.318 -0.7878 -0.6030  0.6375
 8582SOL    HW237206   4.568   1.594  16.301  0.1684 -1.1203  0.6190
 8583SOL     OW37207   1.678   4.152   2.722 -0.3192  0.0709 -0.3563
 8583SOL    HW137208   1.719   4.204   2.653 -2.4981  2.5530  0.2169
 8583SOL    HW237209   1.663   4.071   2.673  0.4605 -1.9715  2.7714
 8584SOL     OW37210   4.115   2.846   4.556  0.7573  0.1480 -0.2640
 8584SOL    HW137211   4.143   2.923   4.605  0.5336  0.8369 -1.2215
 8584SOL    HW237212   4.021   2.860   4.569  0.4924  0.6412 -2.5588
 8585SOL     OW37213   0.176   3.280   4.629  0.3492  0.4924  0.4515
 8585SOL    HW137214   0.178   3.360   4.578 -0.4676 -1.1906 -2.2077
 8585SOL    HW237215   0.153   3.315   4.715  1.9726 -2.1227  1.9670
 8586SOL     OW37216   0.075   3.026   3.077 -1.1465 -0.8224  0.1412
 8586SOL    HW137217   0.135   2.958   3.047 -1.1481 -1.4465  1.5781
 8586SOL    HW237218   4.713   2.981   3.073 -1.2947 -0.5311 -0.0383
 8587SOL     OW37219   2.048   0.236   4.402 -0.0034 -0.1572  0.0138
 8587SOL    HW137220   2.035   0.153   4.449  1.1569 -0.0504  0.5322
 8587SOL    HW237221   1.975   0.239   4.340 -0.7737 -0.6737  0.8952
 8588SOL     OW37222   4.520   3.826   2.872 -0.3588  0.4601 -0.1370
 8588SOL    HW137223   4.531   3.739   2.910 -2.1475  0.4827  0.4574
 8588SOL    HW237224   4.465   3.811   2.795 -1.8410  0.9009  0.8320
 8589SOL     OW37225   0.347   1.590   9.325  0.4826  0.5031 -0.7548
 8589SOL    HW137226   0.358   1.517   9.263  0.1529 -0.8117  0.7456
 8589SOL    HW237227   0.369   1.551   9.409 -0.4270 -0.8680 -1.1473
 8590SOL     OW37228   4.091   3.026  16.168 -0.1660 -0.6799 -0.8509
 8590SOL    HW137229   4.134   3.069  16.242  1.4985  0.3562 -2.4542
 8590SOL    HW237230   4.099   2.938  16.205 -4.0107 -1.4455 -1.7772
 8591SOL     OW37231   0.042   0.863   3.632  0.5183  0.1646 -0.3612
 8591SOL    HW137232   0.118   0.812   3.602  0.6867 -0.1001  0.5289
 8591SOL    HW237233   4.719   0.877   3.549  0.6924 -2.0376 -0.8340
 8592SOL     OW37234   0.126   4.415   4.036  0.1363  0.3006 -0.4493
 8592SOL    HW137235   0.152   4.427   3.945  1.2504 -2.8827 -0.5461
 8592SOL    HW237236   0.129   4.507   4.063 -3.3114  0.7412 -1.4944
 8593SOL     OW37237   2.344   3.559   7.131 -0.0081 -0.3495 -0.5319
 8593SOL    HW137238   2.276   3.519   7.078 -2.2918  0.8493  1.4972
 8593SOL    HW237239   2.408   3.489   7.147 -0.9120 -1.1755 -0.4985
 8594SOL     OW37240   3.215   3.375   7.284  0.3477  0.0254  0.3241
 8594SOL    HW137241   3.295   3.389   7.233 -0.6081  0.5741 -1.0092
 8594SOL    HW237242   3.248   3.310   7.346  2.1753  2.3140  1.7755
 8595SOL     OW37243   2.161   2.332   4.019 -0.2235  0.3319  0.1692
 8595SOL    HW137244   2.247   2.334   4.062 -0.0315  0.7658 -0.2290
 8595SOL    HW237245   2.109   2.287   4.084 -2.5023  1.1873 -1.0706
 8596SOL     OW37246   4.586   0.709   0.755  0.0084 -0.2424  0.5740
 8596SOL    HW137247   4.506   0.706   0.702 -1.3868 -1.1732  2.7763
 8596SOL    HW237248   4.564   0.779   0.816  1.1582  1.5484 -1.0570
 8597SOL     OW37249   0.370   3.735   5.515 -0.0390  0.2899  0.4017
 8597SOL    HW137250   0.354   3.821   5.475 -0.2201 -1.4348 -3.2781
 8597SOL    HW237251   0.297   3.682   5.481  1.7255 -1.5154 -0.5577
 8598SOL     OW37252   2.843   1.822  15.631  0.0337  0.2286 -0.1517
 8598SOL    HW137253   2.766   1.791  15.679  1.8365 -1.2381  1.7666
 8598SOL    HW237254   2.913   1.835  15.695  0.6514 -2.7416 -0.1852
 8599SOL     OW37255   1.654   2.970   1.016  0.1012  0.0461 -0.1365
 8599SOL    HW137256   1.575   2.979   0.963  0.3573 -0.9035 -0.6753
 8599SOL    HW237257   1.618   2.988   1.104 -1.1350 -0.9051 -0.4505
 8600SOL     OW37258   2.283   3.351  11.790  0.6970 -0.8700 -0.1871
 8600SOL    HW137259   2.262   3.444  11.798  0.2457 -0.9106 -0.8510
 8600SOL    HW237260   2.329   3.350  11.707  2.1584  0.8319  0.5966
 8601SOL     OW37261   3.934   2.906   3.684  0.2645  0.7870  0.2007
 8601SOL    HW137262   3.897   2.989   3.714  0.2983  0.2895  1.5975
 8601SOL    HW237263   3.868   2.851   3.725 -0.5748  1.3568 -0.3782
 8602SOL     OW37264   1.943   3.337   0.343 -0.1373 -0.3128  0.5061
 8602SOL    HW137265   1.974   3.415   0.389 -1.1902  1.5575 -1.9383
 8602SOL    HW237266   1.904   3.296   0.420  0.2165 -1.0640  0.2880
 8603SOL     OW37267   2.044   3.294   1.625 -0.3589 -0.6895  0.7261
 8603SOL    HW137268   2.139   3.301   1.618 -0.2652 -0.8022  1.9172
 8603SOL    HW237269   2.020   3.367   1.682  0.5706 -0.8372  1.2866
 8604SOL     OW37270   2.879   0.627   4.122  0.1617 -0.0350 -0.2356
 8604SOL    HW137271   2.880   0.698   4.058 -0.9656 -1.2397 -1.5917
 8604SOL    HW237272   2.827   0.658   4.197 -0.3721 -0.5785 -0.3769
 8605SOL     OW37273   2.932   3.899  16.321 -0.1669  0.0900  0.8869
 8605SOL    HW137274   3.006   3.951  16.289  0.1780 -0.8251  0.2050
 8605SOL    HW237275   2.871   3.967  16.351  1.5562  0.6978  3.0270
 8606SOL     OW37276   2.942   1.911   7.108 -0.8336  0.0401 -0.2370
 8606SOL    HW137277   3.026   1.928   7.152  0.4215 -1.1380 -2.1470
 8606SOL    HW237278   2.943   1.979   7.040  0.2243 -0.5103 -0.7773
 8607SOL     OW37279   1.362   1.136   1.123  0.1557 -0.5226 -0.0958
 8607SOL    HW137280   1.399   1.127   1.211  1.6272 -0.4798 -0.7154
 8607SOL    HW237281   1.311   1.216   1.137  2.9941  1.2395  0.3795
 8608SOL     OW37282   4.255   2.265   7.357 -0.7090  0.1449 -0.3058
 8608SOL    HW137283   4.176   2.290   7.404 -0.6487  0.3467 -0.3132
 8608SOL    HW237284   4.292   2.350   7.333  0.1719  0.0654  0.7723
 8609SOL     OW37285   2.312   2.608   8.079  0.9284 -0.3382 -0.8974
 8609SOL    HW137286   2.222   2.574   8.074  0.8172 -0.1431 -0.1879
 8609SOL    HW237287   2.313   2.656   8.162  1.3945  0.2617 -1.2558
 8610SOL     OW37288   2.729   2.968   3.399  0.0380  0.3322  0.1311
 8610SOL    HW137289   2.744   3.047   3.451  1.6539 -0.9411  1.6022
 8610SOL    HW237290   2.802   2.970   3.337  0.5518 -3.6194  0.5953
 8611SOL     OW37291   3.257   1.689  15.852 -0.2264 -0.4171  0.2963
 8611SOL    HW137292   3.344   1.650  15.848  0.6658  1.5969  0.1291
 8611SOL    HW237293   3.235   1.672  15.760  1.5432 -2.5228  0.2719
 8612SOL     OW37294   2.982   1.834   4.578  0.2659 -0.6439  0.0470
 8612SOL    HW137295   2.930   1.855   4.655  0.1179  0.0826 -0.2465
 8612SOL    HW237296   3.070   1.862   4.605 -1.1462  3.1825  0.7140
 8613SOL     OW37297   4.055   3.583  17.650  0.1547 -0.0843 -0.4798
 8613SOL    HW137298   4.071   3.606   0.047 -2.3427  2.4183 -0.7090
 8613SOL    HW237299   3.970   3.618  17.627  1.1789  2.5072 -0.3144
 8614SOL     OW37300   2.659   1.735   4.406  0.1479  0.0867  0.0536
 8614SOL    HW137301   2.606   1.667   4.448  0.8957 -0.1932  0.5425
 8614SOL    HW237302   2.643   1.822   4.442  4.7692  1.0733 -0.2468
 8615SOL     OW37303   1.005   3.435   7.302 -0.2599  0.6843  0.3484
 8615SOL    HW137304   0.910   3.426   7.296  0.0841 -3.2146  0.3360
 8615SOL    HW237305   1.026   3.369   7.369  1.4418  0.0189 -0.8360
 8616SOL     OW37306   4.402   2.178   3.023 -0.1470 -0.2479  0.0503
 8616SOL    HW137307   4.342   2.252   3.034 -2.2351 -1.7414 -1.4074
 8616SOL    HW237308   4.361   2.120   3.086 -1.8514  2.2389  1.2126
 8617SOL     OW37309   3.689   2.756   3.751 -0.6549 -0.1431 -0.7587
 8617SOL    HW137310   3.599   2.763   3.784 -0.9973  0.4262 -1.7895
 8617SOL    HW237311   3.721   2.673   3.786  1.0540  0.1745 -1.6082
 8618SOL     OW37312   0.290   0.717  15.728  0.1900  0.3732 -0.3025
 8618SOL    HW137313   0.225   0.709  15.799  0.1484  0.2537 -0.3545
 8618SOL    HW237314   0.242   0.773  15.667  0.2903  0.3967 -0.3595
 8619SOL     OW37315   0.799   2.816   4.172  0.1711 -0.0200 -0.1501
 8619SOL    HW137316   0.812   2.891   4.113 -1.1419  0.1414 -0.2366
 8619SOL    HW237317   0.863   2.839   4.239  0.8513  1.7146 -1.4061
 8620SOL     OW37318   0.163   0.863   2.717  0.3916 -0.1014 -0.0951
 8620SOL    HW137319   0.157   0.908   2.633  0.7720  2.2910  1.1616
 8620SOL    HW237320   0.220   0.791   2.691  0.3860 -0.0840 -0.1559
 8621SOL     OW37321   1.497   4.038   0.948 -0.3872  0.2488 -0.2467
 8621SOL    HW137322   1.544   3.969   0.995 -0.2736  1.7267  1.8112
 8621SOL    HW237323   1.465   4.080   1.028 -1.2782 -1.2608  0.1863
 8622SOL     OW37324   0.776   3.973   9.411 -0.1367  0.2204  0.3562
 8622SOL    HW137325   0.688   3.943   9.434 -0.6787  1.8575  0.4161
 8622SOL    HW237326   0.807   3.975   9.502 -0.7210  0.7060  0.5461
 8623SOL     OW37327   2.255   4.149   4.002  0.8251 -0.0109 -0.3187
 8623SOL    HW137328   2.232   4.098   3.924 -0.7963  0.4800 -0.1665
 8623SOL    HW237329   2.339   4.105   4.014 -0.4400 -2.6528 -1.0954
 8624SOL     OW37330   2.672   0.278  10.458 -0.1840  0.6200  0.5151
 8624SOL    HW137331   2.765   0.269  10.478  0.0001 -0.7844 -0.9665
 8624SOL    HW237332   2.639   0.252  10.544  1.0779 -0.3607  0.7094
 8625SOL     OW37333   3.310   3.757   6.771 -0.7615  0.2580  0.2175
 8625SOL    HW137334   3.297   3.825   6.837  0.8978 -0.6382  1.4598
 8625SOL    HW237335   3.245   3.691   6.797 -1.6722  0.8617 -0.5065
 8626SOL     OW37336   0.529   4.215   4.821 -0.0949  0.6247 -0.3502
 8626SOL    HW137337   0.505   4.249   4.734  0.6135 -1.3923 -1.3192
 8626SOL    HW237338   0.496   4.128   4.800  0.8416  0.3208 -0.5636
 8627SOL     OW37339   1.248   2.493   6.030  0.1311  0.1085 -0.9059
 8627SOL    HW137340   1.291   2.512   5.947  0.8509  1.5033 -0.2178
 8627SOL    HW237341   1.175   2.441   5.997 -0.7973  0.4292  0.6158
 8628SOL     OW37342   2.046   2.481   7.224 -0.2837 -0.0739  0.1496
 8628SOL    HW137343   2.125   2.428   7.212 -1.4234 -1.8721  0.5245
 8628SOL    HW237344   2.020   2.512   7.137 -1.4443  0.2028  0.5976
 8629SOL     OW37345   0.581   0.352  13.154 -0.9456  0.2886 -0.3606
 8629SOL    HW137346   0.538   0.311  13.079  1.5469  0.7352 -2.0297
 8629SOL    HW237347   0.602   0.279  13.212  1.0853  1.7509  0.7439
 8630SOL     OW37348   1.719   4.559   0.475 -0.1377 -0.4031  0.1281
 8630SOL    HW137349   1.733   4.480   0.525 -1.6164 -1.8104 -1.6764
 8630SOL    HW237350   1.683   4.618   0.541 -0.0836  0.8519 -0.9417
 8631SOL     OW37351   3.328   1.139   9.569  0.0229  0.5930 -0.0534
 8631SOL    HW137352   3.349   1.056   9.612  1.2021  0.6108 -0.5841
 8631SOL    HW237353   3.369   1.113   9.487 -2.2976 -3.0227 -0.0216
 8632SOL     OW37354   1.111   2.856   4.962 -0.1554  0.2522 -0.1205
 8632SOL    HW137355   1.177   2.828   4.899 -1.1415 -2.0342 -0.1345
 8632SOL    HW237356   1.139   2.799   5.034  0.9096  1.6202  0.5482
 8633SOL     OW37357   3.729   0.529   6.385  0.1003 -0.2478 -0.0427
 8633SOL    HW137358   3.700   0.620   6.372  1.2048 -0.1920 -2.1884
 8633SOL    HW237359   3.653   0.478   6.357 -1.9980  2.1899  1.2062
 8634SOL     OW37360   0.330   4.688   9.083 -0.6462  0.0989 -0.0063
 8634SOL    HW137361   0.257   4.683   9.021 -0.9166 -3.7689  0.6315
 8634SOL    HW237362   0.327   4.593   9.098  2.3602  0.3167  1.8430
 8635SOL     OW37363   4.348   3.267   7.297  0.1938  0.6648  0.3401
 8635SOL    HW137364   4.423   3.323   7.316  1.4021 -1.1534  0.9230
 8635SOL    HW237365   4.293   3.307   7.364 -0.6505  1.7876 -1.0284
 8636SOL     OW37366   2.393   2.369   4.150  0.0967  0.2264 -0.6750
 8636SOL    HW137367   2.416   2.438   4.088  1.0190 -1.2678 -1.9959
 8636SOL    HW237368   2.477   2.325   4.140 -0.6835 -1.1347 -1.2426
 8637SOL     OW37369   1.580   0.549   6.652  0.7172 -0.2386 -0.1766
 8637SOL    HW137370   1.563   0.635   6.692  0.8481 -1.4915  2.5667
 8637SOL    HW237371   1.553   0.489   6.721  0.3318  0.5057  0.3207
 8638SOL     OW37372   4.349   2.525   7.264 -0.6133 -0.3970  0.2203
 8638SOL    HW137373   4.378   2.595   7.322  0.5524 -2.0402  1.6120
 8638SOL    HW237374   4.431   2.477   7.251 -0.4351 -0.0568  0.0839
 8639SOL     OW37375   0.828   3.597   8.232  0.4618 -0.0499  0.5480
 8639SOL    HW137376   0.794   3.566   8.316 -1.5589  2.0310  0.5117
 8639SOL    HW237377   0.812   3.527   8.169 -1.8111  1.4865 -0.5976
 8640SOL     OW37378   2.986   2.333   0.597 -0.2126 -0.0903 -0.0770
 8640SOL    HW137379   2.894   2.312   0.583 -0.6249  0.8202  1.2847
 8640SOL    HW237380   3.015   2.351   0.507 -1.3130  1.2838 -0.1482
 8641SOL     OW37381   3.433   3.731   7.802 -0.4260  0.6279 -0.6152
 8641SOL    HW137382   3.375   3.800   7.833  0.9721  1.2432  0.6088
 8641SOL    HW237383   3.517   3.772   7.781  0.4025 -0.5768  0.3128
 8642SOL     OW37384   1.254   3.309   5.197  0.5229  0.0812 -0.1529
 8642SOL    HW137385   1.344   3.308   5.164  0.6130  0.6135  0.0719
 8642SOL    HW237386   1.263   3.365   5.275 -2.8670  0.6633 -0.1718
 8643SOL     OW37387   2.330   2.104   0.062 -0.5222 -0.1096  0.1014
 8643SOL    HW137388   2.357   2.101  17.665 -0.2360 -2.1335  0.2532
 8643SOL    HW237389   2.313   2.011   0.078 -1.1105 -0.6314 -3.4285
 8644SOL     OW37390   4.531   3.461  11.058 -0.9080  0.4484  0.6029
 8644SOL    HW137391   4.513   3.367  11.052  0.4605  0.1357  1.4027
 8644SOL    HW237392   4.488   3.491  11.138 -1.4630  2.3464 -0.4238
 8645SOL     OW37393   1.027   0.592   8.304  0.1046  0.0008  0.2766
 8645SOL    HW137394   0.978   0.518   8.266  1.7293 -0.6020 -0.6251
 8645SOL    HW237395   1.110   0.550   8.325 -0.9736 -1.4791  1.5760
 8646SOL     OW37396   1.387   0.948   8.053  0.0747  0.4288 -0.1841
 8646SOL    HW137397   1.379   0.981   7.963  0.3503  0.9116 -0.0349
 8646SOL    HW237398   1.374   1.029   8.103 -0.1504 -0.5161  1.2710
 8647SOL     OW37399   0.884   3.707  13.338  0.3462 -0.5021 -0.1209
 8647SOL    HW137400   0.890   3.791  13.292  0.4569 -1.3482 -1.6218
 8647SOL    HW237401   0.954   3.661  13.292  1.2196  0.1854  0.4855
 8648SOL     OW37402   3.470   2.230   9.902 -0.1973 -0.1433 -0.2440
 8648SOL    HW137403   3.521   2.279   9.966  1.4434 -1.9758 -0.1691
 8648SOL    HW237404   3.453   2.302   9.841  1.4224 -0.2595 -0.8341
 8649SOL     OW37405   0.672   1.404   0.440  0.1151 -0.0205  0.1783
 8649SOL    HW137406   0.647   1.472   0.502 -1.1083 -0.5472  0.2671
 8649SOL    HW237407   0.589   1.378   0.400  0.5628 -0.0238 -0.7541
 8650SOL     OW37408   2.571   0.657   4.262 -0.6180 -0.0347  0.5640
 8650SOL    HW137409   2.572   0.740   4.308  1.7321  0.0162  0.4194
 8650SOL    HW237410   2.494   0.666   4.207 -1.5814  1.4674  2.1551
 8651SOL     OW37411   1.522   4.159   2.396  0.1625  0.1828 -0.1378
 8651SOL    HW137412   1.569   4.089   2.441  1.5038  0.8101 -0.5594
 8651SOL    HW237413   1.581   4.178   2.323  0.5247 -1.9560 -0.4160
 8652SOL     OW37414   0.188   0.908   2.442  0.5939  0.5824 -0.6385
 8652SOL    HW137415   0.256   0.842   2.455  0.8275  0.9209 -0.1345
 8652SOL    HW237416   0.243   0.969   2.393  1.9513 -0.7645 -0.8048
 8653SOL     OW37417   3.022   2.591   4.012 -0.0381  0.3046 -0.4179
 8653SOL    HW137418   3.030   2.529   3.940 -1.0191 -0.8218  0.4358
 8653SOL    HW237419   2.931   2.578   4.038 -0.0361  1.2746  0.0553
 8654SOL     OW37420   3.507   1.958  15.585 -0.0046  0.3103  0.4185
 8654SOL    HW137421   3.595   1.981  15.555 -0.6032 -1.2120 -2.4642
 8654SOL    HW237422   3.523   1.865  15.598  0.5771  0.6023  1.8438
 8655SOL     OW37423   3.650   0.107   7.075 -0.4155 -0.1970  0.2871
 8655SOL    HW137424   3.576   0.046   7.073 -0.8589  0.4167 -1.6092
 8655SOL    HW237425   3.643   0.117   6.980 -1.1925  1.7197  0.5568
 8656SOL     OW37426   2.622   0.546  14.476 -0.2913 -0.3262 -0.3052
 8656SOL    HW137427   2.676   0.584  14.545  0.7690  1.0398 -1.8589
 8656SOL    HW237428   2.543   0.599  14.487  0.1574  0.1234  0.7008
 8657SOL     OW37429   1.344   0.241   5.808  0.0885  0.2280  0.3067
 8657SOL    HW137430   1.355   0.308   5.741  0.6033  0.0334  0.1936
 8657SOL    HW237431   1.335   0.296   5.886  0.7972 -1.0213  1.2629
 8658SOL     OW37432   0.530   0.988  15.687 -0.0232  0.3058 -0.5040
 8658SOL    HW137433   0.509   1.033  15.605 -1.3641  0.3811 -0.1143
 8658SOL    HW237434   0.584   1.046  15.742 -1.2066  1.3330 -0.4221
 8659SOL     OW37435   3.898   3.009   4.657 -0.2003 -0.2156  0.0482
 8659SOL    HW137436   3.904   3.072   4.585 -0.9705 -0.8692 -0.5801
 8659SOL    HW237437   3.891   3.065   4.735  1.3885  0.5667 -0.3600
 8660SOL     OW37438   3.658   2.774  15.194  0.3107  0.5275  0.1783
 8660SOL    HW137439   3.709   2.717  15.137 -0.3686 -0.2026  0.3147
 8660SOL    HW237440   3.685   2.860  15.162 -1.9389  0.1558 -2.7023
 8661SOL     OW37441   3.455   1.344  15.921  0.1829 -0.4675  0.4689
 8661SOL    HW137442   3.468   1.434  15.891  1.4533 -0.9086 -0.3045
 8661SOL    HW237443   3.452   1.345  16.017  1.1719  0.5162  0.4925
 8662SOL     OW37444   4.192   0.855  16.453  0.0193 -0.1217 -0.5971
 8662SOL    HW137445   4.178   0.786  16.388 -0.8886  0.3765 -0.9293
 8662SOL    HW237446   4.178   0.803  16.532  0.6511 -0.3013 -0.6015
 8663SOL     OW37447   2.497   1.373   8.264  0.1393 -0.2972  0.4237
 8663SOL    HW137448   2.575   1.365   8.318  0.1068 -2.1114  0.1921
 8663SOL    HW237449   2.446   1.427   8.324  1.4603  0.9262  0.4448
 8664SOL     OW37450   0.677   1.541  14.950  0.1672  0.5446 -0.1536
 8664SOL    HW137451   0.725   1.611  14.994  1.1013  1.9092 -3.2879
 8664SOL    HW237452   0.588   1.560  14.980  0.3560  0.0855  0.6796
 8665SOL     OW37453   1.527   2.761   6.430 -0.0143  0.4473  0.2671
 8665SOL    HW137454   1.436   2.783   6.452 -0.4762  0.3955 -1.5987
 8665SOL    HW237455   1.535   2.706   6.509  0.4126 -0.5193 -0.4442
 8666SOL     OW37456   0.614   0.097  15.860  0.3417 -0.1749  0.6555
 8666SOL    HW137457   0.700   0.077  15.822 -0.6072 -0.2217 -1.4459
 8666SOL    HW237458   0.591   0.178  15.815  2.6478  0.0760 -0.0697
 8667SOL     OW37459   0.735   4.115   1.042  0.4216  0.1287  0.4127
 8667SOL    HW137460   0.822   4.119   1.082  0.7069  1.9318 -0.3977
 8667SOL    HW237461   0.701   4.190   1.092  3.2512  1.0049  1.0030
 8668SOL     OW37462   0.478   2.363   2.694 -0.0216  0.3276  0.1171
 8668SOL    HW137463   0.417   2.303   2.651  2.7882 -0.5984 -2.5814
 8668SOL    HW237464   0.555   2.369   2.637 -1.8313  0.4134 -2.3446
 8669SOL     OW37465   2.830   1.384  12.285  0.0879  0.3755 -0.3618
 8669SOL    HW137466   2.827   1.473  12.250  1.5425  0.0544 -1.2922
 8669SOL    HW237467   2.848   1.398  12.378  2.4678  0.0243 -0.7617
 8670SOL     OW37468   4.209   0.002   9.307  0.0846  0.2648  0.2938
 8670SOL    HW137469   4.176   0.088   9.282  1.7599  0.4372 -1.3710
 8670SOL    HW237470   4.143   4.667   9.269  0.7632 -0.6778  0.5527
 8671SOL     OW37471   4.391   3.516   5.819  0.1278  0.1417 -0.6463
 8671SOL    HW137472   4.441   3.591   5.849 -1.2077  0.7220  0.1516
 8671SOL    HW237473   4.392   3.526   5.723 -2.7380  0.5019 -0.6613
 8672SOL     OW37474   2.506   3.896  10.166  0.2584  0.3139  0.0022
 8672SOL    HW137475   2.504   3.948  10.247  1.1262 -0.8927  0.7867
 8672SOL    HW237476   2.592   3.857  10.179  0.1434  0.0756  0.0435
 8673SOL     OW37477   2.954   1.474   9.100  0.3938 -0.4750 -0.4435
 8673SOL    HW137478   3.033   1.443   9.055 -0.3831 -1.5422 -1.1085
 8673SOL    HW237479   2.916   1.545   9.048  0.2948 -0.0811  0.1771
 8674SOL     OW37480   3.339   0.254   7.521  0.0988  0.2945 -0.5223
 8674SOL    HW137481   3.425   0.289   7.544  0.2825  0.6859 -1.8108
 8674SOL    HW237482   3.294   0.338   7.530  0.4099  0.4418 -0.3276
 8675SOL     OW37483   0.963   4.167   8.549  0.0024 -0.3187 -0.1559
 8675SOL    HW137484   1.025   4.208   8.608  0.7479  1.0575 -1.8738
 8675SOL    HW237485   0.992   4.190   8.460 -0.6954 -1.0672 -0.5791
 8676SOL     OW37486   3.727   3.863   3.795 -0.5244  0.0203  0.2115
 8676SOL    HW137487   3.774   3.927   3.849  0.4396 -0.7415  0.2835
 8676SOL    HW237488   3.702   3.912   3.717 -0.1045 -0.0859  0.0122
 8677SOL     OW37489   3.154   1.050  14.848 -0.1267 -0.0602  0.3184
 8677SOL    HW137490   3.115   1.135  14.827 -2.3150 -0.4665  2.6012
 8677SOL    HW237491   3.195   1.034  14.763 -0.1806  1.8459 -0.0565
 8678SOL     OW37492   1.218   1.861   1.997 -0.1021 -0.5678 -0.2862
 8678SOL    HW137493   1.146   1.923   1.995  0.3073 -0.0682  0.5135
 8678SOL    HW237494   1.173   1.784   2.033 -1.9084  0.3836 -0.5103
 8679SOL     OW37495   1.980   0.195   7.414  0.1914  0.0510  0.0844
 8679SOL    HW137496   1.982   0.206   7.509  0.5514  2.6144 -0.2398
 8679SOL    HW237497   2.041   0.123   7.396  0.7476 -0.0381  2.3002
 8680SOL     OW37498   4.577   3.739   3.196  0.3411 -0.4063 -0.5841
 8680SOL    HW137499   4.517   3.683   3.147  0.5003 -0.7990 -0.3286
 8680SOL    HW237500   4.657   3.734   3.143 -0.2789 -1.0688 -1.4521
 8681SOL     OW37501   2.705   4.061  11.395  0.3860 -0.2867 -0.2252
 8681SOL    HW137502   2.710   4.117  11.472 -1.7732 -1.2039  0.5756
 8681SOL    HW237503   2.663   4.125  11.337  1.7067  1.1457  0.4007
 8682SOL     OW37504   0.757   0.788  16.147 -0.0828  0.1290  0.1107
 8682SOL    HW137505   0.845   0.794  16.184 -0.4349 -0.7096  1.0935
 8682SOL    HW237506   0.698   0.840  16.202 -1.8679  0.3244 -1.9757
 8683SOL     OW37507   1.162   2.087   3.591 -0.1445 -0.3089 -0.4310
 8683SOL    HW137508   1.222   2.113   3.521 -0.5797  3.2347  0.5151
 8683SOL    HW237509   1.193   1.996   3.602  0.1817  0.2883  3.6339
 8684SOL     OW37510   1.738   1.207  16.736 -0.3541  0.4490  0.8030
 8684SOL    HW137511   1.805   1.246  16.680 -0.3078  0.0838  0.6044
 8684SOL    HW237512   1.798   1.161  16.794 -0.6961 -0.6175  0.3016
 8685SOL     OW37513   2.799   0.754  15.293 -0.3359  0.3585  0.2679
 8685SOL    HW137514   2.724   0.756  15.353 -0.8080  2.8124 -0.4247
 8685SOL    HW237515   2.862   0.721  15.357 -2.5191 -1.0130  1.7188
 8686SOL     OW37516   3.251   0.445   5.753  0.1511 -0.4341  0.2767
 8686SOL    HW137517   3.208   0.495   5.823 -0.7744  0.2860 -0.8053
 8686SOL    HW237518   3.260   0.512   5.685  0.8239 -1.1352 -0.3116
 8687SOL     OW37519   1.404   2.823   9.371  0.5253 -0.1222 -0.4791
 8687SOL    HW137520   1.435   2.739   9.407  0.6461 -0.0508 -0.4169
 8687SOL    HW237521   1.481   2.841   9.317 -0.0306  0.2877 -1.1338
 8688SOL     OW37522   3.153   0.364  14.205 -0.0597 -0.3220  0.2894
 8688SOL    HW137523   3.077   0.404  14.247  0.2316  1.5084 -0.9418
 8688SOL    HW237524   3.125   0.273  14.194 -0.1301 -0.4219  1.2468
 8689SOL     OW37525   2.280   1.353  11.121  0.4533  0.3620 -0.3271
 8689SOL    HW137526   2.268   1.310  11.206  3.1319 -1.7572 -1.0182
 8689SOL    HW237527   2.296   1.277  11.066 -0.6672  0.4163 -0.7320
 8690SOL     OW37528   2.377   4.323   7.858 -0.1146  0.2423 -0.3938
 8690SOL    HW137529   2.297   4.336   7.908 -2.5244 -2.9396 -3.3749
 8690SOL    HW237530   2.442   4.345   7.924  1.1925 -0.7873 -1.3136
 8691SOL     OW37531   4.623   4.562  11.412  0.6904  0.0869 -0.3214
 8691SOL    HW137532   4.588   4.649  11.433  2.7532  0.9517 -0.4087
 8691SOL    HW237533   4.594   4.516  11.491 -0.9714 -1.1165 -1.6329
 8692SOL     OW37534   2.370   3.829  12.062  0.0538  0.4033  0.2506
 8692SOL    HW137535   2.419   3.781  12.128  3.3753  1.0210 -1.7609
 8692SOL    HW237536   2.377   3.772  11.985  3.0400  1.8150 -0.5477
 8693SOL     OW37537   1.260   1.197   5.167 -0.1811  0.3255 -0.3762
 8693SOL    HW137538   1.351   1.172   5.179 -0.4627 -0.4215  0.1734
 8693SOL    HW237539   1.221   1.129   5.112  1.8425  0.9828 -2.6464
 8694SOL     OW37540   2.870   0.391   7.800  0.1515  0.0075 -0.1126
 8694SOL    HW137541   2.812   0.337   7.745  0.4211  1.6750 -2.0562
 8694SOL    HW237542   2.797   0.426   7.851  0.7100  0.1443  0.5811
 8695SOL     OW37543   1.906   4.616  15.638 -0.0552  0.1396 -0.0696
 8695SOL    HW137544   1.825   4.593  15.684 -0.3588 -0.8437 -1.0794
 8695SOL    HW237545   1.933   4.530  15.607  4.1238  1.1652  0.7100
 8696SOL     OW37546   2.700   2.641   2.436 -0.3033 -0.2902 -0.4558
 8696SOL    HW137547   2.717   2.729   2.402  2.4723 -0.8301 -0.5081
 8696SOL    HW237548   2.789   2.607   2.445 -0.4860 -0.5374  0.4127
 8697SOL     OW37549   2.503   0.810   5.079 -0.1989 -0.2420  0.0821
 8697SOL    HW137550   2.486   0.718   5.059  0.8312 -0.8487  1.9517
 8697SOL    HW237551   2.464   0.812   5.166 -1.2155 -0.4728 -0.3758
 8698SOL     OW37552   3.382   1.967   9.070  0.7534 -0.1205 -0.3049
 8698SOL    HW137553   3.446   1.993   9.136  0.9462  0.3499 -0.6737
 8698SOL    HW237554   3.412   2.006   8.987 -1.7342 -0.3500 -1.3246
 8699SOL     OW37555   3.286   0.788  13.220 -0.2791  0.1156  0.0609
 8699SOL    HW137556   3.274   0.696  13.244 -0.9234 -0.0911 -1.0942
 8699SOL    HW237557   3.252   0.793  13.131 -1.4060  0.1310  0.4922
 8700SOL     OW37558   3.625   0.532  10.677  0.0374 -0.0068  0.1473
 8700SOL    HW137559   3.657   0.613  10.716  2.1415 -1.2008  0.9299
 8700SOL    HW237560   3.581   0.551  10.594 -0.5635  1.7257  0.8776
 8701SOL     OW37561   2.087   4.613  15.393 -0.1591 -0.2381 -0.0496
 8701SOL    HW137562   2.104   4.523  15.365 -1.1600  0.7949 -3.8716
 8701SOL    HW237563   2.159   4.628  15.455 -1.2849 -1.7718  1.6399
 8702SOL     OW37564   3.769   2.816   6.165 -0.5150 -0.6122  0.6967
 8702SOL    HW137565   3.722   2.860   6.094 -0.1415 -1.5970 -0.1664
 8702SOL    HW237566   3.777   2.890   6.225  0.7245 -0.5729  0.4933
 8703SOL     OW37567   3.691   2.171   9.030  0.1027 -0.5753  0.2502
 8703SOL    HW137568   3.658   2.096   9.079  0.1006 -0.2704  0.7164
 8703SOL    HW237569   3.621   2.176   8.965 -1.1984 -3.5942  1.4565
 8704SOL     OW37570   3.736   4.531   7.319 -0.0933  0.2895  0.2219
 8704SOL    HW137571   3.722   4.480   7.399 -0.9146 -0.3768 -0.3531
 8704SOL    HW237572   3.666   4.595   7.328 -0.7744 -0.0890 -2.2998
 8705SOL     OW37573   3.103   0.051   6.285  0.2929 -0.1920  0.1403
 8705SOL    HW137574   3.076   0.120   6.346  0.1503 -2.6541  2.8495
 8705SOL    HW237575   3.034   4.710   6.302 -0.2245 -0.0499 -1.4309
 8706SOL     OW37576   2.497   0.539   5.670 -0.2670 -0.1638 -0.1217
 8706SOL    HW137577   2.563   0.478   5.702  1.0576  0.6759 -1.2873
 8706SOL    HW237578   2.543   0.599   5.612  1.6518  0.2319  1.8367
 8707SOL     OW37579   4.083   2.488   8.402 -0.4100 -0.7245 -0.0749
 8707SOL    HW137580   4.167   2.496   8.446 -0.6767 -0.0232  0.2941
 8707SOL    HW237581   4.071   2.576   8.369 -0.2929 -0.0058  1.7875
 8708SOL     OW37582   1.853   2.780   2.711 -0.2980  0.4928 -0.4382
 8708SOL    HW137583   1.890   2.734   2.635 -0.5349 -0.0795 -0.2028
 8708SOL    HW237584   1.908   2.858   2.711  0.9593 -0.4019  2.9562
 8709SOL     OW37585   2.259   0.210  17.607  0.1246 -0.4428 -0.5723
 8709SOL    HW137586   2.336   0.170  17.646  0.0791  0.8005  0.7936
 8709SOL    HW237587   2.198   0.138  17.594 -1.9557  1.3240 -0.6846
 8710SOL     OW37588   3.689   0.836   0.906 -0.3879 -0.0184 -0.3050
 8710SOL    HW137589   3.778   0.825   0.940 -0.3089  0.9764 -0.1769
 8710SOL    HW237590   3.665   0.922   0.942 -0.6672 -0.0187 -0.4967
 8711SOL     OW37591   0.367   2.929  15.519 -0.5041 -0.5544 -0.0818
 8711SOL    HW137592   0.289   2.909  15.468 -1.3952  2.1481  0.2400
 8711SOL    HW237593   0.437   2.939  15.454 -0.6562  0.9052 -0.0111
 8712SOL     OW37594   2.297   0.295  10.310  0.3127 -0.3183  0.2986
 8712SOL    HW137595   2.206   0.286  10.281  0.0598  0.6264  0.7782
 8712SOL    HW237596   2.297   0.236  10.386  1.6579  0.4355  0.8797
 8713SOL     OW37597   2.266   2.026   1.957  0.3540  0.0874 -0.0208
 8713SOL    HW137598   2.219   2.043   2.039 -1.0052 -0.3363 -0.7114
 8713SOL    HW237599   2.244   1.933   1.950  0.1446  0.2600 -1.8116
 8714SOL     OW37600   4.695   2.855   7.044  0.5031 -0.2522 -0.2677
 8714SOL    HW137601   4.619   2.837   6.988 -0.5329  0.3189  0.9513
 8714SOL    HW237602   0.042   2.797   7.015  1.7037 -0.0202  2.1794
 8715SOL     OW37603   3.491   3.055   5.131  0.1612 -0.3309 -0.2483
 8715SOL    HW137604   3.396   3.052   5.130  0.2133 -1.7368 -1.3776
 8715SOL    HW237605   3.506   2.998   5.055  0.6122  1.5497 -1.5863
 8716SOL     OW37606   2.447   3.494   1.521  1.0105  0.2929 -0.0303
 8716SOL    HW137607   2.490   3.435   1.584  1.9484  1.6753  0.6376
 8716SOL    HW237608   2.365   3.446   1.512  0.4806  1.0894  0.4690
 8717SOL     OW37609   3.541   0.672   9.468  0.0726 -0.1041 -0.0668
 8717SOL    HW137610   3.569   0.611   9.400  1.6509 -0.5308  0.9563
 8717SOL    HW237611   3.459   0.632   9.498  1.0077 -0.2146  2.3394
 8718SOL     OW37612   1.354   2.335   5.174 -0.5586  0.0487  0.1649
 8718SOL    HW137613   1.317   2.247   5.186  0.1233 -0.3974 -0.8986
 8718SOL    HW237614   1.395   2.325   5.087  1.1417 -0.7408  1.0512
 8719SOL     OW37615   1.515   4.512   9.764 -0.3837 -0.2664 -0.0229
 8719SOL    HW137616   1.481   4.425   9.744 -1.7027  0.6829 -1.8826
 8719SOL    HW237617   1.598   4.482   9.802 -0.0827 -1.5604 -1.6589
 8720SOL     OW37618   2.131   0.804   5.762 -0.0660  0.2963  0.0778
 8720SOL    HW137619   2.132   0.793   5.667 -0.8699 -1.2784  0.2434
 8720SOL    HW237620   2.174   0.727   5.800  0.1889 -0.4895 -1.8076
 8721SOL     OW37621   0.063   4.682   7.545  0.0600 -0.4313  0.4799
 8721SOL    HW137622   0.073   0.019   7.619 -0.9705  1.3858 -0.8892
 8721SOL    HW237623   4.696   4.652   7.561 -0.5872  2.4582  2.1349
 8722SOL     OW37624   2.450   3.482   8.962 -0.5330  0.3946 -0.5708
 8722SOL    HW137625   2.461   3.506   9.053  0.4963 -2.4657  0.0596
 8722SOL    HW237626   2.448   3.386   8.957  0.9344  0.3776 -0.7652
 8723SOL     OW37627   3.440   0.531   7.325  0.3937  0.3289  0.2326
 8723SOL    HW137628   3.513   0.479   7.292 -0.0458 -0.2980  0.2333
 8723SOL    HW237629   3.378   0.459   7.340  0.5944  0.4057  1.5033
 8724SOL     OW37630   1.168   4.459   8.681 -0.3040  0.3251  0.0631
 8724SOL    HW137631   1.179   4.432   8.590 -0.9388  0.2109  0.0177
 8724SOL    HW237632   1.248   4.507   8.702 -1.9362  2.4026  1.5370
 8725SOL     OW37633   0.022   2.650   5.918 -0.0944  0.3374  0.2241
 8725SOL    HW137634   0.099   2.658   5.861 -0.4862 -1.7969 -0.6100
 8725SOL    HW237635   0.035   2.576   5.977 -1.2255 -0.5171 -0.5980
 8726SOL     OW37636   1.025   3.390  14.093 -0.5168 -0.5378  0.1389
 8726SOL    HW137637   1.039   3.352  14.180  0.3490 -0.3123  0.1006
 8726SOL    HW237638   1.099   3.352  14.046 -0.3347 -0.0314  0.0197
 8727SOL     OW37639   3.352   2.672   9.923  0.2220 -0.1040 -0.3784
 8727SOL    HW137640   3.420   2.720   9.972 -0.1815 -2.2673  2.3177
 8727SOL    HW237641   3.299   2.639   9.995 -0.8588  1.6306 -0.3737
 8728SOL     OW37642   2.662   0.160   5.609 -0.8958 -0.1650  0.4584
 8728SOL    HW137643   2.646   0.199   5.523 -2.2676  0.0439  0.8104
 8728SOL    HW237644   2.665   0.241   5.660 -0.6786 -0.8333  1.4944
 8729SOL     OW37645   4.177   0.453   2.295  0.7275 -0.1342  0.5899
 8729SOL    HW137646   4.090   0.445   2.255  0.7077  0.8245  0.4422
 8729SOL    HW237647   4.168   0.397   2.372 -1.4486 -1.4110 -0.5929
 8730SOL     OW37648   2.373   0.108   8.944 -0.3929  0.1165  0.3801
 8730SOL    HW137649   2.455   0.068   8.975 -0.6199 -1.6566 -1.3229
 8730SOL    HW237650   2.319   0.030   8.958  1.5671 -1.0706  1.3198
 8731SOL     OW37651   3.988   2.839   1.892 -0.2951  0.5021 -0.2747
 8731SOL    HW137652   3.930   2.771   1.856 -0.4675  1.0485 -1.0305
 8731SOL    HW237653   3.924   2.910   1.887  2.0619  2.7253  1.6557
 8732SOL     OW37654   3.798   4.440   4.943 -0.4912 -0.6217 -0.1912
 8732SOL    HW137655   3.753   4.493   5.009  0.3947  0.8022 -0.7350
 8732SOL    HW237656   3.837   4.372   4.997 -0.1974  1.2136  1.9086
 8733SOL     OW37657   1.726   4.578   1.673  0.0797 -0.3034 -0.3593
 8733SOL    HW137658   1.652   4.525   1.645  0.5740 -1.5990  0.7981
 8733SOL    HW237659   1.758   4.533   1.751 -2.1901 -0.3058  0.5574
 8734SOL     OW37660   2.164   4.402   2.880  0.2673  0.1704 -0.0985
 8734SOL    HW137661   2.126   4.327   2.833 -1.1374  0.3749  0.7212
 8734SOL    HW237662   2.209   4.448   2.810  0.6148  1.0720  0.7219
 8735SOL     OW37663   2.725   0.966   6.310  0.7245 -0.0838  0.0886
 8735SOL    HW137664   2.660   0.898   6.328  0.2525  0.9045  2.0692
 8735SOL    HW237665   2.710   0.963   6.215  1.0618 -1.5129  0.0777
 8736SOL     OW37666   3.816   3.873   5.897 -0.0262  0.0030 -0.1002
 8736SOL    HW137667   3.737   3.822   5.915  1.4159 -0.9770  3.6133
 8736SOL    HW237668   3.783   3.963   5.892 -0.9287 -0.4364 -1.9490
 8737SOL     OW37669   4.522   3.418   7.451  0.4319  0.6461 -0.1288
 8737SOL    HW137670   4.534   3.511   7.468  1.0463  0.9386 -2.1037
 8737SOL    HW237671   4.594   3.410   7.388  0.6456 -1.7644  0.4432
 8738SOL     OW37672   2.618   3.603   5.260  0.0361 -0.4401 -0.4179
 8738SOL    HW137673   2.603   3.697   5.265 -1.0440 -0.6233 -0.1807
 8738SOL    HW237674   2.712   3.599   5.275  0.1375  0.8492 -0.7694
 8739SOL     OW37675   4.231   0.203  13.419 -0.5228  0.0181 -0.4972
 8739SOL    HW137676   4.254   0.112  13.402  1.7347  0.7298 -1.3375
 8739SOL    HW237677   4.137   0.198  13.436 -0.3000 -0.4029  0.5788
 8740SOL     OW37678   2.212   2.836  17.195  0.3103 -0.2596 -0.3481
 8740SOL    HW137679   2.200   2.885  17.276 -0.6431  0.2125 -0.7637
 8740SOL    HW237680   2.236   2.900  17.128  3.5338  0.6434  1.6846
 8741SOL     OW37681   0.136   2.905  12.340 -0.2555 -0.0113 -0.0500
 8741SOL    HW137682   0.203   2.973  12.343  1.5114 -1.6768 -1.5407
 8741SOL    HW237683   0.075   2.931  12.409  1.2080  0.7511  0.9577
 8742SOL     OW37684   1.610   3.577   8.675 -0.1914  0.0707 -0.3301
 8742SOL    HW137685   1.704   3.589   8.664 -0.1395  1.1119  1.3346
 8742SOL    HW237686   1.592   3.666   8.707 -0.1334 -0.5390  1.3834
 8743SOL     OW37687   2.396   0.376   2.770 -0.3964  0.5357 -0.6113
 8743SOL    HW137688   2.481   0.333   2.780  0.4096  2.3452  0.2316
 8743SOL    HW237689   2.408   0.415   2.683  0.2041  1.5065 -0.0924
 8744SOL     OW37690   4.370   3.166   8.688  0.2593  0.1026  0.5476
 8744SOL    HW137691   4.282   3.179   8.725  0.0998 -0.7393  0.4570
 8744SOL    HW237692   4.421   3.195   8.764 -0.0341  0.1151  0.7396
 8745SOL     OW37693   1.354   1.638   8.033 -0.3498  0.3045  0.2205
 8745SOL    HW137694   1.335   1.710   8.094  0.6791  1.3894 -0.7283
 8745SOL    HW237695   1.368   1.565   8.093  0.6887  0.3282  0.0049
 8746SOL     OW37696   3.425   1.634  12.109  0.2652 -0.0101 -0.2080
 8746SOL    HW137697   3.432   1.698  12.179  0.9900  0.9364 -1.1453
 8746SOL    HW237698   3.493   1.573  12.138  1.3544  0.9527 -0.7530
 8747SOL     OW37699   4.065   2.831   5.471 -0.4422  0.1208  0.1309
 8747SOL    HW137700   3.996   2.769   5.494  0.6660 -0.9432  0.6212
 8747SOL    HW237701   4.017   2.908   5.441 -0.7760  0.9499  2.7731
 8748SOL     OW37702   2.027   2.586  15.955 -0.5312 -0.5836 -0.6537
 8748SOL    HW137703   1.997   2.676  15.966 -0.5851 -0.5247 -1.2861
 8748SOL    HW237704   2.104   2.602  15.900 -0.8773 -0.5083 -1.1240
 8749SOL     OW37705   4.067   0.116   8.392 -0.1064 -0.3116 -0.1814
 8749SOL    HW137706   3.993   0.098   8.452 -0.5115  1.0636 -0.2669
 8749SOL    HW237707   4.040   0.203   8.365 -0.1923 -0.7072 -1.3668
 8750SOL     OW37708   0.628   0.309  16.705  0.6082 -0.0628  0.1611
 8750SOL    HW137709   0.707   0.356  16.678  0.0658 -0.3476 -1.8865
 8750SOL    HW237710   0.645   0.323  16.799 -1.0709 -1.8334  0.7182
 8751SOL     OW37711   3.706   1.322   1.793 -0.0567  0.2205  0.0517
 8751SOL    HW137712   3.788   1.367   1.775 -0.6110  0.4367 -1.9987
 8751SOL    HW237713   3.666   1.379   1.859 -1.7469  0.3850 -1.1175
 8752SOL     OW37714   3.204   1.826   1.573 -0.4662  0.3550 -0.5227
 8752SOL    HW137715   3.130   1.822   1.633 -0.9967  2.7596 -1.0307
 8752SOL    HW237716   3.271   1.855   1.634  1.7613 -1.9782 -1.8680
 8753SOL     OW37717   0.992   3.704   6.070  0.0213  0.5073 -0.3142
 8753SOL    HW137718   1.048   3.781   6.083 -0.0811  0.3901  0.7910
 8753SOL    HW237719   0.908   3.742   6.097 -0.7358 -0.9633 -0.5963
 8754SOL     OW37720   3.941   0.092   9.549  0.2072  0.4445  0.2698
 8754SOL    HW137721   3.943   0.176   9.504 -2.5385 -0.6861 -2.0071
 8754SOL    HW237722   3.886   0.034   9.496 -0.8680  0.7065  1.1049
 8755SOL     OW37723   3.090   1.952   9.078 -0.3238 -0.0749 -0.1896
 8755SOL    HW137724   3.184   1.962   9.091 -0.5133  0.9169  0.4352
 8755SOL    HW237725   3.057   1.919   9.162 -1.2027  1.1728 -0.0506
 8756SOL     OW37726   3.988   2.142   0.481 -0.0233 -0.6271 -0.1350
 8756SOL    HW137727   3.897   2.131   0.506  0.5290 -0.8464  1.7387
 8756SOL    HW237728   4.034   2.094   0.549  3.9773  0.3148 -2.1219
 8757SOL     OW37729   1.338   0.996   4.863  0.0631 -0.0337  0.6565
 8757SOL    HW137730   1.418   1.028   4.905  1.2980 -0.7695 -1.1513
 8757SOL    HW237731   1.370   0.919   4.815 -0.5315  0.0177  0.1770
 8758SOL     OW37732   2.936   3.761   0.965 -0.1799 -0.4659 -0.4402
 8758SOL    HW137733   2.948   3.847   0.926 -1.4848 -1.1008 -2.2027
 8758SOL    HW237734   2.840   3.756   0.966 -0.1158 -1.6960 -0.4227
 8759SOL     OW37735   1.843   4.168   3.342  0.6056 -0.4680  0.2475
 8759SOL    HW137736   1.860   4.102   3.275 -0.3026  0.5289 -0.9765
 8759SOL    HW237737   1.931   4.192   3.370  0.7604  0.6443 -1.1924
 8760SOL     OW37738   1.829   0.264   0.205  0.8324  0.5984  0.7440
 8760SOL    HW137739   1.881   0.273   0.286 -0.6225 -1.8859  1.9583
 8760SOL    HW237740   1.777   0.187   0.229 -0.6415  0.8026 -1.9225
 8761SOL     OW37741   0.337   2.151  13.028  0.1613  0.2604 -0.0709
 8761SOL    HW137742   0.381   2.235  13.039 -3.2368  2.2574 -1.4328
 8761SOL    HW237743   0.378   2.120  12.947  0.7139 -0.1227  0.3650
 8762SOL     OW37744   3.619   0.847  15.901 -0.2178 -0.4544 -0.6152
 8762SOL    HW137745   3.714   0.835  15.911 -0.0303  0.6103 -1.1614
 8762SOL    HW237746   3.628   0.912  15.831 -1.5636 -0.5143 -0.8486
 8763SOL     OW37747   2.857   3.278   5.855 -0.0855 -0.1611 -0.7389
 8763SOL    HW137748   2.765   3.271   5.879 -0.5739  2.7711 -1.7515
 8763SOL    HW237749   2.890   3.315   5.937  2.5566  0.0605 -1.9015
 8764SOL     OW37750   1.342   2.184   3.359 -0.1569  0.3304 -0.5532
 8764SOL    HW137751   1.411   2.138   3.407 -0.4948  0.6565  0.2572
 8764SOL    HW237752   1.407   2.234   3.310 -0.6266  2.3913  0.9534
 8765SOL     OW37753   1.135   2.583   4.788 -0.1263  0.1974 -0.0519
 8765SOL    HW137754   1.142   2.537   4.871 -0.5958  0.7372  0.2890
 8765SOL    HW237755   1.174   2.514   4.734  0.7159 -0.1983  1.0533
 8766SOL     OW37756   0.355   2.616  15.482 -0.3717 -0.2905  0.3588
 8766SOL    HW137757   0.442   2.587  15.455 -0.9973  0.5700 -2.5412
 8766SOL    HW237758   0.358   2.705  15.448  2.7941 -0.5278  0.0484
 8767SOL     OW37759   1.015   0.503   2.684  0.2692 -0.7623  0.5736
 8767SOL    HW137760   0.997   0.457   2.602 -1.1519  0.4971  0.1807
 8767SOL    HW237761   0.939   0.553   2.712 -0.5637 -0.8062 -1.6028
 8768SOL     OW37762   2.461   1.509  10.962 -0.0067 -0.6134  0.5706
 8768SOL    HW137763   2.397   1.452  11.003 -2.4743  0.1517 -2.1688
 8768SOL    HW237764   2.514   1.544  11.034  0.4207  5.2277 -2.5498
 8769SOL     OW37765   0.907   0.334   3.710  0.3493 -0.1307 -0.2264
 8769SOL    HW137766   0.843   0.348   3.640  0.1380 -0.7997 -0.1721
 8769SOL    HW237767   0.995   0.349   3.676  0.3836 -0.6585 -0.3675
 8770SOL     OW37768   2.672   1.845   1.594 -0.1238  0.4729  0.0169
 8770SOL    HW137769   2.583   1.862   1.627 -0.0996 -1.5759  1.1282
 8770SOL    HW237770   2.669   1.864   1.500 -2.3888  2.7539  0.5502
 8771SOL     OW37771   4.441   2.302   1.758 -0.1285  0.2665 -0.4432
 8771SOL    HW137772   4.378   2.287   1.687  0.4562  2.7418 -1.5091
 8771SOL    HW237773   4.394   2.376   1.796  0.2550 -0.1796  0.8855
 8772SOL     OW37774   4.505   2.386   3.499  0.2817 -0.0358 -0.1284
 8772SOL    HW137775   4.442   2.447   3.537  1.7123 -0.0327  2.2429
 8772SOL    HW237776   4.477   2.300   3.530  0.2437 -0.2329 -0.6987
 8773SOL     OW37777   0.368   2.257   4.414  0.5110  0.3093  0.1015
 8773SOL    HW137778   0.446   2.206   4.389 -1.2143 -0.5133 -3.4825
 8773SOL    HW237779   0.391   2.291   4.501 -2.6645  2.1200  0.2227
 8774SOL     OW37780   0.328   1.254  15.742  0.4433 -0.3661 -0.0318
 8774SOL    HW137781   0.383   1.235  15.666  1.1858 -2.1398  0.9471
 8774SOL    HW237782   0.300   1.164  15.755  0.1505 -0.2287  0.2882
 8775SOL     OW37783   2.319   2.206  11.631 -0.5275 -0.4027  0.3945
 8775SOL    HW137784   2.358   2.236  11.550  0.4054 -0.0016  0.9958
 8775SOL    HW237785   2.287   2.287  11.671 -1.4897 -0.3995 -0.3726
 8776SOL     OW37786   1.749   2.566   3.267  0.2882  0.8212  0.1045
 8776SOL    HW137787   1.710   2.623   3.201  1.1351  0.9495 -0.2779
 8776SOL    HW237788   1.785   2.499   3.209  2.8354 -0.2913  2.9386
 8777SOL     OW37789   1.433   0.741   4.748  0.0158  0.4875  0.9757
 8777SOL    HW137790   1.480   0.691   4.815  1.1751  1.5514  0.9775
 8777SOL    HW237791   1.475   0.729   4.662 -0.8262  0.6117  0.5496
 8778SOL     OW37792   1.052   4.543  10.436  0.2632  0.6061  0.3280
 8778SOL    HW137793   1.040   4.587  10.352 -0.6877  0.7402  0.5363
 8778SOL    HW237794   0.960   4.545  10.460 -0.2105 -2.7629 -1.2972
 8779SOL     OW37795   0.754   2.867   6.595 -0.3130 -0.4638 -0.0314
 8779SOL    HW137796   0.718   2.780   6.575  0.2280 -0.6912 -0.0195
 8779SOL    HW237797   0.680   2.923   6.615  1.1976  2.0908 -1.5971
 8780SOL     OW37798   0.925   0.558   1.010  0.2442  0.3213 -0.4305
 8780SOL    HW137799   1.017   0.539   0.990  0.0759 -2.4983  1.4473
 8780SOL    HW237800   0.913   0.503   1.088 -2.2133  2.6652  0.8327
 8781SOL     OW37801   2.916   4.394  13.994  0.2675  0.0447  0.6388
 8781SOL    HW137802   2.938   4.478  13.953  1.7893  0.1222  1.6188
 8781SOL    HW237803   2.821   4.399  14.005  0.2882  1.8573 -0.0387
 8782SOL     OW37804   3.387   0.633   6.213 -0.9682 -0.4601 -0.0911
 8782SOL    HW137805   3.388   0.588   6.297 -1.0475  0.9337  0.6549
 8782SOL    HW237806   3.462   0.595   6.167 -0.2144  0.5516  0.3043
 8783SOL     OW37807   3.651   1.937   5.760  0.7417  0.0001 -0.0408
 8783SOL    HW137808   3.686   1.941   5.849 -1.0386 -0.8399  0.6943
 8783SOL    HW237809   3.636   1.843   5.753  0.0568 -0.1098  2.8976
 8784SOL     OW37810   3.815   0.937   5.342 -0.2915  0.0871 -0.0792
 8784SOL    HW137811   3.885   0.962   5.282 -0.2224 -1.5498 -0.6904
 8784SOL    HW237812   3.846   0.848   5.362  1.9759  0.7704 -0.5008
 8785SOL     OW37813   2.918   3.600   5.255 -0.0412 -0.4564 -0.2037
 8785SOL    HW137814   2.912   3.619   5.161 -0.6343  2.2362  0.4003
 8785SOL    HW237815   3.003   3.555   5.259  0.6199  0.9727  1.7370
 8786SOL     OW37816   3.844   0.711   1.909 -0.2951  0.3023  0.2360
 8786SOL    HW137817   3.815   0.796   1.875 -0.5563  0.3393  0.5549
 8786SOL    HW237818   3.849   0.654   1.832  0.4482  1.4807 -0.5753
 8787SOL     OW37819   1.412   3.070   8.931  0.1454 -0.1456 -0.4881
 8787SOL    HW137820   1.335   3.126   8.924  0.1513  0.0834  1.3370
 8787SOL    HW237821   1.369   2.986   8.947  0.7196 -0.2904  0.3130
 8788SOL     OW37822   1.085   4.718  15.228  0.9582 -0.9284 -0.6476
 8788SOL    HW137823   1.080   0.090  15.221 -1.3058 -0.9605  0.4990
 8788SOL    HW237824   1.168   4.696  15.186 -0.0117  0.5867 -3.2793
 8789SOL     OW37825   0.298   0.052   0.113  0.1866  0.4847  0.2299
 8789SOL    HW137826   0.334   0.102   0.186 -2.9009  2.4353  0.4247
 8789SOL    HW237827   0.334   0.110   0.046  1.5037  0.8724  1.2789
 8790SOL     OW37828   2.659   2.244  12.290 -0.2004  0.0816 -0.2557
 8790SOL    HW137829   2.565   2.262  12.297  0.5185  2.2241  4.0471
 8790SOL    HW237830   2.686   2.293  12.368 -2.7970  1.4133 -0.2047
 8791SOL     OW37831   3.427   4.058  11.112 -0.0764 -0.5200 -0.2567
 8791SOL    HW137832   3.381   3.986  11.068  0.1124  0.1048 -1.4846
 8791SOL    HW237833   3.361   4.127  11.107  1.7472  1.3619  2.0104
 8792SOL     OW37834   3.453   3.256   8.347  0.2344  0.2111 -0.4732
 8792SOL    HW137835   3.428   3.283   8.435 -0.2794 -1.4518 -0.1166
 8792SOL    HW237836   3.503   3.330   8.312  1.2628  0.0314  0.5958
 8793SOL     OW37837   2.058   4.599  12.101 -0.3319 -0.3390  0.8403
 8793SOL    HW137838   2.017   4.674  12.058  1.5261  1.7016  2.6579
 8793SOL    HW237839   2.042   4.540  12.027 -1.1825  0.1693  0.6081
 8794SOL     OW37840   2.673   2.082  16.129 -0.4176  0.0001 -0.7428
 8794SOL    HW137841   2.763   2.115  16.125 -0.4725  0.4791  1.7913
 8794SOL    HW237842   2.689   1.995  16.093 -0.0952 -1.3325  2.5858
 8795SOL     OW37843   1.832   0.379   7.150 -0.1344 -0.0880 -0.0715
 8795SOL    HW137844   1.770   0.320   7.191 -0.6397  0.2300 -0.3664
 8795SOL    HW237845   1.798   0.457   7.195 -1.7702 -0.4140 -0.7251
 8796SOL     OW37846   3.526   1.484   6.879  0.5314  0.3108  0.6147
 8796SOL    HW137847   3.533   1.404   6.933 -2.8938 -0.6753 -0.3818
 8796SOL    HW237848   3.491   1.539   6.950  0.7662  0.6889  0.4329
 8797SOL     OW37849   2.967   1.824  12.072 -0.3166 -0.5026 -0.0285
 8797SOL    HW137850   3.049   1.862  12.040  0.3095 -0.6481  1.4028
 8797SOL    HW237851   2.987   1.845  12.163  2.6426 -0.2668 -0.7518
 8798SOL     OW37852   2.293   2.440   2.524 -0.7234 -0.1047  0.4268
 8798SOL    HW137853   2.294   2.533   2.547  3.5784  0.1933 -1.0882
 8798SOL    HW237854   2.372   2.412   2.569 -0.6665  1.6533  1.4667
 8799SOL     OW37855   3.621   1.223   3.612  0.3397  0.5755  0.1694
 8799SOL    HW137856   3.584   1.177   3.537  2.4070 -1.3604  0.3341
 8799SOL    HW237857   3.714   1.200   3.614 -0.2723 -1.8656  1.0448
 8800SOL     OW37858   1.044   3.488   5.913 -0.3647  0.2534  0.5924
 8800SOL    HW137859   1.042   3.567   5.966 -1.2795  0.1108  0.7666
 8800SOL    HW237860   0.977   3.514   5.850 -1.9153  1.5650  2.8182
 8801SOL     OW37861   3.992   2.792  12.529  0.0489 -0.8939 -0.1787
 8801SOL    HW137862   4.022   2.850  12.460 -0.8142  0.7706  0.8593
 8801SOL    HW237863   3.977   2.710  12.482 -1.5573 -0.7678  0.1269
 8802SOL     OW37864   2.081   0.209   2.054 -0.0532 -0.3109  0.7052
 8802SOL    HW137865   2.014   0.140   2.055 -0.4800  0.1173  1.6263
 8802SOL    HW237866   2.134   0.181   1.979 -2.4514 -1.2119 -0.6564
 8803SOL     OW37867   0.401   0.733  17.475  0.2578 -0.0660 -0.1599
 8803SOL    HW137868   0.370   0.730  17.384 -0.0340 -2.4595  0.0206
 8803SOL    HW237869   0.403   0.640  17.496  0.0673 -0.3792 -1.4988
 8804SOL     OW37870   4.300   1.678   9.316  0.4736 -0.0927  0.3204
 8804SOL    HW137871   4.265   1.743   9.256 -0.3052 -0.5994  0.2189
 8804SOL    HW237872   4.241   1.681   9.392  1.0354  0.5004  0.7372
 8805SOL     OW37873   1.147   0.427   9.513  0.0229  0.0064 -0.0271
 8805SOL    HW137874   1.169   0.335   9.499  0.5891  0.1918 -0.3679
 8805SOL    HW237875   1.224   0.460   9.465 -0.3818 -1.1882 -1.5008
 8806SOL     OW37876   0.363   3.847  12.521  0.5471  0.0992 -0.2939
 8806SOL    HW137877   0.407   3.930  12.539 -0.1706  0.7421 -1.4882
 8806SOL    HW237878   0.322   3.846  12.607 -1.0336 -0.5451 -1.0566
 8807SOL     OW37879   1.676   2.256   2.470  0.0198 -0.0678 -0.7282
 8807SOL    HW137880   1.609   2.244   2.402  0.4582 -2.1087 -0.7969
 8807SOL    HW237881   1.678   2.171   2.512  0.1534  1.0095  1.4364
 8808SOL     OW37882   0.530   4.715  14.681  0.7191 -0.0323 -0.3705
 8808SOL    HW137883   0.509   4.665  14.760  1.6006  2.2983  1.3568
 8808SOL    HW237884   0.596   0.056  14.709  0.2257  0.1985  0.2685
 8809SOL     OW37885   0.769   2.907   1.909  0.2293  0.0823  0.1004
 8809SOL    HW137886   0.772   2.822   1.952 -1.0377 -0.4946 -0.9788
 8809SOL    HW237887   0.805   2.954   1.985 -0.8908 -0.6557  1.0931
 8810SOL     OW37888   1.576   0.765  12.620  0.3013 -0.3171 -0.1682
 8810SOL    HW137889   1.579   0.690  12.680  0.7162  0.1486  0.3960
 8810SOL    HW237890   1.632   0.736  12.549  1.6486 -3.5523  2.2563
 8811SOL     OW37891   0.598   1.730  15.994 -0.5712 -0.6148  0.5109
 8811SOL    HW137892   0.560   1.651  15.955 -0.3763 -0.1574 -0.6113
 8811SOL    HW237893   0.668   1.684  16.041  0.7886 -0.3434 -1.2356
 8812SOL     OW37894   0.123   4.323   1.460 -0.1843  0.8518 -0.5106
 8812SOL    HW137895   0.043   4.282   1.428 -1.4950  2.7854  0.3002
 8812SOL    HW237896   0.184   4.260   1.422  0.7352  1.5891 -0.2642
 8813SOL     OW37897   0.911   0.155   7.757  0.4186 -0.5495 -0.1944
 8813SOL    HW137898   0.956   0.076   7.785 -0.9236 -1.0773  0.4919
 8813SOL    HW237899   0.900   0.132   7.664  1.2455 -1.1646 -0.1412
 8814SOL     OW37900   0.259   2.490   7.311 -0.4828 -0.2506 -0.1424
 8814SOL    HW137901   0.353   2.474   7.319 -0.5528  0.5703  2.1450
 8814SOL    HW237902   0.220   2.406   7.284 -1.0231 -0.7933  2.2993
 8815SOL     OW37903   4.415   2.275   2.726  0.2776 -0.1275 -0.0930
 8815SOL    HW137904   4.409   2.241   2.815  1.6572 -0.9316 -0.3070
 8815SOL    HW237905   4.383   2.204   2.670  0.9168 -1.8767  1.7734
 8816SOL     OW37906   3.146   3.307  14.967  0.2403 -0.4949  0.1474
 8816SOL    HW137907   3.083   3.374  14.941  0.5707  0.5701  2.0765
 8816SOL    HW237908   3.108   3.270  15.047  0.6171  3.0914  1.9755
 8817SOL     OW37909   1.245   0.657  16.462 -0.3947  0.9115  0.3736
 8817SOL    HW137910   1.340   0.665  16.466 -0.4309  0.6652  1.5066
 8817SOL    HW237911   1.216   0.732  16.514  1.2255 -0.4308  3.2130
 8818SOL     OW37912   2.422   2.727   6.067  0.0049  0.2611  0.2272
 8818SOL    HW137913   2.494   2.739   6.006 -0.6895  0.8146 -0.4864
 8818SOL    HW237914   2.467   2.767   6.141  0.1022 -0.3786  0.5157
 8819SOL     OW37915   4.356   1.608   8.346 -0.2538  0.0290 -0.2203
 8819SOL    HW137916   4.313   1.548   8.406  1.0113 -0.3372  0.3185
 8819SOL    HW237917   4.353   1.688   8.398 -1.6117 -0.0106 -0.2449
 8820SOL     OW37918   3.627   1.288   3.146 -0.2673  0.5193  0.0258
 8820SOL    HW137919   3.714   1.247   3.151 -0.1037  0.7759 -0.6796
 8820SOL    HW237920   3.595   1.225   3.081 -0.7500 -0.0750  0.8347
 8821SOL     OW37921   2.982   0.428   7.365 -0.2141  0.5494 -0.0955
 8821SOL    HW137922   2.892   0.446   7.394  0.0368  2.3642 -0.4294
 8821SOL    HW237923   2.959   0.357   7.305  1.7085 -0.2490  0.1306
 8822SOL     OW37924   1.215   0.552   3.638  0.6532  0.8433  0.5072
 8822SOL    HW137925   1.188   0.613   3.569  0.2950 -0.9791 -0.9713
 8822SOL    HW237926   1.217   0.472   3.586 -3.0472  1.5422 -0.7755
 8823SOL     OW37927   1.496   3.589  15.564 -0.2891 -0.7447  0.7792
 8823SOL    HW137928   1.532   3.594  15.652  2.0358 -1.3293 -0.1346
 8823SOL    HW237929   1.497   3.495  15.545 -0.1870 -0.6519  0.3268
 8824SOL     OW37930   1.854   1.614   9.436  0.7097 -0.1376 -0.5769
 8824SOL    HW137931   1.880   1.522   9.427  0.9278 -0.3132  1.8290
 8824SOL    HW237932   1.938   1.660   9.440  0.5304  0.0789  0.6711
 8825SOL     OW37933   1.702   4.458  15.737 -0.1827  0.1223  0.7283
 8825SOL    HW137934   1.672   4.442  15.827 -0.0610  0.7763  0.8854
 8825SOL    HW237935   1.781   4.405  15.727  0.7154  1.3074  1.5044
 8826SOL     OW37936   1.819   0.434  14.528 -0.1037 -0.0340  0.3616
 8826SOL    HW137937   1.910   0.405  14.522  0.1390  0.5035  1.4347
 8826SOL    HW237938   1.799   0.402  14.616  1.9965  0.5779  1.0634
 8827SOL     OW37939   3.968   2.276   1.767  0.2727 -0.4099 -0.4468
 8827SOL    HW137940   3.963   2.342   1.836 -1.0666 -3.2392  2.1964
 8827SOL    HW237941   3.908   2.322   1.708  0.8051  0.4481 -0.3155
 8828SOL     OW37942   2.458   3.176   2.790  0.3960  0.1249  0.3213
 8828SOL    HW137943   2.528   3.220   2.742  1.1865 -0.0720  1.2966
 8828SOL    HW237944   2.385   3.228   2.756  1.0804  1.2371  0.5611
 8829SOL     OW37945   1.764   1.619   6.279 -0.1555 -0.4943  0.0946
 8829SOL    HW137946   1.726   1.705   6.301  0.6375  0.0758 -0.7396
 8829SOL    HW237947   1.752   1.566   6.357 -2.2833  0.8500  0.6895
 8830SOL     OW37948   0.725   4.077   5.855  1.1618  0.0893 -0.4578
 8830SOL    HW137949   0.699   3.985   5.857 -2.7032  1.2252  3.6061
 8830SOL    HW237950   0.722   4.101   5.763 -1.7066 -0.0901 -0.4301
 8831SOL     OW37951   1.879   2.187   5.943  0.0817 -0.3677 -0.1974
 8831SOL    HW137952   1.835   2.208   6.026  1.4149 -0.0908  0.4484
 8831SOL    HW237953   1.812   2.127   5.913  1.1735 -1.4734 -0.4212
 8832SOL     OW37954   0.498   1.739   6.051  0.1539  0.4222 -0.0416
 8832SOL    HW137955   0.584   1.707   6.078 -0.7749 -2.2231 -0.1747
 8832SOL    HW237956   0.467   1.664   6.001  0.3217 -0.6677  1.4748
 8833SOL     OW37957   4.680   0.367   2.851 -0.2803 -0.5502  0.1048
 8833SOL    HW137958   4.660   0.455   2.822  1.4688 -0.6233 -1.3347
 8833SOL    HW237959   0.045   0.379   2.886  0.0719 -1.8705 -0.3220
 8834SOL     OW37960   1.765   0.795   4.362  0.1800 -0.1306  0.2486
 8834SOL    HW137961   1.714   0.805   4.282  1.7113 -1.7272 -0.9136
 8834SOL    HW237962   1.810   0.715   4.337  0.9632  0.2723  0.3557
 8835SOL     OW37963   2.261   3.882   0.179 -0.1721  0.1655 -0.1696
 8835SOL    HW137964   2.195   3.934   0.225  1.6955  2.6660 -0.2931
 8835SOL    HW237965   2.296   3.943   0.114 -0.7464  0.4873 -0.1799
 8836SOL     OW37966   1.148   2.117   5.718  0.2703  0.1831  0.4377
 8836SOL    HW137967   1.112   2.202   5.694 -1.3538 -0.2298  1.3793
 8836SOL    HW237968   1.158   2.081   5.629 -0.1550  1.7289 -0.2280
 8837SOL     OW37969   0.062   0.424  14.650  0.6793  0.1091 -0.3524
 8837SOL    HW137970   0.025   0.336  14.644  0.6520  0.1780 -1.3146
 8837SOL    HW237971   0.057   0.445  14.743  0.4859 -1.5106 -0.0137
 8838SOL     OW37972   1.029   1.894  10.166  0.3818 -0.4285 -0.2329
 8838SOL    HW137973   0.976   1.945  10.227  0.7911  0.6266 -0.7630
 8838SOL    HW237974   1.115   1.930  10.188  0.2699 -1.4395  1.8937
 8839SOL     OW37975   2.532   1.106   1.142  0.0426  0.1384  0.4828
 8839SOL    HW137976   2.537   1.101   1.047 -1.3101 -2.9948  0.5646
 8839SOL    HW237977   2.587   1.037   1.179 -0.5107 -0.8115 -0.4888
 8840SOL     OW37978   3.203   0.293   7.197  0.0249  0.2657 -0.0770
 8840SOL    HW137979   3.140   0.227   7.168 -1.0364  0.7676  1.1027
 8840SOL    HW237980   3.225   0.265   7.285 -0.0992 -0.4515 -0.2724
 8841SOL     OW37981   4.006   1.823   4.067 -0.0216  0.0259 -0.1509
 8841SOL    HW137982   3.925   1.786   4.101  0.1695 -0.0241  0.2484
 8841SOL    HW237983   4.001   1.792   3.977 -0.7523  0.6701 -0.3333
 8842SOL     OW37984   2.525   2.303  16.299  0.0256  0.7744 -0.5370
 8842SOL    HW137985   2.520   2.278  16.391  2.4332  0.8887 -0.3905
 8842SOL    HW237986   2.580   2.235  16.260  0.6084  0.4666  0.8274
 8843SOL     OW37987   4.518   4.677   2.493  0.1182 -0.6158  0.2554
 8843SOL    HW137988   4.540   4.713   2.578  0.5573 -0.7905  0.2134
 8843SOL    HW237989   4.599   4.637   2.461  1.4874  1.3050  1.3369
 8844SOL     OW37990   2.503   2.847   9.212 -0.2782 -0.1583  0.4668
 8844SOL    HW137991   2.543   2.762   9.232  0.3849 -0.1125 -0.6448
 8844SOL    HW237992   2.514   2.848   9.117  0.9310 -0.9701  0.6026
 8845SOL     OW37993   1.039   0.754   2.557  0.4231 -0.0246  0.7135
 8845SOL    HW137994   1.092   0.746   2.478 -0.5606 -0.8829  0.1359
 8845SOL    HW237995   1.014   0.664   2.578 -0.5144  0.1987  0.5853
 8846SOL     OW37996   2.795   1.632  12.198 -0.2198 -0.3219 -0.1780
 8846SOL    HW137997   2.722   1.687  12.166 -1.7373 -2.4487 -0.3579
 8846SOL    HW237998   2.866   1.683  12.159  0.4422 -0.4268  0.9106
 8847SOL     OW37999   2.145   0.491  13.524  0.0515 -0.1292 -0.1452
 8847SOL    HW138000   2.192   0.559  13.476  0.8665 -0.8301 -0.3487
 8847SOL    HW238001   2.217   0.434  13.550  0.7054  1.2425  1.0434
 8848SOL     OW38002   0.419   4.521   1.080 -0.4434  0.2981 -0.4687
 8848SOL    HW138003   0.345   4.460   1.079 -0.9885  0.9506  0.4567
 8848SOL    HW238004   0.386   4.604   1.046  0.9083  0.7616 -0.6549
 8849SOL     OW38005   1.761   3.798   3.119 -0.2950  0.2577 -0.0916
 8849SOL    HW138006   1.740   3.731   3.184  0.9722  0.3561  0.4303
 8849SOL    HW238007   1.821   3.857   3.164 -1.3891  0.5124  1.0132
 8850SOL     OW38008   1.486   3.818   3.952  0.1416 -0.0844 -0.3022
 8850SOL    HW138009   1.512   3.874   4.025  0.3050  0.9963 -1.1922
 8850SOL    HW238010   1.550   3.747   3.960  0.1156  0.0626  1.2760
 8851SOL     OW38011   2.444   2.680  10.345  0.0194  0.8043 -0.2227
 8851SOL    HW138012   2.407   2.668  10.433  0.5047  0.7636 -0.0268
 8851SOL    HW238013   2.532   2.648  10.361  0.2852  0.5573 -2.2453
 8852SOL     OW38014   4.105   0.021   5.667  0.2703  0.5922  0.1009
 8852SOL    HW138015   4.054   0.096   5.699  0.2531 -0.3169  2.2343
 8852SOL    HW238016   4.197   0.047   5.669 -0.1583  2.2173 -1.1198
 8853SOL     OW38017   1.253   4.660   5.282 -0.3056 -0.2546  0.2686
 8853SOL    HW138018   1.310   4.585   5.267 -1.2696 -0.3153 -3.1927
 8853SOL    HW238019   1.294   4.692   5.362  0.4111  1.4252 -0.7886
 8854SOL     OW38020   0.646   2.728   7.786 -0.1911  0.0978 -0.2870
 8854SOL    HW138021   0.727   2.683   7.808 -1.9120 -2.8445  0.0085
 8854SOL    HW238022   0.683   2.808   7.749 -1.5174  1.0145  0.3783
 8855SOL     OW38023   4.688   4.337   3.105 -0.2284  0.4610  0.5730
 8855SOL    HW138024   0.056   4.364   3.100 -0.3934  1.1279  1.1847
 8855SOL    HW238025   4.681   4.330   3.010  0.3866 -0.5927  0.6081
 8856SOL     OW38026   0.704   0.148   5.766 -0.0539  0.4409 -0.2650
 8856SOL    HW138027   0.636   0.085   5.790 -0.7007  1.0095 -0.6004
 8856SOL    HW238028   0.723   0.108   5.681  0.1853 -0.9775  0.4638
 8857SOL     OW38029   2.286   3.453   3.526  0.3505 -0.0375  0.1218
 8857SOL    HW138030   2.351   3.506   3.481  0.0207 -0.2405 -0.5942
 8857SOL    HW238031   2.317   3.363   3.516 -0.4786 -0.1606 -1.3603
 8858SOL     OW38032   3.280   2.303   2.971 -0.1783 -0.0193  0.3705
 8858SOL    HW138033   3.356   2.355   2.947  1.0292 -0.9353  2.1535
 8858SOL    HW238034   3.265   2.347   3.055 -1.3255 -2.7539  1.6030
 8859SOL     OW38035   4.627   1.921  12.914  0.7479 -0.0948  0.1583
 8859SOL    HW138036   4.682   1.995  12.939 -0.7654  1.0451  0.1115
 8859SOL    HW238037   4.555   1.963  12.867  0.9465  0.3443  0.2535
 8860SOL     OW38038   1.869   3.873   6.871 -0.6554 -0.0728  0.2060
 8860SOL    HW138039   1.835   3.897   6.957 -1.2775  3.3578 -1.0193
 8860SOL    HW238040   1.910   3.956   6.847 -0.8277  0.2950  1.1905
 8861SOL     OW38041   0.307   1.785   0.391  0.6831 -0.7369 -0.2661
 8861SOL    HW138042   0.329   1.699   0.426 -1.2955 -1.1001  0.0447
 8861SOL    HW238043   0.294   1.747   0.304 -0.5269  0.7974 -0.7576
 8862SOL     OW38044   2.917   2.436   5.814  0.9642  0.9954 -0.0612
 8862SOL    HW138045   2.845   2.442   5.877  1.9297  0.9777  1.0346
 8862SOL    HW238046   2.882   2.375   5.748  0.0179  1.7251 -0.2376
 8863SOL     OW38047   1.577   0.393   0.208 -0.1173 -0.2956  0.5612
 8863SOL    HW138048   1.664   0.370   0.238  0.9561  3.7992  0.6057
 8863SOL    HW238049   1.521   0.347   0.270 -0.4327  1.7297  1.7972
 8864SOL     OW38050   0.508   3.495   5.137  0.0874  0.0333  0.4646
 8864SOL    HW138051   0.442   3.497   5.206  0.3302 -3.8328  0.8034
 8864SOL    HW238052   0.588   3.507   5.188  1.2472 -1.8252 -0.9302
 8865SOL     OW38053   0.613   3.110   8.085 -0.1597  0.0012 -0.1785
 8865SOL    HW138054   0.533   3.138   8.129 -2.0163 -2.8525 -1.7643
 8865SOL    HW238055   0.627   3.030   8.136  2.4362  0.9912  0.6823
 8866SOL     OW38056   0.977   0.267   8.018 -0.3597 -0.4348  0.4896
 8866SOL    HW138057   0.914   0.275   8.089 -1.9854 -2.7893 -0.6980
 8866SOL    HW238058   0.955   0.188   7.969  0.0412 -2.0963  3.0092
 8867SOL     OW38059   0.175   0.412   3.425 -0.2632  0.2675  0.6291
 8867SOL    HW138060   0.231   0.384   3.352 -0.0513  0.3483  0.7627
 8867SOL    HW238061   0.100   0.354   3.418 -2.2530  2.8722  0.3516
 8868SOL     OW38062   3.321   1.689   1.016 -0.5501 -0.0165 -0.3384
 8868SOL    HW138063   3.300   1.771   1.061 -1.2775 -1.2774  1.6202
 8868SOL    HW238064   3.340   1.643   1.097  0.7571  1.0444 -0.0561
 8869SOL     OW38065   4.473   2.746   6.888 -0.3474 -0.3502 -0.1883
 8869SOL    HW138066   4.420   2.721   6.964  0.7199  0.4184  0.8070
 8869SOL    HW238067   4.505   2.659   6.864  1.1424  0.2903 -0.5034
 8870SOL     OW38068   2.032   1.883  17.600 -0.4378 -0.3640 -0.3745
 8870SOL    HW138069   2.064   1.929  17.522 -0.8377 -2.5331 -1.8063
 8870SOL    HW238070   1.956   1.840  17.560 -1.1305 -0.3413  0.9291
 8871SOL     OW38071   4.252   1.574   7.084  0.0087  0.1698  0.3461
 8871SOL    HW138072   4.210   1.645   7.034  0.0338 -0.9989 -1.3183
 8871SOL    HW238073   4.288   1.522   7.013 -0.2283 -2.4715  2.1794
 8872SOL     OW38074   0.640   3.240   5.314 -0.5570  0.5102  0.1276
 8872SOL    HW138075   0.700   3.225   5.387  1.6109  0.7853 -1.6204
 8872SOL    HW238076   0.696   3.284   5.251  0.0276  0.0404  0.3239
 8873SOL     OW38077   0.674   0.627   7.635 -0.2049 -0.4862  0.0234
 8873SOL    HW138078   0.725   0.567   7.689  0.6907 -0.1305 -0.4159
 8873SOL    HW238079   0.600   0.567   7.631  0.8432 -1.7261 -0.5531
 8874SOL     OW38080   0.826   2.572   0.912 -0.0475 -0.3249 -0.2777
 8874SOL    HW138081   0.852   2.482   0.893 -1.4293 -1.4382  3.1742
 8874SOL    HW238082   0.914   2.611   0.911 -0.9662  1.7565  0.2979
 8875SOL     OW38083   2.075   2.596  14.722 -0.1028 -0.7124  0.0529
 8875SOL    HW138084   2.037   2.546  14.650 -1.0155 -0.2763  0.2343
 8875SOL    HW238085   2.087   2.681  14.681 -1.7464 -2.2086 -3.5365
 8876SOL     OW38086   3.177   1.006   4.887 -0.5512  0.2309  0.2436
 8876SOL    HW138087   3.100   1.000   4.943 -1.6659 -1.8804 -1.5410
 8876SOL    HW238088   3.243   1.021   4.955  0.7542 -0.1098 -0.9304
 8877SOL     OW38089   0.016   3.025   3.850  0.3389 -0.1673  0.5400
 8877SOL    HW138090   0.097   2.989   3.816  1.4564  3.2653 -0.4602
 8877SOL    HW238091   0.056   3.088   3.911  0.4423 -0.1286  0.4311
 8878SOL     OW38092   1.524   4.112  10.975  0.3407 -0.1321 -0.7923
 8878SOL    HW138093   1.584   4.039  10.992 -1.2499 -2.0111 -3.2228
 8878SOL    HW238094   1.442   4.069  10.999  0.5761  0.0578  0.3362
 8879SOL     OW38095   2.117   3.111   8.111  0.3711 -0.0561 -0.6028
 8879SOL    HW138096   2.189   3.105   8.048  1.1843  1.3010  0.1909
 8879SOL    HW238097   2.118   3.016   8.123  0.3841  0.0566  0.3021
 8880SOL     OW38098   1.190   1.053   0.917  0.6411 -0.1397 -0.4747
 8880SOL    HW138099   1.270   1.059   0.970 -0.5575  2.6895  1.0197
 8880SOL    HW238100   1.215   1.006   0.838  0.8104 -0.7359 -0.0738
 8881SOL     OW38101   4.222   4.598   8.407  0.6198  0.2045 -0.0104
 8881SOL    HW138102   4.294   4.627   8.352 -0.1871 -0.4745 -1.4334
 8881SOL    HW238103   4.173   4.680   8.401 -0.7313 -0.4860  1.4540
 8882SOL     OW38104   2.026   2.580   6.334 -0.2760  0.2553 -0.1721
 8882SOL    HW138105   1.932   2.593   6.321 -0.6661 -0.4056  2.0179
 8882SOL    HW238106   2.072   2.660   6.308  0.3743 -0.4840 -1.3114
 8883SOL     OW38107   2.888   2.114   9.802 -0.1514 -0.3343  0.4097
 8883SOL    HW138108   2.950   2.136   9.732 -0.1721 -0.3938  0.3728
 8883SOL    HW238109   2.853   2.031   9.769 -2.1667  1.1421 -1.1503
 8884SOL     OW38110   0.973   0.223   4.135 -0.5502 -0.0281  0.1476
 8884SOL    HW138111   0.978   0.178   4.051  2.0499 -1.2876  0.9827
 8884SOL    HW238112   0.932   0.149   4.181  0.4186 -1.3915 -1.1938
 8885SOL     OW38113   3.403   0.514  14.877  0.1813  0.4003 -0.2271
 8885SOL    HW138114   3.480   0.569  14.886  0.5678 -0.2320  0.3646
 8885SOL    HW238115   3.433   0.441  14.821 -1.0979 -0.8316  0.6930
 8886SOL     OW38116   1.212   0.942   5.637 -0.3064  0.5175 -0.2238
 8886SOL    HW138117   1.298   0.978   5.659 -0.3037 -0.3442  1.2107
 8886SOL    HW238118   1.236   0.891   5.560 -0.3190 -0.0751  0.1630
 8887SOL     OW38119   1.073   2.174  10.673 -0.2790  0.1734  0.5660
 8887SOL    HW138120   1.015   2.198  10.601 -1.7253  1.4768  2.1506
 8887SOL    HW238121   1.023   2.148  10.750 -0.9651 -1.4256 -0.4244
 8888SOL     OW38122   4.175   0.275   5.925  0.5491 -0.4819 -0.4909
 8888SOL    HW138123   4.219   0.195   5.897 -1.4001 -1.1900 -1.5778
 8888SOL    HW238124   4.185   0.339   5.854  1.4380  1.1086  1.0544
 8889SOL     OW38125   0.514   4.106  12.557  0.0133 -0.0398  0.7140
 8889SOL    HW138126   0.554   4.164  12.492 -0.7340 -1.0961 -0.6924
 8889SOL    HW238127   0.585   4.041  12.552  0.2774  0.2391  0.8371
 8890SOL     OW38128   3.255   4.483   1.109 -0.0102  0.3530  0.0756
 8890SOL    HW138129   3.330   4.517   1.158 -1.2014  2.3693  0.4957
 8890SOL    HW238130   3.266   4.543   1.035 -1.2666  2.4238  1.5624
 8891SOL     OW38131   0.198   4.582   2.256  0.0131  0.3381 -0.4704
 8891SOL    HW138132   0.159   4.529   2.187 -0.9752  0.7998 -0.2644
 8891SOL    HW238133   0.292   4.563   2.248  0.1609  0.4241  0.9142
 8892SOL     OW38134   1.583   2.851   2.994  0.0145 -0.0799 -0.6542
 8892SOL    HW138135   1.567   2.839   3.088 -0.8485  0.0970 -0.7830
 8892SOL    HW238136   1.672   2.815   2.992  0.0551 -0.1382  2.4735
 8893SOL     OW38137   2.399   3.907   2.020 -0.1594  0.1496 -0.2291
 8893SOL    HW138138   2.428   3.996   2.000  0.6487  0.2999  1.5927
 8893SOL    HW238139   2.461   3.860   1.964 -0.0490 -1.7021  1.4342
 8894SOL     OW38140   2.820   4.221   8.154  0.0205 -0.6156  0.5655
 8894SOL    HW138141   2.831   4.251   8.244 -1.6747 -0.3605  0.6975
 8894SOL    HW238142   2.905   4.191   8.123  0.5229 -1.3412  2.6676
 8895SOL     OW38143   4.611   1.884   9.663  0.0401  0.4766 -0.0352
 8895SOL    HW138144   4.628   1.919   9.576 -1.3876  1.9617  0.2788
 8895SOL    HW238145   4.533   1.834   9.638  0.5603 -0.2144 -0.2601
 8896SOL     OW38146   2.250   0.456  16.500 -0.2797 -0.4710  0.8842
 8896SOL    HW138147   2.190   0.440  16.428  1.3864  0.3386 -0.6854
 8896SOL    HW238148   2.241   0.548  16.524 -0.1793 -0.2287 -0.0207
 8897SOL     OW38149   4.472   4.471   3.540 -0.5891 -0.5572  0.3330
 8897SOL    HW138150   4.472   4.417   3.462 -2.5479  1.6881 -1.2297
 8897SOL    HW238151   4.479   4.401   3.605  4.2231  0.0147  0.4308
 8898SOL     OW38152   4.667   1.955   5.540  0.4727 -0.2322 -0.4323
 8898SOL    HW138153   0.038   1.975   5.539  0.9769 -2.4829  1.3401
 8898SOL    HW238154   4.638   1.980   5.453  1.0652  2.0284  0.0266
 8899SOL     OW38155   0.391   3.184   8.271 -0.1036 -0.4739  0.4142
 8899SOL    HW138156   0.367   3.277   8.272  0.4016 -0.3347 -0.7287
 8899SOL    HW238157   0.395   3.169   8.366 -0.5132  1.8126  0.8105
 8900SOL     OW38158   1.578   3.439   3.038 -0.0072  0.0877  0.0738
 8900SOL    HW138159   1.610   3.394   2.960 -2.1532  0.7245 -1.2018
 8900SOL    HW238160   1.579   3.530   3.007  2.0831 -0.0399 -0.1775
 8901SOL     OW38161   4.238   0.698   7.321 -0.4593 -0.2334 -0.1665
 8901SOL    HW138162   4.307   0.748   7.278  0.6696 -1.8560 -0.2595
 8901SOL    HW238163   4.298   0.644   7.373  0.7374  1.5300  0.2636
 8902SOL     OW38164   2.750   0.043   3.369 -0.3210 -0.4017 -0.4042
 8902SOL    HW138165   2.804   0.015   3.296  1.4303  0.4754  0.5339
 8902SOL    HW238166   2.663   0.039   3.332 -0.0893 -0.9487 -0.8855
 8903SOL     OW38167   0.989   2.580   8.366  0.3136  0.3045 -0.0231
 8903SOL    HW138168   0.894   2.571   8.367  0.3700  0.2949  5.7395
 8903SOL    HW238169   1.013   2.578   8.273  1.2571  3.3016  0.1619
 8904SOL     OW38170   0.605   2.798  12.293 -0.3158 -0.0886 -0.0964
 8904SOL    HW138171   0.692   2.777  12.261  0.0529  1.7972 -0.3629
 8904SOL    HW238172   0.546   2.754  12.231 -0.3215  0.4405 -0.4736
 8905SOL     OW38173   1.551   0.511  17.649 -0.3533 -0.2518 -0.2795
 8905SOL    HW138174   1.624   0.472  17.603  1.8417  1.0076  2.1353
 8905SOL    HW238175   1.572   0.460   0.033 -0.0024  1.4532  0.7384
 8906SOL     OW38176   1.112   2.940   5.250  0.0939  0.2339  0.1162
 8906SOL    HW138177   1.061   2.960   5.329  1.1379  2.5085  0.1941
 8906SOL    HW238178   1.049   2.971   5.185  0.5444 -0.8540 -0.8403
 8907SOL     OW38179   1.258   3.236  15.148  0.1059  0.6931  0.0366
 8907SOL    HW138180   1.168   3.243  15.117  0.0386 -0.1252  0.0510
 8907SOL    HW238181   1.286   3.310  15.094  0.0712  0.8582  0.2414
 8908SOL     OW38182   3.454   1.268   3.899  0.6717 -0.0780  0.7176
 8908SOL    HW138183   3.363   1.239   3.894  0.3686  0.3464  3.6442
 8908SOL    HW238184   3.491   1.266   3.810 -0.5546  2.3151  0.1517
 8909SOL     OW38185   2.891   0.119  14.075  0.0537  0.1502  0.0659
 8909SOL    HW138186   2.815   0.177  14.066  0.4122  0.6460  0.2226
 8909SOL    HW238187   2.876   0.049  14.013 -0.3221 -2.4376  3.0845
 8910SOL     OW38188   2.978   4.434  14.322  0.4420 -0.1807  0.0921
 8910SOL    HW138189   3.073   4.450  14.316  0.0134  2.3111 -0.2887
 8910SOL    HW238190   2.946   4.480  14.244 -1.3638  0.3644  1.1700
 8911SOL     OW38191   2.856   3.906   7.953  0.1954 -0.4735  0.1405
 8911SOL    HW138192   2.844   3.838   7.886  1.4483 -0.7912  0.2323
 8911SOL    HW238193   2.769   3.898   7.992 -1.5325  0.6274 -3.5270
 8912SOL     OW38194   2.509   3.748  15.429  0.4474 -0.1654 -0.0545
 8912SOL    HW138195   2.415   3.744  15.416  0.5889 -2.2099 -0.4532
 8912SOL    HW238196   2.528   3.658  15.402  1.1058  0.1453 -0.6313
 8913SOL     OW38197   3.852   3.999  17.041  1.2576 -0.0502 -0.2163
 8913SOL    HW138198   3.898   4.067  17.090  0.4678  0.3871 -0.0859
 8913SOL    HW238199   3.912   3.925  17.054 -0.3952 -1.2204  0.6610
 8914SOL     OW38200   0.691   4.333   6.682  0.4441  0.0773 -0.1820
 8914SOL    HW138201   0.663   4.403   6.623 -3.2107 -0.5046  0.8340
 8914SOL    HW238202   0.692   4.263   6.617  1.8151  2.1057 -2.3568
 8915SOL     OW38203   3.503   1.352   2.006  0.0363  0.2623 -0.2452
 8915SOL    HW138204   3.450   1.427   1.978  1.4631  1.7162  0.9462
 8915SOL    HW238205   3.463   1.276   1.962 -0.8321  0.0679  0.8889
 8916SOL     OW38206   1.555   0.327   7.188  0.1358 -0.1035 -0.4017
 8916SOL    HW138207   1.490   0.392   7.163  0.7573  0.8956  0.5968
 8916SOL    HW238208   1.509   0.291   7.265  1.3717  0.9983  0.8466
 8917SOL     OW38209   2.030   0.132  13.235 -0.0235  0.4841  0.1428
 8917SOL    HW138210   2.024   0.226  13.254  1.1866  0.6249 -0.1892
 8917SOL    HW238211   2.108   0.132  13.180  1.2391  0.9600  1.9322
 8918SOL     OW38212   2.553   0.544   2.248  0.3205  0.3769 -0.9599
 8918SOL    HW138213   2.551   0.634   2.214 -1.9283  1.1803  1.2811
 8918SOL    HW238214   2.536   0.557   2.342  2.0450  2.2370 -0.9051
 8919SOL     OW38215   4.278   2.367   5.030 -0.2254 -0.5807 -0.1857
 8919SOL    HW138216   4.262   2.274   5.045 -0.3897 -0.3628  0.9566
 8919SOL    HW238217   4.359   2.373   5.082 -0.8802 -0.4290  0.8047
 8920SOL     OW38218   3.734   1.417   5.738 -0.2261 -0.1084 -0.3883
 8920SOL    HW138219   3.665   1.351   5.743 -1.5467  1.2040 -1.3591
 8920SOL    HW238220   3.780   1.396   5.820 -1.9177 -4.8512 -0.6453
 8921SOL     OW38221   3.846   2.302   6.706  0.3351  0.3617 -0.1169
 8921SOL    HW138222   3.911   2.293   6.775  0.7158  1.7820 -0.2841
 8921SOL    HW238223   3.899   2.363   6.654  0.0891  1.2435  0.6661
 8922SOL     OW38224   2.657   0.266   2.125 -0.4410  0.8808  0.6182
 8922SOL    HW138225   2.716   0.218   2.183  0.8121  0.3881 -1.0829
 8922SOL    HW238226   2.603   0.322   2.182  1.4147  0.6932  2.5875
 8923SOL     OW38227   3.709   1.017  15.701 -0.7366 -0.2902  0.0478
 8923SOL    HW138228   3.804   1.023  15.699 -0.7842  0.9412  1.3371
 8923SOL    HW238229   3.686   1.031  15.609 -2.9449  0.3016  0.6872
 8924SOL     OW38230   0.646   4.176   9.174  0.6264  0.4310 -0.3336
 8924SOL    HW138231   0.622   4.218   9.092  1.2830  2.0883  0.3252
 8924SOL    HW238232   0.691   4.249   9.215 -2.1987  0.3952  2.8175
 8925SOL     OW38233   1.675   3.556  12.428  0.4404  0.0965 -0.1682
 8925SOL    HW138234   1.588   3.593  12.445  0.6959  0.9334 -0.6762
 8925SOL    HW238235   1.698   3.515  12.512 -1.1722 -1.7783 -0.6252
 8926SOL     OW38236   0.246   0.747   8.148  0.0474 -0.2459  0.2310
 8926SOL    HW138237   0.212   0.659   8.163 -1.5900  0.7072  2.0952
 8926SOL    HW238238   0.324   0.744   8.204 -1.6096 -1.0876  2.5020
 8927SOL     OW38239   1.243   1.493   2.770  0.2147  0.0354 -0.1276
 8927SOL    HW138240   1.209   1.498   2.860 -1.1639  1.1568 -0.6994
 8927SOL    HW238241   1.250   1.398   2.767 -1.3484 -0.0720 -0.5747
 8928SOL     OW38242   1.135   2.691   5.438 -0.3834 -0.2667 -0.5183
 8928SOL    HW138243   1.229   2.689   5.458 -0.6598 -0.3207  0.8148
 8928SOL    HW238244   1.118   2.765   5.496  1.2576  0.0303 -0.3994
 8929SOL     OW38245   2.120   0.813   8.372  0.3427  0.2591 -0.2090
 8929SOL    HW138246   2.149   0.900   8.343 -0.4948  0.3526 -0.7608
 8929SOL    HW238247   2.157   0.807   8.460  1.2429 -2.2107 -0.7500
 8930SOL     OW38248   4.396   3.828   6.735  0.0127 -0.1882 -0.4655
 8930SOL    HW138249   4.362   3.843   6.647 -1.1449 -0.4113 -0.0593
 8930SOL    HW238250   4.476   3.791   6.699 -0.9178 -1.3887 -1.3122
 8931SOL     OW38251   2.942   3.552   7.564 -0.0534  0.5357 -0.3512
 8931SOL    HW138252   2.930   3.644   7.542  2.2307  1.2313  1.3058
 8931SOL    HW238253   3.003   3.564   7.637  0.4380 -0.7485 -0.5424
 8932SOL     OW38254   0.879   0.161   2.488  0.0890 -0.5704  0.4300
 8932SOL    HW138255   0.791   0.194   2.467  0.1302 -0.2490  0.7520
 8932SOL    HW238256   0.848   0.079   2.525 -1.6505 -0.1644 -0.0943
 8933SOL     OW38257   2.879   0.413  12.253 -0.5299 -0.3393 -0.2906
 8933SOL    HW138258   2.888   0.436  12.161  0.5774  2.2247  0.4647
 8933SOL    HW238259   2.969   0.439  12.274 -1.4573  2.2780  0.5145
 8934SOL     OW38260   1.489   2.601   9.528 -0.2324  0.1222  0.0588
 8934SOL    HW138261   1.465   2.552   9.607 -0.4000  0.9572  0.5246
 8934SOL    HW238262   1.582   2.579   9.530 -0.1502  0.5698  1.4500
 8935SOL     OW38263   2.662   2.262   8.383 -0.1726  0.6514 -0.4665
 8935SOL    HW138264   2.598   2.294   8.445  1.2104 -0.1409  1.3652
 8935SOL    HW238265   2.717   2.335   8.353 -1.1837  1.3233 -0.6761
 8936SOL     OW38266   2.594   1.639   0.313  0.0585  0.5329 -0.0898
 8936SOL    HW138267   2.524   1.703   0.303 -0.0388  0.9871  3.3804
 8936SOL    HW238268   2.621   1.671   0.399  0.3785 -0.5660  0.2254
 8937SOL     OW38269   0.684   2.502   5.653 -0.0843 -0.1759  0.3365
 8937SOL    HW138270   0.685   2.540   5.741  1.5397 -0.0011  0.2572
 8937SOL    HW238271   0.710   2.412   5.670  2.0962  0.6145  1.2581
 8938SOL     OW38272   3.780   4.570  17.686 -0.2244  0.3241  0.3962
 8938SOL    HW138273   3.731   4.505  17.635 -0.4124  0.9895 -0.2663
 8938SOL    HW238274   3.854   4.568  17.626 -0.8677  1.8433 -0.4473
 8939SOL     OW38275   3.423   3.577  15.326  0.5150  0.4837 -0.1194
 8939SOL    HW138276   3.420   3.639  15.398  0.8259  1.6080 -1.0659
 8939SOL    HW238277   3.335   3.595  15.291  0.9353  0.8451 -1.0056
 8940SOL     OW38278   0.900   0.003   4.272 -0.3188  0.0791  0.0025
 8940SOL    HW138279   0.974   4.667   4.258 -0.5965 -0.8053  2.1692
 8940SOL    HW238280   0.823   4.670   4.268  0.5944 -1.3264  1.7422
 8941SOL     OW38281   0.432   2.126   5.276 -0.1501 -0.4081  0.3695
 8941SOL    HW138282   0.499   2.102   5.212 -0.2269 -0.5180  0.3298
 8941SOL    HW238283   0.471   2.096   5.358  0.4856  0.9105  0.5509
 8942SOL     OW38284   4.173   2.148   4.667 -0.8867  0.3949  0.2725
 8942SOL    HW138285   4.145   2.137   4.576  2.3723  0.5576 -0.7472
 8942SOL    HW238286   4.264   2.175   4.650 -0.8630 -0.6273 -1.2228
 8943SOL     OW38287   4.240   1.895   0.874 -0.2339 -0.0476  0.7033
 8943SOL    HW138288   4.334   1.877   0.879 -0.2478 -0.2116  0.3445
 8943SOL    HW238289   4.230   1.937   0.960  0.9126  1.9713 -0.1615
 8944SOL     OW38290   1.947   1.638   6.081 -0.3795 -0.1739  0.4200
 8944SOL    HW138291   1.896   1.625   6.001  0.0149  1.2979 -0.0769
 8944SOL    HW238292   1.884   1.653   6.152 -0.2065 -0.4048  0.6249
 8945SOL     OW38293   2.922   1.568   4.623  0.2959 -0.8493  0.0450
 8945SOL    HW138294   2.955   1.649   4.583  0.1684 -1.1566 -0.6726
 8945SOL    HW238295   2.988   1.557   4.691  0.4864  0.5819  0.1016
 8946SOL     OW38296   2.873   1.354   3.597  0.1463 -0.0681 -0.3986
 8946SOL    HW138297   2.796   1.408   3.580 -0.0658 -0.8433 -1.8637
 8946SOL    HW238298   2.925   1.364   3.517  1.4088  0.8942  0.5344
 8947SOL     OW38299   0.239   0.992   5.681  0.1396  0.2914 -0.2472
 8947SOL    HW138300   0.233   0.916   5.738  2.1361  1.9724  2.2367
 8947SOL    HW238301   0.307   0.967   5.618  1.8331 -2.7358  2.7734
 8948SOL     OW38302   0.665   0.198   8.017 -0.1551  0.6029 -0.0620
 8948SOL    HW138303   0.698   0.112   8.044 -3.8906 -1.2405 -1.4269
 8948SOL    HW238304   0.590   0.164   7.967  0.0326  0.5704 -0.3213
 8949SOL     OW38305   4.443   4.707  16.540  0.5626 -0.2059 -0.4815
 8949SOL    HW138306   4.531   4.717  16.578  0.2935  2.5951 -0.5648
 8949SOL    HW238307   4.427   0.075  16.515  2.0806  0.3892  0.6649
 8950SOL     OW38308   2.539   2.254   6.423 -0.4039  0.4201 -0.3367
 8950SOL    HW138309   2.474   2.262   6.353 -1.5147 -0.0233  0.6467
 8950SOL    HW238310   2.498   2.327   6.469 -1.0909  1.1469 -2.0851
 8951SOL     OW38311   4.194   4.191   4.460  0.2054  0.6389  0.0584
 8951SOL    HW138312   4.252   4.126   4.421 -1.2045 -0.0870 -0.8256
 8951SOL    HW238313   4.226   4.179   4.550 -0.3335  1.1979  0.3264
 8952SOL     OW38314   2.804   0.984  13.907 -0.0447 -0.6564  0.0663
 8952SOL    HW138315   2.834   0.905  13.952 -0.6715 -0.1433  1.3839
 8952SOL    HW238316   2.854   1.048  13.959 -0.5724  0.8686 -1.3077
 8953SOL     OW38317   0.401   0.981   2.261 -0.1497  0.1313  0.1568
 8953SOL    HW138318   0.426   0.932   2.182  0.4615  1.0578 -0.2194
 8953SOL    HW238319   0.413   1.072   2.236 -1.3934  0.3376  0.3349
 8954SOL     OW38320   3.309   1.473  11.925  0.5523  0.0022  0.0568
 8954SOL    HW138321   3.216   1.482  11.946  0.4073  1.9003 -1.4700
 8954SOL    HW238322   3.345   1.529  11.993  2.9277  0.2236 -1.3805
 8955SOL     OW38323   0.562   0.641   6.529 -0.1396 -0.0608 -0.4898
 8955SOL    HW138324   0.575   0.690   6.610  0.3776  0.7095 -1.0438
 8955SOL    HW238325   0.474   0.671   6.505 -1.2677 -2.0304  1.1817
 8956SOL     OW38326   3.655   2.911   6.734  0.2638  0.0145  0.6371
 8956SOL    HW138327   3.622   3.001   6.735  4.1081  1.4664 -2.3715
 8956SOL    HW238328   3.619   2.883   6.818 -2.8456 -2.3959 -1.4723
 8957SOL     OW38329   2.217   4.218  10.716  0.2128 -0.1755  0.6246
 8957SOL    HW138330   2.232   4.232  10.623  1.4811 -0.0026  0.8534
 8957SOL    HW238331   2.310   4.205  10.737  0.2946 -2.0221 -0.8948
 8958SOL     OW38332   4.004   4.458   3.249  0.0816  0.2348 -0.1202
 8958SOL    HW138333   3.939   4.522   3.277 -1.0457 -1.6536  1.5773
 8958SOL    HW238334   3.952   4.418   3.180  0.1971  0.6919 -0.4657
 8959SOL     OW38335   0.898   1.083  16.133 -0.2524  0.2336 -0.0860
 8959SOL    HW138336   0.984   1.046  16.115 -0.2310  0.8892 -1.2828
 8959SOL    HW238337   0.912   1.143  16.060  0.9839  0.4661  0.3432
 8960SOL     OW38338   4.682   2.197   4.886 -0.2394  0.1315 -0.7516
 8960SOL    HW138339   4.700   2.223   4.976  0.8089 -2.7676 -0.1097
 8960SOL    HW238340   0.017   2.121   4.883 -0.6946 -0.2770  0.6663
 8961SOL     OW38341   4.633   1.534   3.961 -0.3725  0.6673  0.0065
 8961SOL    HW138342   4.538   1.526   3.964 -0.3863  0.3291 -1.4924
 8961SOL    HW238343   4.646   1.546   3.867 -1.1453 -1.3631 -0.3508
 8962SOL     OW38344   1.265   1.917   8.617 -0.0160  0.3565  0.5507
 8962SOL    HW138345   1.304   1.995   8.579 -1.2837 -0.3629 -2.2278
 8962SOL    HW238346   1.290   1.844   8.560 -5.4410  0.8594 -2.4871
 8963SOL     OW38347   3.954   2.882   6.775 -0.0762 -0.0470 -0.0929
 8963SOL    HW138348   3.929   2.901   6.865 -0.0910 -2.7761  0.4826
 8963SOL    HW238349   3.885   2.826   6.740 -1.0120  0.2861  1.2597
 8964SOL     OW38350   1.495   1.053   3.631  0.1173 -0.0865  0.1509
 8964SOL    HW138351   1.583   1.090   3.638  0.1899 -0.3423  0.5360
 8964SOL    HW238352   1.512   0.972   3.678 -0.1397 -0.6260 -0.6829
 8965SOL     OW38353   0.248   3.710   3.721  0.0841  0.3105  0.2483
 8965SOL    HW138354   0.275   3.737   3.633 -0.6281 -0.8955 -0.3395
 8965SOL    HW238355   0.330   3.718   3.770 -0.2196  0.7939  0.6754
 8966SOL     OW38356   4.150   2.361  13.492  0.0133  0.0823  0.7820
 8966SOL    HW138357   4.155   2.344  13.398  0.0545 -0.5460  0.9023
 8966SOL    HW238358   4.083   2.302  13.526 -0.8521 -0.0094 -1.0483
 8967SOL     OW38359   1.227   2.661  17.188 -0.5429 -0.2091  0.1052
 8967SOL    HW138360   1.165   2.634  17.256 -1.9986 -0.4685 -1.3477
 8967SOL    HW238361   1.296   2.697  17.245 -1.9381 -0.5290  1.9992
 8968SOL     OW38362   0.680   0.478   9.579  0.3300  0.7445  0.3279
 8968SOL    HW138363   0.774   0.479   9.596  0.4836 -0.3924 -0.4986
 8968SOL    HW238364   0.685   0.439   9.492  2.1343 -0.0395  0.7962
 8969SOL     OW38365   0.402   3.018   2.606 -0.2711 -0.1229 -0.3195
 8969SOL    HW138366   0.313   3.017   2.641 -0.4646  0.1659 -0.8079
 8969SOL    HW238367   0.428   2.929   2.585 -1.1853 -0.6082  0.6241
 8970SOL     OW38368   3.429   2.951   3.482 -0.1104  0.5256  0.0686
 8970SOL    HW138369   3.378   2.947   3.401 -0.7727  0.6239  0.4851
 8970SOL    HW238370   3.501   3.007   3.450  0.0526 -0.8144 -1.9209
 8971SOL     OW38371   0.665   1.187   3.704  0.5424  0.0375  0.2384
 8971SOL    HW138372   0.649   1.134   3.626 -2.1185  0.2448  0.6432
 8971SOL    HW238373   0.577   1.219   3.724  1.0186  0.7901  1.1662
 8972SOL     OW38374   2.289   0.131   4.270 -0.1143 -0.1729 -0.2959
 8972SOL    HW138375   2.214   0.072   4.278 -1.2392  1.3817  0.5393
 8972SOL    HW238376   2.264   0.195   4.337 -1.0004  0.6475 -1.3995
 8973SOL     OW38377   2.850   3.180   1.583 -0.2081  0.0613  0.3907
 8973SOL    HW138378   2.787   3.150   1.517  1.8937 -3.0408 -0.2041
 8973SOL    HW238379   2.860   3.264   1.539  0.4255 -1.0784 -1.6017
 8974SOL     OW38380   0.083   1.923   4.002 -0.4411  0.1501 -0.5768
 8974SOL    HW138381   0.074   1.959   4.090  0.8543 -1.6977  0.3210
 8974SOL    HW238382   4.720   1.946   3.969 -0.5032  0.1370 -0.4216
 8975SOL     OW38383   3.469   2.606   4.702 -0.0422 -0.1748  0.2145
 8975SOL    HW138384   3.530   2.624   4.630  1.0572 -1.3141  0.8662
 8975SOL    HW238385   3.530   2.576   4.769 -0.1218  2.4481  1.4342
 8976SOL     OW38386   4.482   0.992   6.267 -0.2124 -0.1564  0.0895
 8976SOL    HW138387   4.506   0.900   6.269  3.1315  0.7712  3.1262
 8976SOL    HW238388   4.529   1.040   6.335  0.2925 -2.8089  1.5893
 8977SOL     OW38389   4.688   2.746  15.630  0.5696  0.0932  0.3807
 8977SOL    HW138390   4.720   2.826  15.589 -1.6924  0.9135  0.1907
 8977SOL    HW238391   4.643   2.711  15.553  0.2615  1.9339 -0.2669
 8978SOL     OW38392   2.960   2.319   7.227 -0.4650  0.3555  0.1354
 8978SOL    HW138393   2.885   2.272   7.193 -0.1807  1.4500 -1.9954
 8978SOL    HW238394   2.989   2.378   7.158 -1.2792  0.6858  0.0814
 8979SOL     OW38395   3.619   3.845  15.317  0.0070 -0.1712  0.1046
 8979SOL    HW138396   3.525   3.864  15.325  0.4946  3.3927 -2.7988
 8979SOL    HW238397   3.660   3.925  15.350  1.0691 -0.8135  0.3361
 8980SOL     OW38398   3.240   1.535  12.749  0.0638 -0.8513  0.3974
 8980SOL    HW138399   3.292   1.535  12.830  1.3270  2.1141 -0.4149
 8980SOL    HW238400   3.155   1.572  12.770  0.0330  0.1090 -1.4371
 8981SOL     OW38401   1.715   1.815  14.656  0.4309 -0.0315 -0.6804
 8981SOL    HW138402   1.695   1.724  14.680 -0.5947 -0.1331 -1.8758
 8981SOL    HW238403   1.664   1.863  14.722  0.8436  0.0102 -0.3967
 8982SOL     OW38404   3.920   1.172   7.436 -0.7240  0.0237 -0.2504
 8982SOL    HW138405   3.976   1.223   7.494 -0.0989  0.5442 -1.3227
 8982SOL    HW238406   3.984   1.157   7.366 -1.5126 -1.2606 -0.7083
 8983SOL     OW38407   1.501   4.037   0.404  0.1312  0.3248 -0.7636
 8983SOL    HW138408   1.421   3.999   0.441  0.2490  1.1696  0.3782
 8983SOL    HW238409   1.528   3.979   0.333  0.9181  2.2499 -2.0383
 8984SOL     OW38410   0.167   0.530   4.765  0.0382  0.1242  0.1940
 8984SOL    HW138411   0.171   0.470   4.690  0.5883  0.1844  0.1788
 8984SOL    HW238412   0.261   0.544   4.774  0.1855 -0.2300 -0.7585
 8985SOL     OW38413   3.200   1.451   8.951 -0.5635 -0.3728 -0.0791
 8985SOL    HW138414   3.272   1.505   8.985  0.4914 -1.5283 -0.4665
 8985SOL    HW238415   3.192   1.503   8.871  1.6444  1.0538  0.6073
 8986SOL     OW38416   4.389   4.503  12.957  0.8443  0.2293 -0.1668
 8986SOL    HW138417   4.381   4.564  13.031 -0.7903 -1.7158  1.2575
 8986SOL    HW238418   4.463   4.447  12.983  2.5597  1.6049 -2.0923
 8987SOL     OW38419   2.628   0.295   4.152  0.4405  0.6844 -0.0830
 8987SOL    HW138420   2.685   0.319   4.225 -0.4747 -0.7068  1.0963
 8987SOL    HW238421   2.644   0.201   4.139 -0.1167  0.6014 -0.1629
 8988SOL     OW38422   0.891   4.301   0.340 -0.0881  0.1609 -0.1690
 8988SOL    HW138423   0.935   4.254   0.269 -2.3969 -1.4884 -0.4896
 8988SOL    HW238424   0.896   4.235   0.409 -0.8834  0.9753  0.6535
 8989SOL     OW38425   2.737   3.668   1.331  0.5273  0.0231  0.3039
 8989SOL    HW138426   2.792   3.746   1.323 -1.7489  1.7506  1.9134
 8989SOL    HW238427   2.788   3.613   1.270 -2.5182  0.1632 -2.3483
 8990SOL     OW38428   1.614   1.971   2.475  0.2201  0.0526 -0.1122
 8990SOL    HW138429   1.554   1.948   2.547  0.3756 -0.3120 -0.1015
 8990SOL    HW238430   1.564   1.927   2.407  0.1282  0.9541 -0.6332
 8991SOL     OW38431   1.192   1.522   8.579  0.3819 -0.4852 -0.2609
 8991SOL    HW138432   1.104   1.512   8.540  0.9143 -1.6994 -1.1867
 8991SOL    HW238433   1.170   1.485   8.664 -0.2636  0.0219 -0.2067
 8992SOL     OW38434   1.470   1.805   5.568 -0.6329 -0.1989  0.4273
 8992SOL    HW138435   1.508   1.740   5.627 -1.4777 -0.2846  0.8765
 8992SOL    HW238436   1.475   1.759   5.484  0.4518 -0.9442  0.8952
 8993SOL     OW38437   0.806   4.573   1.840  0.1696  0.3237 -0.5239
 8993SOL    HW138438   0.714   4.594   1.855  0.4831  1.9884 -0.8371
 8993SOL    HW238439   0.817   4.480   1.860 -1.7310  0.3832  0.8200
 8994SOL     OW38440   1.368   1.115   5.931 -0.5603  0.2467  0.3600
 8994SOL    HW138441   1.277   1.140   5.914 -0.0383  1.3839 -0.7148
 8994SOL    HW238442   1.417   1.196   5.943  1.1089 -0.4157 -1.9383
 8995SOL     OW38443   3.754   1.439   1.243  0.1472 -0.2133  0.1219
 8995SOL    HW138444   3.769   1.525   1.204 -1.2738 -0.7189 -1.5540
 8995SOL    HW238445   3.742   1.462   1.335  0.6939 -0.8331  0.3480
 8996SOL     OW38446   1.181   4.029   3.702 -0.3813 -0.6385 -0.0589
 8996SOL    HW138447   1.270   4.024   3.737  0.4095 -1.0937 -2.0961
 8996SOL    HW238448   1.195   4.096   3.636 -1.2921  0.1504  0.5547
 8997SOL     OW38449   0.273   3.694   6.086 -0.2658 -0.1748  0.6133
 8997SOL    HW138450   0.191   3.656   6.056  0.2163 -0.7650  0.0188
 8997SOL    HW238451   0.307   3.711   5.998 -0.4668 -0.5684  0.4617
 8998SOL     OW38452   2.029   2.185   3.332  0.2610 -0.1422 -0.1347
 8998SOL    HW138453   2.054   2.270   3.296 -0.4318 -0.2750 -0.9238
 8998SOL    HW238454   2.084   2.182   3.411  0.9636  2.7086 -0.5180
 8999SOL     OW38455   1.100   1.870   6.068 -0.2047 -0.4812 -0.2210
 8999SOL    HW138456   1.110   1.788   6.115 -1.0447 -0.8490 -0.6753
 8999SOL    HW238457   1.178   1.862   6.013  1.1870  1.8337  1.4453
 9000SOL     OW38458   1.157   4.211  13.472  0.2420  0.4197  0.6074
 9000SOL    HW138459   1.181   4.161  13.550 -1.3839 -1.3398 -0.0234
 9000SOL    HW238460   1.219   4.284  13.476  1.6602 -0.6402 -1.8016
 9001SOL     OW38461   2.083   1.694   5.371  0.5191  0.1436 -0.2116
 9001SOL    HW138462   2.026   1.741   5.432 -0.0893 -2.4217  1.2050
 9001SOL    HW238463   2.167   1.737   5.384  0.4859 -0.3271  1.5166
 9002SOL     OW38464   2.241   2.222   5.673  0.2261  0.1883  0.2758
 9002SOL    HW138465   2.290   2.150   5.712 -0.9381 -1.0615 -0.5695
 9002SOL    HW238466   2.150   2.222   5.702  0.1908 -1.4923  0.1317
 9003SOL     OW38467   4.226   1.053   3.559  0.1488 -0.0747 -0.3852
 9003SOL    HW138468   4.199   0.985   3.620 -0.7555  0.6495  0.0168
 9003SOL    HW238469   4.183   1.128   3.601 -0.5131 -0.6066 -0.1242
 9004SOL     OW38470   4.549   1.994   8.274  0.1718 -0.4300  0.3656
 9004SOL    HW138471   4.513   2.050   8.343  0.1748  0.4100 -0.3210
 9004SOL    HW238472   4.548   1.910   8.321 -2.3588 -0.6843 -0.1575
 9005SOL     OW38473   3.147   3.630   1.092 -0.0450 -0.7174  0.0092
 9005SOL    HW138474   3.076   3.684   1.057  0.5414  1.1992  1.7731
 9005SOL    HW238475   3.221   3.691   1.097 -0.4076 -0.4624  2.1341
 9006SOL     OW38476   3.403   3.306   4.586  0.0744  0.3816 -0.0033
 9006SOL    HW138477   3.472   3.354   4.632  1.1196 -0.8014 -0.3228
 9006SOL    HW238478   3.409   3.221   4.630  0.0709 -0.8294 -2.3640
 9007SOL     OW38479   0.991   3.699   6.609 -0.0243  0.0998 -0.1836
 9007SOL    HW138480   0.926   3.768   6.594  0.0606  0.2924  0.3336
 9007SOL    HW238481   1.064   3.759   6.594 -0.2876  0.1553 -1.2190
 9008SOL     OW38482   2.898   2.061   7.899  0.2314  0.0816 -0.6293
 9008SOL    HW138483   2.832   2.126   7.926  1.6432  1.9862 -1.7307
 9008SOL    HW238484   2.854   1.987   7.940 -0.1250  0.5937 -0.0802
 9009SOL     OW38485   2.072   1.158   7.672  1.1119  0.4275  0.1679
 9009SOL    HW138486   1.991   1.108   7.667  1.5685 -0.2280 -0.6809
 9009SOL    HW238487   2.071   1.198   7.759  1.8419 -1.3504  0.9989
 9010SOL     OW38488   4.610   1.873   1.544  0.0502  0.5145  0.1711
 9010SOL    HW138489   4.531   1.921   1.518 -0.6936 -0.2596  1.0066
 9010SOL    HW238490   4.647   1.931   1.610  2.2791  0.7256 -1.2565
 9011SOL     OW38491   2.348   0.364   6.631  0.0816 -0.1058  0.2515
 9011SOL    HW138492   2.290   0.418   6.685 -1.0045 -0.7123 -0.3037
 9011SOL    HW238493   2.383   0.299   6.693 -0.2675  0.8290  1.4274
 9012SOL     OW38494   1.609   3.493   3.477 -0.0838 -0.2021  0.0288
 9012SOL    HW138495   1.665   3.516   3.402  0.9673  0.6728  1.0952
 9012SOL    HW238496   1.665   3.423   3.511 -0.6862 -1.3282 -1.2657
 9013SOL     OW38497   1.053   3.649   2.888  0.5669  0.1871  0.1813
 9013SOL    HW138498   1.033   3.721   2.828  1.7852  0.4698  0.1120
 9013SOL    HW238499   0.968   3.614   2.916  0.7287  1.8870  2.8212
 9014SOL     OW38500   3.942   1.425   1.735  0.0650 -0.1216  0.4275
 9014SOL    HW138501   3.967   1.504   1.687 -2.9139 -0.7049 -2.0491
 9014SOL    HW238502   3.998   1.428   1.813  0.3744  1.3296  0.1462
 9015SOL     OW38503   3.320   3.263   4.316  0.1110  0.0092 -0.6252
 9015SOL    HW138504   3.381   3.197   4.281  1.2378  0.3688  0.6742
 9015SOL    HW238505   3.360   3.287   4.399  0.8988  2.8037 -1.7999
 9016SOL     OW38506   0.811   1.863   8.408  0.6577  0.3930 -0.3047
 9016SOL    HW138507   0.854   1.836   8.327  0.4066  1.1512 -0.6943
 9016SOL    HW238508   0.884   1.906   8.454  0.3131  0.6953 -0.0453
 9017SOL     OW38509   0.311   2.415  12.780 -0.6602 -0.5232  0.9736
 9017SOL    HW138510   0.342   2.504  12.767 -1.7068 -0.5512 -1.7379
 9017SOL    HW238511   0.360   2.399  12.861  0.3825  0.8160  0.6033
 9018SOL     OW38512   2.092   2.466   8.407  0.2671 -0.4843  0.7822
 9018SOL    HW138513   2.045   2.454   8.324  1.2474 -1.1918  0.3325
 9018SOL    HW238514   2.061   2.550   8.442  0.1812  0.0204 -0.5064
 9019SOL     OW38515   0.778   3.301   8.170 -0.3105 -0.3022 -0.1237
 9019SOL    HW138516   0.707   3.256   8.124  0.6640 -0.2380 -1.7111
 9019SOL    HW238517   0.751   3.288   8.261 -1.2296  1.7324 -0.1128
 9020SOL     OW38518   3.139   2.596   2.723 -0.2928 -0.4353 -0.3252
 9020SOL    HW138519   3.233   2.604   2.706 -0.4835  2.1134 -0.1312
 9020SOL    HW238520   3.108   2.605   2.633 -0.7090 -0.2400 -0.1607
 9021SOL     OW38521   0.964   2.676   2.029 -0.0414  0.1960 -0.3410
 9021SOL    HW138522   1.033   2.646   2.088 -1.7934 -0.8169  1.1826
 9021SOL    HW238523   0.893   2.616   2.051  0.8439 -0.7559 -0.0577
 9022SOL     OW38524   3.849   3.655   7.577  0.6978  0.0543 -0.2529
 9022SOL    HW138525   3.901   3.646   7.497 -0.2443 -0.6311 -0.7851
 9022SOL    HW238526   3.905   3.721   7.618  0.0797 -0.3424  1.2374
 9023SOL     OW38527   0.066   1.929   4.307 -0.0344 -0.3428  0.2662
 9023SOL    HW138528   0.044   1.837   4.295 -1.4289  0.1128 -0.5221
 9023SOL    HW238529   0.153   1.912   4.346  0.2877 -0.4613 -0.5123
 9024SOL     OW38530   3.916   4.226   5.366 -0.3518  0.0504 -0.0874
 9024SOL    HW138531   3.876   4.150   5.323 -0.0728 -0.2377  0.1528
 9024SOL    HW238532   3.927   4.194   5.456 -0.1862 -1.1073 -0.5196
 9025SOL     OW38533   3.600   2.762  16.973  0.6151  0.4538  0.9637
 9025SOL    HW138534   3.607   2.795  17.063  1.2592  1.9766  0.3661
 9025SOL    HW238535   3.545   2.685  16.987 -1.2083  1.1771 -2.3375
 9026SOL     OW38536   0.352   3.225   9.072  0.1917 -0.3877 -0.8578
 9026SOL    HW138537   0.426   3.220   9.011  1.1624 -0.8960  0.3588
 9026SOL    HW238538   0.332   3.319   9.064 -1.7979 -0.8303 -1.0503
 9027SOL     OW38539   4.159   0.767   4.225 -0.0977  0.1998 -0.2253
 9027SOL    HW138540   4.184   0.700   4.289 -1.7469 -1.7357 -1.6065
 9027SOL    HW238541   4.149   0.725   4.140 -1.4836  0.5628 -0.2365
 9028SOL     OW38542   1.209   1.065   4.190 -0.2183  0.2444  0.1853
 9028SOL    HW138543   1.222   1.156   4.215 -2.0500  1.3039 -2.6809
 9028SOL    HW238544   1.128   1.084   4.143  0.9502  2.1987 -1.0335
 9029SOL     OW38545   0.850   3.404  13.434  0.0326 -0.1563  0.0758
 9029SOL    HW138546   0.895   3.415  13.350 -1.5637  1.0068 -0.6202
 9029SOL    HW238547   0.811   3.489  13.453  0.1565 -0.1590  0.3505
 9030SOL     OW38548   1.469   1.042   4.246  0.2026  0.2050  0.0641
 9030SOL    HW138549   1.503   1.018   4.160  0.2169  1.5176 -0.2986
 9030SOL    HW238550   1.378   1.017   4.232  0.1833  0.3728 -0.1040
 9031SOL     OW38551   2.376   2.146   2.392  0.3179  0.2365  0.5565
 9031SOL    HW138552   2.371   2.065   2.342  2.1477  0.0008  0.7591
 9031SOL    HW238553   2.461   2.146   2.436  0.2922 -1.5036  0.5766
 9032SOL     OW38554   3.207   3.148   5.280 -0.4321  0.4601  0.4375
 9032SOL    HW138555   3.163   3.067   5.256  0.3334  0.0380  0.4571
 9032SOL    HW238556   3.179   3.198   5.204 -2.0221 -1.2712 -0.0855
 9033SOL     OW38557   1.132   4.683  15.504 -0.0770 -0.1047 -0.4216
 9033SOL    HW138558   1.091   4.697  15.419 -1.1141  0.5152  0.1851
 9033SOL    HW238559   1.094   4.604  15.543 -2.0725  1.3196  0.5412
 9034SOL     OW38560   1.083   2.291   4.351  0.1564  0.0549 -0.3864
 9034SOL    HW138561   0.996   2.317   4.322  0.5871  0.5540 -1.2265
 9034SOL    HW238562   1.058   2.205   4.384  1.2392 -0.7935 -1.8093
 9035SOL     OW38563   3.835   2.519   5.216 -0.1256  0.2719  0.9619
 9035SOL    HW138564   3.833   2.477   5.130  0.8421  0.0417  1.0570
 9035SOL    HW238565   3.925   2.550   5.227  0.2209 -1.1496  2.2901
 9036SOL     OW38566   1.959   3.752   0.032 -0.2021  0.2566  0.0702
 9036SOL    HW138567   2.054   3.758   0.039 -0.0551 -0.1111 -1.5197
 9036SOL    HW238568   1.950   3.658   0.018  0.2587  0.4855 -1.7471
 9037SOL     OW38569   0.686   4.235   0.669 -0.3347 -0.2143  0.0609
 9037SOL    HW138570   0.650   4.202   0.751  1.9383  0.1476  1.1946
 9037SOL    HW238571   0.678   4.324   0.701 -0.2762 -0.3635  0.4866
 9038SOL     OW38572   3.088   2.367  16.910 -0.3636  0.1950 -0.1105
 9038SOL    HW138573   3.114   2.278  16.935 -0.6756 -0.1700 -1.0745
 9038SOL    HW238574   3.130   2.421  16.977 -2.4893  2.2284 -0.4273
 9039SOL     OW38575   2.381   0.304   7.619 -0.4624  1.0442 -0.7546
 9039SOL    HW138576   2.388   0.303   7.524  1.4549 -0.1453 -0.5943
 9039SOL    HW238577   2.299   0.257   7.635  1.4793 -2.4179 -1.1880
 9040SOL     OW38578   3.626   1.649  10.382 -0.2449 -0.1772  0.4110
 9040SOL    HW138579   3.552   1.604  10.340 -1.1305  2.0522 -0.4359
 9040SOL    HW238580   3.583   1.724  10.422  0.0586  0.2221 -0.0082
 9041SOL     OW38581   3.501   3.361   6.144  0.1597 -0.0606 -0.0840
 9041SOL    HW138582   3.467   3.368   6.233  1.6487  0.9679  0.4076
 9041SOL    HW238583   3.473   3.439   6.096  0.4811  0.9308  1.3160
 9042SOL     OW38584   4.461   4.351   3.287 -0.3027 -0.3145 -0.2525
 9042SOL    HW138585   4.371   4.349   3.254 -1.3397 -2.3036  2.7554
 9042SOL    HW238586   4.512   4.351   3.206 -2.1033 -1.3920 -1.4074
 9043SOL     OW38587   2.681   0.875  17.467  0.1662  0.2601 -0.0968
 9043SOL    HW138588   2.721   0.936  17.529  3.6146 -2.1149  0.0054
 9043SOL    HW238589   2.607   0.847  17.521  0.8502  0.3967  0.9147
 9044SOL     OW38590   0.304   3.437   8.306  0.1786 -0.0451  0.1254
 9044SOL    HW138591   0.238   3.494   8.267 -0.7249 -0.1880  1.4249
 9044SOL    HW238592   0.381   3.478   8.266  0.8864 -0.8319  0.6833
 9045SOL     OW38593   2.461   4.708  11.321  0.3376  0.2790 -0.1145
 9045SOL    HW138594   2.503   4.623  11.331  0.0954  0.1993  0.2251
 9045SOL    HW238595   2.424   4.695  11.233 -0.5978  0.8948  0.1813
 9046SOL     OW38596   4.701   1.490   2.977 -0.3341 -0.0504  0.3584
 9046SOL    HW138597   4.639   1.423   3.005  0.7235 -1.4060 -0.6114
 9046SOL    HW238598   4.706   1.543   3.057  2.6588 -0.1728  0.2450
 9047SOL     OW38599   2.936   0.760  13.759  0.1383  0.2233 -0.2276
 9047SOL    HW138600   2.857   0.715  13.730  1.6404 -0.6734 -2.9096
 9047SOL    HW238601   2.961   0.795  13.673 -0.9526 -1.5561 -1.2629
 9048SOL     OW38602   2.933   2.987   3.228 -0.9059 -0.3580  0.2784
 9048SOL    HW138603   3.014   2.977   3.277 -0.0664 -0.3207 -1.1165
 9048SOL    HW238604   2.916   3.079   3.245  0.1576  0.1830 -1.5862
 9049SOL     OW38605   2.531   0.930   9.208  0.3749  0.2037 -0.9044
 9049SOL    HW138606   2.548   1.024   9.199 -0.3665  0.4637  0.4515
 9049SOL    HW238607   2.488   0.909   9.125  0.1496  0.2292 -0.7940
 9050SOL     OW38608   1.368   1.685   8.508  0.6419 -0.7210 -0.5696
 9050SOL    HW138609   1.297   1.623   8.524  2.2262 -2.6381 -1.0571
 9050SOL    HW238610   1.434   1.628   8.469 -0.2368 -0.3121 -2.6635
 9051SOL     OW38611   2.179   2.688   3.248 -0.0940 -0.5039 -0.3440
 9051SOL    HW138612   2.184   2.689   3.343  1.1975  0.5903 -0.4209
 9051SOL    HW238613   2.257   2.736   3.221 -0.4243  2.0127  3.1903
 9052SOL     OW38614   1.781   3.040  10.742  0.0139 -0.0809 -0.4306
 9052SOL    HW138615   1.826   2.983  10.805 -3.0866 -0.9650  0.9417
 9052SOL    HW238616   1.772   3.120  10.794 -3.1545  0.0931 -1.2733
 9053SOL     OW38617   0.983   3.909   3.358  0.8316  0.0503 -0.4238
 9053SOL    HW138618   1.048   3.884   3.292 -0.0866  2.2701 -2.1474
 9053SOL    HW238619   0.915   3.843   3.343  1.0559 -0.4263  0.6080
 9054SOL     OW38620   3.684   1.135  11.301 -0.4868  0.2484  0.3378
 9054SOL    HW138621   3.761   1.091  11.338  0.1987  2.0155  0.9876
 9054SOL    HW238622   3.621   1.113  11.370  0.0554 -1.9723  0.1430
 9055SOL     OW38623   4.305   0.456   3.005  0.4917 -0.7235 -0.2073
 9055SOL    HW138624   4.334   0.544   2.981 -2.3075  0.4770  0.8195
 9055SOL    HW238625   4.273   0.418   2.923 -0.2892 -0.2082 -0.1387
 9056SOL     OW38626   2.642   2.755   1.823 -0.6903  0.2752 -0.2040
 9056SOL    HW138627   2.573   2.700   1.860 -0.4471  1.0487  1.4111
 9056SOL    HW238628   2.616   2.758   1.731 -0.5566  0.1736 -0.2454
 9057SOL     OW38629   0.276   3.011  17.409  0.5126  0.5482  0.0479
 9057SOL    HW138630   0.267   3.055  17.493 -0.8653  1.4042 -0.5445
 9057SOL    HW238631   0.303   2.925  17.443 -1.5088  0.1436  0.6490
 9058SOL     OW38632   2.506   3.132   3.081 -0.0349  0.3681  0.7461
 9058SOL    HW138633   2.479   3.208   3.030 -0.0380  0.1986  0.4934
 9058SOL    HW238634   2.591   3.112   3.042 -0.1216  0.4171  0.5332
 9059SOL     OW38635   2.614   0.413  12.405  0.0651  0.3819 -0.0790
 9059SOL    HW138636   2.683   0.448  12.349  0.5239 -0.1491  0.1480
 9059SOL    HW238637   2.600   0.488  12.462  3.4323 -0.2953  1.6724
 9060SOL     OW38638   4.092   3.885   1.981  0.1030  0.9590 -0.0695
 9060SOL    HW138639   4.149   3.865   1.907 -0.7042  0.7256 -0.6223
 9060SOL    HW238640   4.117   3.815   2.042 -0.8590  0.4720 -0.2330
 9061SOL     OW38641   2.253   2.895   2.285  0.3482  0.5998 -0.2436
 9061SOL    HW138642   2.187   2.859   2.344  0.4492  1.6341  0.5006
 9061SOL    HW238643   2.304   2.945   2.350  1.4808 -0.7061 -0.1218
 9062SOL     OW38644   0.604   1.465  17.262  0.2240 -0.1662  0.3995
 9062SOL    HW138645   0.569   1.494  17.178 -2.4321 -0.6161  1.3515
 9062SOL    HW238646   0.526   1.449  17.314  1.4744  0.6978  2.5424
 9063SOL     OW38647   3.912   3.047   4.063 -0.0014  0.7228 -0.6109
 9063SOL    HW138648   3.933   2.978   4.127  0.3489  0.9737 -0.4557
 9063SOL    HW238649   3.817   3.054   4.061 -0.1347 -0.7238  0.4785
 9064SOL     OW38650   3.725   3.920  16.350  0.2509 -0.1505  0.1084
 9064SOL    HW138651   3.776   3.998  16.374  1.4544 -0.2871 -1.9771
 9064SOL    HW238652   3.670   3.904  16.426  1.8470  3.0294  1.9369
 9065SOL     OW38653   4.089   4.428   5.741  0.1692  0.2241  0.6685
 9065SOL    HW138654   4.013   4.407   5.794 -0.6882 -0.0879 -0.6790
 9065SOL    HW238655   4.084   4.523   5.747  0.2561  0.3641 -1.3168
 9066SOL     OW38656   2.515   1.967   4.507  0.4620 -0.0691 -0.1752
 9066SOL    HW138657   2.449   1.992   4.572  1.0928 -1.5858  1.0472
 9066SOL    HW238658   2.449   1.934   4.447  1.3913 -0.7074 -0.8544
 9067SOL     OW38659   3.079   1.094   7.916  0.1350  0.5838  0.0230
 9067SOL    HW138660   3.034   1.011   7.900 -1.0972  0.9899  1.4613
 9067SOL    HW238661   3.162   1.088   7.869  0.1599  0.3389  0.0993
 9068SOL     OW38662   3.783   2.573  10.029 -0.1687 -0.5768  0.6717
 9068SOL    HW138663   3.839   2.645   9.999  0.4181 -1.7079 -0.9321
 9068SOL    HW238664   3.766   2.592  10.121  0.7961  0.4277  0.6416
 9069SOL     OW38665   1.460   2.464   2.654  0.5120 -0.2163  0.5193
 9069SOL    HW138666   1.381   2.421   2.620 -0.9361  2.3560  0.6299
 9069SOL    HW238667   1.500   2.494   2.573 -1.9508 -1.3365 -1.0996
 9070SOL     OW38668   1.880   4.333   6.621 -0.4175  0.4825  0.5470
 9070SOL    HW138669   1.966   4.294   6.640 -1.7887 -1.6238  2.4179
 9070SOL    HW238670   1.868   4.380   6.703 -1.6449 -0.1892  0.7431
 9071SOL     OW38671   2.802   2.821   6.596 -0.2489 -0.7413  0.2829
 9071SOL    HW138672   2.750   2.745   6.621 -0.5757 -0.3151  0.8866
 9071SOL    HW238673   2.841   2.803   6.511  0.4354 -0.3041  0.5033
 9072SOL     OW38674   1.936   2.193  11.490 -0.4596 -0.2143  0.1532
 9072SOL    HW138675   1.858   2.148  11.523 -0.8304  1.9643  2.2323
 9072SOL    HW238676   1.897   2.275  11.462  1.4847  0.2381 -1.2000
 9073SOL     OW38677   4.052   2.868  13.380 -0.0978 -0.2570 -0.4358
 9073SOL    HW138678   4.055   2.775  13.357 -1.2208  0.0268 -1.6944
 9073SOL    HW238679   4.050   2.849  13.474 -1.1006  1.9101 -0.0133
 9074SOL     OW38680   1.908   4.281  17.254 -0.6663 -0.2103  0.0404
 9074SOL    HW138681   1.917   4.347  17.323  0.8875 -0.5151  0.1322
 9074SOL    HW238682   1.929   4.337  17.179 -0.6083  0.6878  0.7208
 9075SOL     OW38683   4.348   4.583   0.726 -0.0299  0.3314  0.0038
 9075SOL    HW138684   4.303   4.606   0.807  0.8005  0.0270  0.5542
 9075SOL    HW238685   4.320   4.492   0.713  2.2506 -0.6614  2.1844
 9076SOL     OW38686   1.404   4.264   1.889 -0.4221  0.3163 -0.3811
 9076SOL    HW138687   1.334   4.293   1.948  0.6229 -0.2622  1.1491
 9076SOL    HW238688   1.359   4.198   1.836 -0.6034  0.4308 -0.3697
 9077SOL     OW38689   3.477   3.848  13.685 -0.5734 -0.9500 -0.5080
 9077SOL    HW138690   3.515   3.766  13.654  0.1684 -0.1439 -1.7015
 9077SOL    HW238691   3.516   3.906  13.620  1.8292 -0.6149  1.2508
 9078SOL     OW38692   3.593   1.766   4.936  0.1654 -0.0303  0.6574
 9078SOL    HW138693   3.629   1.687   4.894  0.8293  0.4727  0.2779
 9078SOL    HW238694   3.535   1.788   4.863 -0.0261  0.1212  0.8542
 9079SOL     OW38695   3.403   1.395  16.976 -0.0320 -0.1266  0.6206
 9079SOL    HW138696   3.495   1.398  16.950 -0.2720  1.9738  0.0120
 9079SOL    HW238697   3.380   1.302  16.984  0.2071 -0.3408 -1.0998
 9080SOL     OW38698   3.307   2.956  11.973  0.1751  0.1266 -0.2831
 9080SOL    HW138699   3.253   2.969  12.051 -0.1840 -0.0924 -0.4902
 9080SOL    HW238700   3.239   2.935  11.908  0.9965  0.4570 -1.2350
 9081SOL     OW38701   3.042   1.337   3.794  0.1794 -0.3933 -0.5285
 9081SOL    HW138702   2.986   1.340   3.717  1.3907  2.0867 -1.3112
 9081SOL    HW238703   3.060   1.431   3.797  0.9315 -0.5622  0.2417
 9082SOL     OW38704   2.791   0.465   6.779  0.5403  0.6055  0.0410
 9082SOL    HW138705   2.797   0.471   6.874 -0.8155  1.5328  0.0681
 9082SOL    HW238706   2.742   0.383   6.772 -1.9758  2.1746 -0.8534
 9083SOL     OW38707   4.157   2.221   8.422 -0.3715 -0.1765  0.0450
 9083SOL    HW138708   4.133   2.313   8.432  2.5034  0.3512  1.9374
 9083SOL    HW238709   4.072   2.187   8.392 -1.0370  1.8569 -0.3890
 9084SOL     OW38710   3.224   2.029   8.354 -0.0557 -0.4252 -0.3903
 9084SOL    HW138711   3.210   1.969   8.281  0.0275 -0.1856 -0.6001
 9084SOL    HW238712   3.138   2.033   8.395 -0.6019  3.5925 -1.9631
 9085SOL     OW38713   3.240   3.789   3.589 -0.1754 -0.4390  0.6219
 9085SOL    HW138714   3.263   3.848   3.517  2.3702 -2.1374  0.0416
 9085SOL    HW238715   3.329   3.755   3.597 -1.0268 -2.9658 -0.8342
 9086SOL     OW38716   2.932   1.871   1.648 -0.2292  0.1375 -0.1472
 9086SOL    HW138717   2.850   1.854   1.601 -0.5265 -1.0762  0.8164
 9086SOL    HW238718   2.920   1.796   1.706  1.2334 -1.6575 -2.1771
 9087SOL     OW38719   0.764   1.417   0.784  0.1298 -0.0402  0.7461
 9087SOL    HW138720   0.734   1.328   0.767  1.3476 -0.7467  2.2172
 9087SOL    HW238721   0.709   1.481   0.740  2.1530  1.8016  0.8569
 9088SOL     OW38722   1.555   2.024   3.139  0.8966  0.2865  0.0421
 9088SOL    HW138723   1.549   2.092   3.205  0.4856  1.6500 -1.3969
 9088SOL    HW238724   1.648   2.005   3.135  1.1138  1.0996  1.2666
 9089SOL     OW38725   0.215   2.800   2.983 -0.1026 -0.3457  0.3001
 9089SOL    HW138726   0.179   2.743   2.915  1.4543  0.2168 -0.9908
 9089SOL    HW238727   0.304   2.811   2.951 -0.6201 -0.6470 -1.2731
 9090SOL     OW38728   1.730   2.948   7.082 -0.0954  0.1305 -0.2378
 9090SOL    HW138729   1.657   2.923   7.138 -0.3995  0.2042 -0.6068
 9090SOL    HW238730   1.692   3.029   7.048  0.9933  0.5793 -0.4120
 9091SOL     OW38731   3.190   4.630   3.191 -0.8154  0.1405 -0.2077
 9091SOL    HW138732   3.104   4.613   3.152 -0.9584  2.1823 -0.7791
 9091SOL    HW238733   3.165   4.628   3.283  0.1116  0.9155  0.0654
 9092SOL     OW38734   2.791   2.769  14.961  0.2623 -0.2044  0.2519
 9092SOL    HW138735   2.761   2.742  14.874  0.7165  1.9897 -0.5882
 9092SOL    HW238736   2.855   2.701  14.982 -0.5778 -1.3026 -0.7429
 9093SOL     OW38737   3.817   1.481  15.008 -0.5024 -0.6015  0.8805
 9093SOL    HW138738   3.780   1.502  14.922  1.2963 -0.5443  0.1142
 9093SOL    HW238739   3.901   1.444  14.980  0.2698  0.1290  2.2007
 9094SOL     OW38740   2.058   0.115   3.095 -0.1051 -0.1984 -0.2396
 9094SOL    HW138741   2.116   0.133   3.021 -0.7326 -1.5268 -1.0541
 9094SOL    HW238742   1.991   0.183   3.101  1.9552  1.8233 -0.2631
 9095SOL     OW38743   2.918   0.233   1.452  0.3834 -0.2839 -0.4577
 9095SOL    HW138744   2.890   0.151   1.411 -0.9308  0.5137 -1.1584
 9095SOL    HW238745   3.013   0.235   1.445  0.2386 -0.0965 -2.3006
 9096SOL     OW38746   3.471   1.568  10.013 -0.0751 -0.8333  0.8091
 9096SOL    HW138747   3.419   1.493   9.984  1.8667 -1.3836 -1.2875
 9096SOL    HW238748   3.408   1.640  10.003  2.0388  0.5816 -2.3439
 9097SOL     OW38749   3.610   4.719   1.511 -0.0342 -0.2929  0.0979
 9097SOL    HW138750   3.585   0.088   1.521  0.0212 -0.1114 -1.4079
 9097SOL    HW238751   3.643   4.720   1.421 -2.1211  0.4242 -0.6597
 9098SOL     OW38752   2.626   1.581   8.806 -0.0287  0.1890 -0.0251
 9098SOL    HW138753   2.707   1.533   8.790 -0.7652 -0.7876 -0.8324
 9098SOL    HW238754   2.568   1.508   8.782 -1.1667  0.4585  1.9378
 9099SOL     OW38755   2.219   1.234   4.725  0.0925 -0.0809 -0.2032
 9099SOL    HW138756   2.289   1.220   4.661 -0.9686  0.5962 -1.5236
 9099SOL    HW238757   2.268   1.228   4.806 -0.5808 -0.2432  0.1906
 9100SOL     OW38758   2.841   0.861   8.836  0.4071  0.1132  0.2836
 9100SOL    HW138759   2.881   0.784   8.877  1.5990  1.0449  0.8962
 9100SOL    HW238760   2.806   0.895   8.918  1.0875  1.0930  0.1721
 9101SOL     OW38761   1.363   2.901   5.127  0.2723 -0.0168 -0.3827
 9101SOL    HW138762   1.416   2.958   5.182  0.8656  0.9775 -1.9962
 9101SOL    HW238763   1.275   2.938   5.141 -0.2777 -1.3507 -0.2999
 9102SOL     OW38764   2.419   1.824   7.400 -0.3236 -0.2793 -0.3171
 9102SOL    HW138765   2.365   1.750   7.375 -0.0546 -0.1540 -1.2744
 9102SOL    HW238766   2.343   1.880   7.418 -0.7828 -0.7646 -0.7417
 9103SOL     OW38767   3.762   3.131   5.159  0.5003  0.0106  0.0448
 9103SOL    HW138768   3.672   3.098   5.169 -0.7437  4.0050  2.1830
 9103SOL    HW238769   3.789   3.066   5.095 -0.1554 -1.4102  1.1929
 9104SOL     OW38770   3.747   4.120   5.783 -0.1555  0.0151 -0.0055
 9104SOL    HW138771   3.751   4.212   5.809 -1.0030 -0.8333  3.2252
 9104SOL    HW238772   3.821   4.115   5.723 -1.1198 -2.8002 -0.9442
 9105SOL     OW38773   4.515   0.397  10.567 -0.1945 -0.5459 -0.4932
 9105SOL    HW138774   4.604   0.370  10.546  0.2956 -0.8094  2.0209
 9105SOL    HW238775   4.481   0.400  10.477  1.5205 -0.6560 -1.1553
 9106SOL     OW38776   2.226   0.458   8.670 -0.2603 -0.1186 -0.1431
 9106SOL    HW138777   2.170   0.434   8.596  2.1496 -0.8353 -1.7361
 9106SOL    HW238778   2.165   0.512   8.720  1.5353  0.0803  1.8272
 9107SOL     OW38779   0.407   3.945   8.067 -1.0414 -0.0339 -0.2997
 9107SOL    HW138780   0.389   3.990   8.150 -1.9634  3.1129 -2.2379
 9107SOL    HW238781   0.501   3.955   8.055 -0.6334  0.1529  3.0839
 9108SOL     OW38782   2.301   1.091  13.131  0.1596  0.2312 -0.4111
 9108SOL    HW138783   2.376   1.082  13.189  0.8609 -1.4611 -1.5660
 9108SOL    HW238784   2.281   0.998  13.126  0.8683  0.0420  0.3476
 9109SOL     OW38785   4.034   2.588   0.183 -0.1004 -0.5728 -0.1882
 9109SOL    HW138786   4.029   2.569   0.090  0.8874  1.4575 -0.6434
 9109SOL    HW238787   4.030   2.500   0.222 -0.3707 -0.2685  0.4808
 9110SOL     OW38788   2.091   0.839   6.185  0.1990 -0.5090  0.0249
 9110SOL    HW138789   2.110   0.887   6.266  0.8606 -1.2360  0.3052
 9110SOL    HW238790   2.176   0.798   6.168 -0.1980 -2.0772  1.7527
 9111SOL     OW38791   3.281   0.124   3.722  0.5659  0.1300  0.0859
 9111SOL    HW138792   3.283   0.150   3.814 -0.1975  0.3245  0.0508
 9111SOL    HW238793   3.367   0.157   3.695 -0.5219  2.7184 -0.1944
 9112SOL     OW38794   3.471   1.506  12.555  0.1422 -0.3216  0.3769
 9112SOL    HW138795   3.464   1.473  12.465  0.3345  0.3935  0.1002
 9112SOL    HW238796   3.394   1.464  12.594 -0.6043  0.4484 -0.2660
 9113SOL     OW38797   3.011   4.664   4.870 -0.4992 -0.2125  0.3811
 9113SOL    HW138798   3.041   4.645   4.781  3.2417  2.1744  1.1287
 9113SOL    HW238799   3.020   4.578   4.911 -2.1132  0.2284  1.6545
 9114SOL     OW38800   1.725   4.362  10.890 -0.9802 -0.5737 -0.3904
 9114SOL    HW138801   1.814   4.357  10.924 -1.6159  0.6016  1.4527
 9114SOL    HW238802   1.669   4.304  10.942 -0.2683 -0.9087 -0.0028
 9115SOL     OW38803   1.860   4.249   3.767 -0.3843  0.3743  0.0455
 9115SOL    HW138804   1.812   4.332   3.770 -0.9673  0.0577 -0.3704
 9115SOL    HW238805   1.948   4.268   3.800 -0.6949  1.0332  0.4820
 9116SOL     OW38806   2.775   3.351  12.156 -0.5668  0.0558  0.0565
 9116SOL    HW138807   2.824   3.271  12.135 -2.2372 -0.8290 -0.4614
 9116SOL    HW238808   2.705   3.321  12.214 -0.3539  1.3676  0.9944
 9117SOL     OW38809   2.264   2.961   5.026 -0.5528 -0.1778  0.4395
 9117SOL    HW138810   2.306   3.020   5.089 -0.5952 -1.0723  1.3026
 9117SOL    HW238811   2.318   2.982   4.950 -0.5147 -2.0169 -0.0521
 9118SOL     OW38812   1.112   4.163  10.223 -0.3426 -0.1246  0.1911
 9118SOL    HW138813   1.182   4.196  10.280 -0.4630  1.6566 -0.6951
 9118SOL    HW238814   1.078   4.086  10.269  1.9093  0.0022  2.1014
 9119SOL     OW38815   3.794   1.261   5.099  0.2845 -0.1098  0.1665
 9119SOL    HW138816   3.723   1.258   5.035  0.5820 -1.1077 -0.1172
 9119SOL    HW238817   3.789   1.351   5.132 -0.7404 -0.0745 -0.0805
 9120SOL     OW38818   0.180   0.126   2.925  0.3327 -0.4513  0.3329
 9120SOL    HW138819   0.272   0.101   2.931  0.3702 -0.5852 -0.6838
 9120SOL    HW238820   0.137   0.041   2.915  0.4075 -0.3072 -1.1865
 9121SOL     OW38821   0.623   3.378   2.017 -0.0367  0.1663 -0.9751
 9121SOL    HW138822   0.554   3.316   1.995 -0.9832  1.4392 -1.5587
 9121SOL    HW238823   0.649   3.346   2.103 -1.7989 -0.1155 -0.5536
 9122SOL     OW38824   3.246   0.546  14.571  0.2075  0.4658 -0.4618
 9122SOL    HW138825   3.243   0.504  14.485  1.3094 -0.2700 -0.1373
 9122SOL    HW238826   3.176   0.611  14.572 -0.6725 -0.5019  0.4717
 9123SOL     OW38827   2.055   3.198  11.887  0.1387 -0.0674  0.8933
 9123SOL    HW138828   2.132   3.243  11.854 -1.1900  1.6161  0.0859
 9123SOL    HW238829   2.092   3.141  11.955 -3.1716 -1.7778  1.2996
 9124SOL     OW38830   0.056   2.916  11.629  0.1401 -0.0278  0.2978
 9124SOL    HW138831   0.040   2.828  11.664 -1.9436  0.7192  1.1741
 9124SOL    HW238832   4.687   2.938  11.618  0.0336 -0.6027  0.0020
 9125SOL     OW38833   1.814   0.540  16.169  0.3470 -0.0929 -0.2641
 9125SOL    HW138834   1.779   0.456  16.199 -0.7108 -0.0161 -1.2953
 9125SOL    HW238835   1.877   0.517  16.100 -1.4686 -2.0660 -1.2532
 9126SOL     OW38836   1.775   4.662   5.390 -0.2200 -0.6798  0.4266
 9126SOL    HW138837   1.721   4.698   5.461 -0.0977 -0.0794  0.2145
 9126SOL    HW238838   1.831   4.610   5.448  1.2553  1.0647  0.5538
 9127SOL     OW38839   4.534   0.536   6.480  0.3219 -0.4426  0.3765
 9127SOL    HW138840   4.587   0.517   6.558 -0.3075 -0.1123  0.8786
 9127SOL    HW238841   4.472   0.464   6.470  0.4551 -0.8399  2.2581
 9128SOL     OW38842   4.708   0.556   0.937  0.3578  0.2791  0.2972
 9128SOL    HW138843   4.637   0.544   0.999 -0.5279 -0.8048 -0.9251
 9128SOL    HW238844   4.667   0.611   0.870 -0.9584 -1.8955 -0.6537
 9129SOL     OW38845   3.873   1.586   3.353 -0.1247 -0.0501  0.6115
 9129SOL    HW138846   3.876   1.495   3.381  2.4926 -0.5096 -1.1842
 9129SOL    HW238847   3.877   1.575   3.258 -1.9424  0.8568  0.4308
 9130SOL     OW38848   0.469   0.878  17.195 -0.2605  0.4455  0.2889
 9130SOL    HW138849   0.442   0.946  17.133 -0.8259 -0.2454 -0.2233
 9130SOL    HW238850   0.405   0.808  17.181 -1.0693  1.5508 -1.5653
 9131SOL     OW38851   3.963   1.250   8.460 -0.3264 -0.0097 -0.2574
 9131SOL    HW138852   3.907   1.288   8.528  2.4946  1.7619  1.0699
 9131SOL    HW238853   3.948   1.315   8.391 -1.7998  1.0532  1.0344
 9132SOL     OW38854   3.232   3.720   9.303  0.0019  0.7089 -0.4590
 9132SOL    HW138855   3.141   3.690   9.301  0.0680  0.3886  1.0884
 9132SOL    HW238856   3.283   3.645   9.272 -1.7315 -0.5567 -0.2480
 9133SOL     OW38857   4.098   4.145   6.496  0.2486 -0.3792  0.1414
 9133SOL    HW138858   4.162   4.078   6.469 -0.9421 -1.4522 -0.0246
 9133SOL    HW238859   4.106   4.210   6.426  1.9523 -0.0695  0.6212
 9134SOL     OW38860   2.462   2.306  15.145  0.0943  0.2280  0.5332
 9134SOL    HW138861   2.519   2.312  15.068  0.5861 -2.5035  0.6987
 9134SOL    HW238862   2.528   2.273  15.206  0.2135 -0.6719 -0.0692
 9135SOL     OW38863   2.565   4.557   3.797  0.3663 -0.0872 -0.2495
 9135SOL    HW138864   2.632   4.620   3.826  0.3054  0.2953 -0.9260
 9135SOL    HW238865   2.602   4.522   3.716  3.1644 -2.4196  2.0598
 9136SOL     OW38866   2.977   1.570  15.153  0.1732 -0.1937 -0.1854
 9136SOL    HW138867   3.053   1.535  15.200 -1.4161 -1.1677  1.6772
 9136SOL    HW238868   2.944   1.632  15.218 -0.5142 -2.0522  1.2722
 9137SOL     OW38869   2.039   3.540  10.343  0.2000  0.3567  0.2310
 9137SOL    HW138870   1.971   3.506  10.286  2.1051 -0.1683 -1.7227
 9137SOL    HW238871   2.107   3.473  10.335  0.2017 -0.1748  4.4137
 9138SOL     OW38872   1.015   3.316   8.693 -0.4445 -0.3101 -0.4148
 9138SOL    HW138873   1.098   3.331   8.647 -0.3734  0.2038 -0.1254
 9138SOL    HW238874   0.970   3.256   8.633 -0.4578 -0.4536 -0.2604
 9139SOL     OW38875   1.367   2.559   2.927  0.4637 -0.4010  0.2690
 9139SOL    HW138876   1.441   2.620   2.927  0.5415 -0.4971  0.1017
 9139SOL    HW238877   1.370   2.498   2.853 -1.9193  0.6522 -0.7104
 9140SOL     OW38878   3.518   2.435   2.875 -0.1168  0.3604  0.0080
 9140SOL    HW138879   3.538   2.384   2.797 -0.3387  0.1495  0.0899
 9140SOL    HW238880   3.587   2.408   2.935 -0.1591 -1.6332 -0.8412
 9141SOL     OW38881   2.483   1.378   8.720 -0.0988  0.1381  0.5579
 9141SOL    HW138882   2.470   1.315   8.790 -4.7270  0.3298 -0.1119
 9141SOL    HW238883   2.435   1.335   8.650  0.2871 -2.2313  1.7665
 9142SOL     OW38884   0.093   2.463   4.846 -0.0428 -0.2268  0.4217
 9142SOL    HW138885   0.070   2.371   4.838 -1.2513  0.0930  0.2821
 9142SOL    HW238886   0.052   2.495   4.766 -0.1897 -1.5597 -0.0203
 9143SOL     OW38887   0.159   0.990   5.350  0.1759 -0.2566 -0.8594
 9143SOL    HW138888   0.064   0.981   5.337  0.2200  0.7536 -1.8362
 9143SOL    HW238889   0.187   0.912   5.398  0.4245  0.2386 -0.1980
 9144SOL     OW38890   4.597   3.054  16.782  0.6107 -0.0773  0.3385
 9144SOL    HW138891   4.579   3.038  16.875  1.9396  0.0297  0.6273
 9144SOL    HW238892   4.670   3.114  16.800 -1.1128  1.6203  1.6104
 9145SOL     OW38893   1.385   0.221   4.889  0.3647  0.3394  0.2203
 9145SOL    HW138894   1.398   0.262   4.975 -0.3794  0.0141  0.4884
 9145SOL    HW238895   1.344   0.137   4.913  0.5735  0.7273  1.9681
 9146SOL     OW38896   4.175   2.049   1.122 -0.3095  0.6249  0.7144
 9146SOL    HW138897   4.251   2.020   1.172 -0.6846 -0.1925  0.8047
 9146SOL    HW238898   4.159   2.140   1.145  1.5864  1.0499  0.3857
 9147SOL     OW38899   3.066   2.597   4.316 -0.4270  0.0772 -0.3278
 9147SOL    HW138900   3.146   2.547   4.298 -0.5180 -0.7202  1.5379
 9147SOL    HW238901   3.055   2.639   4.230 -1.3207 -2.2601 -1.3509
 9148SOL     OW38902   3.843   0.953   7.183  0.0911 -0.1927  0.0499
 9148SOL    HW138903   3.838   0.913   7.096  0.1726 -0.0079 -0.0387
 9148SOL    HW238904   3.748   0.967   7.188  0.3980  1.7205  0.2971
 9149SOL     OW38905   2.973   2.054   5.377 -0.2157 -0.2110 -0.3467
 9149SOL    HW138906   2.963   1.964   5.345  1.5247  0.1009 -1.7778
 9149SOL    HW238907   3.065   2.073   5.357  0.2272 -1.4977  0.4560
 9150SOL     OW38908   3.027   0.859   9.161 -0.8329  0.6801 -0.0994
 9150SOL    HW138909   2.973   0.779   9.164  2.6969 -1.5671  3.2604
 9150SOL    HW238910   2.965   0.930   9.175  0.3961  1.4430  1.4525
 9151SOL     OW38911   1.817   0.280  16.566 -0.0770  0.0859  0.5613
 9151SOL    HW138912   1.902   0.261  16.606  0.3119  0.0498 -0.2797
 9151SOL    HW238913   1.765   0.292  16.646  1.2385  0.2187  1.4054
 9152SOL     OW38914   0.800   0.636  12.712  0.7094  0.1594 -0.3395
 9152SOL    HW138915   0.847   0.717  12.729  1.8602 -0.7746  0.8746
 9152SOL    HW238916   0.774   0.609  12.800  2.1780  1.6407  0.5380
 9153SOL     OW38917   0.710   0.256   8.504  0.7017 -0.4476 -0.4803
 9153SOL    HW138918   0.656   0.217   8.573  1.9559 -1.5945 -0.1313
 9153SOL    HW238919   0.648   0.245   8.432 -1.4613  2.1565  0.9942
 9154SOL     OW38920   4.270   1.746   4.098 -0.3878  0.2356  0.2572
 9154SOL    HW138921   4.185   1.791   4.098  0.2451  1.3919 -2.4535
 9154SOL    HW238922   4.324   1.766   4.174  1.7073  0.7354 -1.3634
 9155SOL     OW38923   0.470   1.032  16.569 -0.5959  0.4482 -0.4028
 9155SOL    HW138924   0.522   1.111  16.583 -0.8951  0.4613  0.6602
 9155SOL    HW238925   0.537   0.966  16.553 -0.7966  0.8584 -2.8429
 9156SOL     OW38926   0.547   1.596   1.498  0.3449  0.0980  0.1507
 9156SOL    HW138927   0.534   1.677   1.547 -3.8749 -0.6344  0.1847
 9156SOL    HW238928   0.575   1.632   1.414 -2.2721  2.3427  0.2665
 9157SOL     OW38929   0.380   1.233   6.382 -0.1146  0.1689  0.2644
 9157SOL    HW138930   0.462   1.195   6.416 -2.1862 -4.1150  0.4964
 9157SOL    HW238931   0.385   1.218   6.288 -0.1781 -1.9841  0.6006
 9158SOL     OW38932   2.691   3.030   6.419 -0.3176 -0.2085  0.1724
 9158SOL    HW138933   2.784   3.022   6.438 -0.7114 -1.1621  1.7112
 9158SOL    HW238934   2.647   3.047   6.502  0.5436  2.2330  0.1425
 9159SOL     OW38935   3.671   0.378   1.001 -0.0243 -0.0597 -0.4016
 9159SOL    HW138936   3.587   0.420   1.022 -0.4066 -0.2670 -1.5056
 9159SOL    HW238937   3.729   0.453   1.007 -0.0645 -0.1994  1.5563
 9160SOL     OW38938   1.314   1.333   1.498  0.5514 -0.1717  0.1575
 9160SOL    HW138939   1.281   1.346   1.587 -0.6800 -1.1435 -0.1589
 9160SOL    HW238940   1.231   1.325   1.452 -0.4325  0.6747  1.7734
 9161SOL     OW38941   4.183   1.643   6.462 -0.2624 -0.0218  0.8766
 9161SOL    HW138942   4.097   1.620   6.496 -0.0409  0.7599  1.9715
 9161SOL    HW238943   4.184   1.615   6.370  0.6713  1.5946  0.3833
 9162SOL     OW38944   2.291   3.395  16.030 -0.2297  0.0980 -0.3047
 9162SOL    HW138945   2.353   3.457  16.067  0.3169 -0.4260 -0.3446
 9162SOL    HW238946   2.205   3.427  16.058  1.4427  3.7243  0.6105
 9163SOL     OW38947   0.143   2.148   6.489 -0.2959  0.2649 -0.0808
 9163SOL    HW138948   0.109   2.155   6.400 -1.6581  0.1210  0.4321
 9163SOL    HW238949   0.152   2.053   6.496  2.8601  0.4704 -1.1649
 9164SOL     OW38950   2.341   2.338   8.396  0.0935  0.1891  0.2960
 9164SOL    HW138951   2.326   2.366   8.486  0.3690 -0.8214  0.6549
 9164SOL    HW238952   2.247   2.342   8.377 -0.2038  0.9160  1.9220
 9165SOL     OW38953   3.515   0.409   6.285  0.0059  0.8590 -0.1232
 9165SOL    HW138954   3.525   0.408   6.190  1.6481  0.2010  0.0530
 9165SOL    HW238955   3.422   0.391   6.291  0.2101 -1.0132 -2.8304
 9166SOL     OW38956   2.580   3.337   8.497 -0.2402 -0.4087 -0.2546
 9166SOL    HW138957   2.649   3.348   8.563  0.8385  3.2856 -2.0063
 9166SOL    HW238958   2.628   3.352   8.415 -1.5097  0.7841 -0.7666
 9167SOL     OW38959   3.629   2.938   4.687  0.5454  0.4352  0.2497
 9167SOL    HW138960   3.610   2.933   4.593 -1.0690 -2.0019  0.6900
 9167SOL    HW238961   3.717   2.974   4.679  0.8911 -0.2631  0.9354
 9168SOL     OW38962   4.638   0.708  17.308 -0.5974  0.1492 -0.1076
 9168SOL    HW138963   4.680   0.773  17.252 -0.2978 -0.9190 -1.1348
 9168SOL    HW238964   4.548   0.699  17.279 -1.1395  1.4256  1.2126
 9169SOL     OW38965   1.412   0.486   4.474  0.1374 -0.4475  0.2483
 9169SOL    HW138966   1.442   0.403   4.509 -2.0105 -1.8750 -1.2515
 9169SOL    HW238967   1.477   0.547   4.508  1.4445 -1.6847 -0.0568
 9170SOL     OW38968   0.309   2.206   8.056 -0.0268 -0.6751  0.5445
 9170SOL    HW138969   0.353   2.289   8.038  0.5077 -1.4566 -1.6848
 9170SOL    HW238970   0.326   2.200   8.150 -0.0898 -2.1108  0.4624
 9171SOL     OW38971   4.190   0.645  17.598  0.1535  0.1299  0.3370
 9171SOL    HW138972   4.280   0.665  17.623  0.1507 -1.3956  1.5400
 9171SOL    HW238973   4.183   0.550  17.605 -3.6605  0.3735 -0.2098
 9172SOL     OW38974   3.400   3.408   3.016 -0.0583  0.4102  0.0280
 9172SOL    HW138975   3.462   3.450   2.957  0.3820 -0.0165  0.1868
 9172SOL    HW238976   3.450   3.328   3.032  0.1726  0.5398 -0.0516
 9173SOL     OW38977   0.271   1.162   1.151 -0.5790 -0.0631  0.0140
 9173SOL    HW138978   0.250   1.098   1.219  2.4888 -0.8946  0.2012
 9173SOL    HW238979   0.182   1.197   1.147 -1.3510 -2.3913 -2.6974
 9174SOL     OW38980   0.822   0.830  14.365 -0.0040  0.1902 -0.1605
 9174SOL    HW138981   0.862   0.887  14.300 -1.9135  1.5524 -0.1560
 9174SOL    HW238982   0.737   0.806  14.327  0.9064 -2.5477 -0.4539
 9175SOL     OW38983   0.812   0.182   1.432 -0.1360 -0.2218  0.7465
 9175SOL    HW138984   0.842   0.127   1.504  1.9626 -0.7877 -0.5725
 9175SOL    HW238985   0.849   0.268   1.452 -0.1789  0.2295 -1.0729
 9176SOL     OW38986   0.244   0.616   8.644 -0.1157 -0.2517 -0.6033
 9176SOL    HW138987   0.207   0.676   8.579  1.7918  1.9669  0.3496
 9176SOL    HW238988   0.171   0.615   8.707  0.4767  1.0684  0.1230
 9177SOL     OW38989   1.534   0.109   7.627  0.8247 -0.1995 -0.1165
 9177SOL    HW138990   1.565   0.019   7.618  0.4510 -0.2052 -1.3673
 9177SOL    HW238991   1.474   0.111   7.701 -1.0953 -0.9770 -1.6587
 9178SOL     OW38992   2.914   1.238   4.329  0.1806 -0.0218 -0.1399
 9178SOL    HW138993   2.892   1.263   4.239 -3.1784 -1.0441  0.4291
 9178SOL    HW238994   2.982   1.302   4.350  1.1240 -2.1185  3.2316
 9179SOL     OW38995   1.606   2.459  16.660 -0.0694 -0.0343 -0.5357
 9179SOL    HW138996   1.518   2.441  16.628  1.1717 -0.5660 -3.6555
 9179SOL    HW238997   1.648   2.432  16.579 -1.1321 -0.9074 -0.7898
 9180SOL     OW38998   0.117   0.998   4.269 -0.3511 -0.3226  0.1423
 9180SOL    HW138999   0.177   1.066   4.239 -0.8580  0.3827  0.7249
 9180SOL    HW239000   0.103   0.939   4.195  0.0918 -2.0363  1.4328
 9181SOL     OW39001   4.099   0.785   4.973  0.6268 -0.2837 -0.8660
 9181SOL    HW139002   4.018   0.735   4.971  0.9205 -0.7506 -1.3019
 9181SOL    HW239003   4.088   0.846   5.046  1.9343 -1.3631  0.2352
 9182SOL     OW39004   0.955   2.269   6.058  0.2167  0.3685  0.2672
 9182SOL    HW139005   0.988   2.335   5.997  0.4473  0.5323  0.5665
 9182SOL    HW239006   0.942   2.190   6.006 -0.9136  1.6418 -1.3959
 9183SOL     OW39007   4.055   3.952   2.902  0.6008 -0.6066  0.5106
 9183SOL    HW139008   4.148   3.968   2.885 -0.3173  3.0186 -1.2406
 9183SOL    HW239009   4.030   4.045   2.911 -1.8730 -1.1409 -0.8316
 9184SOL     OW39010   4.633   2.214  16.290  0.0119  0.2080  0.1082
 9184SOL    HW139011   4.694   2.211  16.216 -0.5149 -0.6633 -0.2910
 9184SOL    HW239012   4.668   2.147  16.350 -0.3304  0.1578  0.2495
 9185SOL     OW39013   4.341   3.356   2.832  0.5223 -0.1220  0.3937
 9185SOL    HW139014   4.284   3.419   2.788  1.8208  0.0227 -1.0756
 9185SOL    HW239015   4.406   3.419   2.863 -1.1700  1.5644  0.5568
 9186SOL     OW39016   4.260   4.652  13.394  0.0136  0.1822  0.0116
 9186SOL    HW139017   4.307   4.569  13.405  0.2130  0.2118 -0.5876
 9186SOL    HW239018   4.282   4.658  13.301 -0.1388  1.2009  0.0434
 9187SOL     OW39019   3.421   2.458   1.643  0.4274  0.1055  0.2008
 9187SOL    HW139020   3.394   2.459   1.551 -2.2955  0.2202  1.0036
 9187SOL    HW239021   3.402   2.546   1.675  0.1602 -0.6356  2.0389
 9188SOL     OW39022   4.657   1.168  14.863  0.2938  0.1077 -0.3347
 9188SOL    HW139023   4.714   1.137  14.933 -0.1357  0.3586  0.1276
 9188SOL    HW239024   4.716   1.188  14.791 -0.8507  0.6832 -1.1226
 9189SOL     OW39025   1.627   0.960   7.059 -0.5776 -0.2545 -0.3818
 9189SOL    HW139026   1.558   1.025   7.060 -0.4506 -0.1095 -0.8041
 9189SOL    HW239027   1.686   1.006   7.000  0.9788 -2.2376 -0.3991
 9190SOL     OW39028   0.162   4.309   6.165 -0.4285  0.7322  0.3799
 9190SOL    HW139029   0.188   4.303   6.257  0.0685  1.0851  0.2635
 9190SOL    HW239030   0.160   4.214   6.153  2.8112  0.9231 -1.6045
 9191SOL     OW39031   3.000   0.751  15.871  0.1024  0.3442 -0.7460
 9191SOL    HW139032   2.915   0.718  15.840  1.0958 -1.3822 -1.6270
 9191SOL    HW239033   3.015   0.827  15.815 -0.4805 -0.9754 -2.6705
 9192SOL     OW39034   0.463   1.147  10.140 -0.5916  0.0840 -0.0927
 9192SOL    HW139035   0.539   1.143  10.082  0.7892 -1.8245  1.8522
 9192SOL    HW239036   0.482   1.231  10.183 -2.0832 -0.6688  2.0536
 9193SOL     OW39037   1.859   2.184   2.922 -0.2392 -0.7804  0.0169
 9193SOL    HW139038   1.795   2.161   2.855  0.4389  1.1976 -1.3148
 9193SOL    HW239039   1.913   2.246   2.873  2.4780  0.0525  4.0143
 9194SOL     OW39040   3.071   0.557   4.713  0.3463  0.1784 -0.5873
 9194SOL    HW139041   3.091   0.651   4.712 -3.1897  0.9813  1.8093
 9194SOL    HW239042   2.976   0.553   4.725  0.0589  0.0506 -3.0456
 9195SOL     OW39043   2.249   1.427   3.527  0.8088  0.5790  0.3045
 9195SOL    HW139044   2.281   1.408   3.616 -0.8801 -0.7937  0.6170
 9195SOL    HW239045   2.160   1.391   3.527  2.1523 -2.7083 -1.3741
 9196SOL     OW39046   2.243   2.319   7.114 -0.3344  0.5209  0.0068
 9196SOL    HW139047   2.223   2.258   7.185  0.4304 -0.5764 -0.7166
 9196SOL    HW239048   2.205   2.285   7.033 -0.3964 -1.3590  0.8426
 9197SOL     OW39049   0.826   3.389   8.889 -0.0810 -0.2045 -0.3577
 9197SOL    HW139050   0.913   3.389   8.848 -0.3496 -1.3147 -0.9347
 9197SOL    HW239051   0.827   3.477   8.926 -0.9685 -0.2292 -0.2950
 9198SOL     OW39052   3.864   3.834   5.538  0.8373  0.7647  0.3934
 9198SOL    HW139053   3.934   3.814   5.476  0.0210  0.5101 -0.4380
 9198SOL    HW239054   3.819   3.750   5.546  0.8113  0.6722 -0.7310
 9199SOL     OW39055   0.658   1.404  12.189 -0.1432 -0.1534 -0.1836
 9199SOL    HW139056   0.688   1.315  12.207 -0.7328  0.4294  3.7413
 9199SOL    HW239057   0.570   1.388  12.155 -0.2223 -0.5448  0.1958
 9200SOL     OW39058   2.093   0.103   5.728 -0.4267 -0.2751  0.2151
 9200SOL    HW139059   2.030   0.088   5.799 -2.1592  2.2495 -0.8012
 9200SOL    HW239060   2.166   0.045   5.751  0.7203  2.1902  2.7478
 9201SOL     OW39061   0.908   2.178   1.820  0.0253 -0.1795  0.3404
 9201SOL    HW139062   0.856   2.256   1.843 -1.4868 -0.6481 -1.5090
 9201SOL    HW239063   0.974   2.175   1.890 -0.4390  2.9462  0.9525
 9202SOL     OW39064   4.576   2.576   8.150  0.3192  0.1530  0.5292
 9202SOL    HW139065   4.594   2.595   8.058  1.7063 -1.2898  0.5060
 9202SOL    HW239066   4.630   2.500   8.169 -0.5944 -1.0721 -1.8242
 9203SOL     OW39067   3.072   3.896   0.176  0.0170  0.0420  0.4607
 9203SOL    HW139068   3.164   3.922   0.163 -0.0901 -0.3731 -1.0163
 9203SOL    HW239069   3.044   3.857   0.094  0.7356 -0.3743  0.4090
 9204SOL     OW39070   2.230   3.797  13.608 -0.3509 -0.2876 -0.4468
 9204SOL    HW139071   2.277   3.843  13.677 -1.2244  1.4977 -1.0362
 9204SOL    HW239072   2.289   3.828  13.539 -0.5667 -0.0940 -0.5424
 9205SOL     OW39073   2.016   2.770  14.950  0.2513  0.3648  0.5664
 9205SOL    HW139074   1.924   2.767  14.976  0.2161  0.0328  0.4004
 9205SOL    HW239075   2.037   2.683  14.916 -1.0188  0.0380  0.6225
 9206SOL     OW39076   4.421   3.044  16.273  0.0242  0.5062 -0.3841
 9206SOL    HW139077   4.426   3.123  16.220  4.5580  0.5268  0.0890
 9206SOL    HW239078   4.445   3.066  16.363 -1.5441  1.3316 -0.1561
 9207SOL     OW39079   2.038   2.424   2.343  0.0213  0.7129  0.1893
 9207SOL    HW139080   1.969   2.384   2.291 -1.6356  2.0691  1.3388
 9207SOL    HW239081   1.993   2.505   2.368  0.4672  1.4510 -1.3582
 9208SOL     OW39082   3.013   4.285  16.304  0.6982  0.4446  0.3271
 9208SOL    HW139083   3.069   4.217  16.268 -3.6062 -2.0759 -1.6256
 9208SOL    HW239084   2.964   4.237  16.371 -1.6993  1.3575 -0.7660
 9209SOL     OW39085   0.295   2.464   9.494  0.0119 -0.5280 -0.5944
 9209SOL    HW139086   0.355   2.486   9.565  0.2963  1.1339 -1.3346
 9209SOL    HW239087   0.216   2.472   9.547 -0.7637 -0.4802 -1.7639
 9210SOL     OW39088   0.047   2.251   5.140 -0.0836  0.3225 -0.5261
 9210SOL    HW139089   0.135   2.287   5.136 -0.2087  0.6877 -0.0507
 9210SOL    HW239090   0.071   2.165   5.173  1.3219  1.4774  1.4874
 9211SOL     OW39091   1.304   3.206  13.511  0.6428  0.5493 -0.1693
 9211SOL    HW139092   1.292   3.229  13.419 -1.4042 -1.6257 -0.4355
 9211SOL    HW239093   1.354   3.281  13.544  3.6034 -0.7028 -1.9033
 9212SOL     OW39094   3.736   1.395   8.079 -0.0053 -0.0007  0.1239
 9212SOL    HW139095   3.729   1.488   8.101 -0.0380 -0.4401  1.9844
 9212SOL    HW239096   3.656   1.352   8.108  0.8689 -1.7116 -0.0303
 9213SOL     OW39097   3.175   3.550   3.739 -0.2824 -0.8792  0.1158
 9213SOL    HW139098   3.239   3.534   3.809 -0.8546  0.5831  0.9774
 9213SOL    HW239099   3.182   3.642   3.712 -2.9024 -0.8028 -0.2533
 9214SOL     OW39100   1.237   3.436   2.831  0.2497 -0.7199  0.0744
 9214SOL    HW139101   1.295   3.486   2.774  1.8074 -1.2330  1.1875
 9214SOL    HW239102   1.170   3.503   2.847  0.7407 -0.0820 -0.5171
 9215SOL     OW39103   1.852   2.945   5.116 -0.0895 -0.3750  0.1254
 9215SOL    HW139104   1.825   2.971   5.028 -1.1699 -1.1352  0.2397
 9215SOL    HW239105   1.807   2.864   5.139 -0.5712 -0.8431 -2.5363
 9216SOL     OW39106   4.537   2.488  12.372  0.1565 -0.2068 -0.0604
 9216SOL    HW139107   4.498   2.460  12.290 -0.4137  0.4831 -0.0340
 9216SOL    HW239108   4.618   2.438  12.365 -0.4915 -1.4734  1.3167
 9217SOL     OW39109   1.785   0.100   5.645  0.5754 -0.1059 -0.4967
 9217SOL    HW139110   1.775   0.190   5.615  0.1268 -0.1114 -0.3666
 9217SOL    HW239111   1.870   0.105   5.687  0.4632  0.8875 -0.3939
 9218SOL     OW39112   2.556   0.877   4.430  0.7382 -0.3235 -0.9828
 9218SOL    HW139113   2.541   0.970   4.410  0.6937 -0.4265 -1.4196
 9218SOL    HW239114   2.651   0.867   4.441 -0.1075 -3.6698  3.5193
 9219SOL     OW39115   4.628   3.622   2.039 -0.1377  0.1377 -0.6590
 9219SOL    HW139116   4.674   3.623   2.123 -1.7266  3.3155  0.1559
 9219SOL    HW239117   4.611   3.528   2.045  1.4154 -0.1144  0.0135
 9220SOL     OW39118   4.611   3.219   3.692 -0.0788  0.0509  0.4412
 9220SOL    HW139119   4.630   3.132   3.726 -0.4586 -0.3536 -0.3958
 9220SOL    HW239120   4.573   3.258   3.770 -2.3974  0.0650 -0.6940
 9221SOL     OW39121   2.215   3.439   6.604 -0.2050  0.2834 -0.1724
 9221SOL    HW139122   2.139   3.425   6.660 -1.0382 -0.8345 -1.6004
 9221SOL    HW239123   2.171   3.483   6.532 -0.7715  0.9853  0.5986
 9222SOL     OW39124   3.707   2.729   7.480 -0.0900 -0.2558 -0.6186
 9222SOL    HW139125   3.697   2.634   7.482 -1.6853 -0.0754  0.2452
 9222SOL    HW239126   3.676   2.744   7.390  1.0738 -2.2135 -1.3364
 9223SOL     OW39127   1.450   3.261   5.742  0.1452  0.2465  0.2437
 9223SOL    HW139128   1.439   3.323   5.814 -1.8982 -0.5634  0.6413
 9223SOL    HW239129   1.373   3.204   5.747  0.8738 -0.7641 -0.2666
 9224SOL     OW39130   4.011   1.906   5.008 -0.0788 -0.0157 -0.2714
 9224SOL    HW139131   4.023   1.823   5.055 -1.2646  1.2451  2.2679
 9224SOL    HW239132   4.030   1.969   5.078 -0.0711 -1.9642  1.4968
 9225SOL     OW39133   4.084   0.008   7.544  0.0468  0.1873 -0.0856
 9225SOL    HW139134   4.084   0.103   7.533 -0.3519  0.4386  2.0710
 9225SOL    HW239135   4.029   4.701   7.472  1.4742  0.5308 -1.3281
 9226SOL     OW39136   0.271   0.229   6.963  0.3541  0.5149  0.1271
 9226SOL    HW139137   0.255   0.138   6.990  1.1327 -0.1678 -1.6365
 9226SOL    HW239138   0.237   0.219   6.874  1.8757 -1.1866 -0.2867
 9227SOL     OW39139   0.454   4.522   2.275  0.2546 -0.1645 -0.4512
 9227SOL    HW139140   0.546   4.523   2.250 -0.0025  1.2989 -1.3699
 9227SOL    HW239141   0.430   4.435   2.242 -1.2877 -0.4809  1.4939
 9228SOL     OW39142   3.674   0.845  17.217  0.0827  0.4730 -0.2495
 9228SOL    HW139143   3.631   0.930  17.220 -0.5580  0.1887 -1.3571
 9228SOL    HW239144   3.759   0.868  17.180  0.7988 -1.9068 -0.1185
 9229SOL     OW39145   2.678   3.736   2.194  0.5353 -0.0281 -0.2551
 9229SOL    HW139146   2.634   3.676   2.133  0.8597  0.8813 -1.3771
 9229SOL    HW239147   2.641   3.701   2.275 -1.1536  1.8887 -0.2234
 9230SOL     OW39148   0.013   2.505  12.750 -0.2285 -0.5029 -0.0329
 9230SOL    HW139149   0.009   2.578  12.689  2.5584 -0.7840 -0.5468
 9230SOL    HW239150   0.106   2.504  12.774  0.1131  1.6137 -1.2367
 9231SOL     OW39151   3.824   3.764   2.264 -0.1549 -0.4601 -0.0248
 9231SOL    HW139152   3.787   3.806   2.187 -0.4988 -1.1458 -0.2322
 9231SOL    HW239153   3.757   3.699   2.282 -0.6549  0.0949  0.1358
 9232SOL     OW39154   3.510   1.845  14.732  0.0135 -0.0591  0.2304
 9232SOL    HW139155   3.472   1.914  14.678  0.2998  0.3803  0.5903
 9232SOL    HW239156   3.439   1.788  14.760  1.3361 -1.4866  0.6719
 9233SOL     OW39157   0.164   1.951   4.877  0.3952 -0.2157  0.9129
 9233SOL    HW139158   0.214   1.870   4.883  1.5536  0.4657  0.4384
 9233SOL    HW239159   0.211   1.977   4.798  1.4150  0.6392  1.8032
 9234SOL     OW39160   2.564   0.813  14.332 -0.0575  0.0578 -0.2029
 9234SOL    HW139161   2.478   0.785  14.364  0.0903  1.9030  1.8138
 9234SOL    HW239162   2.547   0.834  14.241  1.3897  0.5130 -0.3599
 9235SOL     OW39163   1.930   2.651   5.520 -0.1326 -0.1488  0.6088
 9235SOL    HW139164   1.951   2.745   5.525  0.5873 -0.2384 -0.6475
 9235SOL    HW239165   1.944   2.636   5.426 -0.2536 -1.3630  0.7863
 9236SOL     OW39166   3.561   3.468  11.625 -0.2861  0.1668  0.4413
 9236SOL    HW139167   3.542   3.521  11.548  2.0647  0.9454  0.3863
 9236SOL    HW239168   3.526   3.521  11.697  1.6925  1.4329  0.4820
 9237SOL     OW39169   4.276   4.375   3.772 -0.1916 -0.0815  0.2776
 9237SOL    HW139170   4.285   4.468   3.750 -0.0383 -0.7054 -2.2963
 9237SOL    HW239171   4.188   4.368   3.735  0.8392  0.2943 -2.2887
 9238SOL     OW39172   2.039   1.923   8.431 -0.3532  0.5347 -0.1075
 9238SOL    HW139173   2.050   1.979   8.354 -0.3453 -2.1035 -2.0151
 9238SOL    HW239174   2.069   1.980   8.501 -2.3153 -1.2331  2.1562
 9239SOL     OW39175   3.164   1.359   9.576 -0.0082  0.2388  0.0978
 9239SOL    HW139176   3.085   1.305   9.582  0.5456 -0.4818  0.7563
 9239SOL    HW239177   3.234   1.303   9.545  2.1228  2.3610  1.1142
 9240SOL     OW39178   1.346   4.166   2.202  0.4924  0.3610 -0.4812
 9240SOL    HW139179   1.387   4.155   2.288  1.0222  2.2220 -0.4825
 9240SOL    HW239180   1.401   4.100   2.161  0.5538 -0.1849  0.4713
 9241SOL     OW39181   2.954   3.767   0.441 -0.4732 -0.3658  0.5490
 9241SOL    HW139182   2.953   3.820   0.361 -0.4443 -0.0195  0.7755
 9241SOL    HW239183   3.042   3.789   0.472 -0.5616  1.0052 -0.1569
 9242SOL     OW39184   0.045   3.552   6.027 -0.9767 -0.1555 -0.0082
 9242SOL    HW139185   4.721   3.578   5.948  0.0863 -0.5071 -0.7478
 9242SOL    HW239186   4.723   3.473   6.056 -0.6810 -0.5116 -0.5247
 9243SOL     OW39187   0.608   0.896  14.119 -0.3671 -0.3983  0.2440
 9243SOL    HW139188   0.612   0.801  14.117 -0.2352 -0.3758 -1.2724
 9243SOL    HW239189   0.561   0.906  14.201 -1.9704  0.2284 -0.7520
 9244SOL     OW39190   3.083   4.407   5.540 -0.8938  0.3698  0.4856
 9244SOL    HW139191   3.081   4.431   5.633 -0.0465  1.0024  0.3403
 9244SOL    HW239192   3.172   4.420   5.507 -1.9306  1.5443 -1.7629
 9245SOL     OW39193   1.850   1.168   8.963  0.7296 -0.2770 -0.3952
 9245SOL    HW139194   1.812   1.237   9.017  0.7918  0.0050 -0.7126
 9245SOL    HW239195   1.785   1.098   8.966  0.9276 -0.2726  3.8061
 9246SOL     OW39196   2.614   2.540  13.426 -0.6563  0.0359 -0.5893
 9246SOL    HW139197   2.581   2.575  13.343 -1.5294 -0.2455 -0.3683
 9246SOL    HW239198   2.690   2.595  13.443 -0.2782 -0.6297 -0.0968
 9247SOL     OW39199   2.786   1.810   7.981 -0.2979 -0.0292  0.4484
 9247SOL    HW139200   2.855   1.745   7.977  0.5695  0.9039  0.2977
 9247SOL    HW239201   2.725   1.772   7.918  1.3968 -4.1947  1.3020
 9248SOL     OW39202   1.711   0.654   7.676  0.5313 -0.3913  0.0926
 9248SOL    HW139203   1.658   0.650   7.596  0.7207  0.7187 -0.1002
 9248SOL    HW239204   1.680   0.733   7.721 -2.0079 -0.3034 -1.7646
 9249SOL     OW39205   4.266   1.665   3.331 -0.5115  0.5156  0.0092
 9249SOL    HW139206   4.302   1.754   3.336 -1.0178  0.7897 -1.4290
 9249SOL    HW239207   4.340   1.605   3.322 -0.0958  1.5346 -3.2661
 9250SOL     OW39208   2.069   1.786   9.413 -0.2153 -0.1317 -0.3509
 9250SOL    HW139209   2.039   1.851   9.477 -1.4334 -1.9135  0.8725
 9250SOL    HW239210   2.163   1.776   9.429 -0.6003 -0.5303  1.5903
 9251SOL     OW39211   3.580   3.713   5.819  0.5934  0.4225  0.5134
 9251SOL    HW139212   3.497   3.728   5.773  0.3677 -0.4707  0.6353
 9251SOL    HW239213   3.632   3.700   5.739 -0.1530 -0.8521  0.2320
 9252SOL     OW39214   1.865   1.403   1.907 -0.5081 -0.7762  1.0684
 9252SOL    HW139215   1.935   1.339   1.899  0.0612 -0.2982  2.1673
 9252SOL    HW239216   1.801   1.385   1.838  1.4971 -0.9077 -0.7523
 9253SOL     OW39217   4.161   0.667  16.239 -0.2857 -0.0748 -0.6357
 9253SOL    HW139218   4.102   0.712  16.180  2.2185  2.8131 -0.9237
 9253SOL    HW239219   4.250   0.677  16.207  0.1255  0.8424  0.7711
 9254SOL     OW39220   2.545   1.401   2.145  0.6679 -0.3660 -0.0832
 9254SOL    HW139221   2.582   1.427   2.230  0.2537  1.7803 -0.5508
 9254SOL    HW239222   2.531   1.484   2.099  0.7121 -0.5290 -0.3883
 9255SOL     OW39223   1.748   3.685   4.034  0.0970 -0.2522  0.8223
 9255SOL    HW139224   1.834   3.721   4.010 -0.5139  0.6541 -0.0216
 9255SOL    HW239225   1.722   3.720   4.119 -0.6981 -0.6196  0.7265
 9256SOL     OW39226   4.000   0.999   2.488 -0.5289  0.1114 -0.1336
 9256SOL    HW139227   4.088   1.034   2.506  0.6953 -2.4812 -1.0559
 9256SOL    HW239228   4.010   0.992   2.393 -2.2953  2.5586 -0.5007
 9257SOL     OW39229   0.110   4.440   5.378 -0.2268 -0.0276  0.3246
 9257SOL    HW139230   0.081   4.396   5.458  0.6354 -0.4848  0.3926
 9257SOL    HW239231   0.089   4.383   5.305  0.3952  0.6957 -0.4153
 9258SOL     OW39232   0.509   1.716   7.113  0.2103 -0.2422 -0.0915
 9258SOL    HW139233   0.449   1.704   7.040  1.0771 -0.7256 -0.7243
 9258SOL    HW239234   0.490   1.807   7.137  2.5607  0.0014  0.7750
 9259SOL     OW39235   2.373   0.365   1.331 -0.0949  0.1027  0.5143
 9259SOL    HW139236   2.309   0.353   1.260 -0.2868 -1.2728  0.9129
 9259SOL    HW239237   2.394   0.274   1.352  0.4816  0.1396  0.1247
 9260SOL     OW39238   2.779   3.690   2.695  0.0308 -0.4132 -1.1981
 9260SOL    HW139239   2.690   3.723   2.707  1.1244  1.8294  0.4751
 9260SOL    HW239240   2.795   3.708   2.602 -0.2858 -3.5014 -1.8500
 9261SOL     OW39241   3.637   1.613   6.669 -0.0875 -0.4613  0.4076
 9261SOL    HW139242   3.584   1.692   6.673  0.9604  0.2003  1.3285
 9261SOL    HW239243   3.596   1.548   6.727  0.3864  0.2940  1.5927
 9262SOL     OW39244   1.931   2.837  14.363 -0.0687  0.7856  0.8852
 9262SOL    HW139245   1.901   2.848  14.273  1.6736  0.3632  0.2520
 9262SOL    HW239246   1.862   2.881  14.413  0.7710  2.2741  0.7323
 9263SOL     OW39247   1.267   3.668  16.094 -0.0518 -0.1873  0.4879
 9263SOL    HW139248   1.334   3.728  16.125  2.4257 -0.9940 -3.2605
 9263SOL    HW239249   1.297   3.645  16.006  0.1650 -0.4417  0.6314
 9264SOL     OW39250   0.620   0.173   3.412 -0.1129  0.3885  0.8423
 9264SOL    HW139251   0.716   0.163   3.413 -0.1516 -0.1501 -0.1248
 9264SOL    HW239252   0.589   0.085   3.392 -1.5710  0.9649  0.5756
 9265SOL     OW39253   1.093   3.564   2.458 -0.3857  0.4610  0.1334
 9265SOL    HW139254   1.035   3.497   2.421 -1.4433  1.3876  0.1144
 9265SOL    HW239255   1.034   3.618   2.511  0.3997  2.2037 -0.7877
 9266SOL     OW39256   0.980   3.954  10.327 -0.5530 -0.1189  0.2220
 9266SOL    HW139257   1.052   3.893  10.312 -0.4713  0.4531 -1.7033
 9266SOL    HW239258   0.942   3.911  10.404  0.0578  2.5954  2.0468
 9267SOL     OW39259   1.410   0.667  17.455 -0.8025 -0.2471  0.0663
 9267SOL    HW139260   1.474   0.608  17.413  0.7410  1.3696  0.1663
 9267SOL    HW239261   1.403   0.732  17.385  0.4843 -0.6701 -0.4677
 9268SOL     OW39262   0.172   4.085   7.317 -0.1933 -0.0274  0.0519
 9268SOL    HW139263   0.087   4.059   7.282 -0.0150  1.2763 -1.3704
 9268SOL    HW239264   0.172   4.180   7.301  1.8819  0.2416  1.7132
 9269SOL     OW39265   3.761   1.416   0.250 -0.2381 -0.1088  0.3804
 9269SOL    HW139266   3.808   1.446   0.328 -1.8503  2.3049  0.3994
 9269SOL    HW239267   3.687   1.371   0.292 -0.4212 -1.2275 -1.1490
 9270SOL     OW39268   1.507   0.472  10.791  0.1237 -0.0964 -0.2552
 9270SOL    HW139269   1.468   0.546  10.744 -0.3062 -1.0265 -1.3697
 9270SOL    HW239270   1.445   0.400  10.775  1.1183 -1.1647  0.6434
 9271SOL     OW39271   0.337   2.407  15.993  0.0437  0.2775 -0.1205
 9271SOL    HW139272   0.347   2.315  16.019  0.8723 -0.2720 -2.3990
 9271SOL    HW239273   0.410   2.412  15.931 -0.3012  0.8125 -0.4777
 9272SOL     OW39274   1.850   0.599   0.384 -0.3071  0.5909  0.1370
 9272SOL    HW139275   1.858   0.609   0.289 -1.6557  0.3521  0.0046
 9272SOL    HW239276   1.907   0.524   0.398  1.5874  2.0545  0.3748
 9273SOL     OW39277   1.268   3.969   5.079  0.3207  0.6741 -0.5765
 9273SOL    HW139278   1.260   3.945   5.171 -1.8999  2.5924 -0.2604
 9273SOL    HW239279   1.194   4.029   5.072  0.4845  1.0520  1.0988
 9274SOL     OW39280   4.404   0.991   7.342  0.0749  0.0998 -0.4961
 9274SOL    HW139281   4.412   1.082   7.314 -0.0831  0.3699  0.3219
 9274SOL    HW239282   4.412   1.002   7.437  4.6545 -2.0188 -0.6465
 9275SOL     OW39283   1.679   2.563   5.598 -0.5890  0.2979  0.3867
 9275SOL    HW139284   1.766   2.593   5.573 -0.8987 -0.3505 -1.4547
 9275SOL    HW239285   1.663   2.498   5.529  0.1711  2.5349 -1.9044
 9276SOL     OW39286   2.286   4.360   3.587  0.4173  0.2501  0.1420
 9276SOL    HW139287   2.374   4.333   3.611  0.7948  2.2740  1.0402
 9276SOL    HW239288   2.290   4.455   3.600  2.3311  0.0621  0.9586
 9277SOL     OW39289   0.510   3.307   2.514 -0.2758  0.3576  0.1713
 9277SOL    HW139290   0.428   3.274   2.550  0.8233 -1.8376  0.6493
 9277SOL    HW239291   0.562   3.228   2.499  0.1313  0.7807 -0.6569
 9278SOL     OW39292   1.453   4.016   8.166  0.0809 -0.4937  0.2517
 9278SOL    HW139293   1.527   4.067   8.199 -1.3282  1.0980  0.9437
 9278SOL    HW239294   1.504   3.942   8.132  3.8545  1.4640  1.6090
 9279SOL     OW39295   3.891   1.080  15.185 -0.1974  0.3726  0.2276
 9279SOL    HW139296   3.862   1.003  15.134  1.4135 -0.6820  0.9176
 9279SOL    HW239297   3.982   1.086  15.157  0.0720 -2.8506  0.4160
 9280SOL     OW39298   3.991   4.630   9.924 -0.5373 -0.2561  0.7771
 9280SOL    HW139299   3.959   4.540   9.934 -0.3740 -0.4290 -0.2869
 9280SOL    HW239300   3.998   4.662  10.014  0.3373  1.0192  0.2570
 9281SOL     OW39301   3.802   1.141   2.558  0.0054  0.3000  0.0978
 9281SOL    HW139302   3.747   1.114   2.484  1.6450  1.6244 -1.5942
 9281SOL    HW239303   3.885   1.097   2.542  0.2844  1.5565 -1.8869
 9282SOL     OW39304   0.109   4.681  16.299 -0.0502  0.6825 -0.1179
 9282SOL    HW139305   0.129   0.043  16.338  2.2088  0.3250 -0.5120
 9282SOL    HW239306   0.103   4.622  16.373  0.8539 -2.4826 -2.5507
 9283SOL     OW39307   3.993   4.223   9.049  0.0149 -0.4268  0.6292
 9283SOL    HW139308   4.011   4.266   9.133 -0.2344  1.7696 -0.4564
 9283SOL    HW239309   3.906   4.186   9.058  0.0601 -0.5342  0.6223
 9284SOL     OW39310   0.418   4.474   5.713 -0.5050 -0.1360 -0.2488
 9284SOL    HW139311   0.381   4.514   5.792 -2.3294  0.6706 -1.5201
 9284SOL    HW239312   0.513   4.481   5.722 -0.2670 -0.6985 -2.4065
 9285SOL     OW39313   1.173   0.490   5.747  0.6322  0.4143 -0.1488
 9285SOL    HW139314   1.096   0.472   5.801 -0.5800 -0.1889 -2.0701
 9285SOL    HW239315   1.219   0.558   5.797 -0.5430  0.9928  0.1385
 9286SOL     OW39316   0.511   0.389  15.339  0.0651 -0.1375 -0.0496
 9286SOL    HW139317   0.507   0.298  15.369 -0.1893  0.1362  0.7500
 9286SOL    HW239318   0.434   0.418  15.388  1.9897 -0.4093  3.1074
 9287SOL     OW39319   3.934   3.481  10.928 -0.1531  0.6685 -0.2544
 9287SOL    HW139320   3.864   3.501  10.991  2.0237  0.9634  2.0722
 9287SOL    HW239321   4.003   3.460  10.991  1.3571 -1.0685 -2.5095
 9288SOL     OW39322   4.538   3.908   7.373 -0.1387 -0.0525  0.4507
 9288SOL    HW139323   4.497   3.992   7.353 -1.0080 -0.5431  0.1871
 9288SOL    HW239324   4.609   3.913   7.308 -1.4593  0.1954 -0.9778
 9289SOL     OW39325   4.392   3.721   2.675 -0.6253  0.1610 -0.0781
 9289SOL    HW139326   4.370   3.787   2.610  1.0221 -0.6015 -1.3982
 9289SOL    HW239327   4.315   3.664   2.675  0.0873 -0.8118  2.0017
 9290SOL     OW39328   4.273   3.507   1.931 -0.2995 -0.0816 -0.2853
 9290SOL    HW139329   4.348   3.473   1.979  0.1869  0.0850 -0.9211
 9290SOL    HW239330   4.226   3.548   2.003 -2.1385 -0.8368 -1.0675
 9291SOL     OW39331   0.611   1.310   2.787  0.0509 -0.1400  0.1556
 9291SOL    HW139332   0.677   1.379   2.782 -0.7466  0.4859 -1.9176
 9291SOL    HW239333   0.660   1.229   2.801  0.3899  0.5631  3.1237
 9292SOL     OW39334   2.297   1.164  15.840  0.0260 -0.0995  0.3500
 9292SOL    HW139335   2.369   1.133  15.786  0.7664  1.7426  0.2886
 9292SOL    HW239336   2.238   1.179  15.767 -2.4588  0.4819  2.4659
 9293SOL     OW39337   1.433   1.585   2.020  0.0135 -0.2352 -0.0691
 9293SOL    HW139338   1.463   1.625   2.102  0.8785 -3.1602  1.0212
 9293SOL    HW239339   1.341   1.587   2.046 -0.0170  2.5054 -0.3686
 9294SOL     OW39340   1.154   0.704   4.655  0.0660  0.1276 -0.1272
 9294SOL    HW139341   1.180   0.692   4.564 -1.6055  3.9507 -1.1181
 9294SOL    HW239342   1.241   0.700   4.694  0.0057 -2.6613 -0.2311
 9295SOL     OW39343   3.231   4.678  12.215 -0.2320 -0.2181 -0.3003
 9295SOL    HW139344   3.182   0.035  12.231 -2.6848 -1.6606 -0.5670
 9295SOL    HW239345   3.289   4.710  12.145  0.0370  0.6691  0.3256
 9296SOL     OW39346   2.425   0.450   8.857  0.2329  0.1506  0.6697
 9296SOL    HW139347   2.345   0.438   8.807 -0.0805 -1.1283  1.4651
 9296SOL    HW239348   2.400   0.522   8.914  0.6025  0.6049  0.2581
 9297SOL     OW39349   4.526   3.896  15.263  0.7743  0.0503 -0.0572
 9297SOL    HW139350   4.471   3.822  15.287  0.6842 -0.3338 -1.4110
 9297SOL    HW239351   4.606   3.844  15.257  2.0591  2.0671 -0.7179
 9298SOL     OW39352   4.358   0.255   2.144  0.3391  0.4768  0.0935
 9298SOL    HW139353   4.391   0.172   2.180 -0.9896  0.6021  1.6320
 9298SOL    HW239354   4.310   0.285   2.221 -0.3334  1.1441 -0.6006
 9299SOL     OW39355   1.858   0.844   8.293 -0.3198 -0.0384  0.2188
 9299SOL    HW139356   1.946   0.816   8.320 -0.8098 -1.3571  0.4259
 9299SOL    HW239357   1.843   0.824   8.201  0.0208  1.4536 -0.1677
 9300SOL     OW39358   0.028   0.888  17.160  0.0969  0.2497 -0.5727
 9300SOL    HW139359   0.037   0.977  17.194 -2.2639  0.6097 -0.8722
 9300SOL    HW239360   0.067   0.901  17.074  0.2420  0.9179 -0.4060
 9301SOL     OW39361   1.624   1.042   8.983 -0.1628  0.3258 -0.5009
 9301SOL    HW139362   1.549   1.032   9.043 -1.8689 -2.1865 -3.0210
 9301SOL    HW239363   1.579   1.054   8.899  0.9356 -3.4601 -1.6467
 9302SOL     OW39364   3.378   3.830   6.224  0.0844 -0.0912 -0.0767
 9302SOL    HW139365   3.295   3.877   6.213 -0.3285 -0.7849  0.0457
 9302SOL    HW239366   3.360   3.794   6.311  0.2848 -2.1113 -0.8747
 9303SOL     OW39367   3.179   3.838   0.807  0.3411  0.1925 -0.2989
 9303SOL    HW139368   3.158   3.845   0.714 -0.7524  0.5507 -0.0308
 9303SOL    HW239369   3.106   3.788   0.843  0.4053 -0.8167 -1.5672
 9304SOL     OW39370   2.915   2.537   4.946 -0.1303 -0.1390  0.8328
 9304SOL    HW139371   2.865   2.457   4.959 -0.3249 -0.2218 -0.4752
 9304SOL    HW239372   2.874   2.593   5.013 -0.2103 -0.6495  1.2079
 9305SOL     OW39373   3.099   4.386   3.958  0.0335 -0.3305 -0.1313
 9305SOL    HW139374   3.115   4.294   3.938 -1.5240 -0.6079 -0.0967
 9305SOL    HW239375   3.188   4.419   3.944  0.4163 -0.9993  0.6955
 9306SOL     OW39376   4.049   2.353   8.122 -0.3063 -0.1591 -0.2597
 9306SOL    HW139377   4.124   2.413   8.113  0.3507 -1.0971 -1.0088
 9306SOL    HW239378   3.986   2.395   8.180 -1.1059 -0.6159 -0.8028
 9307SOL     OW39379   1.544   1.234   0.789  0.1171  0.0204  0.4251
 9307SOL    HW139380   1.457   1.239   0.750 -0.6673 -0.0252  2.1582
 9307SOL    HW239381   1.535   1.291   0.865 -1.3035  0.3223  0.0182
 9308SOL     OW39382   0.642   3.146   4.388  0.0585 -0.0069  0.4746
 9308SOL    HW139383   0.549   3.159   4.402  0.0360  0.7185 -0.3190
 9308SOL    HW239384   0.671   3.078   4.449 -2.1641 -0.2768  1.2011
 9309SOL     OW39385   0.850   1.818   0.654  0.6297  0.2784 -0.5313
 9309SOL    HW139386   0.788   1.884   0.625  1.1970  2.0937  2.3360
 9309SOL    HW239387   0.924   1.874   0.679  1.3677 -0.9956  0.1526
 9310SOL     OW39388   3.595   4.719   8.708 -0.0762  0.8583 -0.4083
 9310SOL    HW139389   3.674   0.002   8.762  1.3230 -1.0794 -2.2170
 9310SOL    HW239390   3.625   0.055   8.640  0.3440  0.1174 -0.8737
 9311SOL     OW39391   3.885   4.304   1.867 -0.3348 -0.0698  0.2772
 9311SOL    HW139392   3.906   4.372   1.930  1.1051  0.6251 -0.9718
 9311SOL    HW239393   3.792   4.324   1.856  0.0062  1.6152  0.4858
 9312SOL     OW39394   2.541   4.008   5.526 -0.4728 -0.1888 -0.0882
 9312SOL    HW139395   2.619   3.987   5.577  0.4998  0.0991 -1.4638
 9312SOL    HW239396   2.495   4.046   5.601  0.2921  0.9905 -0.2143
 9313SOL     OW39397   0.539   2.702   3.219 -0.0275 -0.1071 -0.3466
 9313SOL    HW139398   0.467   2.730   3.163  0.0409  0.8803  0.0587
 9313SOL    HW239399   0.617   2.721   3.167  1.1202  0.6475  1.6347
 9314SOL     OW39400   1.518   4.321  16.575 -0.0251  0.6785 -0.1758
 9314SOL    HW139401   1.484   4.405  16.546 -2.9527 -0.2240  0.6431
 9314SOL    HW239402   1.586   4.300  16.511  2.8742  1.9213  2.4701
 9315SOL     OW39403   2.101   0.419   0.043 -0.2099 -0.1574 -0.3650
 9315SOL    HW139404   2.123   0.356  17.669 -1.7220 -0.2665 -0.7437
 9315SOL    HW239405   2.185   0.461   0.065 -0.5241  0.9571 -1.2951
 9316SOL     OW39406   4.110   0.446   3.556 -0.1964  0.1045  0.0619
 9316SOL    HW139407   4.155   0.527   3.531  0.4815 -0.4593 -0.5457
 9316SOL    HW239408   4.181   0.405   3.606  1.8980  2.0686 -1.2794
 9317SOL     OW39409   3.625   0.842   9.741 -0.3972  0.2604 -0.6942
 9317SOL    HW139410   3.713   0.880   9.737 -0.8799  1.1619 -2.6273
 9317SOL    HW239411   3.648   0.768   9.798 -1.2334 -0.1071 -0.8402
 9318SOL     OW39412   2.135   4.245   6.638  0.2575 -0.0497 -0.2493
 9318SOL    HW139413   2.186   4.264   6.559  1.4664  0.5702  0.6811
 9318SOL    HW239414   2.084   4.168   6.611 -1.1894  1.0695 -0.6762
 9319SOL     OW39415   4.262   0.063  11.490  0.3659 -0.3383  0.0752
 9319SOL    HW139416   4.229   0.010  11.562 -1.8939 -1.0154 -1.4479
 9319SOL    HW239417   4.209   0.024  11.421  1.2165 -0.4623 -0.5131
 9320SOL     OW39418   4.487   2.675   6.037  0.5790 -0.1503 -0.6608
 9320SOL    HW139419   4.571   2.634   6.017  0.1602 -1.7782  0.9254
 9320SOL    HW239420   4.422   2.608   6.016  0.0330 -0.5447  2.2341
 9321SOL     OW39421   1.406   2.972  13.463  0.2525  0.4220  0.6669
 9321SOL    HW139422   1.384   3.049  13.515  0.9959  0.2104  1.2894
 9321SOL    HW239423   1.360   2.991  13.381  3.5299  1.5627 -0.8964
 9322SOL     OW39424   1.186   2.688  10.666 -0.0901  0.1045  0.0202
 9322SOL    HW139425   1.197   2.595  10.690 -2.3532  0.4606  2.3999
 9322SOL    HW239426   1.143   2.671  10.582  0.4961  1.7238 -0.6112
 9323SOL     OW39427   1.984   3.193   6.997  0.2590 -0.0123  0.0913
 9323SOL    HW139428   1.987   3.098   6.983 -3.4947  0.1419 -1.7642
 9323SOL    HW239429   1.903   3.213   6.951 -0.1516 -0.7823  0.4725
 9324SOL     OW39430   2.412   0.218   2.450  0.3084  0.2345 -1.1699
 9324SOL    HW139431   2.341   0.245   2.391 -1.0844 -1.0774 -0.0935
 9324SOL    HW239432   2.367   0.137   2.476  1.8456 -0.3440 -0.3508
 9325SOL     OW39433   3.529   0.297   4.829 -0.3276 -0.8792  0.4552
 9325SOL    HW139434   3.499   0.229   4.769 -1.6410  0.5198 -0.4936
 9325SOL    HW239435   3.472   0.269   4.900 -1.5375  1.4420  0.4181
 9326SOL     OW39436   2.698   4.503  16.046  0.2478 -0.6346  0.2348
 9326SOL    HW139437   2.731   4.422  16.006  0.4079 -0.4289 -0.0502
 9326SOL    HW239438   2.738   4.494  16.132  0.9889  1.3818  0.1037
 9327SOL     OW39439   3.106   2.068   8.747 -0.0106  0.4073  0.3608
 9327SOL    HW139440   3.142   2.099   8.830 -0.1103 -0.5335  0.7628
 9327SOL    HW239441   3.030   2.014   8.769  1.0334 -0.6530  1.3787
 9328SOL     OW39442   3.640   2.526   8.670 -0.2985  0.2384  0.8804
 9328SOL    HW139443   3.664   2.445   8.625 -1.3920 -0.2764  1.2249
 9328SOL    HW239444   3.711   2.585   8.644  1.6259 -2.4705 -0.0230
 9329SOL     OW39445   4.309   0.234   8.169 -0.2551 -0.1272  0.6873
 9329SOL    HW139446   4.240   0.288   8.130  0.7659  0.8150  0.1743
 9329SOL    HW239447   4.263   0.170   8.222  1.9346 -1.1570  1.3315
 9330SOL     OW39448   4.095   2.724   8.258 -0.0360  0.3379 -0.9186
 9330SOL    HW139449   4.010   2.763   8.279 -0.2112 -0.2337 -0.5737
 9330SOL    HW239450   4.127   2.758   8.175 -0.1079 -0.9131 -1.4581
 9331SOL     OW39451   3.153   2.556   0.113  0.1585 -0.5986 -0.3727
 9331SOL    HW139452   3.147   2.524   0.203 -2.2992  1.8772  0.3246
 9331SOL    HW239453   3.126   2.473   0.075  2.4283 -1.3705 -0.3004
 9332SOL     OW39454   4.575   2.389   2.507  0.4417 -0.2720  0.4574
 9332SOL    HW139455   4.548   2.464   2.454 -0.3537 -0.3214  0.7928
 9332SOL    HW239456   4.488   2.357   2.530  0.3066 -1.0172 -1.0930
 9333SOL     OW39457   0.852   3.671  16.462  0.2423 -0.5788  0.5867
 9333SOL    HW139458   0.879   3.736  16.527  0.0934  2.7060 -2.6674
 9333SOL    HW239459   0.780   3.651  16.521  0.9045  0.8601  1.8791
 9334SOL     OW39460   3.724   3.072   3.795 -0.5248 -0.5720 -0.0632
 9334SOL    HW139461   3.684   3.076   3.882  0.3788  0.7453  0.2848
 9334SOL    HW239462   3.681   2.995   3.758 -2.7402  0.4103  0.5050
 9335SOL     OW39463   4.141   0.885   1.788  0.4136  0.4351 -0.0210
 9335SOL    HW139464   4.090   0.960   1.757 -2.4829 -0.9884  1.2888
 9335SOL    HW239465   4.165   0.848   1.703  1.2845  0.2470  0.3133
 9336SOL     OW39466   2.150   4.679   2.181  0.5238  0.2767 -0.4855
 9336SOL    HW139467   2.198   4.666   2.100  0.4526 -2.0839 -0.1514
 9336SOL    HW239468   2.218   4.659   2.245  1.7098 -0.0359 -1.8528
 9337SOL     OW39469   3.090   2.209   3.423 -0.6364 -0.2070 -0.6069
 9337SOL    HW139470   3.028   2.139   3.404  0.5383 -1.4349  0.0695
 9337SOL    HW239471   3.074   2.230   3.515 -0.2239 -0.7881 -0.4045
 9338SOL     OW39472   4.435   2.243   5.668  0.0907  0.1695  0.1739
 9338SOL    HW139473   4.473   2.281   5.589 -1.0466  0.4488 -0.2428
 9338SOL    HW239474   4.509   2.241   5.729 -1.0393  2.4670  1.6232
 9339SOL     OW39475   4.014   0.748   4.578  0.5516 -0.0907 -0.0570
 9339SOL    HW139476   4.025   0.658   4.608  0.2946  0.2702  1.1128
 9339SOL    HW239477   4.099   0.779   4.608 -0.1085  1.7208 -0.0747
 9340SOL     OW39478   4.090   4.162   8.643  0.4323  0.3811 -0.2141
 9340SOL    HW139479   4.121   4.239   8.596 -0.6657  1.4918  0.8779
 9340SOL    HW239480   4.108   4.184   8.734 -0.8452  1.8779 -0.3285
 9341SOL     OW39481   3.875   3.456   9.433  0.8525  0.2490 -0.1558
 9341SOL    HW139482   3.918   3.522   9.487  0.1393 -0.4495  1.2639
 9341SOL    HW239483   3.924   3.376   9.450  0.7478  0.7493  2.4080
 9342SOL     OW39484   4.164   4.195  10.154 -0.9889  0.2734  0.3566
 9342SOL    HW139485   4.259   4.201  10.145 -1.0516 -2.1173 -1.8897
 9342SOL    HW239486   4.140   4.227  10.066 -0.7016 -1.1073 -0.2251
 9343SOL     OW39487   3.978   3.360   2.688 -0.2762  0.2195  0.5173
 9343SOL    HW139488   3.996   3.327   2.776  0.2354 -1.5048 -0.2452
 9343SOL    HW239489   3.932   3.287   2.647  1.4426  0.7823 -2.4174
 9344SOL     OW39490   3.363   2.709  15.985  0.1281 -0.9063  0.2777
 9344SOL    HW139491   3.310   2.769  15.933 -0.0691 -1.7514 -0.4942
 9344SOL    HW239492   3.312   2.705  16.066 -0.3665  2.2733  0.1194
 9345SOL     OW39493   2.053   1.627   9.193  0.3911 -0.1977 -0.0044
 9345SOL    HW139494   2.070   1.657   9.282  0.0644 -0.5565  0.1803
 9345SOL    HW239495   2.075   1.534   9.208  0.9156  0.0793  0.9778
 9346SOL     OW39496   1.612   4.246   7.504  0.7062  0.1954  0.3314
 9346SOL    HW139497   1.529   4.198   7.494  1.6587 -1.3992  0.0905
 9346SOL    HW239498   1.647   4.186   7.570  2.0704 -0.6649 -1.1781
 9347SOL     OW39499   2.165   3.077   4.135  0.4631 -0.2240 -0.5255
 9347SOL    HW139500   2.257   3.104   4.133  0.2432  0.7034  1.6247
 9347SOL    HW239501   2.159   3.005   4.197  0.0310 -0.2603 -0.6063
 9348SOL     OW39502   2.641   1.673   9.743  0.0931 -0.8128  0.4568
 9348SOL    HW139503   2.717   1.618   9.763  1.2285  0.6064  0.0295
 9348SOL    HW239504   2.686   1.757   9.733 -0.7216 -0.3679  0.5437
 9349SOL     OW39505   3.683   0.884   4.737  0.0927 -0.4576 -0.0830
 9349SOL    HW139506   3.620   0.814   4.719 -2.0877  1.3358  0.4770
 9349SOL    HW239507   3.757   0.867   4.679  0.4383 -0.4776  0.3590
 9350SOL     OW39508   0.211   4.470   7.521  0.3146 -0.3087 -0.0055
 9350SOL    HW139509   0.169   4.555   7.507 -1.7869 -1.4696 -0.7932
 9350SOL    HW239510   0.140   4.414   7.553 -0.0159 -0.6491 -1.3441
 9351SOL     OW39511   3.730   3.022  15.081 -0.7269 -0.0530  0.1022
 9351SOL    HW139512   3.764   3.087  15.143 -2.5208  1.1698 -0.1615
 9351SOL    HW239513   3.757   3.072  15.004  0.3791  1.3302  1.3877
 9352SOL     OW39514   3.033   3.137   2.677 -0.4401 -0.0725  0.0877
 9352SOL    HW139515   3.110   3.189   2.700 -0.2163 -0.7658  0.9318
 9352SOL    HW239516   2.966   3.204   2.673 -1.0426 -0.6833 -0.0119
 9353SOL     OW39517   1.781   4.716  17.607  0.6082  0.1879 -0.2906
 9353SOL    HW139518   1.800   4.695   0.003 -2.5106  0.8798  0.5089
 9353SOL    HW239519   1.695   4.674  17.595  0.8164  0.2393 -1.9832
 9354SOL     OW39520   3.602   1.119   1.284  0.4493 -0.0878 -0.1513
 9354SOL    HW139521   3.628   1.188   1.345 -2.7130  0.8024  0.1601
 9354SOL    HW239522   3.675   1.059   1.297  0.9281  0.6326  0.4709
 9355SOL     OW39523   2.630   4.542   3.120 -0.4592 -0.1214 -0.0478
 9355SOL    HW139524   2.557   4.599   3.143 -0.6538 -0.4715  0.1967
 9355SOL    HW239525   2.632   4.560   3.026 -1.2589  0.3355  0.0261
 9356SOL     OW39526   0.523   2.521  14.116  0.0700 -0.0786  0.5638
 9356SOL    HW139527   0.492   2.566  14.037  1.5271 -0.6948 -0.3430
 9356SOL    HW239528   0.608   2.482  14.098 -0.1519 -0.5703  0.5900
 9357SOL     OW39529   1.583   0.012   9.181  0.3282  0.9064 -0.3865
 9357SOL    HW139530   1.500   0.059   9.178  0.4711  1.2384  0.5038
 9357SOL    HW239531   1.569   4.698   9.268  0.6510 -1.2070 -1.2432
 9358SOL     OW39532   1.301   0.862   0.611 -0.5228 -0.4109  0.4985
 9358SOL    HW139533   1.346   0.815   0.681  1.6621  1.7751  0.5842
 9358SOL    HW239534   1.332   0.816   0.534 -0.9831 -0.8061  0.5502
 9359SOL     OW39535   1.857   2.287   8.315  0.4157  0.5928 -0.5112
 9359SOL    HW139536   1.833   2.270   8.224  1.3618 -0.4841 -0.5731
 9359SOL    HW239537   1.771   2.304   8.352  0.6486  0.6498  0.0109
 9360SOL     OW39538   3.927   0.831   1.047 -0.1300  0.3596 -0.6784
 9360SOL    HW139539   3.977   0.821   0.966  0.5226 -0.7526 -0.1515
 9360SOL    HW239540   3.933   0.926   1.058  0.8706  0.0345  1.6377
 9361SOL     OW39541   1.578   1.409   7.396 -0.1963 -0.6461  0.0324
 9361SOL    HW139542   1.618   1.474   7.338 -0.6613  1.4526  2.0633
 9361SOL    HW239543   1.504   1.459   7.430  0.9387  1.3325 -0.3989
 9362SOL     OW39544   4.441   0.724   1.416  0.4697  1.0581  0.1531
 9362SOL    HW139545   4.440   0.744   1.510  0.8355  0.9911  0.1698
 9362SOL    HW239546   4.527   0.695   1.388  0.9443 -0.3225  3.0851
 9363SOL     OW39547   0.159   1.531   9.621  0.1186  0.5460  0.2981
 9363SOL    HW139548   0.235   1.487   9.583  1.2135  0.5235  2.5273
 9363SOL    HW239549   0.197   1.615   9.643 -1.7873  1.5833 -0.3010
 9364SOL     OW39550   2.246   4.197   0.133  0.1621  0.5520 -0.0253
 9364SOL    HW139551   2.340   4.199   0.116  0.7052  1.6019  3.1249
 9364SOL    HW239552   2.206   4.232   0.053 -4.6041 -0.6211  1.8181
 9365SOL     OW39553   4.501   1.600  17.119  0.1272  0.0221  0.4581
 9365SOL    HW139554   4.594   1.620  17.110  0.5875 -1.1784  2.5524
 9365SOL    HW239555   4.510   1.506  17.130 -0.4705  0.0144  0.9224
 9366SOL     OW39556   2.488   2.414   2.247  0.1610 -0.2577  0.1048
 9366SOL    HW139557   2.567   2.461   2.218 -0.4526  2.7163  3.3010
 9366SOL    HW239558   2.517   2.382   2.332 -1.3710 -1.0675  0.3156
 9367SOL     OW39559   4.020   4.307   4.253 -0.2721 -0.3123  0.2982
 9367SOL    HW139560   4.025   4.237   4.188  0.6500 -1.9697  2.1567
 9367SOL    HW239561   4.075   4.276   4.324  0.0107  0.1594  0.2901
 9368SOL     OW39562   1.727   3.316  12.329  0.8852  0.7037 -0.5542
 9368SOL    HW139563   1.690   3.403  12.349 -0.1463  0.2164 -0.3191
 9368SOL    HW239564   1.731   3.274  12.415  0.2577 -0.9293 -1.3387
 9369SOL     OW39565   2.637   1.129   2.991  0.4242  0.1964 -0.0338
 9369SOL    HW139566   2.575   1.164   2.927 -0.2538  0.1667  0.6077
 9369SOL    HW239567   2.587   1.055   3.028 -1.4500  1.4056 -0.1426
 9370SOL     OW39568   0.719   4.473   5.594 -0.2093  0.6406 -0.2060
 9370SOL    HW139569   0.773   4.447   5.668 -1.6365 -0.4497  0.4326
 9370SOL    HW239570   0.744   4.566   5.590  2.9890 -0.2288 -0.2911
 9371SOL     OW39571   3.880   2.454  15.761  0.5463 -0.2780  0.3436
 9371SOL    HW139572   3.891   2.385  15.695 -0.8979 -1.2210  1.0878
 9371SOL    HW239573   3.816   2.412  15.818  3.2062 -1.9339  2.1303
 9372SOL     OW39574   2.825   4.162   6.925 -0.0576 -0.2312 -0.4268
 9372SOL    HW139575   2.844   4.206   7.007  0.5174 -0.0211 -0.6714
 9372SOL    HW239576   2.786   4.080   6.957 -1.3734  0.7162  0.4145
 9373SOL     OW39577   0.299   1.060  10.381  0.4014 -0.3538  0.4180
 9373SOL    HW139578   0.260   1.136  10.424 -1.4876  0.2282 -2.2421
 9373SOL    HW239579   0.358   1.097  10.316 -0.3084  0.1670  0.0610
 9374SOL     OW39580   2.537   4.445   1.919 -0.0267  0.2283  0.1635
 9374SOL    HW139581   2.469   4.389   1.957 -0.1429 -0.6397 -1.3043
 9374SOL    HW239582   2.503   4.528   1.952 -1.2848  0.1582 -0.9224
 9375SOL     OW39583   0.939   3.564  10.410  0.5397 -0.3662 -0.2707
 9375SOL    HW139584   1.012   3.617  10.379 -0.3537  1.4854  0.8159
 9375SOL    HW239585   0.963   3.479  10.375  1.3135 -0.0395 -0.5154
 9376SOL     OW39586   3.515   1.208  15.297  0.1772  0.6876 -0.0067
 9376SOL    HW139587   3.447   1.260  15.339  0.7388  0.5941  1.0136
 9376SOL    HW239588   3.579   1.276  15.278  0.4191  0.3770 -0.3087
 9377SOL     OW39589   0.509   0.884   4.465 -0.0219 -0.4087 -0.1430
 9377SOL    HW139590   0.582   0.925   4.510  0.5313  0.0340 -1.4264
 9377SOL    HW239591   0.534   0.793   4.482 -1.4744 -1.3871 -3.1095
 9378SOL     OW39592   1.333   3.442   5.907  1.1939 -0.2137  0.0872
 9378SOL    HW139593   1.363   3.531   5.887  0.7575 -0.9100 -3.6475
 9378SOL    HW239594   1.239   3.437   5.891  0.7447  0.7414  2.4405
 9379SOL     OW39595   0.100   3.569   2.776  0.2504  0.0930 -0.7863
 9379SOL    HW139596   0.180   3.526   2.804 -0.1162  1.0354  1.6439
 9379SOL    HW239597   0.134   3.609   2.696  0.6030 -0.1469 -0.7566
 9380SOL     OW39598   2.199   0.979  11.441  0.2396  0.0966  0.2448
 9380SOL    HW139599   2.198   0.900  11.495 -0.4608  0.2318  0.4383
 9380SOL    HW239600   2.108   0.974  11.411 -0.5383  1.9440  2.2453
 9381SOL     OW39601   0.634   3.449   2.315  0.3192 -0.3338  0.1420
 9381SOL    HW139602   0.599   3.402   2.391  0.8049 -0.5509  0.2294
 9381SOL    HW239603   0.603   3.540   2.320 -0.4479 -0.6835  1.8267
 9382SOL     OW39604   3.223   0.638   8.649 -0.0295 -0.2392 -0.0829
 9382SOL    HW139605   3.173   0.557   8.654 -0.4423  0.0114 -0.1369
 9382SOL    HW239606   3.186   0.693   8.718 -0.0402 -0.0931 -0.2054
 9383SOL     OW39607   1.472   1.994   4.421  0.3818 -0.5330 -0.1484
 9383SOL    HW139608   1.478   1.915   4.367  0.5547 -0.8532  0.3400
 9383SOL    HW239609   1.567   2.006   4.424  0.5654 -2.3954  1.1861
 9384SOL     OW39610   1.661   0.897  16.084 -0.0955  0.4253 -0.1340
 9384SOL    HW139611   1.630   0.937  16.166  0.7697 -0.9141  0.8418
 9384SOL    HW239612   1.580   0.888  16.033  1.1459 -3.5203 -1.4089
 9385SOL     OW39613   2.140   3.139   1.062 -0.5931 -0.0156  0.1694
 9385SOL    HW139614   2.046   3.149   1.044 -0.0339  1.2821 -2.0895
 9385SOL    HW239615   2.128   3.160   1.155  1.3513  0.8708  0.2237
 9386SOL     OW39616   0.334   0.448  14.365  0.2554 -0.3688  0.1196
 9386SOL    HW139617   0.375   0.499  14.295 -1.4602  1.2496  0.2630
 9386SOL    HW239618   0.409   0.437  14.423 -0.5103  1.5140  1.4571
 9387SOL     OW39619   0.374   0.486  17.562 -0.2899 -0.0465  0.1999
 9387SOL    HW139620   0.411   0.484  17.650 -0.6278  1.5525  0.3827
 9387SOL    HW239621   0.332   0.400  17.553  0.8013 -0.5971  0.4016
 9388SOL     OW39622   3.802   3.677   5.173  0.0741  0.1636 -0.2504
 9388SOL    HW139623   3.786   3.592   5.214 -0.2467  0.5520  0.4439
 9388SOL    HW239624   3.859   3.715   5.240  0.0628  1.3090 -0.9036
 9389SOL     OW39625   3.815   2.935   0.663  0.1120 -0.3097  0.5361
 9389SOL    HW139626   3.809   2.839   0.661 -0.1203 -0.2945  0.4857
 9389SOL    HW239627   3.762   2.959   0.739 -1.2742 -1.7887  0.0548
 9390SOL     OW39628   3.814   0.373   1.976  0.1818  0.4086 -0.0376
 9390SOL    HW139629   3.733   0.323   1.991  0.2399  0.1273 -0.6742
 9390SOL    HW239630   3.826   0.362   1.882  0.4576 -3.3980  0.4678
 9391SOL     OW39631   4.352   4.463   1.719 -0.1727 -0.8138  0.4115
 9391SOL    HW139632   4.422   4.437   1.659 -0.2613 -1.2414  0.4941
 9391SOL    HW239633   4.341   4.382   1.768 -1.6920 -0.8297  0.0428
 9392SOL     OW39634   0.260   1.888   3.802  0.1325  0.4876 -0.4224
 9392SOL    HW139635   0.193   1.921   3.862  1.0970  1.6868 -0.0214
 9392SOL    HW239636   0.279   1.962   3.745  0.2526  0.6899 -0.1224
 9393SOL     OW39637   1.136   4.491   4.828  0.5461  0.8633  0.4286
 9393SOL    HW139638   1.047   4.506   4.796  1.1764 -0.3210 -1.9024
 9393SOL    HW239639   1.116   4.474   4.920 -2.5135  1.2634 -0.1510
 9394SOL     OW39640   1.386   3.396  10.959  0.5665  0.8493 -0.2081
 9394SOL    HW139641   1.393   3.322  11.019  3.9881  1.4136  0.0968
 9394SOL    HW239642   1.361   3.354  10.877 -0.0654 -0.7686  0.8120
 9395SOL     OW39643   0.598   0.987   3.511 -0.0194  0.5182  0.2575
 9395SOL    HW139644   0.509   0.963   3.488  0.2197 -0.5659  0.4630
 9395SOL    HW239645   0.628   0.906   3.551  0.1511  0.2816 -0.3549
 9396SOL     OW39646   0.679   1.640  12.423 -0.4768  0.5556  0.0441
 9396SOL    HW139647   0.733   1.612  12.496 -2.3988 -1.0661  0.8577
 9396SOL    HW239648   0.639   1.723  12.452 -1.6332 -0.2920  0.8793
 9397SOL     OW39649   1.791   2.898  11.955  0.0034 -0.6179  0.7523
 9397SOL    HW139650   1.713   2.915  12.007 -1.7429 -0.4172 -1.9637
 9397SOL    HW239651   1.807   2.988  11.924  0.9434 -0.0685  2.8048
 9398SOL     OW39652   1.053   0.573   2.153 -0.2846  0.3514 -0.3489
 9398SOL    HW139653   1.009   0.575   2.068 -0.9997  1.2704  0.0424
 9398SOL    HW239654   1.039   0.481   2.175 -0.4202  0.5769  0.5108
 9399SOL     OW39655   2.570   3.749   1.551  0.3177  0.4089 -0.2169
 9399SOL    HW139656   2.525   3.671   1.518 -1.0297  1.7931 -1.6980
 9399SOL    HW239657   2.655   3.729   1.512 -0.8372  1.3528 -3.2564
 9400SOL     OW39658   1.711   4.524   2.459 -0.3584  0.2712 -0.0251
 9400SOL    HW139659   1.648   4.478   2.403  0.2934  0.0633 -0.5870
 9400SOL    HW239660   1.744   4.452   2.512 -2.4407 -0.4626  0.2711
 9401SOL     OW39661   4.085   1.884   8.310  0.5109  0.1957  0.0053
 9401SOL    HW139662   4.041   1.963   8.341 -2.5159 -1.1063 -0.9009
 9401SOL    HW239663   4.136   1.932   8.245  1.8535  1.1294  1.7592
 9402SOL     OW39664   3.084   0.540   3.491  0.5850  0.5833  0.1307
 9402SOL    HW139665   3.137   0.590   3.553 -0.5139 -0.0969  1.6243
 9402SOL    HW239666   3.144   0.504   3.427 -2.5804 -2.0747 -1.3115
 9403SOL     OW39667   3.400   4.718  13.286 -0.4214 -0.1062 -0.2499
 9403SOL    HW139668   3.370   0.068  13.232  0.2162 -0.0620 -0.5534
 9403SOL    HW239669   3.484   4.694  13.245 -0.5415  1.2160 -1.2772
 9404SOL     OW39670   4.271   4.174   4.709  0.1498 -0.3431  0.6538
 9404SOL    HW139671   4.209   4.148   4.778 -1.0116  0.7855  0.0316
 9404SOL    HW239672   4.264   4.269   4.717 -2.5104 -0.5304  0.8115
 9405SOL     OW39673   0.434   0.080   1.920 -0.0920  0.1911 -0.3079
 9405SOL    HW139674   0.457   4.718   1.885 -1.2640 -0.1410 -0.2834
 9405SOL    HW239675   0.499   0.129   1.869 -0.9922  1.2449 -0.4520
 9406SOL     OW39676   1.062   0.016  10.216 -0.1889 -0.3204 -0.0694
 9406SOL    HW139677   1.094   0.104  10.237 -0.5824  0.0118 -0.8366
 9406SOL    HW239678   1.015   0.040  10.136  0.3146 -0.6249 -0.4578
 9407SOL     OW39679   4.237   2.364   3.869 -0.0930 -0.3843  0.7740
 9407SOL    HW139680   4.182   2.435   3.836 -0.2553 -0.9614 -0.1835
 9407SOL    HW239681   4.217   2.364   3.963 -1.4897 -1.7679  0.4846
 9408SOL     OW39682   4.645   4.247   1.286  0.6810 -0.5849 -0.2901
 9408SOL    HW139683   4.646   4.173   1.225  1.9175  0.0099 -0.9875
 9408SOL    HW239684   4.626   4.326   1.235  0.8531  0.9022  1.9784
 9409SOL     OW39685   2.406   2.163   2.920 -0.1804  0.2271 -0.0457
 9409SOL    HW139686   2.443   2.244   2.885  1.3318 -0.8880 -1.0069
 9409SOL    HW239687   2.356   2.191   2.997 -0.5393 -0.5162 -0.0046
 9410SOL     OW39688   3.292   0.176   3.148  0.1028  0.1518 -0.0867
 9410SOL    HW139689   3.284   0.138   3.061 -1.2729 -1.0670  0.5797
 9410SOL    HW239690   3.275   0.100   3.204  2.3892  0.0578  0.5117
 9411SOL     OW39691   3.509   3.847   1.782 -0.1735 -0.0978  0.0947
 9411SOL    HW139692   3.553   3.763   1.793  2.4281  1.2794  0.1931
 9411SOL    HW239693   3.445   3.842   1.854  0.9762 -0.7221  1.0765
 9412SOL     OW39694   1.591   4.049   9.603  0.4495  0.1303 -0.1973
 9412SOL    HW139695   1.575   4.039   9.509  1.6229 -2.2486 -0.1398
 9412SOL    HW239696   1.565   4.141   9.609  0.6411  0.0812  1.2366
 9413SOL     OW39697   1.513   2.708   1.017  0.8984  0.7189 -0.2010
 9413SOL    HW139698   1.437   2.727   1.074  1.2233  1.6903 -0.0871
 9413SOL    HW239699   1.522   2.779   0.954 -0.8185  1.2312  0.1127
 9414SOL     OW39700   4.142   3.339   4.576  0.2877 -0.1115 -0.2084
 9414SOL    HW139701   4.130   3.429   4.604  0.2558 -0.2934  0.3523
 9414SOL    HW239702   4.056   3.331   4.533  1.2732 -3.8497 -1.4979
 9415SOL     OW39703   0.361   1.252   7.922 -0.1158 -0.6824 -0.3568
 9415SOL    HW139704   0.317   1.314   7.864  0.5641 -0.5594 -0.7422
 9415SOL    HW239705   0.284   1.221   7.970 -1.2189  0.2661 -1.5392
 9416SOL     OW39706   3.809   0.865   3.751  0.1332 -0.1152  0.6472
 9416SOL    HW139707   3.838   0.932   3.812  0.0094 -0.2212  0.8239
 9416SOL    HW239708   3.889   0.812   3.762 -1.2638 -2.6310 -1.1963
 9417SOL     OW39709   3.423   0.991   5.527  0.3690 -0.2691  0.5850
 9417SOL    HW139710   3.512   1.010   5.557 -0.0716  0.3696  1.4595
 9417SOL    HW239711   3.405   0.925   5.595  0.1043  1.3479  2.0802
 9418SOL     OW39712   0.579   3.932  10.919 -0.2180  0.0019 -0.4511
 9418SOL    HW139713   0.519   3.863  10.891  0.7579  0.4728 -3.6982
 9418SOL    HW239714   0.666   3.898  10.901  0.0238  0.7812 -0.7565
 9419SOL     OW39715   1.361   2.024   2.631 -0.2184 -0.1286  0.3598
 9419SOL    HW139716   1.269   1.996   2.628  0.2666 -1.7852  0.9954
 9419SOL    HW239717   1.375   2.015   2.726 -1.0307 -0.3376  0.4603
 9420SOL     OW39718   2.022   2.927  16.699  0.4358 -0.0440  0.0975
 9420SOL    HW139719   2.054   3.015  16.720  0.8993 -0.0090 -0.7478
 9420SOL    HW239720   1.989   2.913  16.787 -0.0804  0.1954 -0.0551
 9421SOL     OW39721   1.985   1.641   3.215 -0.2060  0.5597 -0.1824
 9421SOL    HW139722   1.959   1.620   3.305  1.4542  3.0983  0.8918
 9421SOL    HW239723   2.017   1.556   3.186 -2.3870  0.3622 -2.0445
 9422SOL     OW39724   1.962   3.041   7.383  0.2296  0.4592  0.0494
 9422SOL    HW139725   1.977   3.042   7.289  2.1729  0.4712  0.3599
 9422SOL    HW239726   1.993   2.954   7.407  4.4404  1.1478 -2.9007
 9423SOL     OW39727   1.498   2.561   2.149  0.5756 -0.0676  0.1181
 9423SOL    HW139728   1.508   2.646   2.107  0.3430  0.6360  1.4963
 9423SOL    HW239729   1.464   2.507   2.078  0.8288 -0.1930  0.0929
 9424SOL     OW39730   1.346   1.601   4.899 -0.9773  0.7154 -0.1480
 9424SOL    HW139731   1.414   1.563   4.955 -2.3317 -2.7333 -0.8771
 9424SOL    HW239732   1.306   1.673   4.948 -0.5148  1.4952 -0.9043
 9425SOL     OW39733   4.420   1.967   9.472  0.5695  0.2786  0.4243
 9425SOL    HW139734   4.480   1.931   9.406 -0.0707  1.1668 -0.6409
 9425SOL    HW239735   4.333   1.948   9.436  0.8882 -0.8507  0.2404
 9426SOL     OW39736   4.537   0.014   7.882  0.0672 -0.3386  0.1486
 9426SOL    HW139737   4.583   0.098   7.872 -0.7517 -0.0119 -0.9673
 9426SOL    HW239738   4.570   4.704   7.965 -2.3740  1.4252  1.8392
 9427SOL     OW39739   1.169   1.585   2.115  0.7528  0.5649 -0.5916
 9427SOL    HW139740   1.172   1.521   2.187  0.9718 -0.5916 -1.6267
 9427SOL    HW239741   1.075   1.576   2.097  0.5107  0.4675  0.6684
 9428SOL     OW39742   4.549   4.262   0.037  0.0654  0.3301  0.5746
 9428SOL    HW139743   4.519   4.351   0.017  0.6031  0.3769 -0.0258
 9428SOL    HW239744   4.499   4.236   0.114  3.4813 -0.2410  2.5764
 9429SOL     OW39745   0.626   2.076   1.928  0.4804  0.4560  0.1275
 9429SOL    HW139746   0.574   2.099   1.852  1.3693  1.0306 -0.3062
 9429SOL    HW239747   0.656   1.990   1.897  0.1604  1.1169 -1.9614
 9430SOL     OW39748   4.564   2.053   5.289  0.2545 -0.2035  0.5562
 9430SOL    HW139749   4.481   2.084   5.254  1.0533  1.1627 -0.1243
 9430SOL    HW239750   4.605   2.139   5.303  0.3868 -0.2353  0.3565
 9431SOL     OW39751   4.391   1.385   9.648  0.6550 -0.5464 -0.4217
 9431SOL    HW139752   4.418   1.428   9.729  0.9109  1.2210 -1.4553
 9431SOL    HW239753   4.313   1.338   9.678 -0.0079  0.9282  0.1919
 9432SOL     OW39754   2.675   1.643   4.773 -0.1759  0.2328  0.8222
 9432SOL    HW139755   2.604   1.607   4.721  0.9544 -0.6091 -0.1385
 9432SOL    HW239756   2.759   1.629   4.729 -1.4984 -0.7354 -1.3740
 9433SOL     OW39757   1.715   0.087   3.763 -0.5185 -0.2265 -0.2164
 9433SOL    HW139758   1.688   0.126   3.679  0.9299  0.8009 -0.2126
 9433SOL    HW239759   1.720   0.165   3.819 -0.3237 -0.2257 -0.2340
 9434SOL     OW39760   1.601   4.542   7.652 -0.4202  0.2697 -0.0767
 9434SOL    HW139761   1.670   4.521   7.590  0.2898  0.7920  0.5393
 9434SOL    HW239762   1.518   4.519   7.610  0.3483 -1.5720 -0.5812
 9435SOL     OW39763   1.833   1.769   5.536 -0.1499  0.1753  0.0063
 9435SOL    HW139764   1.883   1.740   5.612 -0.4367 -1.2071 -0.3376
 9435SOL    HW239765   1.830   1.864   5.546 -0.1799 -0.0288  2.1233
 9436SOL     OW39766   3.482   1.380   4.510 -0.0511 -0.1265 -0.0169
 9436SOL    HW139767   3.483   1.395   4.415  2.2200 -0.1405  0.0056
 9436SOL    HW239768   3.482   1.284   4.509  0.9718 -0.1704  3.0203
 9437SOL     OW39769   2.656   2.555   6.255 -0.0917  0.2473  0.3386
 9437SOL    HW139770   2.649   2.558   6.160 -1.8621 -0.6755  0.4354
 9437SOL    HW239771   2.579   2.593   6.298 -1.0876 -0.9141 -0.4109
 9438SOL     OW39772   4.136   3.265   8.789 -0.4133  0.4215 -0.0630
 9438SOL    HW139773   4.165   3.333   8.728 -0.4076  1.6474  1.3048
 9438SOL    HW239774   4.063   3.305   8.836 -0.2429 -2.0036  2.2265
 9439SOL     OW39775   0.114   0.964   8.215  0.2674  0.0014  0.0584
 9439SOL    HW139776   0.150   0.973   8.303  3.5062  0.2057 -1.2970
 9439SOL    HW239777   0.183   0.906   8.183  0.4058  1.5531 -2.4264
 9440SOL     OW39778   1.920   3.709   3.732 -0.3798 -0.4790 -0.2539
 9440SOL    HW139779   1.845   3.655   3.758 -1.7881  1.7395  0.2240
 9440SOL    HW239780   1.900   3.784   3.788  1.8604 -0.4213  0.4812
 9441SOL     OW39781   1.384   3.315  15.522 -0.2998  0.1280 -0.6787
 9441SOL    HW139782   1.346   3.283  15.603  0.8267 -2.5123 -1.1818
 9441SOL    HW239783   1.454   3.249  15.517  0.2579  0.7060 -0.4930
 9442SOL     OW39784   0.252   2.248  12.596  0.5362 -0.1193 -0.1699
 9442SOL    HW139785   0.188   2.200  12.650  0.9102 -0.9234 -0.4315
 9442SOL    HW239786   0.290   2.312  12.656  1.1754 -1.1694  0.5428
 9443SOL     OW39787   4.188   1.448   8.471 -0.4466  0.0840  0.0800
 9443SOL    HW139788   4.125   1.376   8.467  0.0473 -0.5164  3.3603
 9443SOL    HW239789   4.217   1.439   8.561  2.6535  0.8620 -0.8501
 9444SOL     OW39790   1.465   2.435   8.772 -0.1587 -0.5020  0.3867
 9444SOL    HW139791   1.442   2.389   8.852  0.7026  0.0224  0.9294
 9444SOL    HW239792   1.526   2.502   8.803 -1.2884  0.7869 -0.1476
 9445SOL     OW39793   3.659   4.693   7.861 -0.0478 -0.0017 -0.3572
 9445SOL    HW139794   3.621   0.017   7.935  0.1118  2.3314 -1.7637
 9445SOL    HW239795   3.750   4.722   7.860 -0.4304  1.1749 -0.9244
 9446SOL     OW39796   2.176   1.658   3.963  0.4991  0.1966 -0.6320
 9446SOL    HW139797   2.241   1.611   4.016 -1.3894 -1.9683 -0.2811
 9446SOL    HW239798   2.129   1.697   4.037 -0.7376  0.0744 -1.3539
 9447SOL     OW39799   0.394   3.483   6.243  0.0096 -0.0974 -0.0732
 9447SOL    HW139800   0.397   3.396   6.204  1.9724 -0.5407  1.0575
 9447SOL    HW239801   0.346   3.536   6.179 -0.4854  2.0866  2.0749
 9448SOL     OW39802   2.427   1.010   4.880 -0.4541 -0.1424  0.1990
 9448SOL    HW139803   2.359   0.978   4.821  0.9285 -0.3449 -1.2724
 9448SOL    HW239804   2.433   0.939   4.943  0.0182  1.1253  1.5965
 9449SOL     OW39805   4.280   4.570   7.579  0.2144  0.4967  0.4680
 9449SOL    HW139806   4.213   4.638   7.577  0.5730  0.8326 -0.0512
 9449SOL    HW239807   4.230   4.507   7.630  0.8192 -1.0219 -0.7978
 9450SOL     OW39808   4.346   2.249   9.485 -0.0294 -0.5046 -0.9070
 9450SOL    HW139809   4.352   2.267   9.579  1.3863 -0.1389 -1.0637
 9450SOL    HW239810   4.351   2.154   9.474 -0.1978 -0.5028 -1.0069
 9451SOL     OW39811   2.505   3.307   7.182 -0.1726 -0.4774 -0.4217
 9451SOL    HW139812   2.508   3.244   7.111  0.8058  0.5662 -1.3202
 9451SOL    HW239813   2.529   3.257   7.260  1.2573 -1.2596 -1.3557
 9452SOL     OW39814   3.134   4.631   3.462 -0.1513 -0.2489  0.1465
 9452SOL    HW139815   3.043   4.613   3.486 -0.4119  0.4565 -0.2953
 9452SOL    HW239816   3.145   4.722   3.492 -0.8706  0.7890 -2.7821
 9453SOL     OW39817   1.426   1.078   8.377 -0.1337 -0.4662  0.3478
 9453SOL    HW139818   1.420   0.990   8.416 -1.3125 -0.6023 -0.1295
 9453SOL    HW239819   1.339   1.085   8.339  0.3845 -1.5322 -1.0251
 9454SOL     OW39820   3.970   2.529  12.049  0.1477  0.5694 -0.0207
 9454SOL    HW139821   3.903   2.597  12.060  0.8098  1.1289  0.5055
 9454SOL    HW239822   3.948   2.456  12.106  0.5782 -0.1709 -0.7887
 9455SOL     OW39823   3.278   2.268   2.133 -0.5234 -0.4195 -0.1256
 9455SOL    HW139824   3.187   2.274   2.106 -0.6825  1.4261  0.8378
 9455SOL    HW239825   3.270   2.189   2.187 -0.5916 -1.0391 -1.0524
 9456SOL     OW39826   3.823   1.944   6.955  0.0107 -0.1022  0.7503
 9456SOL    HW139827   3.903   1.947   6.903 -0.9550 -0.6797 -0.7858
 9456SOL    HW239828   3.756   1.954   6.887 -0.1260  2.3885  1.2433
 9457SOL     OW39829   0.082   1.306   4.025 -0.1144  0.0370  0.0639
 9457SOL    HW139830   0.165   1.329   4.065 -0.5547  0.6884  0.6014
 9457SOL    HW239831   0.036   1.383   3.991 -1.6076 -1.9530 -2.4478
 9458SOL     OW39832   1.839   0.844  16.538 -0.0891  0.2326  0.3336
 9458SOL    HW139833   1.874   0.761  16.569 -0.1796  0.4891  1.1169
 9458SOL    HW239834   1.837   0.824  16.444  1.3300 -0.8981  0.5503
 9459SOL     OW39835   1.063   4.637   1.931 -0.1968 -0.0080  0.3907
 9459SOL    HW139836   0.970   4.660   1.924 -0.3164 -1.3290 -2.0007
 9459SOL    HW239837   1.106   4.670   1.852  0.5390  0.8448  1.1407
 9460SOL     OW39838   2.925   3.608   4.226 -0.1643  0.3372 -0.2207
 9460SOL    HW139839   2.936   3.615   4.321 -0.4502 -1.7058 -0.0568
 9460SOL    HW239840   2.903   3.701   4.220  2.5206  0.9247 -1.3399
 9461SOL     OW39841   1.403   2.692   5.523 -0.7110  0.1864  0.8075
 9461SOL    HW139842   1.400   2.787   5.513  2.8896  0.2561  0.2810
 9461SOL    HW239843   1.489   2.670   5.559  0.0695 -0.4187 -1.3767
 9462SOL     OW39844   0.793   4.494   4.802 -0.5023 -0.1293  0.1743
 9462SOL    HW139845   0.749   4.486   4.887 -0.4236 -0.3618  0.1952
 9462SOL    HW239846   0.727   4.544   4.754  0.1361 -0.8906 -1.5133
 9463SOL     OW39847   2.964   0.482   6.423  0.5683 -0.3845  0.2181
 9463SOL    HW139848   2.917   0.506   6.343 -0.0468  0.2568  0.7781
 9463SOL    HW239849   2.933   0.550   6.482 -0.5060 -0.9185  0.2818
 9464SOL     OW39850   1.806   2.596  10.237  0.2504 -0.8148 -0.0912
 9464SOL    HW139851   1.822   2.545  10.316 -0.4942 -0.6857  0.1485
 9464SOL    HW239852   1.816   2.687  10.267 -1.4615 -0.4543 -0.5703
 9465SOL     OW39853   3.747   2.576   7.084 -0.3956 -0.5206 -0.1253
 9465SOL    HW139854   3.765   2.483   7.069 -1.1023 -0.4465 -1.4532
 9465SOL    HW239855   3.749   2.587   6.989  0.8333 -0.3558 -0.0801
 9466SOL     OW39856   3.102   4.667   5.988 -0.4281  0.3393 -0.0049
 9466SOL    HW139857   3.145   0.020   6.025  0.1946 -0.2422  0.4628
 9466SOL    HW239858   3.107   4.611   6.065 -0.0509 -1.2027 -1.1365
 9467SOL     OW39859   0.640   2.097   4.337 -0.4223 -0.4260 -0.2164
 9467SOL    HW139860   0.608   2.080   4.248  1.0204 -0.1400 -0.7980
 9467SOL    HW239861   0.655   2.008   4.370 -0.2503 -1.0732 -2.0455
 9468SOL     OW39862   0.525   1.522   0.657  0.4132  0.2162  0.2096
 9468SOL    HW139863   0.500   1.516   0.749  0.7681  0.9108  0.3555
 9468SOL    HW239864   0.440   1.513   0.616  0.7267 -0.0631 -0.3808
 9469SOL     OW39865   3.827   1.896   3.759 -0.3972 -0.4123  0.5809
 9469SOL    HW139866   3.742   1.853   3.752 -0.8926  0.4021  1.6212
 9469SOL    HW239867   3.886   1.821   3.772 -0.6988 -1.2532 -2.9043
 9470SOL     OW39868   3.240   2.851   2.120  0.3599 -0.3113  0.1253
 9470SOL    HW139869   3.265   2.806   2.200  0.2360  3.2650  2.1441
 9470SOL    HW239870   3.324   2.838   2.076  1.3456  2.0024  1.3235
 9471SOL     OW39871   1.631   3.067   6.693  0.6105  0.0926 -0.5581
 9471SOL    HW139872   1.598   3.110   6.614  0.6216  2.4060  0.7010
 9471SOL    HW239873   1.576   2.989   6.705  0.6575  0.3406  1.2810
 9472SOL     OW39874   0.274   3.060  17.691 -0.6931 -0.8090 -0.1795
 9472SOL    HW139875   0.304   3.140   0.039 -0.0872 -0.4676 -1.2326
 9472SOL    HW239876   0.179   3.069   0.003 -0.7775 -0.8809 -1.1748
 9473SOL     OW39877   4.192   2.338   3.082  0.0723  0.1271  0.3165
 9473SOL    HW139878   4.120   2.311   3.025  1.0989  2.5161 -2.1056
 9473SOL    HW239879   4.148   2.393   3.147  0.0141 -0.8114  1.0722
 9474SOL     OW39880   3.107   2.979  11.771  0.1094  0.3561  0.3799
 9474SOL    HW139881   3.079   3.040  11.703  1.0211 -0.9358 -1.1375
 9474SOL    HW239882   3.044   3.003  11.839  0.8550 -0.5202  1.3822
 9475SOL     OW39883   4.357   3.696   2.303  0.3204 -0.3075  0.1331
 9475SOL    HW139884   4.365   3.777   2.354  0.5552  0.2973 -0.8715
 9475SOL    HW239885   4.435   3.697   2.248 -0.1802  1.3294 -0.5548
 9476SOL     OW39886   3.874   1.989   9.281 -0.0683 -0.2159  0.4292
 9476SOL    HW139887   3.920   2.055   9.229 -0.8119 -0.0252  0.0207
 9476SOL    HW239888   3.856   2.044   9.357  2.9324  1.3109  0.0455
 9477SOL     OW39889   0.175   0.789   5.869 -0.1139  0.1220  0.1214
 9477SOL    HW139890   0.221   0.746   5.796  1.1458 -1.2696  1.7406
 9477SOL    HW239891   0.122   0.718   5.905 -1.0845  1.7900  1.9444
 9478SOL     OW39892   3.641   0.501   0.057 -0.5643  0.0563 -0.0846
 9478SOL    HW139893   3.611   0.566   0.121  1.1725 -1.6490  2.4912
 9478SOL    HW239894   3.693   0.440   0.110 -1.4196  1.8886  2.8958
 9479SOL     OW39895   0.962   1.709   5.064  0.4972 -0.3701 -0.3443
 9479SOL    HW139896   0.875   1.710   5.024 -0.0827  0.9324  0.9615
 9479SOL    HW239897   0.958   1.628   5.115 -2.4971 -0.3101 -0.4848
 9480SOL     OW39898   1.065   0.812   0.754 -0.9934  0.0117  0.0178
 9480SOL    HW139899   1.126   0.842   0.687  1.3260 -2.0898  1.1788
 9480SOL    HW239900   0.988   0.863   0.732  0.1594  1.5220 -0.5630
 9481SOL     OW39901   3.106   3.365   9.919  0.5105  0.4168  0.4175
 9481SOL    HW139902   3.118   3.319  10.002 -1.3737 -2.3752 -0.8502
 9481SOL    HW239903   3.187   3.414   9.912  0.7624 -0.0984 -0.2284
 9482SOL     OW39904   1.791   0.228  10.773  0.1302  0.0573  1.0769
 9482SOL    HW139905   1.709   0.255  10.732  0.5831 -1.8689 -1.0818
 9482SOL    HW239906   1.775   0.136  10.793  1.5831 -0.6605 -1.0069
 9483SOL     OW39907   3.993   2.951  13.125 -0.0902 -0.6445 -0.1122
 9483SOL    HW139908   3.971   2.920  13.213  1.0189  0.4254  0.5359
 9483SOL    HW239909   4.012   2.867  13.083 -0.2706  0.3274 -2.1154
 9484SOL     OW39910   0.234   3.122   7.445  0.2772  0.1003 -0.1890
 9484SOL    HW139911   0.223   3.061   7.372  0.3096 -2.3439  1.8459
 9484SOL    HW239912   0.281   3.196   7.405  1.5610  1.5819  4.1316
 9485SOL     OW39913   4.686   2.087  12.429 -0.0533  0.0418  0.3079
 9485SOL    HW139914   4.594   2.071  12.411 -0.3389  0.9502  0.9586
 9485SOL    HW239915   4.688   2.087  12.525  1.0279  0.2472  0.2867
 9486SOL     OW39916   2.559   2.036   9.792 -1.1033 -0.1948  0.0504
 9486SOL    HW139917   2.600   2.041   9.878 -1.1601  3.0719 -0.1234
 9486SOL    HW239918   2.477   1.995   9.821 -2.3341  1.7901 -0.6703
 9487SOL     OW39919   1.702   2.155   0.283 -0.3376  0.2438 -0.5503
 9487SOL    HW139920   1.728   2.083   0.341 -0.7245  1.1336  0.7380
 9487SOL    HW239921   1.787   2.163   0.239 -0.1696  0.6489 -0.1593
 9488SOL     OW39922   2.981   2.815  15.763 -0.5142 -0.2171 -0.2886
 9488SOL    HW139923   3.009   2.725  15.746  2.3463  0.8684 -1.3868
 9488SOL    HW239924   2.926   2.798  15.839  0.6569  2.4948  1.1368
 9489SOL     OW39925   3.399   3.736   1.031  0.0663  0.0096  0.0800
 9489SOL    HW139926   3.455   3.664   1.059  0.8922  0.7610  0.3669
 9489SOL    HW239927   3.450   3.763   0.954  0.2295  0.5632  0.3789
 9490SOL     OW39928   2.987   1.135   7.601 -0.0627 -0.1762 -0.3406
 9490SOL    HW139929   2.978   1.143   7.506 -2.3744 -1.9671 -0.2566
 9490SOL    HW239930   2.908   1.177   7.635  1.5772  2.7013 -0.0469
 9491SOL     OW39931   1.243   0.476   7.583  0.0469 -0.0829  0.4019
 9491SOL    HW139932   1.225   0.569   7.566  0.8228  0.5194  2.9571
 9491SOL    HW239933   1.338   0.490   7.583 -0.0334  0.4725  0.6935
 9492SOL     OW39934   4.669   3.473   6.404  0.0667  0.4386 -0.0009
 9492SOL    HW139935   4.701   3.453   6.492 -0.7934  0.6799  0.3593
 9492SOL    HW239936   4.589   3.423   6.389  1.8463 -3.0313  2.1962
 9493SOL     OW39937   4.545   0.897   9.720  0.2520 -0.2026  0.8177
 9493SOL    HW139938   4.501   0.979   9.696  0.4957 -0.2597  0.1783
 9493SOL    HW239939   4.625   0.933   9.759 -0.0804 -1.5840  2.7377
 9494SOL     OW39940   0.332   0.518   6.263 -0.8979 -0.3468 -0.1674
 9494SOL    HW139941   0.316   0.424   6.275 -0.1636 -0.4095  0.3111
 9494SOL    HW239942   0.249   0.553   6.296 -0.4557 -0.5406  1.1492
 9495SOL     OW39943   3.205   3.342   2.731 -0.1187  0.0720 -0.0972
 9495SOL    HW139944   3.239   3.426   2.763 -1.4270  0.0624  1.3278
 9495SOL    HW239945   3.286   3.292   2.743  0.3469  1.7582  4.0023
 9496SOL     OW39946   0.501   0.408   7.624  0.1065 -0.2967 -0.3571
 9496SOL    HW139947   0.408   0.420   7.642 -0.1912 -2.0925 -0.7586
 9496SOL    HW239948   0.513   0.319   7.656 -2.0905 -0.0565  1.1042
 9497SOL     OW39949   2.679   0.229   7.071  0.3819 -0.5453  0.1482
 9497SOL    HW139950   2.760   0.230   7.123 -0.3049 -1.2343  1.2431
 9497SOL    HW239951   2.708   0.219   6.981 -2.5896  1.3785 -1.0137
 9498SOL     OW39952   3.395   4.471   3.076  0.2901  0.0400 -0.7531
 9498SOL    HW139953   3.413   4.404   3.142  0.0715 -0.0847 -0.8211
 9498SOL    HW239954   3.337   4.531   3.121 -0.3770 -0.6540 -0.6866
 9499SOL     OW39955   0.711   1.534   8.334 -0.1826  0.5772 -0.5028
 9499SOL    HW139956   0.791   1.487   8.357 -0.1803  1.4933  1.3685
 9499SOL    HW239957   0.641   1.469   8.335  2.7607 -2.5222  0.1303
 9500SOL     OW39958   4.203   0.884   6.125  0.3899  0.6270  0.3573
 9500SOL    HW139959   4.263   0.880   6.051 -1.8390 -1.0448 -1.3545
 9500SOL    HW239960   4.261   0.874   6.200  1.3491  1.9027 -0.2140
 9501SOL     OW39961   3.684   1.127  11.028 -0.4718 -0.1139  0.1429
 9501SOL    HW139962   3.704   1.140  11.121  1.9394  2.1882 -0.6958
 9501SOL    HW239963   3.599   1.087  11.048  0.0206 -0.5114  1.4773
 9502SOL     OW39964   2.234   3.528   6.877  0.1777  0.1408 -0.6408
 9502SOL    HW139965   2.253   3.599   6.815  1.4606  0.0316 -0.3819
 9502SOL    HW239966   2.149   3.498   6.845 -0.5118 -0.5802  1.9034
 9503SOL     OW39967   3.689   3.897   7.252  0.2099  0.3819  0.1608
 9503SOL    HW139968   3.737   3.856   7.180  1.7385  1.6336  0.4485
 9503SOL    HW239969   3.651   3.978   7.217  1.5509  1.1895  0.5409
 9504SOL     OW39970   0.272   0.113  11.205  0.2163  0.3958 -0.2789
 9504SOL    HW139971   0.325   0.184  11.242  0.1962  0.0065  0.4910
 9504SOL    HW239972   0.188   0.138  11.242  0.0991 -0.4066 -0.0018
 9505SOL     OW39973   2.864   0.969   4.144 -0.4669  0.3681 -0.3182
 9505SOL    HW139974   2.855   1.064   4.145  0.2524  0.4344 -0.6402
 9505SOL    HW239975   2.915   0.949   4.066  0.9074 -1.1656  0.9556
 9506SOL     OW39976   1.922   3.359   3.397 -0.4139  0.4344 -0.1412
 9506SOL    HW139977   1.930   3.288   3.333 -2.9613 -0.0605  0.0967
 9506SOL    HW239978   1.865   3.310   3.455  0.9742  0.1936  0.9969
 9507SOL     OW39979   0.953   3.121   8.081 -0.2860 -0.3048  0.9714
 9507SOL    HW139980   0.950   3.173   8.000  2.8252 -2.0026 -0.2296
 9507SOL    HW239981   0.887   3.170   8.130 -1.7896 -0.9217 -0.4135
 9508SOL     OW39982   1.074   3.665   1.383 -0.1997  0.8893  0.1002
 9508SOL    HW139983   1.114   3.594   1.333  0.2336  2.1444 -1.3355
 9508SOL    HW239984   1.157   3.698   1.416  0.2368 -1.1963  1.1098
 9509SOL     OW39985   1.747   0.311  16.292 -0.3013  0.2618 -0.3014
 9509SOL    HW139986   1.785   0.332  16.378 -2.4219  0.0438  0.6826
 9509SOL    HW239987   1.776   0.221  16.277  3.4068  1.8032 -2.4700
 9510SOL     OW39988   3.855   1.412   2.522 -0.6366 -0.1246  0.0778
 9510SOL    HW139989   3.912   1.395   2.597 -0.6546 -1.1486 -0.1377
 9510SOL    HW239990   3.800   1.334   2.516 -0.4053 -0.1376 -1.9751
 9511SOL     OW39991   0.157   3.655   0.575  0.5927  0.5242  0.4277
 9511SOL    HW139992   0.173   3.736   0.624 -1.0264  1.9175 -1.3482
 9511SOL    HW239993   0.088   3.616   0.629 -0.0621  1.3267  0.1585
 9512SOL     OW39994   0.286   3.489   5.335 -0.0974  0.0951  0.3342
 9512SOL    HW139995   0.303   3.417   5.396 -3.2034 -1.4351 -0.6159
 9512SOL    HW239996   0.211   3.460   5.283  0.1159 -0.2011  0.1915
 9513SOL     OW39997   4.227   0.747   5.706  0.3184 -0.0889 -0.1593
 9513SOL    HW139998   4.142   0.752   5.662  0.1906  0.6380  0.1875
 9513SOL    HW239999   4.277   0.727   5.627 -0.2681 -0.4262 -0.4448
 9514SOL     OW40000   0.318   2.160   2.588 -0.4071  0.4596 -0.4250
 9514SOL    HW140001   0.279   2.146   2.674 -0.6228 -1.5580 -0.8515
 9514SOL    HW240002   0.237   2.155   2.538  0.2761 -3.1887 -1.1437
 9515SOL     OW40003   3.752   0.900   8.464 -0.2988  0.0821 -0.2019
 9515SOL    HW140004   3.685   0.861   8.408 -0.2383 -0.1980 -0.0796
 9515SOL    HW240005   3.702   0.969   8.507  0.0484  1.3888 -1.9238
 9516SOL     OW40006   1.979   3.888   6.000  0.2796 -0.0576 -0.1866
 9516SOL    HW140007   2.067   3.860   5.973  0.8849  2.1782 -0.4878
 9516SOL    HW240008   1.999   3.980   6.018 -2.0606  0.4834 -0.2986
 9517SOL     OW40009   1.313   2.471   2.390 -0.4963 -0.3550 -0.5567
 9517SOL    HW140010   1.250   2.522   2.339  0.4554 -0.2948 -1.6712
 9517SOL    HW240011   1.375   2.543   2.401  1.2879 -2.2364  1.7149
 9518SOL     OW40012   1.878   3.607  14.833  0.0959 -0.2506  0.2264
 9518SOL    HW140013   1.863   3.532  14.775 -1.3405 -1.2689  1.9363
 9518SOL    HW240014   1.887   3.677  14.768 -0.0223  0.2116  0.7108
 9519SOL     OW40015   2.402   2.206  12.392 -1.2402  0.2381 -0.4342
 9519SOL    HW140016   2.348   2.161  12.328 -0.9752  0.8921 -1.1148
 9519SOL    HW240017   2.340   2.246  12.454  0.4596  2.1354  0.0353
 9520SOL     OW40018   1.865   3.223  16.593  0.0161  0.3359 -0.4864
 9520SOL    HW140019   1.851   3.153  16.529 -1.5717  2.9198 -2.9577
 9520SOL    HW240020   1.876   3.295  16.531  1.0471  1.8300  1.3914
 9521SOL     OW40021   0.844   4.642   5.960 -0.0021  0.2648 -0.3065
 9521SOL    HW140022   0.884   4.722   5.926 -0.4376  0.8390  0.5387
 9521SOL    HW240023   0.778   4.670   6.023 -0.9191  0.2219 -1.2632
 9522SOL     OW40024   0.889   1.964   7.456  0.0741 -0.4365  0.0287
 9522SOL    HW140025   0.884   2.051   7.417  0.7181 -0.0591  0.7926
 9522SOL    HW240026   0.946   1.983   7.531 -0.2637 -2.2573  0.7575
 9523SOL     OW40027   0.284   0.083   8.753 -0.0829  0.4554  0.1062
 9523SOL    HW140028   0.234   0.081   8.672  0.4309 -0.7567 -0.1807
 9523SOL    HW240029   0.224   0.135   8.806  0.9254 -0.9874  2.7253
 9524SOL     OW40030   1.270   3.878  17.358 -0.0039  0.3096  0.1745
 9524SOL    HW140031   1.335   3.812  17.334  0.0718  0.1735  0.7597
 9524SOL    HW240032   1.194   3.832  17.394 -0.7243  1.8401  0.6273
 9525SOL     OW40033   2.523   3.040   8.638  0.2849  0.6885 -0.2850
 9525SOL    HW140034   2.549   3.075   8.723 -1.0809 -1.2067  0.9147
 9525SOL    HW240035   2.517   3.123   8.591 -2.0902  0.7327  0.1085
 9526SOL     OW40036   1.503   3.108   9.202 -0.2676  0.6337  0.7711
 9526SOL    HW140037   1.474   3.087   9.114  1.2163 -1.8459  0.8473
 9526SOL    HW240038   1.578   3.050   9.216 -1.2477 -0.8517 -0.1427
 9527SOL     OW40039   3.708   1.640   7.457 -0.4219  0.4337  0.1484
 9527SOL    HW140040   3.718   1.591   7.375 -0.8419  1.5669 -0.5857
 9527SOL    HW240041   3.792   1.612   7.494  0.0115  0.7828 -0.5491
 9528SOL     OW40042   4.509   4.507  11.647 -0.0574  0.2304 -0.3124
 9528SOL    HW140043   4.524   4.593  11.687 -1.2754 -0.7272  2.2637
 9528SOL    HW240044   4.459   4.466  11.718 -0.8195 -1.1154 -1.6347
 9529SOL     OW40045   0.406   4.050   6.924 -0.2753 -0.5242 -0.3348
 9529SOL    HW140046   0.341   3.999   6.973 -0.7471  0.2663 -0.1522
 9529SOL    HW240047   0.351   4.088   6.856  0.1108 -3.0363 -2.0609
 9530SOL     OW40048   0.403   4.252   5.068 -0.0348 -0.0541  0.4845
 9530SOL    HW140049   0.392   4.338   5.027  0.5477 -0.1397  0.1615
 9530SOL    HW240050   0.483   4.223   5.026  1.5997  4.3959  0.5509
 9531SOL     OW40051   4.186   3.006  14.021 -0.0046  0.8298  0.7331
 9531SOL    HW140052   4.233   2.939  13.972 -3.2837 -0.4781 -0.6196
 9531SOL    HW240053   4.137   2.957  14.087  1.5064 -2.4228 -0.5267
 9532SOL     OW40054   0.534   2.390   8.126 -0.0289 -0.0099  0.2197
 9532SOL    HW140055   0.569   2.398   8.037  0.1062 -2.1962  0.0959
 9532SOL    HW240056   0.479   2.469   8.132  0.8273  0.5765  0.3984
 9533SOL     OW40057   0.663   0.813   5.021 -0.1275  0.8787 -0.1153
 9533SOL    HW140058   0.682   0.889   5.076  0.9464  1.9777 -2.0149
 9533SOL    HW240059   0.595   0.852   4.965  2.6019  0.0726 -3.9984
 9534SOL     OW40060   0.097   3.815  11.675 -0.5922  0.5596  0.4533
 9534SOL    HW140061   0.075   3.726  11.699 -0.3264  0.6972  1.2148
 9534SOL    HW240062   0.186   3.798  11.642 -0.6624 -0.4112  0.7910
 9535SOL     OW40063   4.097   4.143   4.039 -0.0421 -0.2010  1.0285
 9535SOL    HW140064   4.169   4.203   4.019  0.2906 -0.9290  0.0320
 9535SOL    HW240065   4.115   4.074   3.975 -0.2845  2.2087 -1.6243
 9536SOL     OW40066   1.002   2.939   6.561  0.3674 -0.5363  0.1777
 9536SOL    HW140067   0.914   2.919   6.592 -1.0679  0.8825 -3.0064
 9536SOL    HW240068   1.012   3.024   6.605  0.1283 -0.4086 -0.0120
 9537SOL     OW40069   1.724   4.412   4.633 -0.6810  0.1854 -0.7215
 9537SOL    HW140070   1.665   4.417   4.709 -0.7226 -0.5840 -0.7033
 9537SOL    HW240071   1.691   4.496   4.602 -0.0477  0.4114 -0.7790
 9538SOL     OW40072   3.866   4.185  17.428 -0.4568  0.0183  0.2927
 9538SOL    HW140073   3.927   4.255  17.405 -1.6141  0.8582 -0.2672
 9538SOL    HW240074   3.791   4.232  17.466 -2.4323 -1.9574 -1.2022
 9539SOL     OW40075   3.798   2.488   8.431 -0.4157 -0.4958 -0.0927
 9539SOL    HW140076   3.890   2.462   8.445 -0.0667  0.4030 -0.7407
 9539SOL    HW240077   3.803   2.526   8.344  0.4316  0.1004  0.2145
 9540SOL     OW40078   2.529   1.469   5.761 -0.0963 -0.0325  0.0286
 9540SOL    HW140079   2.602   1.520   5.727  1.0962 -0.5952  1.7914
 9540SOL    HW240080   2.522   1.407   5.687 -0.6155 -0.2017  0.2147
 9541SOL     OW40081   3.162   0.079  14.182 -0.5974  0.3796  0.1009
 9541SOL    HW140082   3.073   0.067  14.151  0.5741  1.3472 -3.7224
 9541SOL    HW240083   3.204   0.003  14.141  1.0779  1.4850 -0.2860
 9542SOL     OW40084   4.246   1.871   7.869 -0.2821 -0.2263  0.4949
 9542SOL    HW140085   4.304   1.937   7.830 -1.0298  0.9228  1.3175
 9542SOL    HW240086   4.187   1.852   7.797  1.5613 -2.2897 -0.4587
 9543SOL     OW40087   1.244   0.124   6.081  0.0092 -0.6450  0.1031
 9543SOL    HW140088   1.292   0.204   6.105  0.8127 -1.8583  2.5280
 9543SOL    HW240089   1.302   0.079   6.020  0.3759  0.3953 -0.3145
 9544SOL     OW40090   0.861   3.949  15.417  0.4144 -0.0193 -0.0009
 9544SOL    HW140091   0.887   4.029  15.371  0.5820 -0.3109 -0.4014
 9544SOL    HW240092   0.949   3.914  15.413  0.4227 -0.1079  0.8545
 9545SOL     OW40093   4.054   2.798  10.806  0.2960  0.6531 -0.3150
 9545SOL    HW140094   4.025   2.811  10.896  0.2612 -1.4307 -0.0173
 9545SOL    HW240095   4.122   2.865  10.800 -0.1617  1.1047 -0.4728
 9546SOL     OW40096   3.408   0.585   2.648 -0.5250  0.5959  0.1154
 9546SOL    HW140097   3.347   0.547   2.585 -1.5931  1.8460  0.3944
 9546SOL    HW240098   3.364   0.666   2.674  1.5120  1.8365 -0.2459
 9547SOL     OW40099   1.073   2.007  13.548  0.6316 -0.1611 -0.4459
 9547SOL    HW140100   1.075   2.087  13.496 -1.1977  0.5856  0.6419
 9547SOL    HW240101   1.100   2.048  13.631  1.1992 -2.1088  0.3297
 9548SOL     OW40102   3.536   1.051  14.751  0.2649  0.3278 -0.1082
 9548SOL    HW140103   3.520   1.145  14.750  1.1477  0.4752 -0.6628
 9548SOL    HW240104   3.483   1.012  14.682  1.2643  0.4389 -0.9362
 9549SOL     OW40105   2.740   0.976   4.651  0.1301 -0.1582 -0.5763
 9549SOL    HW140106   2.784   1.059   4.672 -0.4009  0.0135 -0.1261
 9549SOL    HW240107   2.747   0.961   4.557 -0.1038 -1.1536 -0.4325
 9550SOL     OW40108   3.465   4.560   7.661  0.4423 -0.3269 -0.2039
 9550SOL    HW140109   3.528   4.625   7.694 -0.3014  0.6613 -0.7538
 9550SOL    HW240110   3.492   4.523   7.577 -2.6523 -1.6041 -0.5982
 9551SOL     OW40111   2.899   1.182  12.142  0.6946 -0.3332  0.1617
 9551SOL    HW140112   2.822   1.126  12.146 -1.2362  2.1922 -1.4382
 9551SOL    HW240113   2.871   1.257  12.195  1.7906  0.3310 -0.2056
 9552SOL     OW40114   1.561   0.096   2.622 -0.1597 -0.2381  0.1623
 9552SOL    HW140115   1.495   0.037   2.587 -1.0542  1.7309 -1.4447
 9552SOL    HW240116   1.640   0.069   2.575  0.0024  0.7880 -0.1481
 9553SOL     OW40117   2.226   4.566   4.111 -0.7275  0.1823  0.2264
 9553SOL    HW140118   2.241   4.647   4.063  0.8112 -0.9015 -1.1363
 9553SOL    HW240119   2.288   4.508   4.066  0.4216  1.6013 -0.0038
 9554SOL     OW40120   4.647   3.529   4.349  0.0977 -0.2171  0.4751
 9554SOL    HW140121   4.564   3.484   4.365 -0.2237  0.4242  0.6364
 9554SOL    HW240122   4.621   3.594   4.284 -0.1497 -0.5464  0.2434
 9555SOL     OW40123   3.779   2.139   4.331  0.0446  0.0635 -0.8932
 9555SOL    HW140124   3.706   2.156   4.272  0.4242 -1.7086 -1.9117
 9555SOL    HW240125   3.844   2.189   4.282  1.6890 -0.6552  0.5520
 9556SOL     OW40126   2.476   1.217   9.172  0.5449 -0.2544  0.0589
 9556SOL    HW140127   2.390   1.234   9.133  0.0597 -2.6431  0.1133
 9556SOL    HW240128   2.515   1.203   9.086  0.0235 -1.6153  0.0436
 9557SOL     OW40129   2.386   1.108   7.826  0.0928 -0.1904  0.4870
 9557SOL    HW140130   2.391   1.145   7.914  0.3971  1.5433 -0.2616
 9557SOL    HW240131   2.409   1.185   7.774  1.0356 -0.3231  0.6998
 9558SOL     OW40132   4.002   2.091   1.387  0.0366 -0.3974  0.4503
 9558SOL    HW140133   3.956   2.159   1.437 -0.7569  0.3062 -1.2344
 9558SOL    HW240134   4.029   2.142   1.311  0.2517 -1.2888 -0.0787
 9559SOL     OW40135   2.916   0.203  10.856  0.1333  0.6476  0.5757
 9559SOL    HW140136   2.894   0.134  10.918 -0.5476  2.3299  2.1744
 9559SOL    HW240137   2.980   0.248  10.911 -0.5025  1.2441  0.8121
 9560SOL     OW40138   1.748   3.829   0.785 -1.0701  0.9199 -0.0717
 9560SOL    HW140139   1.702   3.815   0.868  0.2660 -1.5336  0.2521
 9560SOL    HW240140   1.682   3.793   0.726 -0.8847  2.8075 -1.4124
 9561SOL     OW40141   2.535   4.214   6.203 -0.4875 -0.1757 -0.8300
 9561SOL    HW140142   2.455   4.163   6.217 -0.1463 -0.1122  1.3476
 9561SOL    HW240143   2.538   4.266   6.284 -0.4450  0.2458 -1.0998
 9562SOL     OW40144   3.276   1.453   5.082  0.3268  0.3061 -0.0973
 9562SOL    HW140145   3.345   1.407   5.129 -0.4102  1.6824  2.2885
 9562SOL    HW240146   3.211   1.458   5.152 -0.7098 -2.0076 -0.8741
 9563SOL     OW40147   3.750   1.787  11.869  0.6575  0.3170  0.0829
 9563SOL    HW140148   3.763   1.829  11.953  0.3796  0.5860 -0.0078
 9563SOL    HW240149   3.725   1.697  11.890  0.1987 -0.0580 -2.0356
 9564SOL     OW40150   4.585   2.365  14.164 -0.1892 -0.1211 -0.0213
 9564SOL    HW140151   4.662   2.395  14.213  1.1355 -0.8103 -1.6559
 9564SOL    HW240152   4.568   2.454  14.134 -1.8887  0.0825  1.5592
 9565SOL     OW40153   3.071   0.742   8.033 -1.2013  0.3144  0.4605
 9565SOL    HW140154   3.006   0.739   8.104 -0.7345 -1.3814  0.8163
 9565SOL    HW240155   3.025   0.791   7.964  1.3130  3.4616  1.0192
   4.72322   4.72322  17.69475
