Membrane in water
40155
    1TCq1    O1    1   4.625   0.355  11.351 -0.3274  0.4033  0.1794
    1TCq1    C1    2   4.557   0.276  11.436  0.0411 -0.0183  0.0313
    1TCq1    O2    3   4.592   0.253  11.548  0.1778  0.0555  0.6514
    1TCq1    C2    4   4.426   0.237  11.378  0.2636  0.1660  0.6381
    1TCq1    C3    5   4.430   0.204  11.238 -0.1915 -0.9787  0.0510
    1TCq1    C4    6   4.340   0.115  11.187 -0.0389 -0.3736 -0.5563
    1TCq1    C5    7   4.240   0.072  11.268 -0.1272  0.3302  0.1136
    1TCq1    C6    8   4.230   0.114  11.394 -0.0864  0.0551 -0.0812
    1TCq1    C7    9   4.328   0.188  11.455 -0.5320  0.8898 -0.8592
    1TCq1    C8   10   4.157   0.020  11.478  0.4792  0.1560  0.1175
    1TCq1    O4   11   4.052   4.698  11.433  0.0406 -0.4317  0.1666
    1TCq1    C9   12   4.348   0.077  11.053 -0.4851 -0.2392 -0.3408
    1TCq1    O5   13   4.254   0.025  10.999  0.3320  0.9332 -0.3600
    1TCq1    O6   14   4.463   0.096  11.000  0.2451 -0.7636  0.0267
    1TCq1    H1   15   4.571   0.388  11.276  0.7843 -2.2710 -1.7864
    1TCq1    H2   16   4.520   0.235  11.186  0.0257  0.2782  1.1749
    1TCq1    H3   17   4.167   0.003  11.228 -0.2818  0.6069 -0.0865
    1TCq1    H4   18   4.322   0.224  11.557  3.2705  2.5290 -1.1989
    2MPD2     C   19   4.129   4.455  11.897  0.2542 -0.3586 -0.5036
    2MPD2    C1   20   4.039   4.478  11.795  0.5791  0.3130 -0.1747
    2MPD2    C2   21   4.077   4.554  11.687 -0.0354  0.8336 -0.2453
    2MPD2    C3   22   4.200   4.619  11.690 -0.5923  1.0003  0.1065
    2MPD2    C4   23   4.288   4.602  11.796 -0.0033 -0.5523  0.8456
    2MPD2    C5   24   4.258   4.513  11.895 -0.0649  0.6102 -0.7926
    2MPD2     H   25   4.003   4.567  11.609 -3.6334 -0.5663  2.9429
    2MPD2    H1   26   4.378   4.661  11.810 -1.7371  2.2292  0.2510
    2MPD2    H2   27   4.104   4.391  11.981  1.8424 -0.0134  0.2207
    2MPD2    H3   28   4.333   4.513  11.973  0.1789  0.7930 -1.0275
    2MPD2     N   29   4.234   4.712  11.588  0.2714 -0.1813 -0.3358
    2MPD2    H5   30   4.325   0.031  11.597  0.1531 -0.1211  0.5701
    2MPD2    N1   31   3.910   4.418  11.800 -0.2034  0.5004 -0.6299
    2MPD2    H7   32   3.851   4.435  11.719 -2.0756 -0.2147  0.5869
    3TCq1    O1   33   3.049   0.103  10.302  0.2200  0.0160  0.4125
    3TCq1    C1   34   3.128   0.193  10.365 -0.2933  0.1547  0.4649
    3TCq1    O2   35   3.247   0.208  10.351  0.5589 -0.0937 -0.3913
    3TCq1    C2   36   3.043   0.265  10.468  0.1380  0.1795  0.0388
    3TCq1    C3   37   2.914   0.287  10.444 -0.2415  0.2238 -0.0024
    3TCq1    C4   38   2.856   0.369  10.535 -0.9958  0.4065 -0.3951
    3TCq1    C5   39   2.928   0.433  10.634  0.4874  0.0961 -0.7368
    3TCq1    C6   40   3.056   0.397  10.649 -0.6099 -0.1505  0.0137
    3TCq1    C7   41   3.114   0.316  10.563 -0.5882 -0.0356  0.2440
    3TCq1    C8   42   3.142   0.463  10.746  0.3507 -0.2782 -0.0767
    3TCq1    O4   43   3.245   0.411  10.792 -0.4601  0.0634 -0.0995
    3TCq1    C9   44   2.720   0.410  10.516  0.7504 -0.2875  0.7619
    3TCq1    O5   45   2.676   0.492  10.599  0.2924  0.5054  0.9853
    3TCq1    O6   46   2.651   0.338  10.439  0.1727 -0.9166 -0.3834
    3TCq1    H1   47   2.970   0.086  10.358  0.3763  0.7904  0.8714
    3TCq1    H2   48   2.852   0.256  10.361  0.0729 -2.2679  0.6846
    3TCq1    H3   49   2.878   0.496  10.707 -1.4045 -2.6809  0.3258
    3TCq1    H4   50   3.221   0.306  10.566 -0.6051 -0.7590 -1.1942
    4MPD2     C   51   3.225   0.890  11.024 -0.2763  0.9497 -0.4013
    4MPD2    C1   52   3.121   0.910  10.939 -0.1346  0.7331  0.2193
    4MPD2    C2   53   3.086   0.804  10.857  0.5458 -0.2197  0.9611
    4MPD2    C3   54   3.143   0.685  10.857  0.2451  0.4658  0.5360
    4MPD2    C4   55   3.230   0.656  10.956 -0.2614 -0.4232  0.1184
    4MPD2    C5   56   3.273   0.762  11.040 -0.2226 -0.3692  0.5755
    4MPD2     H   57   3.006   0.826  10.788  1.9301  0.1265 -0.5324
    4MPD2    H1   58   3.277   0.561  10.977 -1.7268 -1.2644 -0.4238
    4MPD2    H2   59   3.255   0.973  11.088 -1.5154  1.4156 -0.4339
    4MPD2    H3   60   3.355   0.745  11.110  1.3712 -0.6535 -1.3433
    4MPD2     N   61   3.101   0.592  10.758  0.1062  0.5208 -0.2980
    4MPD2    H5   62   3.032   0.623  10.690 -0.9613  0.1500  0.6120
    4MPD2    N1   63   3.027   1.019  10.949 -0.2388  0.0602  0.3538
    4MPD2    H7   64   2.957   1.021  10.875  0.1910 -2.0370 -0.1096
    5TCq1    O1   65   3.470   2.284  11.965  0.8412 -0.3215 -0.1066
    5TCq1    C1   66   3.494   2.247  11.838 -0.2823 -0.1770 -0.1434
    5TCq1    O2   67   3.601   2.222  11.787 -0.7890  0.7050  0.3424
    5TCq1    C2   68   3.367   2.212  11.777 -0.2753 -0.2273 -0.5683
    5TCq1    C3   69   3.242   2.256  11.822  0.3318  0.3656  0.3201
    5TCq1    C4   70   3.128   2.203  11.771  0.4429  0.7066 -0.2611
    5TCq1    C5   71   3.132   2.125  11.661  0.4428 -0.1587 -0.2398
    5TCq1    C6   72   3.254   2.110  11.605  0.4885 -0.0060 -0.1556
    5TCq1    C7   73   3.371   2.140  11.663  0.3813 -0.4811 -0.6283
    5TCq1    C8   74   3.266   2.052  11.470 -0.6776 -0.1735  0.4591
    5TCq1    O4   75   3.368   1.990  11.438  0.0558  0.1345  0.6729
    5TCq1    C9   76   2.995   2.228  11.831  0.7964  0.1423  0.1952
    5TCq1    O5   77   2.993   2.312  11.926  0.3569 -0.0648  0.0213
    5TCq1    O6   78   2.895   2.166  11.787  0.2646  0.2949 -0.4161
    5TCq1    H1   79   3.376   2.287  11.992  0.6095 -2.6985 -0.6476
    5TCq1    H2   80   3.227   2.321  11.907 -0.3003 -0.1508  0.6123
    5TCq1    H3   81   3.038   2.101  11.613  0.7920  0.4733 -1.2308
    5TCq1    H4   82   3.467   2.134  11.614 -0.4243  1.6945 -2.4631
    6MPD2     C   83   2.991   2.061  11.223  0.5850 -0.4465 -0.0141
    6MPD2    C1   84   3.120   2.042  11.264  0.1990  0.7572 -0.3627
    6MPD2    C2   85   3.211   1.981  11.178 -0.1342 -0.5079 -0.1223
    6MPD2    C3   86   3.177   1.938  11.050  0.3429  0.4743  0.8056
    6MPD2    C4   87   3.047   1.962  11.011 -0.1873 -0.1740 -0.1165
    6MPD2    C5   88   2.958   2.019  11.101 -0.1865 -0.1648 -0.0449
    6MPD2     H   89   3.310   1.957  11.216  1.0035  0.0861 -2.6432
    6MPD2    H1   90   3.019   1.939  10.909  1.5176  0.2060 -0.6737
    6MPD2    H2   91   2.916   2.098  11.292 -0.5225  3.3026 -3.2063
    6MPD2    H3   92   2.856   2.020  11.063 -0.0742  0.2071 -0.3343
    6MPD2     N   93   3.275   1.884  10.967  0.7077  0.4854  0.1296
    6MPD2    H5   94   3.357   1.865  11.025  0.6886 -0.6322 -0.2115
    6MPD2    N1   95   3.152   2.079  11.397 -0.5275 -0.5065  0.3049
    6MPD2    H7   96   3.077   2.137  11.432 -0.0306 -1.1680  2.4871
    7TCq1    O1   97   0.916   1.921  13.099  0.0372  0.4824  0.0384
    7TCq1    C1   98   1.001   1.838  13.035  0.3873  0.0477  0.3030
    7TCq1    O2   99   0.964   1.733  12.977 -0.3571  0.1740 -0.2789
    7TCq1    C2  100   1.129   1.851  13.094  0.1460  0.5013 -0.5999
    7TCq1    C3  101   1.183   1.974  13.106  0.2126  0.0180  0.5190
    7TCq1    C4  102   1.310   1.985  13.157  0.8481  0.2191 -0.6327
    7TCq1    C5  103   1.388   1.870  13.173 -0.0515 -0.1231  0.0178
    7TCq1    C6  104   1.327   1.746  13.141 -0.3307  0.3152 -0.4700
    7TCq1    C7  105   1.197   1.736  13.104  0.7149 -0.0351 -0.1780
    7TCq1    C8  106   1.406   1.622  13.168  0.6173 -0.1204 -0.2935
    7TCq1    O4  107   1.368   1.516  13.125  0.1537 -0.1864 -0.5427
    7TCq1    C9  108   1.368   2.117  13.190 -0.2607  0.3747 -0.3460
    7TCq1    O5  109   1.286   2.211  13.175 -0.5809  0.2301 -0.2941
    7TCq1    O6  110   1.473   2.110  13.265  0.0247  0.5361 -0.3711
    7TCq1    H1  111   0.940   1.984  13.170  4.0228 -0.6443 -0.2892
    7TCq1    H2  112   1.117   2.060  13.105  1.4995  1.0027  0.0560
    7TCq1    H3  113   1.487   1.888  13.212 -0.2031  0.1518  0.2771
    7TCq1    H4  114   1.148   1.641  13.085  0.3038 -0.1136  1.2450
    8MPD2     C  115   1.757   1.413  13.488 -0.7146 -0.1869 -0.6615
    8MPD2    C1  116   1.682   1.355  13.384 -0.5739  0.0898 -0.3451
    8MPD2    C2  117   1.591   1.425  13.309 -0.4394  0.1731  0.3235
    8MPD2    C3  118   1.595   1.565  13.323 -0.1939  0.2565  0.5726
    8MPD2    C4  119   1.672   1.619  13.424 -0.2092 -0.6443  0.7050
    8MPD2    C5  120   1.743   1.545  13.519 -0.7323  0.5189  0.4406
    8MPD2     H  121   1.531   1.380  13.231  0.7634  0.1218 -0.5672
    8MPD2    H1  122   1.656   1.725  13.438  2.0749 -0.3257  0.9685
    8MPD2    H2  123   1.827   1.355  13.546 -1.1387 -0.7727 -0.7323
    8MPD2    H3  124   1.799   1.584  13.603  0.2060 -1.0212  0.5310
    8MPD2     N  125   1.504   1.656  13.260 -0.2979  0.4661  0.1366
    8MPD2    H5  126   1.507   1.752  13.292  1.0469  0.5700 -0.3072
    8MPD2    N1  127   1.689   1.215  13.379 -0.5727  0.4626 -0.2836
    8MPD2    H7  128   1.729   1.153  13.449  0.4649  0.6931 -0.6724
    9TCq1    O1  129   3.428   1.244  10.977  0.0621  0.3745  0.3404
    9TCq1    C1  130   3.468   1.127  10.908 -0.2306 -0.4146 -0.3734
    9TCq1    O2  131   3.562   1.051  10.937  0.0583  0.1062 -0.4734
    9TCq1    C2  132   3.368   1.107  10.798 -0.9443 -0.0454 -0.7812
    9TCq1    C3  133   3.294   1.203  10.743  0.3349  0.2686  0.0836
    9TCq1    C4  134   3.223   1.180  10.630  0.0566  0.3137 -0.1079
    9TCq1    C5  135   3.216   1.053  10.575  0.2025  1.1002 -0.4837
    9TCq1    C6  136   3.286   0.954  10.630 -0.1400  0.5464  0.0307
    9TCq1    C7  137   3.372   0.983  10.741 -0.2526 -0.4072 -1.0047
    9TCq1    C8  138   3.305   0.839  10.557  0.2899 -0.6751 -0.2585
    9TCq1    O4  139   3.231   0.831  10.464  0.5348 -1.0069  0.4381
    9TCq1    C9  140   3.157   1.286  10.547  0.7046  0.2148  0.4876
    9TCq1    O5  141   3.099   1.249  10.442  0.0337 -0.4177  0.3284
    9TCq1    O6  142   3.124   1.392  10.603  0.3507  0.2661  0.2793
    9TCq1    H1  143   3.346   1.288  10.947 -0.1578  0.0531  0.4759
    9TCq1    H2  144   3.294   1.304  10.780 -1.9623  2.0289 -4.6671
    9TCq1    H3  145   3.161   1.047  10.482  1.4411 -0.3819 -1.1313
    9TCq1    H4  146   3.409   0.904  10.805 -0.0576 -0.7082 -1.4909
   10MPD2     C  147   3.380   0.581  10.417 -0.2866  0.1794 -0.9410
   10MPD2    C1  148   3.445   0.628  10.533 -0.2944 -0.6706  0.1457
   10MPD2    C2  149   3.550   0.554  10.588  0.2862  0.1076  0.3546
   10MPD2    C3  150   3.576   0.427  10.550 -0.7857 -0.5176  0.1262
   10MPD2    C4  151   3.505   0.384  10.445 -0.2322 -0.2871  0.3663
   10MPD2    C5  152   3.418   0.463  10.371  0.2602  0.1377 -0.4200
   10MPD2     H  153   3.612   0.586  10.671  0.5288  1.9486 -0.5288
   10MPD2    H1  154   3.527   0.289  10.398 -0.3240 -1.1036  1.9759
   10MPD2    H2  155   3.305   0.633  10.358 -0.1695 -0.5477 -1.7383
   10MPD2    H3  156   3.369   0.431  10.279  1.1714 -0.5560 -0.6623
   10MPD2     N  157   3.667   0.339  10.618  0.0108 -0.8582 -0.1695
   10MPD2    H5  158   3.645   0.241  10.603 -1.2875 -0.4823 -0.7271
   10MPD2    N1  159   3.402   0.747  10.602 -0.1352 -0.3334 -0.2244
   10MPD2    H7  160   3.453   0.756  10.689 -1.5052 -0.7242  0.6161
   11TCq1    O1  161   0.600   0.118  14.415 -0.3894  0.0834  0.1819
   11TCq1    C1  162   0.485   0.048  14.415  0.3844  1.0749  0.5182
   11TCq1    O2  163   0.463   4.687  14.503 -0.4028 -0.4601 -0.7670
   11TCq1    C2  164   0.396   0.084  14.310  1.2310 -0.2086 -0.5376
   11TCq1    C3  165   0.455   0.125  14.197 -0.0650  0.3834 -0.1054
   11TCq1    C4  166   0.379   0.125  14.087  0.4983  0.3861 -0.1223
   11TCq1    C5  167   0.247   0.090  14.085  0.0274  0.0727  0.1224
   11TCq1    C6  168   0.190   0.047  14.210  0.8686 -0.6971  0.3123
   11TCq1    C7  169   0.269   0.037  14.318  0.2249  0.3348  0.0567
   11TCq1    C8  170   0.064   4.707  14.218 -0.7875 -0.6095  0.5107
   11TCq1    O4  171   0.032   4.651  14.321  0.1315 -0.3206  0.2804
   11TCq1    C9  172   0.453   0.179  13.973  0.2730 -0.5217  0.9344
   11TCq1    O5  173   0.565   0.239  13.994  0.1693  0.0036  0.1720
   11TCq1    O6  174   0.387   0.186  13.863 -0.4330 -0.0083 -0.1623
   11TCq1    H1  175   0.609   0.199  14.360 -1.5505  0.6677  0.8473
   11TCq1    H2  176   0.558   0.155  14.185  0.1475 -0.9612 -1.7574
   11TCq1    H3  177   0.189   0.112  13.997  1.5423 -1.3597 -1.2178
   11TCq1    H4  178   0.237   4.722  14.414 -0.7266  2.0673  0.4589
   12MPD2     C  179   4.534   4.561  14.129  0.1890  0.1118 -0.2630
   12MPD2    C1  180   4.608   4.651  14.052  0.0023 -0.5842  0.5746
   12MPD2    C2  181   4.562   4.674  13.921 -0.1388 -0.3536 -1.2912
   12MPD2    C3  182   4.465   4.591  13.871  0.2473 -0.3530 -0.1959
   12MPD2    C4  183   4.407   4.494  13.945 -0.5149 -0.4010  0.3755
   12MPD2    C5  184   4.437   4.480  14.074 -0.2359 -0.7929 -0.4018
   12MPD2     H  185   4.603   0.029  13.860 -1.5063  1.5565  0.2960
   12MPD2    H1  186   4.336   4.424  13.903  0.4211 -2.4241  2.1815
   12MPD2    H2  187   4.550   4.558  14.236  1.8209  2.1217 -0.4460
   12MPD2    H3  188   4.380   4.404  14.125 -0.5118  0.3235  0.9678
   12MPD2     N  189   4.436   4.586  13.735  0.1056  0.1506 -0.6278
   12MPD2    H5  190   4.361   4.523  13.709  1.4614 -0.8797 -2.0444
   12MPD2    N1  191   4.721   4.724  14.100  0.2273 -0.7346 -0.4333
   12MPD2    H7  192   0.047   0.059  14.035 -0.9825  1.8114  0.9509
   13TCq1    O1  193   4.283   0.411  10.429  0.1520 -0.0133  0.5291
   13TCq1    C1  194   4.219   0.300  10.463  0.4131 -0.0335 -0.3805
   13TCq1    O2  195   4.274   0.199  10.501 -0.4891 -0.7190  0.1641
   13TCq1    C2  196   4.093   0.301  10.392  0.4175 -0.0049  0.4852
   13TCq1    C3  197   4.062   0.382  10.286 -0.4852 -0.6768  0.2592
   13TCq1    C4  198   3.943   0.357  10.225 -0.6363 -0.4663  0.3457
   13TCq1    C5  199   3.851   0.256  10.263 -0.2007 -0.1190  0.1251
   13TCq1    C6  200   3.887   0.179  10.370  0.1539 -0.2773  0.1104
   13TCq1    C7  201   4.009   0.204  10.434  0.0067  0.4700  0.3134
   13TCq1    C8  202   3.800   0.080  10.432 -0.2438 -0.3224 -0.7767
   13TCq1    O4  203   3.818   0.053  10.547 -1.0888 -0.5965 -0.3198
   13TCq1    C9  204   3.880   0.451  10.137 -0.3475 -0.4778  0.6327
   13TCq1    O5  205   3.939   0.559  10.107  0.0117  0.3468 -0.5204
   13TCq1    O6  206   3.767   0.416  10.089  0.2768 -0.0550  0.3617
   13TCq1    H1  207   4.218   0.484  10.419  0.4606  0.1772 -0.0693
   13TCq1    H2  208   4.123   0.464  10.250  0.0902 -1.8829 -1.4902
   13TCq1    H3  209   3.754   0.244  10.217 -2.2021  3.8728  3.2336
   13TCq1    H4  210   4.036   0.143  10.519 -1.9373  1.0017  1.3136
   14MPD2     C  211   3.492   4.674  10.295  0.3953  0.0275  0.1572
   14MPD2    C1  212   3.570   0.001  10.396  0.1392  0.3731  0.5141
   14MPD2    C2  213   3.529   4.700  10.527  0.3098  0.2809  0.0710
   14MPD2    C3  214   3.395   4.656  10.551 -0.0243  0.4538  0.2999
   14MPD2    C4  215   3.315   4.617  10.444 -0.0130 -0.4248 -0.1050
   14MPD2    C5  216   3.366   4.620  10.316 -0.0889  0.1982 -0.3441
   14MPD2     H  217   3.579   0.007  10.618 -0.2082 -1.1778  0.8804
   14MPD2    H1  218   3.215   4.581  10.460 -0.2599  0.5960  0.6460
   14MPD2    H2  219   3.527   4.681  10.193 -0.3570  3.2161  0.1092
   14MPD2    H3  220   3.306   4.596  10.230  2.1419 -1.0633 -1.5604
   14MPD2     N  221   3.346   4.666  10.686  0.2227 -0.6149  0.1792
   14MPD2    H5  222   3.413   4.693  10.757 -1.3207  0.7476  1.1165
   14MPD2    N1  223   3.690   0.056  10.357 -0.0796 -0.2778  0.3606
   14MPD2    H7  224   3.698   0.069  10.256  1.7953  1.1637  0.6887
   15TCq1    O1  225   0.291   3.721   1.382  0.5638 -0.0292  0.0169
   15TCq1    C1  226   0.340   3.634   1.286  0.1614 -0.0908  0.0628
   15TCq1    O2  227   0.304   3.626   1.168 -0.0925 -1.0547  0.4067
   15TCq1    C2  228   0.432   3.538   1.348  0.1909 -0.1460 -0.2733
   15TCq1    C3  229   0.440   3.526   1.482  0.0445 -0.8950  0.7781
   15TCq1    C4  230   0.555   3.472   1.537  0.3330 -0.0904  0.2361
   15TCq1    C5  231   0.658   3.423   1.463 -0.0459 -0.1606  0.0012
   15TCq1    C6  232   0.643   3.428   1.330  0.1703 -0.3736  0.3675
   15TCq1    C7  233   0.535   3.488   1.269 -0.4324 -0.0815 -0.2337
   15TCq1    C8  234   0.736   3.341   1.253 -0.0982 -0.3660  0.1728
   15TCq1    O4  235   0.792   3.254   1.319 -0.0780 -0.4106  0.0022
   15TCq1    C9  236   0.565   3.473   1.679  0.2290 -0.5134  0.0069
   15TCq1    O5  237   0.660   3.415   1.731 -0.6258 -0.3565  0.7282
   15TCq1    O6  238   0.460   3.514   1.737 -0.0978  0.1874 -0.1130
   15TCq1    H1  239   0.326   3.719   1.473  1.8060  2.0944 -0.3986
   15TCq1    H2  240   0.361   3.564   1.545  0.4230  2.4697 -0.7636
   15TCq1    H3  241   0.751   3.383   1.501 -0.4766  0.2342  1.4450
   15TCq1    H4  242   0.532   3.508   1.163  0.8688  0.8935 -0.0886
   16MPD2     C  243   0.811   3.323   0.891 -0.5132  0.0906  0.0226
   16MPD2    C1  244   0.820   3.292   1.025 -0.7597  0.0282 -0.0095
   16MPD2    C2  245   0.920   3.209   1.063  0.7520 -0.2556 -0.0570
   16MPD2    C3  246   0.997   3.141   0.973  0.5879 -0.2385  0.7055
   16MPD2    C4  247   0.978   3.163   0.837 -0.4150  0.7317  0.3112
   16MPD2    C5  248   0.889   3.260   0.796  0.5506 -0.3757  0.2402
   16MPD2     H  249   0.946   3.185   1.166  1.3592 -0.6397 -0.2970
   16MPD2    H1  250   1.050   3.118   0.769 -0.2253 -0.4087  1.2733
   16MPD2    H2  251   0.738   3.398   0.860 -1.3234 -0.8214 -0.2623
   16MPD2    H3  252   0.886   3.284   0.691 -1.4198  1.8858  0.8303
   16MPD2     N  253   1.106   3.064   1.019  0.0065  0.3771  0.3491
   16MPD2    H5  254   1.106   3.067   1.120  1.6756 -1.3173  0.4012
   16MPD2    N1  255   0.733   3.358   1.116  0.9364  0.2363  0.2313
   16MPD2    H7  256   0.680   3.436   1.078  0.3376 -0.3399 -0.1046
   17TCq1    O1  257   2.669   4.352  10.685 -0.1030  0.1528  0.0682
   17TCq1    C1  258   2.754   4.267  10.746  0.4314 -0.3086 -0.3695
   17TCq1    O2  259   2.760   4.247  10.868 -0.0537 -0.5199  0.0184
   17TCq1    C2  260   2.883   4.290  10.676  0.0100  0.0984 -0.4447
   17TCq1    C3  261   2.896   4.288  10.537 -0.2251 -0.2483 -0.2303
   17TCq1    C4  262   3.020   4.278  10.481 -0.4031 -0.2005  0.2630
   17TCq1    C5  263   3.130   4.277  10.557 -1.5224 -0.2081 -0.3406
   17TCq1    C6  264   3.122   4.274  10.690  0.0512  0.0348  0.6753
   17TCq1    C7  265   2.998   4.275  10.750 -0.4639 -0.3139  0.3968
   17TCq1    C8  266   3.242   4.296  10.770 -0.4394 -0.6339  0.3642
   17TCq1    O4  267   3.242   4.275  10.890 -0.8638  0.0862 -0.5174
   17TCq1    C9  268   3.035   4.280  10.337  0.4188  0.4545 -0.3261
   17TCq1    O5  269   3.153   4.248  10.294 -0.2561  0.0940  0.7161
   17TCq1    O6  270   2.933   4.282  10.264 -0.0887 -0.9310  0.3416
   17TCq1    H1  271   2.703   4.392  10.603 -0.4691 -1.0602 -0.6808
   17TCq1    H2  272   2.811   4.278  10.471  2.1688  0.8577 -3.5275
   17TCq1    H3  273   3.224   4.279  10.504 -0.4378  0.8930  1.6235
   17TCq1    H4  274   2.996   4.277  10.858 -2.3569 -1.2913  0.3873
   18MPD2     C  275   3.519   4.347  10.885  0.0469  0.0743 -0.6236
   18MPD2    C1  276   3.488   4.333  10.747  0.4997 -0.5111  0.1074
   18MPD2    C2  277   3.587   4.356  10.656 -0.1580 -0.3125  0.7185
   18MPD2    C3  278   3.717   4.385  10.691 -0.1589 -0.9929 -0.2953
   18MPD2    C4  279   3.747   4.402  10.819  0.3409  0.3302 -0.4232
   18MPD2    C5  280   3.654   4.377  10.915 -0.2082  0.4818 -1.0688
   18MPD2     H  281   3.569   4.345  10.550  2.0400 -1.8005  0.4973
   18MPD2    H1  282   3.849   4.434  10.838 -0.2067  1.6426  0.3641
   18MPD2    H2  283   3.453   4.324  10.968 -0.9895 -1.1022 -1.7659
   18MPD2    H3  284   3.681   4.393  11.018 -0.7434  1.2009 -1.0388
   18MPD2     N  285   3.820   4.413  10.601  0.8944 -0.5941  0.1129
   18MPD2    H5  286   3.911   4.444  10.633  0.1515  2.8857 -1.1637
   18MPD2    N1  287   3.358   4.313  10.701 -0.6469  0.3333  0.0023
   18MPD2    H7  288   3.348   4.314  10.600  0.7295  2.3320 -0.1115
   19TMC2    C1  289   0.889   4.190  13.755 -0.6075  0.3026  0.1682
   19TMC2    C2  290   0.894   4.141  13.626 -0.5720 -0.3211  0.0456
   19TMC2    C3  291   0.851   4.013  13.601 -0.3062  1.0019  0.2431
   19TMC2    C4  292   0.842   4.127  13.862 -0.6132  0.0093  0.1214
   19TMC2    C5  293   0.786   4.003  13.828 -0.0667 -0.3401  0.0763
   19TMC2    C6  294   0.785   3.944  13.702  0.0901 -0.1347 -0.0817
   19TMC2     C  295   0.975   4.309  13.772 -0.2813  0.4174 -0.2883
   19TMC2     O  296   0.988   4.382  13.673 -0.5936 -0.4138 -0.7785
   19TMC2     H  297   0.935   4.202  13.546 -2.1384 -1.1514 -1.3742
   19TMC2    H1  298   0.831   4.170  13.961  0.4178  2.4117 -0.8154
   19TMC2    H2  299   0.735   3.849  13.687 -0.1275 -0.2953  1.6033
   19TMC2    C7  300   0.669   3.966  13.901 -0.7024  0.2142 -0.1911
   19TMC2    C8  301   0.886   3.953  13.475 -0.0330  0.6432 -0.0166
   19TMC2    O1  302   0.583   3.894  13.854  0.2167 -0.0230 -0.3954
   19TMC2    O2  303   0.919   4.018  13.377  0.3828  0.5390  0.3226
   19TMC2    O5  304   0.933   3.830  13.504  0.2574 -0.2006 -0.2683
   19TMC2    H5  305   0.927   3.810  13.600  1.5378  2.8887  0.4412
   20MPD2     C  306   1.215   4.471  13.847 -0.2097 -0.6670  0.1666
   20MPD2    C1  307   1.138   4.391  13.932  0.1143 -0.2791 -0.1318
   20MPD2    C2  308   1.161   4.398  14.071 -0.0184 -0.8630  0.1048
   20MPD2    C3  309   1.267   4.478  14.118  0.6892  0.2697  0.4187
   20MPD2    C4  310   1.339   4.553  14.028 -0.3527  0.6574  0.5989
   20MPD2    C5  311   1.320   4.540  13.893 -0.0549 -0.0251  0.0357
   20MPD2     H  312   1.099   4.338  14.136 -0.1176  1.9301  2.6041
   20MPD2    H1  313   1.426   4.611  14.059 -0.4482  0.9027  0.4081
   20MPD2    H2  314   1.200   4.474  13.740  0.2743  0.0540  0.1232
   20MPD2    H3  315   1.385   4.590  13.822 -0.8519 -1.1087 -1.4502
   20MPD2     N  316   1.309   4.482  14.251 -0.3533 -0.3784  0.3696
   20MPD2    H5  317   1.385   4.547  14.270 -1.4346  0.4901  1.6806
   20MPD2    N1  318   1.023   4.313  13.893 -0.0123 -0.2517  0.2286
   20MPD2    H7  319   0.978   4.259  13.966 -0.5044  0.0372  0.1383
   21MPD2     C  320   3.542   0.233  14.096  0.4324  0.2084 -0.2994
   21MPD2    C1  321   3.522   0.094  14.069 -0.1275 -0.1751 -0.4028
   21MPD2    C2  322   3.417   0.027  14.127  0.4835 -0.3467  0.3232
   21MPD2    C3  323   3.322   0.088  14.211  0.0089 -0.1594 -0.4846
   21MPD2    C4  324   3.339   0.222  14.235  0.2363  0.4290 -0.0223
   21MPD2    C5  325   3.448   0.288  14.171  1.2210 -0.4290  0.7354
   21MPD2     H  326   3.409   4.646  14.103  0.5952 -0.1476 -0.5751
   21MPD2    H1  327   3.277   0.280  14.302 -0.3116 -0.7351  0.4932
   21MPD2    H2  328   3.622   0.292  14.051  0.6049 -1.5701 -2.3268
   21MPD2    H3  329   3.464   0.393  14.191 -0.6152  0.0035 -0.0508
   21MPD2     N  330   3.215   0.019  14.278  0.8540  0.3045  0.0653
   21MPD2    H5  331   3.148   0.067  14.337  0.0536 -0.8322  0.0831
   21MPD2    N1  332   3.635   0.022  14.004  0.2127 -0.4389 -0.1525
   21MPD2    H7  333   3.621   4.647  13.992 -0.7323 -0.2067 -0.9694
   22TCq2    C1  334   3.194   4.608  14.263 -0.0485  0.4042  0.7601
   22TCq2    O2  335   3.243   4.523  14.192  0.6892 -0.3217  0.6733
   22TCq2    C2  336   3.120   4.556  14.380  0.1553  0.6416 -0.7155
   22TCq2    C3  337   3.148   4.427  14.411  0.4424  0.3026  0.1964
   22TCq2    C4  338   3.082   4.368  14.517 -0.2585  0.3796  0.7005
   22TCq2    C5  339   2.992   4.444  14.588 -0.4175 -0.6439  0.2545
   22TCq2    C6  340   2.954   4.568  14.537 -0.5345  0.3232 -0.0284
   22TCq2    C7  341   3.019   4.629  14.433 -0.3077  0.4074  0.4297
   22TCq2    C8  342   2.854   4.650  14.607 -0.3204 -0.2474 -0.2087
   22TCq2    O4  343   2.821   4.611  14.718  0.1926  0.3514 -0.1827
   22TCq2    C9  344   3.120   4.234  14.566  0.0709 -0.8988  0.4664
   22TCq2    O5  345   3.208   4.171  14.508  0.3966 -0.3594 -0.0486
   22TCq2    O6  346   3.085   4.206  14.683 -0.7088 -0.4781  0.1216
   22TCq2    H2  347   3.227   4.365  14.371 -0.1950 -1.1050  1.1289
   22TCq2    H3  348   2.931   4.398  14.666  0.4366 -1.2925  0.5347
   22TCq2    H4  349   3.007   0.008  14.403 -1.7720  0.5479  1.4739
   23MPD2     C  350   4.699   0.892  14.432 -0.3337  0.1357  0.7963
   23MPD2    C1  351   4.604   0.905  14.531  0.4108 -0.7194 -0.2132
   23MPD2    C2  352   4.507   1.005  14.512  0.0083 -0.9921  0.7511
   23MPD2    C3  353   4.500   1.078  14.397 -0.2244  0.4732 -0.2077
   23MPD2    C4  354   4.591   1.056  14.294 -0.1693 -1.1906 -0.2421
   23MPD2    C5  355   4.693   0.965  14.314  0.4482  0.4860  0.3729
   23MPD2     H  356   4.442   1.027  14.596  1.0318 -1.0179  1.5465
   23MPD2    H1  357   4.584   1.101  14.196 -2.0761  0.9820  0.8766
   23MPD2    H2  358   0.054   0.817  14.435 -1.8638 -1.6222 -2.1885
   23MPD2    H3  359   0.055   0.945  14.251 -0.1462 -1.2067  0.0936
   23MPD2     N  360   4.376   1.145  14.376  0.2405  0.0325  0.6938
   23MPD2    H5  361   4.328   1.163  14.464 -1.6284  0.2399 -0.3805
   23MPD2    N1  362   4.603   0.824  14.647  0.0566  0.2781  0.2195
   23MPD2    H7  363   4.528   0.828  14.715 -0.3829 -1.2431 -0.1592
   24TCq2    C1  364   4.319   1.160  14.252 -0.5111 -0.3122  0.3677
   24TCq2    O2  365   4.353   1.114  14.142  0.5387 -0.5042 -0.2534
   24TCq2    C2  366   4.180   1.211  14.267  0.8932  1.2816 -0.1815
   24TCq2    C3  367   4.148   1.293  14.373  0.6703 -0.7256 -0.3710
   24TCq2    C4  368   4.018   1.300  14.409 -0.0915  0.0378  0.2455
   24TCq2    C5  369   3.914   1.239  14.340 -0.6691 -0.4363 -0.6618
   24TCq2    C6  370   3.947   1.168  14.227  0.0656  0.2622 -0.1957
   24TCq2    C7  371   4.082   1.153  14.194  0.4057  0.0431 -0.4677
   24TCq2    C8  372   3.861   1.057  14.183  0.1141 -0.0092  0.1247
   24TCq2    O4  373   3.922   0.954  14.157  0.0495  0.0409 -0.0889
   24TCq2    C9  374   3.976   1.397  14.517  0.1989 -0.4562  0.3425
   24TCq2    O5  375   3.860   1.448  14.501  0.0872 -0.8603  0.0097
   24TCq2    O6  376   4.074   1.468  14.557 -0.1702  0.2525 -0.0180
   24TCq2    H2  377   4.221   1.353  14.427 -1.1747  0.2016  1.0855
   24TCq2    H3  378   3.813   1.273  14.362  0.4612  2.2027  0.3955
   24TCq2    H4  379   4.114   1.075  14.125  1.3162  0.9659 -1.0843
   25TMC2    C1  380   3.251   2.725  11.233 -0.0394  0.2233  0.2038
   25TMC2    C2  381   3.367   2.753  11.295  0.8108  0.6622 -0.2743
   25TMC2    C3  382   3.376   2.874  11.369  0.0432 -0.9009  0.3349
   25TMC2    C4  383   3.136   2.812  11.247 -0.5443  0.1222  0.4591
   25TMC2    C5  384   3.162   2.932  11.308 -0.0407  0.2520 -0.3466
   25TMC2    C6  385   3.275   2.966  11.377  0.4421  0.0052  0.6472
   25TMC2     C  386   3.230   2.606  11.152 -0.6153 -0.2297 -0.1832
   25TMC2     O  387   3.328   2.557  11.095  0.5008  0.6323 -0.0111
   25TMC2     H  388   3.438   2.671  11.296  2.3150  2.0020  2.0000
   25TMC2    H1  389   3.048   2.807  11.184  0.4461  0.6751 -0.9666
   25TMC2    H2  390   3.292   3.062  11.424 -2.7192  1.2334 -0.6966
   25TMC2    C7  391   3.055   3.010  11.358 -0.3493 -0.0405 -0.0776
   25TMC2    C8  392   3.480   2.866  11.477 -0.1550  0.2964 -0.0580
   25TMC2    O1  393   3.004   2.963  11.460 -0.1886 -0.9334 -0.0323
   25TMC2    O2  394   3.473   2.956  11.561 -0.3722  0.4562  0.2549
   25TMC2    O5  395   3.592   2.821  11.421 -0.2858 -0.6264  0.0448
   25TMC2    H5  396   3.585   2.750  11.353  0.5191  0.2565 -0.9607
   26MPD2     C  397   2.926   2.300  10.904 -0.6956  0.1545  0.1765
   26MPD2    C1  398   2.862   2.333  11.028 -0.2026  0.3898  0.3767
   26MPD2    C2  399   2.928   2.412  11.117 -0.4822  0.5879  0.2033
   26MPD2    C3  400   3.051   2.468  11.082  0.0747 -0.8583  0.1160
   26MPD2    C4  401   3.116   2.417  10.969 -0.1530 -0.0249 -0.0543
   26MPD2    C5  402   3.055   2.337  10.877 -0.8858  0.9035 -0.6065
   26MPD2     H  403   2.887   2.435  11.215  0.5286  0.2177  0.7260
   26MPD2    H1  404   3.214   2.449  10.937 -1.4154  0.9240 -2.9537
   26MPD2    H2  405   2.874   2.240  10.831 -2.4674  0.8156  0.8872
   26MPD2    H3  406   3.106   2.318  10.783  2.6390  0.4769  1.3801
   26MPD2     N  407   3.104   2.567  11.161 -0.1965  0.5622  1.0058
   26MPD2    H5  408   3.042   2.615  11.224 -0.5285 -0.2307  1.2829
   26MPD2    N1  409   2.723   2.304  11.037  0.6021 -0.5342 -0.0415
   26MPD2    H7  410   2.679   2.254  10.961  0.8394 -0.6962 -0.0743
   27TMC2    C1  411   2.721   0.981  12.336 -0.9434  1.1609  0.6143
   27TMC2    C2  412   2.807   0.966  12.445 -0.2115 -0.3894 -0.1931
   27TMC2    C3  413   2.811   1.069  12.540 -0.6334  0.3714 -0.2901
   27TMC2    C4  414   2.634   1.087  12.327  0.8127 -0.1742 -0.4022
   27TMC2    C5  415   2.628   1.165  12.444 -0.6252 -0.3324 -0.1561
   27TMC2    C6  416   2.712   1.164  12.547  0.0863  0.1848  0.1514
   27TMC2     C  417   2.681   0.856  12.278  0.8776 -0.0528  1.0899
   27TMC2     O  418   2.765   0.765  12.272  0.0428  0.4733 -0.9082
   27TMC2     H  419   2.872   0.879  12.453  1.9962  1.0779 -1.9058
   27TMC2    H1  420   2.571   1.098  12.240 -0.2607  1.9323  0.6364
   27TMC2    H2  421   2.698   1.214  12.642  0.3382 -1.0700  0.8605
   27TMC2    C7  422   2.489   1.149  12.497  0.6970 -0.1962  0.0340
   27TMC2    C8  423   2.905   1.046  12.653 -0.3315  0.2185 -0.3439
   27TMC2    O1  424   2.485   1.109  12.609  0.0259  0.2654 -0.3501
   27TMC2    O2  425   2.964   0.936  12.668 -0.1788 -0.1840  0.1576
   27TMC2    O5  426   2.961   1.164  12.682 -0.1139  0.5852  0.3060
   27TMC2    H5  427   2.902   1.242  12.672 -0.6760  0.0724 -0.3810
   28MPD2     C  428   2.293   0.536  12.171 -0.2979 -0.1614  0.0629
   28MPD2    C1  429   2.233   0.657  12.201  0.5773 -0.3540 -0.0290
   28MPD2    C2  430   2.320   0.766  12.222  0.2810 -0.1895 -0.7647
   28MPD2    C3  431   2.461   0.746  12.225 -0.5734  0.3214  0.5032
   28MPD2    C4  432   2.513   0.622  12.198  0.2469 -0.3679 -1.0881
   28MPD2    C5  433   2.427   0.519  12.163  0.5275 -0.7384 -0.5881
   28MPD2     H  434   2.273   0.857  12.259 -0.5222 -1.0559  0.3601
   28MPD2    H1  435   2.619   0.604  12.200  0.1223 -0.7738  1.8290
   28MPD2    H2  436   2.225   0.454  12.152 -1.5459  0.4245  1.9231
   28MPD2    H3  437   2.463   0.418  12.148 -0.0779 -0.7761 -1.7786
   28MPD2     N  438   2.541   0.856  12.268 -0.2699 -0.9342  0.1464
   28MPD2    H5  439   2.501   0.948  12.285 -1.6477 -1.7234  1.0672
   28MPD2    N1  440   2.093   0.659  12.228  0.4565 -0.2320 -0.2356
   28MPD2    H7  441   2.059   0.565  12.247  0.7617  0.0751  1.8231
   29MPD2     C  442   1.644   2.625  13.991  0.3301 -1.0696 -0.1671
   29MPD2    C1  443   1.729   2.639  14.100  0.1235 -0.3429  0.0165
   29MPD2    C2  444   1.770   2.768  14.139  0.2890  0.6695  0.0491
   29MPD2    C3  445   1.714   2.880  14.075 -0.0586  0.4762  0.8059
   29MPD2    C4  446   1.633   2.862  13.970  0.8098  0.4129 -0.5476
   29MPD2    C5  447   1.600   2.739  13.927  0.0164 -0.0558  0.1212
   29MPD2     H  448   1.841   2.787  14.219 -0.5225  2.3191  0.3805
   29MPD2    H1  449   1.586   2.940  13.910  0.2540  0.8907  0.4955
   29MPD2    H2  450   1.636   2.529  13.943 -0.5459 -0.5415 -1.0638
   29MPD2    H3  451   1.529   2.726  13.846 -1.4088  1.8900  1.0578
   29MPD2     N  452   1.745   3.014  14.112 -0.8240 -0.6059  0.1427
   29MPD2    H5  453   1.711   3.084  14.047  0.2215  0.2528  0.5310
   29MPD2    N1  454   1.784   2.521  14.160  0.4018  0.2551 -0.2633
   29MPD2    H7  455   1.867   2.531  14.217 -0.1410 -2.6243  1.0303
   30TCq2    C1  456   1.782   3.051  14.238 -0.3303  0.2137  0.0105
   30TCq2    O2  457   1.797   2.986  14.339  0.2143  0.6113  0.0582
   30TCq2    C2  458   1.779   3.197  14.253 -0.4226  0.1103 -0.7872
   30TCq2    C3  459   1.767   3.238  14.377  0.0354  0.3433 -0.0842
   30TCq2    C4  460   1.834   3.357  14.400  0.4555  0.3365  0.2448
   30TCq2    C5  461   1.910   3.421  14.306 -0.3207  0.2418  0.2522
   30TCq2    C6  462   1.925   3.369  14.180 -0.5316 -0.0007 -0.5264
   30TCq2    C7  463   1.852   3.255  14.155 -0.6448  0.7298  0.4095
   30TCq2    C8  464   2.054   3.384  14.106  0.0961  0.9321 -0.4424
   30TCq2    O4  465   2.081   3.284  14.041 -0.8086 -0.1176 -0.0108
   30TCq2    C9  466   1.807   3.427  14.528 -0.1940  0.1816  0.0329
   30TCq2    O5  467   1.828   3.555  14.534 -0.5028  0.0072 -0.5560
   30TCq2    O6  468   1.784   3.360  14.629  0.2873  0.1762 -0.6160
   30TCq2    H2  469   1.710   3.193  14.457  2.4950 -0.5188  1.1835
   30TCq2    H3  470   1.966   3.509  14.333  0.2597  0.4216 -1.5441
   30TCq2    H4  471   1.871   3.210  14.058 -1.3522  1.8675 -0.2532
   31MPD2     C  472   4.636   1.418  14.526  0.3193 -0.6188 -0.2579
   31MPD2    C1  473   4.530   1.500  14.545 -0.6118 -0.4970 -1.1155
   31MPD2    C2  474   4.452   1.488  14.664  0.7503 -0.4165  0.5444
   31MPD2    C3  475   4.486   1.400  14.771  0.8745 -0.7992 -0.4984
   31MPD2    C4  476   4.593   1.318  14.741 -0.2242 -0.4221  0.7669
   31MPD2    C5  477   4.667   1.328  14.620 -0.0679  0.5903  0.2786
   31MPD2     H  478   4.369   1.556  14.667  0.3919 -0.7428 -2.3749
   31MPD2    H1  479   4.627   1.249  14.817  1.7023  0.1254  0.4064
   31MPD2    H2  480   4.692   1.414  14.433  0.7710  0.4023 -0.0203
   31MPD2    H3  481   0.024   1.259  14.597 -0.8046 -1.4032  3.6483
   31MPD2     N  482   4.431   1.396  14.897  0.1405  0.2488  0.2984
   31MPD2    H5  483   4.478   1.352  14.976 -1.3674 -0.9642  0.5071
   31MPD2    N1  484   4.495   1.608  14.458  0.2705 -0.1337  0.1796
   31MPD2    H7  485   4.421   1.671  14.488 -0.1493  0.1633 -1.4872
   32TCq2    C1  486   4.306   1.453  14.919  0.4124 -0.2220 -0.0340
   32TCq2    O2  487   4.231   1.499  14.834  0.0382 -0.3850  0.0840
   32TCq2    C2  488   4.255   1.454  15.057  0.4667 -0.2070  0.1570
   32TCq2    C3  489   4.123   1.493  15.085 -0.5815  0.4468  1.0454
   32TCq2    C4  490   4.072   1.516  15.210  0.3562 -0.1877 -0.2612
   32TCq2    C5  491   4.141   1.487  15.322  0.3898 -0.0735  0.0529
   32TCq2    C6  492   4.276   1.460  15.297 -0.2848 -0.1386  0.2337
   32TCq2    C7  493   4.336   1.445  15.173 -0.6598 -0.2658 -0.1356
   32TCq2    C8  494   4.372   1.471  15.403 -0.8972  0.2660 -0.2051
   32TCq2    O4  495   4.483   1.421  15.388 -0.5401 -0.1278  0.6979
   32TCq2    C9  496   3.938   1.560  15.225  0.0541  0.1035  0.1324
   32TCq2    O5  497   3.873   1.597  15.123 -0.9603  0.1104  0.3720
   32TCq2    O6  498   3.910   1.596  15.342  0.4461  0.5927  0.0526
   32TCq2    H2  499   4.050   1.489  15.005 -1.6499 -0.2406  2.0717
   32TCq2    H3  500   4.093   1.489  15.418 -1.4070 -0.6630 -0.8358
   32TCq2    H4  501   4.431   1.393  15.165  0.1707  1.3849 -0.9967
   33MPD2     C  502   4.351   0.172  10.121 -0.3528  0.3807 -0.9326
   33MPD2    C1  503   4.228   0.122  10.088 -0.2532  0.4533 -0.6784
   33MPD2    C2  504   4.142   0.186   9.996 -0.1527  0.7455  0.1347
   33MPD2    C3  505   4.198   0.284   9.912  0.2759  0.5893  0.3207
   33MPD2    C4  506   4.318   0.331   9.946  0.3934  0.5500 -0.2555
   33MPD2    C5  507   4.391   0.283  10.057  0.2963 -0.0688 -0.1784
   33MPD2     H  508   4.044   0.142   9.991 -0.0612  0.5691 -0.1172
   33MPD2    H1  509   4.361   0.412   9.888 -2.0294  0.6332 -1.9253
   33MPD2    H2  510   4.418   0.120  10.189  0.2863  0.1654 -1.7273
   33MPD2    H3  511   4.490   0.325  10.066  0.2461  0.3932 -1.6141
   33MPD2     N  512   4.123   0.351   9.815  0.0454  0.0213  0.2860
   33MPD2    H5  513   4.160   0.429   9.762  2.0727 -0.4707  0.9947
   33MPD2    N1  514   4.177   0.016  10.164 -0.3718 -0.2112 -0.0814
   33MPD2    H7  515   4.248   4.693  10.218 -1.4204  0.2547  1.6975
   34TCq2    C1  516   3.986   0.339   9.794  0.7187  0.3083  0.1740
   34TCq2    O2  517   3.902   0.263   9.836  0.2171  0.3079 -0.2102
   34TCq2    C2  518   3.935   0.445   9.710  0.8150  0.9615 -0.1399
   34TCq2    C3  519   3.820   0.408   9.645  0.0211 -0.0283 -0.2096
   34TCq2    C4  520   3.774   0.493   9.551  0.0283 -0.0115  0.4946
   34TCq2    C5  521   3.839   0.611   9.513 -0.1482 -0.1727 -0.0440
   34TCq2    C6  522   3.957   0.636   9.576  0.3624 -0.2918 -0.5023
   34TCq2    C7  523   4.011   0.557   9.679  0.1857  0.0216 -0.2103
   34TCq2    C8  524   4.034   0.755   9.541  0.2386 -0.2905 -0.6486
   34TCq2    O4  525   4.154   0.751   9.562  0.8588  0.1435 -0.4613
   34TCq2    C9  526   3.648   0.459   9.487 -0.1612 -0.6877  0.0948
   34TCq2    O5  527   3.560   0.417   9.564  0.1744 -0.1616  0.4409
   34TCq2    O6  528   3.642   0.476   9.363 -0.3069 -0.2130  0.6871
   34TCq2    H2  529   3.764   0.319   9.669 -0.4024  0.4108  0.4302
   34TCq2    H3  530   3.806   0.673   9.430  0.5024  0.5115  0.2109
   34TCq2    H4  531   4.108   0.572   9.725  0.0603  3.3029 -0.9855
   35MPD2     C  532   1.172   1.436  11.965 -0.5510 -0.6271  0.3831
   35MPD2    C1  533   1.213   1.309  11.939  0.2336  0.2690  0.2061
   35MPD2    C2  534   1.184   1.251  11.821  0.4612 -0.0388  0.4386
   35MPD2    C3  535   1.113   1.320  11.726  0.5684  0.1357  0.2671
   35MPD2    C4  536   1.077   1.453  11.750 -0.6376 -0.1733  0.2833
   35MPD2    C5  537   1.101   1.515  11.871 -0.1051  0.2397  0.7403
   35MPD2     H  538   1.202   1.147  11.796  2.5168  1.1467 -3.0358
   35MPD2    H1  539   1.020   1.511  11.678  0.1607 -2.2246 -1.9937
   35MPD2    H2  540   1.180   1.481  12.064 -0.0448 -2.1482  1.0267
   35MPD2    H3  541   1.067   1.616  11.893 -2.0562 -0.2554  0.0086
   35MPD2     N  542   1.075   1.244  11.611 -0.3096 -0.4793  1.1105
   35MPD2    H5  543   1.117   1.152  11.611  0.9498  0.0972  1.2858
   35MPD2    N1  544   1.264   1.233  12.045 -0.3843 -0.1289  0.0602
   35MPD2    H7  545   1.265   1.279  12.136  0.2541  1.2650 -0.6517
   36TCq2    C1  546   1.009   1.303  11.501  1.1903 -0.5232 -0.0316
   36TCq2    O2  547   0.999   1.417  11.458  0.2565  0.7087 -0.4788
   36TCq2    C2  548   0.961   1.209  11.409 -0.0915  0.4939 -0.2495
   36TCq2    C3  549   0.933   1.252  11.281 -0.8802 -0.7567  0.5760
   36TCq2    C4  550   0.866   1.167  11.204 -0.0719 -0.3804  0.0826
   36TCq2    C5  551   0.829   1.044  11.249 -0.8163 -0.0355  0.1641
   36TCq2    C6  552   0.870   1.008  11.372  0.1604  0.0032 -0.4354
   36TCq2    C7  553   0.920   1.089  11.464  0.5403 -0.1125 -0.3413
   36TCq2    C8  554   0.853   0.866  11.413 -0.0132 -1.0880 -0.4897
   36TCq2    O4  555   0.797   0.794  11.333 -0.0860 -0.2150  0.7135
   36TCq2    C9  556   0.832   1.208  11.068  0.4545 -0.9073  0.5538
   36TCq2    O5  557   0.782   1.115  11.001 -0.1634 -0.1777 -0.1457
   36TCq2    O6  558   0.897   1.310  11.028 -0.1797  0.1720 -0.2861
   36TCq2    H2  559   0.977   1.343  11.242  2.3524 -1.4134  2.6721
   36TCq2    H3  560   0.781   0.970  11.185  0.0692  0.2367 -0.8278
   36TCq2    H4  561   0.922   1.059  11.568 -0.6264 -0.9437 -0.5606
   37TMC2    C1  562   3.459   1.232  11.434  0.0022  0.2937  0.2677
   37TMC2    C2  563   3.448   1.296  11.313  0.7988 -0.3597  0.4936
   37TMC2    C3  564   3.550   1.373  11.267  0.4937 -0.6235  0.8872
   37TMC2    C4  565   3.576   1.236  11.510 -0.1200  0.2364 -0.3035
   37TMC2    C5  566   3.682   1.305  11.463 -0.4012 -0.0837  0.4393
   37TMC2    C6  567   3.670   1.382  11.346  0.1094 -0.4418  0.5732
   37TMC2     C  568   3.343   1.187  11.502  0.6504  0.0717  0.1012
   37TMC2     O  569   3.249   1.171  11.426  0.3691  0.5222  0.1627
   37TMC2     H  570   3.360   1.277  11.253 -0.7593  0.0225  2.6747
   37TMC2    H1  571   3.588   1.175  11.599 -1.1270 -1.1945 -1.1436
   37TMC2    H2  572   3.748   1.449  11.311  0.0186  0.1784  1.5537
   37TMC2    C7  573   3.780   1.341  11.568 -0.1283 -0.2050  0.3638
   37TMC2    C8  574   3.512   1.476  11.177  0.0158  0.3103 -0.6915
   37TMC2    O1  575   3.755   1.303  11.680  0.0580 -0.0374  0.0176
   37TMC2    O2  576   3.407   1.536  11.198 -0.2350 -0.7431  0.2802
   37TMC2    O5  577   3.617   1.543  11.125 -0.0830 -0.4404 -0.1272
   37TMC2    H5  578   3.698   1.488  11.113  1.1905  1.4493 -0.1462
   38MPD2     C  579   3.039   1.150  11.917  0.1199 -0.3493 -0.7946
   38MPD2    C1  580   3.175   1.149  11.954 -0.1784 -0.3174 -0.3051
   38MPD2    C2  581   3.275   1.152  11.858 -0.1997  0.5331  0.1238
   38MPD2    C3  582   3.246   1.160  11.726  0.0834 -0.0025 -0.4591
   38MPD2    C4  583   3.112   1.185  11.696 -0.1002  0.4649  0.4186
   38MPD2    C5  584   3.015   1.182  11.787  0.1023  0.2228 -0.6628
   38MPD2     H  585   3.376   1.157  11.896  0.0293  0.2954 -0.4622
   38MPD2    H1  586   3.072   1.224  11.603  1.1609  0.9468  0.0779
   38MPD2    H2  587   2.950   1.146  11.978 -1.1710  1.1673 -2.5767
   38MPD2    H3  588   2.914   1.188  11.750 -0.2433 -1.7210 -0.0266
   38MPD2     N  589   3.344   1.187  11.636  1.2147  0.2889  0.0728
   38MPD2    H5  590   3.436   1.204  11.676  2.3391 -1.4045 -1.7718
   38MPD2    N1  591   3.206   1.147  12.088  0.2922 -1.0641  0.4871
   38MPD2    H7  592   3.305   1.133  12.108  0.6115 -2.6720 -2.1766
   39MPD2     C  593   1.697   2.776   1.409  0.0459  0.1937  0.6400
   39MPD2    C1  594   1.734   2.686   1.308 -0.4284 -0.1944 -0.0637
   39MPD2    C2  595   1.643   2.643   1.211 -0.3586  0.0060  0.7099
   39MPD2    C3  596   1.510   2.671   1.221 -0.5704  0.2829 -0.3135
   39MPD2    C4  597   1.471   2.761   1.314  0.3628 -0.4343  0.0567
   39MPD2    C5  598   1.564   2.817   1.397 -0.2286 -0.1606 -0.8373
   39MPD2     H  599   1.677   2.586   1.125  0.2906  1.1923  0.1737
   39MPD2    H1  600   1.365   2.784   1.317  0.1843 -1.0705 -1.6586
   39MPD2    H2  601   1.759   2.802   1.495  2.0672  1.0962 -1.0932
   39MPD2    H3  602   1.528   2.885   1.473  2.5689 -1.2114  1.4415
   39MPD2     N  603   1.412   2.637   1.129 -0.2454  0.0367  0.7382
   39MPD2    H5  604   1.315   2.650   1.156 -0.2638 -1.7985  1.5385
   39MPD2    N1  605   1.866   2.628   1.311  0.3105  0.0856 -0.4035
   39MPD2    H7  606   1.928   2.667   1.382 -0.3644 -1.4964  1.0325
   40TCq2    C1  607   1.914   2.515   1.249 -0.0762  0.2847  0.2169
   40TCq2    O2  608   1.846   2.438   1.179  0.4314 -0.2463 -0.3974
   40TCq2    C2  609   2.051   2.485   1.290 -0.1367  0.9272 -0.8005
   40TCq2    C3  610   2.092   2.356   1.276 -0.2418  0.3595  0.4124
   40TCq2    C4  611   2.223   2.325   1.300 -0.3757 -0.4885  0.3462
   40TCq2    C5  612   2.315   2.421   1.337  0.3751 -0.3526 -0.4007
   40TCq2    C6  613   2.272   2.556   1.347 -0.6686  1.0159  0.5200
   40TCq2    C7  614   2.138   2.585   1.329 -0.1830  0.6763 -0.2126
   40TCq2    C8  615   2.375   2.655   1.365 -0.0460 -0.6356  0.0837
   40TCq2    O4  616   2.338   2.770   1.370 -0.0875  0.1221  0.2475
   40TCq2    C9  617   2.266   2.193   1.266  0.2131 -0.0453 -0.4016
   40TCq2    O5  618   2.188   2.118   1.199  0.0610 -0.4327 -0.2971
   40TCq2    O6  619   2.371   2.154   1.326 -1.1499 -0.3594  0.0400
   40TCq2    H2  620   2.027   2.283   1.228  0.8472  0.0501 -0.6190
   40TCq2    H3  621   2.418   2.392   1.352  0.0756 -0.7056  1.0030
   40TCq2    H4  622   2.104   2.688   1.331  1.5494  1.2047  1.8747
   41TMC2    C1  623   0.807   1.077  13.431 -0.2852 -0.3296  0.4505
   41TMC2    C2  624   0.889   1.119  13.529  0.0615  0.6064  0.4689
   41TMC2    C3  625   0.991   1.202  13.488  0.0501 -0.1046 -0.1095
   41TMC2    C4  626   0.825   1.103  13.296  0.4998  0.2578  0.1219
   41TMC2    C5  627   0.934   1.179  13.259 -0.2245  0.1842  0.0351
   41TMC2    C6  628   1.015   1.224  13.355 -0.1202  0.5240  0.6593
   41TMC2     C  629   0.690   0.995  13.459 -0.5766  0.2393  0.0438
   41TMC2     O  630   0.634   0.953  13.360 -0.1348  0.0355 -0.2814
   41TMC2     H  631   0.876   1.112  13.636 -0.4929 -1.6917  0.2644
   41TMC2    H1  632   0.758   1.061  13.222  0.2722  4.0207 -1.8187
   41TMC2    H2  633   1.107   1.275  13.332  1.0600 -1.7359  0.3383
   41TMC2    C7  634   0.948   1.255  13.137  0.5704 -0.4821 -0.1652
   41TMC2    C8  635   1.103   1.227  13.580  0.2584 -0.0014  0.9183
   41TMC2    O1  636   0.997   1.366  13.148 -0.1515 -0.1049  0.3185
   41TMC2    O2  637   1.189   1.151  13.623  0.4897  0.2897 -0.2466
   41TMC2    O5  638   1.072   1.348  13.626  0.3804 -0.0458 -0.2242
   41TMC2    H5  639   1.005   1.393  13.571  0.1946 -0.0027  0.0367
   42MPD2     C  640   0.456   0.848  13.554  0.5489 -0.2703 -0.2182
   42MPD2    C1  641   0.562   0.889  13.634  0.0265  0.6187  0.5425
   42MPD2    C2  642   0.563   0.843  13.764  0.3997  0.0935  0.4575
   42MPD2    C3  643   0.466   0.757  13.810 -0.2355  0.0786 -0.0822
   42MPD2    C4  644   0.357   0.723  13.734  0.3025 -0.1676 -0.0652
   42MPD2    C5  645   0.351   0.773  13.607 -0.4712  0.1813  0.1488
   42MPD2     H  646   0.653   0.855  13.822  0.2598  1.3133  0.4235
   42MPD2    H1  647   0.276   0.668  13.781  0.4802 -1.1783 -0.9456
   42MPD2    H2  648   0.440   0.887  13.453  0.8152 -1.0097 -0.5459
   42MPD2    H3  649   0.268   0.746  13.542  0.4503  1.4143 -1.5445
   42MPD2     N  650   0.465   0.714  13.945 -0.3762  0.1045  0.4090
   42MPD2    H5  651   0.390   0.654  13.979  0.5073 -1.7239 -0.8765
   42MPD2    N1  652   0.672   0.963  13.587 -0.3939 -0.5644  1.0897
   42MPD2    H7  653   0.731   1.000  13.661 -0.6025 -1.7631  1.8572
   43MPD2     C  654   1.292   4.391   0.216  0.3887  0.5516  0.8502
   43MPD2    C1  655   1.346   4.300   0.295  0.2170  0.4786  0.1908
   43MPD2    C2  656   1.297   4.286   0.423  0.2367  0.0182 -0.0450
   43MPD2    C3  657   1.185   4.360   0.462  0.1299 -0.2228 -0.7914
   43MPD2    C4  658   1.130   4.452   0.384  0.6855  0.4631 -0.7904
   43MPD2    C5  659   1.193   4.474   0.265 -0.1027 -0.1655 -0.4067
   43MPD2     H  660   1.359   4.224   0.488  1.2771  0.8019 -0.2895
   43MPD2    H1  661   1.037   4.505   0.403 -0.1859 -1.1622 -0.4699
   43MPD2    H2  662   1.328   4.419   0.118 -0.8625 -0.4387  0.1037
   43MPD2    H3  663   1.166   4.558   0.203  1.1432  0.6602  0.1752
   43MPD2     N  664   1.135   4.358   0.593  0.1151  0.0989 -0.3363
   43MPD2    H5  665   1.063   4.428   0.608 -1.7134 -1.4240 -2.0396
   43MPD2    N1  666   1.457   4.220   0.256 -0.0076 -0.0646 -0.3089
   43MPD2    H7  667   1.489   4.150   0.323  2.3164  0.8403 -0.4568
   44TCq2    C1  668   1.303   4.334   1.135  0.4414  0.2562  0.7991
   44TCq2    O2  669   1.406   4.277   1.109 -0.9025  0.1246 -0.6097
   44TCq2    C2  670   1.207   4.360   1.031 -0.3049 -0.7033  0.0461
   44TCq2    C3  671   1.125   4.468   1.046  0.1687  0.1575  0.4930
   44TCq2    C4  672   1.036   4.493   0.946 -0.2001 -0.1833 -0.2183
   44TCq2    C5  673   1.037   4.429   0.832  0.0390 -0.4842 -0.0935
   44TCq2    C6  674   1.124   4.318   0.818 -0.2215 -1.1127  0.3823
   44TCq2    C7  675   1.212   4.286   0.917 -0.6685  0.3711  0.1006
   44TCq2    C8  676   1.173   4.272   0.688 -0.2353  0.0689 -0.4503
   44TCq2    O4  677   1.254   4.177   0.688 -0.1121  0.0125  0.6887
   44TCq2    C9  678   0.940   4.608   0.960 -0.2816  0.1716 -0.1010
   44TCq2    O5  679   0.867   4.631   0.856 -0.8225  0.1047  0.2601
   44TCq2    O6  680   0.963   4.685   1.056 -0.0608  0.8756  0.1183
   44TCq2    H2  681   1.132   4.533   1.133  2.2177  0.8631 -0.2021
   44TCq2    H3  682   0.971   4.467   0.755  1.8034 -0.4099 -1.5659
   44TCq2    H4  683   1.277   4.200   0.912 -0.4262  0.6853 -2.4408
   45TMC2    C1  684   2.343   1.269   9.376  0.1749  0.8600 -0.3788
   45TMC2    C2  685   2.472   1.249   9.424 -0.4147 -0.7437  1.0634
   45TMC2    C3  686   2.518   1.343   9.506  0.0468  0.1714 -0.5006
   45TMC2    C4  687   2.278   1.385   9.403 -0.0527  0.3427 -0.4424
   45TMC2    C5  688   2.330   1.481   9.488  0.8349 -1.0243 -0.0957
   45TMC2    C6  689   2.457   1.467   9.529 -0.4130  0.1824 -0.4266
   45TMC2     C  690   2.287   1.162   9.294  0.0333  0.5646  0.4279
   45TMC2     O  691   2.364   1.070   9.266  0.0841  0.1602  1.0049
   45TMC2     H  692   2.535   1.162   9.407  1.6470  0.9235  0.1529
   45TMC2    H1  693   2.189   1.414   9.349  0.5329 -0.3401 -1.7614
   45TMC2    H2  694   2.494   1.524   9.613  0.7538 -0.9352 -0.1927
   45TMC2    C7  695   2.267   1.610   9.481 -0.5977  0.1003  0.2783
   45TMC2    C8  696   2.639   1.321   9.584 -0.2348  0.5093  0.0862
   45TMC2    O1  697   2.151   1.623   9.445 -0.3563 -0.2289 -0.1383
   45TMC2    O2  698   2.693   1.415   9.642  0.5215 -0.5417 -0.7721
   45TMC2    O5  699   2.638   1.189   9.625  0.4516 -0.2600 -0.5183
   45TMC2    H5  700   2.560   1.133   9.603 -0.1417  0.2205  0.3501
   46MPD2     C  701   2.129   0.953   9.152 -0.7801  1.0522  1.5486
   46MPD2    C1  702   2.077   1.066   9.222 -0.0956  0.0847  0.1117
   46MPD2    C2  703   1.946   1.084   9.223 -1.2381 -0.3269  0.5140
   46MPD2    C3  704   1.860   0.980   9.184 -0.5082  0.4832  0.3468
   46MPD2    C4  705   1.912   0.863   9.133 -0.4794 -0.7904 -0.0701
   46MPD2    C5  706   2.045   0.859   9.104 -0.4248  1.2284 -1.1249
   46MPD2     H  707   1.911   1.174   9.272 -0.0118  0.2599  0.3135
   46MPD2    H1  708   1.854   0.777   9.102 -1.0624 -0.2999 -0.3479
   46MPD2    H2  709   2.234   0.942   9.127 -1.5937  0.5839 -1.6531
   46MPD2    H3  710   2.084   0.768   9.062  0.8638  1.4388 -0.3874
   46MPD2     N  711   1.723   1.003   9.203  0.4377  0.1916  0.1030
   46MPD2    H5  712   1.693   1.097   9.226 -1.7253 -0.0963 -1.4878
   46MPD2    N1  713   2.153   1.174   9.273 -0.0615  0.2743 -0.7127
   46MPD2    H7  714   2.106   1.251   9.318 -1.8943 -0.0366 -2.1225
   47TMC2    C1  715   4.139   2.098   9.620  0.0679 -0.6292 -0.4679
   47TMC2    C2  716   4.196   1.987   9.677  0.3780 -0.1808 -0.3638
   47TMC2    C3  717   4.101   1.903   9.729 -0.0198 -0.2542 -0.3559
   47TMC2    C4  718   4.003   2.126   9.618 -0.3153  0.4651  0.4055
   47TMC2    C5  719   3.919   2.038   9.679  0.1082  0.4218 -0.0332
   47TMC2    C6  720   3.964   1.921   9.730 -0.2875 -0.1685 -0.0437
   47TMC2     C  721   4.206   2.184   9.525 -0.1119 -0.2249 -0.1942
   47TMC2     O  722   4.133   2.247   9.451  0.7012  0.1309  0.8899
   47TMC2     H  723   4.299   1.959   9.655  0.0678 -1.2610 -0.4624
   47TMC2    H1  724   3.958   2.217   9.581 -1.8458 -0.5438 -0.2368
   47TMC2    H2  725   3.904   1.848   9.783  0.0192  1.0313  1.9783
   47TMC2    C7  726   3.774   2.043   9.638 -0.7058 -0.0623 -0.0359
   47TMC2    C8  727   4.138   1.769   9.751  0.5030  0.3449 -0.7011
   47TMC2    O1  728   3.740   2.148   9.591  0.2139 -0.6384  0.2437
   47TMC2    O2  729   4.061   1.674   9.731 -0.1372  0.0837 -0.6570
   47TMC2    O5  730   4.264   1.765   9.801 -0.1471 -0.4865 -0.3648
   47TMC2    H5  731   4.293   1.848   9.843 -1.6775 -0.5532  0.8074
   48MPD2     C  732   4.401   2.358   9.372 -0.7772 -0.6207 -0.1133
   48MPD2    C1  733   4.439   2.255   9.460 -0.2941  0.2051 -0.4973
   48MPD2    C2  734   4.570   2.238   9.484  0.6181  0.2691 -0.5992
   48MPD2    C3  735   4.670   2.312   9.411 -0.1005  0.4444  0.1912
   48MPD2    C4  736   4.629   2.406   9.320 -0.0214  0.8918 -0.6679
   48MPD2    C5  737   4.496   2.426   9.300  0.0159 -0.5316 -0.5231
   48MPD2     H  738   4.595   2.160   9.555 -0.9319  1.5722  1.3904
   48MPD2    H1  739   4.703   2.466   9.269  0.6524  0.4691 -0.1821
   48MPD2    H2  740   4.297   2.380   9.350 -0.2392 -0.3994 -2.3347
   48MPD2    H3  741   4.459   2.495   9.226  0.6128 -0.9543 -1.2100
   48MPD2     N  742   0.079   2.283   9.429  0.0474  0.3124 -0.7346
   48MPD2    H5  743   0.100   2.195   9.476  1.4109  0.0646 -1.7862
   48MPD2    N1  744   4.338   2.173   9.529 -0.2058  0.2319  0.4121
   48MPD2    H7  745   4.375   2.115   9.604 -0.8420 -1.5250 -0.6287
   49MPD2     C  746   2.726   3.052  10.092 -0.9953  0.0101 -0.5270
   49MPD2    C1  747   2.754   3.039  10.225 -0.0069  0.0112 -0.5366
   49MPD2    C2  748   2.793   3.150  10.293 -0.1164  0.0211 -0.4453
   49MPD2    C3  749   2.798   3.273  10.226  0.1946  0.4188 -0.5065
   49MPD2    C4  750   2.790   3.274  10.080 -0.4759 -0.5882  0.3427
   49MPD2    C5  751   2.750   3.162  10.017  0.0214 -0.0019  0.5103
   49MPD2     H  752   2.832   3.140  10.394  3.2378  2.2211 -1.5121
   49MPD2    H1  753   2.813   3.365  10.027 -0.4514 -0.6593  0.2323
   49MPD2    H2  754   2.690   2.964  10.040 -1.7621  0.3410 -0.5552
   49MPD2    H3  755   2.742   3.162   9.909 -1.3185  1.8099  0.6166
   49MPD2     N  756   2.838   3.394  10.290 -0.2367  0.7808 -0.3177
   49MPD2    H5  757   2.853   3.474  10.230  0.0463  0.1671 -1.0757
   49MPD2    N1  758   2.742   2.918  10.288  0.3320  0.2918 -0.1514
   49MPD2    H7  759   2.748   2.920  10.389  1.3742 -1.8583 -0.1706
   50TCq2    C1  760   2.712   2.797  10.232 -0.8839  0.0983  0.0113
   50TCq2    O2  761   2.732   2.756  10.124  0.4374 -0.0032 -0.0553
   50TCq2    C2  762   2.687   2.701  10.348 -0.0380  0.3284  0.4591
   50TCq2    C3  763   2.775   2.595  10.354  0.4050 -0.6171  0.2355
   50TCq2    C4  764   2.811   2.545  10.473 -0.0990 -0.3412  0.2702
   50TCq2    C5  765   2.760   2.602  10.590 -0.2845 -0.0277  0.4818
   50TCq2    C6  766   2.677   2.716  10.583 -0.0808 -0.1662 -0.0454
   50TCq2    C7  767   2.641   2.769  10.461  0.1110  1.0375  0.4422
   50TCq2    C8  768   2.686   2.803  10.701 -0.1589  0.0625  0.1050
   50TCq2    O4  769   2.678   2.920  10.670  0.3770  0.3613  0.1319
   50TCq2    C9  770   2.901   2.437  10.471 -0.1864 -0.5502  0.2520
   50TCq2    O5  771   2.902   2.375  10.580  0.8422  0.0798  0.0201
   50TCq2    O6  772   2.941   2.399  10.356 -0.6168  0.6173  0.3520
   50TCq2    H2  773   2.809   2.550  10.261 -0.3881  1.3165 -1.0092
   50TCq2    H3  774   2.798   2.558  10.682  1.3188 -0.4788 -0.3975
   50TCq2    H4  775   2.572   2.853  10.464  0.6160  1.5490 -2.4722
   51MPD2     C  776   3.800   1.757   1.099 -0.3986 -0.1578 -0.3855
   51MPD2    C1  777   3.677   1.811   1.066  0.6099  0.5692 -0.4801
   51MPD2    C2  778   3.623   1.906   1.155 -0.4692 -0.6098  0.1056
   51MPD2    C3  779   3.693   1.947   1.264  0.6062 -0.6430  0.3899
   51MPD2    C4  780   3.822   1.906   1.284 -0.0757  0.0065  0.6068
   51MPD2    C5  781   3.875   1.810   1.200 -0.1091  0.0648  0.7031
   51MPD2     H  782   3.526   1.952   1.135 -0.8680 -0.9952  1.1668
   51MPD2    H1  783   3.887   1.942   1.363  0.0029  0.4806  0.3330
   51MPD2    H2  784   3.852   1.687   1.035  1.8854  2.3913 -1.3233
   51MPD2    H3  785   3.977   1.778   1.218  0.2284  0.8633  0.2055
   51MPD2     N  786   3.634   2.034   1.367 -0.2764  0.5357  0.2925
   51MPD2    H5  787   3.697   2.083   1.430  0.1266  1.8521 -1.1328
   51MPD2    N1  788   3.602   1.770   0.955 -0.0329 -0.2888 -0.0859
   51MPD2    H7  789   3.513   1.819   0.945  0.0457 -0.4893 -1.8118
   52TCq2    C1  790   3.504   2.070   1.378  0.4861  0.1470 -0.5978
   52TCq2    O2  791   3.403   2.017   1.330  0.2024  0.1824 -0.9312
   52TCq2    C2  792   3.486   2.196   1.450 -0.4479  0.2686  0.2092
   52TCq2    C3  793   3.359   2.229   1.487 -0.0103 -0.2181 -0.6863
   52TCq2    C4  794   3.332   2.344   1.561 -0.0025  0.4803 -0.1445
   52TCq2    C5  795   3.431   2.442   1.558 -0.0421  0.9302  0.1549
   52TCq2    C6  796   3.556   2.413   1.516  0.9406  0.2303 -0.1753
   52TCq2    C7  797   3.593   2.290   1.467 -0.3064 -0.5800 -0.2760
   52TCq2    C8  798   3.667   2.507   1.526  0.8856  0.0317  0.1000
   52TCq2    O4  799   3.778   2.460   1.532 -0.2704 -0.3715 -0.2351
   52TCq2    C9  800   3.204   2.372   1.613  0.3378 -0.9598  0.2161
   52TCq2    O5  801   3.177   2.481   1.670 -0.2084  0.2435 -0.1047
   52TCq2    O6  802   3.125   2.274   1.613  0.4188 -0.1989 -0.3262
   52TCq2    H2  803   3.280   2.156   1.478 -1.2381  1.0671 -0.2563
   52TCq2    H3  804   3.406   2.542   1.592 -1.8389  0.7938 -0.7623
   52TCq2    H4  805   3.684   2.270   1.412 -1.3217 -3.1355 -1.0372
   53TMC2    C1  806   4.202   1.533  12.170  0.0110 -0.0408 -0.1932
   53TMC2    C2  807   4.299   1.491  12.261 -0.5191  0.6436  0.7117
   53TMC2    C3  808   4.256   1.471  12.394  0.1337  0.2340  0.1500
   53TMC2    C4  809   4.074   1.562  12.222  0.3181 -0.5397  0.1335
   53TMC2    C5  810   4.042   1.543  12.356 -0.0058  0.6271 -0.5107
   53TMC2    C6  811   4.134   1.497  12.448  0.3136  0.3215 -0.0115
   53TMC2     C  812   4.231   1.529  12.029 -0.2040  0.2794  0.4176
   53TMC2     O  813   4.350   1.527  12.004  0.7123 -0.0239  0.2179
   53TMC2     H  814   4.397   1.462  12.225 -1.1460  2.1522 -2.2222
   53TMC2    H1  815   3.999   1.610  12.159 -0.6876  0.4160  2.0625
   53TMC2    H2  816   4.108   1.484  12.552 -0.4219  0.6566 -0.1522
   53TMC2    C7  817   3.899   1.559  12.395  0.3535 -0.5870 -0.4421
   53TMC2    C8  818   4.374   1.460  12.478 -0.2522  0.3762 -0.0086
   53TMC2    O1  819   3.828   1.613  12.315  0.6518 -0.0401  0.4256
   53TMC2    O2  820   4.484   1.491  12.434 -0.2715  0.9451 -0.7670
   53TMC2    O5  821   4.346   1.393  12.596 -0.0768  0.5124  0.2483
   53TMC2    H5  822   4.261   1.344  12.599  0.3812 -0.1506  2.3477
   54MPD2     C  823   4.217   1.567  11.733  1.1576 -0.0851  0.4021
   54MPD2    C1  824   4.123   1.506  11.809 -1.0516 -0.6137  0.2467
   54MPD2    C2  825   4.015   1.454  11.743  0.5871  0.4486  0.5942
   54MPD2    C3  826   4.003   1.464  11.606 -0.4086 -0.7237 -0.0876
   54MPD2    C4  827   4.098   1.524  11.536 -0.4659 -0.2867 -1.1029
   54MPD2    C5  828   4.212   1.573  11.596  0.1402  0.1507  0.5425
   54MPD2     H  829   3.940   1.398  11.797  0.2243 -0.8980 -1.3141
   54MPD2    H1  830   4.088   1.529  11.429  0.2272  3.9227 -0.9406
   54MPD2    H2  831   4.299   1.624  11.776  1.1052 -1.1894  1.9615
   54MPD2    H3  832   4.295   1.615  11.540  1.4755 -1.2172  1.4914
   54MPD2     N  833   3.893   1.409  11.526  0.4800  0.5055 -0.2202
   54MPD2    H5  834   3.902   1.428  11.427  2.0990 -1.7053 -0.4920
   54MPD2    N1  835   4.123   1.503  11.948  0.6293 -0.0784 -0.1106
   54MPD2    H7  836   4.028   1.488  11.979  0.1093  2.4896 -0.4371
   55MPD2     C  837   0.192   1.902   0.163  0.8875 -0.7857  0.0243
   55MPD2    C1  838   0.232   1.983   0.268 -0.3447  0.3323  0.5327
   55MPD2    C2  839   0.314   2.090   0.246 -0.2800 -0.1749  0.3839
   55MPD2    C3  840   0.355   2.114   0.114  0.4579 -0.5608  0.7411
   55MPD2    C4  841   0.329   2.030   0.008  0.4013  0.4251  0.1065
   55MPD2    C5  842   0.248   1.920   0.038 -0.1158  0.1931 -0.3679
   55MPD2     H  843   0.361   2.143   0.328  0.5107 -3.2085  1.9182
   55MPD2    H1  844   0.351   2.053  17.604  2.1558 -0.6753  0.2443
   55MPD2    H2  845   0.140   1.808   0.180 -0.6029 -0.3512 -2.1500
   55MPD2    H3  846   0.222   1.857  17.653 -2.3274  0.2319  0.2900
   55MPD2     N  847   0.445   2.218   0.110  0.4599 -0.3306 -0.3471
   55MPD2    H5  848   0.447   2.265   0.200  1.8508  0.9784 -1.0571
   55MPD2    N1  849   0.180   1.945   0.394 -0.0347 -0.2288  0.7961
   55MPD2    H7  850   0.124   1.861   0.401  0.5855 -0.7071 -0.0706
   56TCq2    C1  851   0.177   2.025   0.501  0.1038  0.2478  0.2758
   56TCq2    O2  852   0.229   2.135   0.527 -0.1097  0.3097  0.9060
   56TCq2    C2  853   0.103   1.964   0.616 -0.1521  0.0541 -0.0940
   56TCq2    C3  854   0.104   1.833   0.649  0.2303  0.6646  0.2883
   56TCq2    C4  855   0.061   1.794   0.776  0.5164  0.8107  0.0266
   56TCq2    C5  856   0.031   1.886   0.869  0.2088  0.4436  0.3829
   56TCq2    C6  857   0.049   2.018   0.841 -0.6059 -0.4905  0.0468
   56TCq2    C7  858   0.074   2.056   0.716 -0.0213 -0.2738  0.3792
   56TCq2    C8  859   0.023   2.120   0.938  0.0419  0.4906  0.4677
   56TCq2    O4  860   4.704   2.084   1.047  0.0001 -0.0069 -0.0025
   56TCq2    C9  861   0.048   1.654   0.812 -0.8081 -0.2238  0.1368
   56TCq2    O5  862   4.705   1.628   0.915 -0.0352 -0.4095  0.0647
   56TCq2    O6  863   0.088   1.565   0.735  0.1141 -0.4848  0.3183
   56TCq2    H2  864   0.146   1.758   0.584 -1.5274  0.4260 -0.5561
   56TCq2    H3  865   0.008   1.846   0.967 -1.4310  0.0276 -0.1642
   56TCq2    H4  866   0.063   2.159   0.684 -2.1397 -1.2234 -2.0768
   57TMC2    C1  867   3.966   0.146  13.428  0.0155 -0.2653  0.1944
   57TMC2    C2  868   3.994   0.239  13.524  0.5239 -0.3979  0.2127
   57TMC2    C3  869   4.070   0.347  13.504 -0.0670 -0.0392  0.5299
   57TMC2    C4  870   4.030   0.149  13.309 -0.2170 -0.7222 -0.2284
   57TMC2    C5  871   4.110   0.256  13.284  0.2372 -0.4477  0.4719
   57TMC2    C6  872   4.128   0.360  13.374  0.0485  0.3501 -0.5823
   57TMC2     C  873   3.859   0.054  13.457  0.1206  0.1500  0.3779
   57TMC2     O  874   3.837   0.028  13.574  0.2962  0.8171 -0.3734
   57TMC2     H  875   3.936   0.227  13.615 -1.2400  0.5665 -0.7757
   57TMC2    H1  876   4.011   0.069  13.237 -2.6974  1.9527 -2.5451
   57TMC2    H2  877   4.199   0.439  13.356 -0.0364  0.0028 -2.3599
   57TMC2    C7  878   4.203   0.262  13.174 -0.1565  0.4948 -0.3139
   57TMC2    C8  879   4.022   0.466  13.567 -0.5121  0.3457 -0.2819
   57TMC2    O1  880   4.239   0.378  13.151  0.4082  0.0166  0.1133
   57TMC2    O2  881   3.976   0.468  13.681  0.0288  0.0724 -0.1349
   57TMC2    O5  882   3.990   0.553  13.465 -0.2234 -0.0286  0.2795
   57TMC2    H5  883   3.974   0.495  13.387 -1.0124  1.7127 -0.8629
   58MPD2     C  884   3.446   4.494  13.348 -0.1069 -0.7000 -0.1897
   58MPD2    C1  885   3.482   4.556  13.464  0.2660 -0.3571  0.0312
   58MPD2    C2  886   3.599   4.623  13.469  0.1703 -0.1594  0.1098
   58MPD2    C3  887   3.683   4.632  13.357 -0.5560 -0.0920  0.3594
   58MPD2    C4  888   3.645   4.571  13.244  0.2639  0.5337  0.0748
   58MPD2    C5  889   3.533   4.494  13.241  0.0278 -0.7334 -0.4603
   58MPD2     H  890   3.624   4.686  13.553  0.5701  0.7102 -0.6568
   58MPD2    H1  891   3.706   4.581  13.154 -1.4541  0.4323 -1.0937
   58MPD2    H2  892   3.356   4.433  13.345 -1.7873  1.7303  0.9556
   58MPD2    H3  893   3.507   4.450  13.145 -1.2469  0.4992 -0.6870
   58MPD2     N  894   3.792   0.003  13.346 -0.0262 -0.0379 -0.3012
   58MPD2    H5  895   3.808   0.036  13.251  0.2872 -1.3460 -0.6941
   58MPD2    N1  896   3.401   4.564  13.572 -0.1266  0.4616  0.6239
   58MPD2    H7  897   3.435   4.610  13.656 -0.3550  0.7381  0.5644
   59MPD2     C  898   2.294   4.499  12.655  0.4228 -0.3793  0.5117
   59MPD2    C1  899   2.203   4.591  12.694  0.0642 -0.2192  0.9246
   59MPD2    C2  900   2.216   4.668  12.808 -0.0975  0.0539  0.5682
   59MPD2    C3  901   2.329   4.640  12.880 -0.7055 -1.1935  0.6276
   59MPD2    C4  902   2.423   4.544  12.846 -0.3252 -0.6311  0.2167
   59MPD2    C5  903   2.408   4.475  12.731 -0.7200 -0.9825  0.3130
   59MPD2     H  904   2.148   0.024  12.831 -2.3624 -1.6360 -0.2041
   59MPD2    H1  905   2.512   4.520  12.904 -0.0721 -0.1404  0.0309
   59MPD2    H2  906   2.283   4.454  12.557  1.5064  0.2843  0.0868
   59MPD2    H3  907   2.472   4.389  12.717 -1.5748 -1.5519 -0.0581
   59MPD2     N  908   2.351   4.716  13.002 -0.1256 -0.0234  0.8747
   59MPD2    H5  909   2.445   4.716  13.039  0.5356 -0.2984 -0.8096
   59MPD2    N1  910   2.089   4.628  12.618  0.6907  0.1852 -0.7812
   59MPD2    H7  911   2.026   4.701  12.650  0.8991  0.4348 -0.9442
   60TCq2    C1  912   2.064   4.590  12.494  0.1337  0.6004  0.0038
   60TCq2    O2  913   2.136   4.533  12.410  0.3326 -0.3209 -0.5481
   60TCq2    C2  914   1.949   4.665  12.443  0.1230  0.9143  0.4631
   60TCq2    C3  915   1.834   4.663  12.518 -0.0710  0.1153  0.7348
   60TCq2    C4  916   1.733   0.023  12.490  0.7190  0.3544  1.2233
   60TCq2    C5  917   1.749   0.105  12.379  0.6021  0.3744 -0.4931
   60TCq2    C6  918   1.873   0.109  12.310  0.8394 -0.7069  0.9653
   60TCq2    C7  919   1.969   0.021  12.340  0.4094  0.7067  0.5240
   60TCq2    C8  920   1.905   0.205  12.203 -0.3274 -0.0043 -0.2939
   60TCq2    O4  921   2.020   0.231  12.168 -0.4904 -0.4660 -0.4173
   60TCq2    C9  922   1.610   0.005  12.562 -0.0845 -0.0609  0.8342
   60TCq2    O5  923   1.505   0.024  12.496  0.0541 -0.2241 -0.1266
   60TCq2    O6  924   1.627   4.693  12.683  0.4496  0.1163 -0.0770
   60TCq2    H2  925   1.818   4.592  12.598  2.0304 -1.4606 -0.2440
   60TCq2    H3  926   1.660   0.160  12.352  0.2073 -0.1648 -0.2984
   60TCq2    H4  927   2.060   0.013  12.282  1.2889  0.5695  1.9378
   61MPD2     C  928   0.904   1.160  14.606  0.0049 -0.8006 -0.2465
   61MPD2    C1  929   0.970   1.283  14.624 -0.2626 -0.0834 -0.6030
   61MPD2    C2  930   1.043   1.337  14.523 -0.2565 -0.3199  0.4528
   61MPD2    C3  931   1.049   1.278  14.397 -0.0743  0.1138 -0.0810
   61MPD2    C4  932   0.987   1.158  14.380  0.1478  0.1079 -0.5972
   61MPD2    C5  933   0.924   1.098  14.486  0.3680 -0.3348 -0.3666
   61MPD2     H  934   1.082   1.436  14.545  0.3080 -0.5758  0.5887
   61MPD2    H1  935   0.989   1.115  14.281  0.6894  1.8795 -1.3463
   61MPD2    H2  936   0.866   1.096  14.684 -1.1462 -0.9517 -0.9298
   61MPD2    H3  937   0.902   0.992  14.472 -2.6549  0.2062  0.4274
   61MPD2     N  938   1.115   1.343  14.283 -0.1968 -0.0174  0.1581
   61MPD2    H5  939   1.146   1.295  14.199  0.2720 -2.0425  1.4788
   61MPD2    N1  940   0.958   1.359  14.736  0.3010 -0.1425 -0.0675
   61MPD2    H7  941   0.994   1.454  14.744 -2.5864  1.0880 -1.9577
   62TCq2    C1  942   0.908   1.312  14.857 -1.2156  0.2650 -0.1320
   62TCq2    O2  943   0.881   1.194  14.885  0.0038 -0.0590  0.4291
   62TCq2    C2  944   0.880   1.417  14.954 -1.1395 -0.2913 -0.1188
   62TCq2    C3  945   0.903   1.381  15.081  0.3145 -0.1423 -0.4851
   62TCq2    C4  946   0.898   1.476  15.180  0.2563 -0.0278 -0.4049
   62TCq2    C5  947   0.892   1.613  15.141 -0.1498  0.3556  0.8850
   62TCq2    C6  948   0.872   1.645  15.010 -0.0671 -0.2871 -0.4402
   62TCq2    C7  949   0.871   1.544  14.915 -0.8218 -1.1645 -0.3476
   62TCq2    C8  950   0.862   1.785  14.981  0.5003 -0.7298  0.2165
   62TCq2    O4  951   0.916   1.857  15.064  0.1227  0.0782 -0.3010
   62TCq2    C9  952   0.908   1.437  15.315 -0.3792 -0.1328  0.1380
   62TCq2    O5  953   0.956   1.323  15.340 -0.4853 -0.4355 -0.0378
   62TCq2    O6  954   0.886   1.523  15.406 -0.0169  0.4620 -0.1919
   62TCq2    H2  955   0.926   1.278  15.106  0.5999 -0.9300 -4.0203
   62TCq2    H3  956   0.897   1.689  15.217 -0.7854  0.5457  0.7353
   62TCq2    H4  957   0.869   1.583  14.814 -0.6005 -0.0787  0.0588
   63TMC2    C1  958   0.181   1.694  10.154  0.0999  0.4631 -0.2227
   63TMC2    C2  959   0.277   1.676  10.251  0.7777  0.0890 -0.3214
   63TMC2    C3  960   0.371   1.773  10.275  0.2188  0.4279 -0.1591
   63TMC2    C4  961   0.172   1.814  10.088 -0.8625 -0.4058 -0.1367
   63TMC2    C5  962   0.276   1.900  10.110  0.3153 -0.2140 -0.1041
   63TMC2    C6  963   0.380   1.882  10.197  0.1834  0.5487 -0.1603
   63TMC2     C  964   0.080   1.590  10.132 -0.6972  0.2352 -0.1845
   63TMC2     O  965   0.002   1.623  10.044 -0.2193  0.1479  0.4356
   63TMC2     H  966   0.304   1.579  10.291  0.5547 -0.2892 -1.0906
   63TMC2    H1  967   0.096   1.843  10.017 -0.9951  0.3520  0.3063
   63TMC2    H2  968   0.452   1.955  10.233  2.8317 -0.2474 -3.8787
   63TMC2    C7  969   0.279   2.023  10.033 -0.0562  0.1401  0.1173
   63TMC2    C8  970   0.503   1.726  10.310 -0.3547 -0.2423  0.1585
   63TMC2    O1  971   0.176   2.040   9.967  0.0038  0.0779  0.2424
   63TMC2    O2  972   0.604   1.776  10.264  0.0400 -0.7098  0.1348
   63TMC2    O5  973   0.480   1.687  10.439 -0.8698  0.5122 -0.5328
   63TMC2    H5  974   0.386   1.693  10.465 -1.0016 -2.4029 -0.3651
   64MPD2     C  975   4.644   1.105  10.165  0.1260 -0.0706 -0.0782
   64MPD2    C1  976   0.024   1.113  10.257  0.0267  0.1675 -0.0177
   64MPD2    C2  977   0.074   1.239  10.274  0.1648 -0.4027  0.1907
   64MPD2    C3  978   0.030   1.352  10.200 -0.2410 -0.4573  0.3888
   64MPD2    C4  979   4.648   1.340  10.111  0.5143 -0.4293  0.5074
   64MPD2    C5  980   4.592   1.217  10.106 -0.0556  0.4220 -0.4591
   64MPD2     H  981   0.157   1.253  10.344  0.6672 -0.8158 -0.3294
   64MPD2    H1  982   4.608   1.426  10.058  2.5024 -2.1147 -3.7493
   64MPD2    H2  983   4.606   1.008  10.133  0.4469 -0.4023  0.5410
   64MPD2    H3  984   4.514   1.200  10.033 -0.7738 -2.9126  1.0740
   64MPD2     N  985   0.104   1.469  10.209  0.8500  0.6012 -0.1142
   64MPD2    H5  986   0.172   1.464  10.284 -0.7974  0.6658  1.3700
   64MPD2    N1  987   0.095   1.002  10.317  0.2829  0.7748  0.0268
   64MPD2    H7  988   0.181   1.016  10.370 -0.8331  1.5575  1.6235
   65MPD2     C  989   1.814   0.836  15.667 -0.7141  0.1659 -0.3115
   65MPD2    C1  990   1.876   0.831  15.544  0.3846  0.3410 -0.1212
   65MPD2    C2  991   1.894   0.709  15.489  1.1002 -0.9699  0.4374
   65MPD2    C3  992   1.849   0.584  15.543 -0.5283  0.4891 -0.3855
   65MPD2    C4  993   1.774   0.595  15.656  0.8630  0.7387 -0.3096
   65MPD2    C5  994   1.761   0.719  15.722 -0.1204  0.0906 -0.4424
   65MPD2     H  995   1.930   0.708  15.386  0.9634 -2.5287  0.4063
   65MPD2    H1  996   1.724   0.512  15.703  0.8888  0.1034 -1.4095
   65MPD2    H2  997   1.805   0.927  15.725 -0.0718  0.2460 -0.3487
   65MPD2    H3  998   1.714   0.720  15.819 -0.8582 -1.7352 -0.7877
   65MPD2     N  999   1.846   0.461  15.474  0.3695  0.7116  0.0127
   65MPD2    H5 1000   1.803   0.383  15.521  2.9157 -0.1423  0.8894
   65MPD2    N1 1001   1.907   0.949  15.469  0.2817 -0.1041  0.0421
   65MPD2    H7 1002   1.980   0.945  15.398  0.6478  1.5262  0.3137
   66TCq2    C1 1003   1.840   1.074  15.485  0.7492  0.0926  1.0906
   66TCq2    O2 1004   1.746   1.098  15.558 -0.4103 -0.0386 -0.1663
   66TCq2    C2 1005   1.867   1.167  15.379 -0.2903 -0.0181  0.3368
   66TCq2    C3 1006   1.921   1.128  15.255 -0.0608  0.1360  0.7027
   66TCq2    C4 1007   1.935   1.231  15.166  0.6384 -0.5007  0.2351
   66TCq2    C5 1008   1.916   1.362  15.198 -0.2988  0.0693 -0.4077
   66TCq2    C6 1009   1.861   1.385  15.318 -0.0540 -0.1501  0.1727
   66TCq2    C7 1010   1.828   1.293  15.413  0.4549  0.4019  0.2051
   66TCq2    C8 1011   1.801   1.516  15.335 -0.9276 -0.4843  0.0901
   66TCq2    O4 1012   1.785   1.583  15.233  0.3223 -0.5681  0.5854
   66TCq2    C9 1013   1.987   1.206  15.029 -0.7296  0.1012 -0.5385
   66TCq2    O5 1014   1.963   1.284  14.935  0.1912  0.2360 -0.4412
   66TCq2    O6 1015   2.021   1.086  15.014  0.0286 -0.1269 -0.0659
   66TCq2    H2 1016   1.937   1.029  15.213 -3.4455 -0.2497  0.3243
   66TCq2    H3 1017   1.945   1.437  15.125  0.0173 -1.5987 -1.9911
   66TCq2    H4 1018   1.783   1.312  15.510 -0.9669 -0.9389 -0.1883
   67MPD2     C 1019   1.725   0.429  13.927 -0.2942  0.4055 -0.3293
   67MPD2    C1 1020   1.619   0.436  14.017  0.2149 -0.7846 -0.0869
   67MPD2    C2 1021   1.491   0.457  13.970  0.1142  0.2764  0.2548
   67MPD2    C3 1022   1.462   0.454  13.836 -0.1484  0.2473  0.8736
   67MPD2    C4 1023   1.567   0.452  13.751 -0.0639  0.2414  0.4313
   67MPD2    C5 1024   1.697   0.444  13.799  0.0256 -0.1398  1.1711
   67MPD2     H 1025   1.414   0.481  14.043 -1.2061  1.1315 -1.4236
   67MPD2    H1 1026   1.547   0.477  13.648 -0.1298 -0.7574  0.2069
   67MPD2    H2 1027   1.828   0.405  13.952  0.8007  3.7196 -1.6929
   67MPD2    H3 1028   1.769   0.449  13.718 -1.0408  2.3322  0.3835
   67MPD2     N 1029   1.332   0.460  13.782  0.0167  0.3343 -0.5197
   67MPD2    H5 1030   1.321   0.470  13.681 -2.1111 -0.9123 -0.4150
   67MPD2    N1 1031   1.641   0.445  14.155 -0.2788  0.5561 -0.1046
   67MPD2    H7 1032   1.564   0.472  14.215 -0.5867 -1.1066  0.2616
   68TCq2    C1 1033   1.769   0.423  14.213  0.3543  0.4500 -0.2454
   68TCq2    O2 1034   1.866   0.369  14.165 -0.2458 -0.1581 -0.3996
   68TCq2    C2 1035   1.765   0.441  14.364  0.1957 -0.0687 -0.6444
   68TCq2    C3 1036   1.686   0.539  14.423 -0.0755  0.0027 -0.4785
   68TCq2    C4 1037   1.716   0.578  14.550 -0.2757  0.2675  0.1335
   68TCq2    C5 1038   1.817   0.525  14.624  0.0640 -0.1687 -0.0192
   68TCq2    C6 1039   1.895   0.427  14.564 -0.0270  0.6298 -0.2681
   68TCq2    C7 1040   1.871   0.387  14.435 -0.2320  0.0154  0.0520
   68TCq2    C8 1041   2.028   0.395  14.619 -0.9206  0.8534  0.0890
   68TCq2    O4 1042   2.120   0.359  14.545 -0.1952 -0.4164  0.1085
   68TCq2    C9 1043   1.637   0.677  14.611 -0.0923 -0.2210 -0.1465
   68TCq2    O5 1044   1.552   0.737  14.543  0.0386  0.0179  0.4300
   68TCq2    O6 1045   1.657   0.697  14.736 -0.1034 -0.3411  0.1116
   68TCq2    H2 1046   1.597   0.580  14.376 -0.0207  1.8750  1.0887
   68TCq2    H3 1047   1.840   0.579  14.715 -0.8582  1.1348 -0.5557
   68TCq2    H4 1048   1.923   0.301  14.396 -0.1185 -0.2970  0.8784
   69TMC2    C1 1049   3.219   2.117  12.632 -0.7252 -0.6330 -0.4369
   69TMC2    C2 1050   3.083   2.107  12.653  0.5463 -0.0788 -0.3865
   69TMC2    C3 1051   2.997   2.099  12.548 -0.3080 -0.0324 -0.0281
   69TMC2    C4 1052   3.259   2.128  12.501  0.0386 -0.0867 -0.2075
   69TMC2    C5 1053   3.173   2.117  12.395  0.5237  0.2767  0.1761
   69TMC2    C6 1054   3.037   2.105  12.419 -0.4390  0.3320 -0.2595
   69TMC2     C 1055   3.296   2.026  12.711 -0.3749  0.5053 -0.6092
   69TMC2     O 1056   3.243   1.964  12.801  0.1949 -0.3349  0.2401
   69TMC2     H 1057   3.051   2.113  12.756  0.9410 -0.9174 -0.2148
   69TMC2    H1 1058   3.359   2.163  12.478 -0.9112  4.1977  2.1398
   69TMC2    H2 1059   2.962   2.099  12.341  0.5626  0.6613 -1.2387
   69TMC2    C7 1060   3.232   2.053  12.279 -0.0771 -0.0121 -0.7298
   69TMC2    C8 1061   2.855   2.080  12.577  0.0985 -0.3715 -0.3993
   69TMC2    O1 1062   3.346   2.011  12.286 -0.1028  0.2079 -0.4743
   69TMC2    O2 1063   2.773   2.096  12.488 -0.1503  0.0320  0.4297
   69TMC2    O5 1064   2.854   1.997  12.680 -0.2026  0.1001 -0.3067
   69TMC2    H5 1065   2.950   1.992  12.700 -0.2409  1.3489  0.2438
   70MPD2     C 1066   3.654   1.977  12.648  0.0087  0.4114 -0.4766
   70MPD2    C1 1067   3.529   1.943  12.690 -0.2097 -0.1774  0.5752
   70MPD2    C2 1068   3.508   1.830  12.769  1.0632  0.4744  0.5134
   70MPD2    C3 1069   3.612   1.751  12.810 -0.1646 -0.1290  0.1373
   70MPD2    C4 1070   3.734   1.781  12.760 -0.6572 -0.3703 -0.2247
   70MPD2    C5 1071   3.753   1.891  12.681  0.7978 -0.3772 -0.8101
   70MPD2     H 1072   3.407   1.804  12.797  1.1688 -0.0014  0.4541
   70MPD2    H1 1073   3.814   1.712  12.783  2.1302  3.6380  2.0184
   70MPD2    H2 1074   3.674   2.050  12.571 -0.4167  0.9952 -0.0318
   70MPD2    H3 1075   3.852   1.907  12.639  0.5877 -1.6465 -1.7805
   70MPD2     N 1076   3.596   1.634  12.890 -0.1403  0.9035 -0.4291
   70MPD2    H5 1077   3.687   1.596  12.913 -0.2236  0.0788 -1.4874
   70MPD2    N1 1078   3.424   2.028  12.659  0.1871  0.0026 -0.0145
   70MPD2    H7 1079   3.443   2.105  12.596  1.7547 -0.1898  0.2296
   71TMC2    C1 1080   1.830   1.570   1.425 -0.3009 -0.2490 -0.0522
   71TMC2    C2 1081   1.935   1.507   1.490 -0.3800  0.0045  0.1125
   71TMC2    C3 1082   1.924   1.486   1.625  0.3865  1.8075  0.0567
   71TMC2    C4 1083   1.710   1.586   1.489  0.0941 -0.6220 -0.0519
   71TMC2    C5 1084   1.694   1.556   1.624 -0.7255  0.1411 -0.0834
   71TMC2    C6 1085   1.809   1.514   1.695  0.0161 -0.1922  0.2211
   71TMC2     C 1086   1.845   1.613   1.287 -0.2864 -0.2466 -0.2264
   71TMC2     O 1087   1.751   1.679   1.247  0.5915  0.6118  0.0121
   71TMC2     H 1088   2.029   1.472   1.448  0.1129 -0.7944  1.8915
   71TMC2    H1 1089   1.629   1.618   1.424  0.1596 -0.5617 -0.1038
   71TMC2    H2 1090   1.792   1.486   1.798  1.0157  0.2979  0.5237
   71TMC2    C7 1091   1.570   1.572   1.689  0.2928  0.5880 -0.4228
   71TMC2    C8 1092   2.035   1.434   1.705 -0.6550 -0.6176 -0.7860
   71TMC2    O1 1093   1.569   1.562   1.809 -0.0838 -0.1819  0.4031
   71TMC2    O2 1094   2.100   1.338   1.662 -0.1230  0.3003 -0.0097
   71TMC2    O5 1095   2.033   1.490   1.831 -0.0384  0.3867 -0.2664
   71TMC2    H5 1096   1.982   1.572   1.847  0.1390  0.3008  0.7498
   72MPD2     C 1097   2.113   1.694   0.861 -0.2741 -0.9242 -0.2166
   72MPD2    C1 1098   2.000   1.768   0.909 -0.6616  0.2284  0.3074
   72MPD2    C2 1099   1.949   1.726   1.032  0.6187  0.2092  0.2680
   72MPD2    C3 1100   1.999   1.611   1.096 -0.2342  0.3974  0.0498
   72MPD2    C4 1101   2.104   1.539   1.040 -0.1025 -0.3298 -0.3196
   72MPD2    C5 1102   2.158   1.584   0.929 -0.5601 -0.3175  0.1898
   72MPD2     H 1103   1.871   1.779   1.086 -0.4437  0.2033 -1.2745
   72MPD2    H1 1104   2.130   1.438   1.070 -2.2126 -0.5952  0.5630
   72MPD2    H2 1105   2.170   1.718   0.771  2.5569 -0.5248  1.6716
   72MPD2    H3 1106   2.237   1.530   0.878  1.0703  1.7747  0.4973
   72MPD2     N 1107   1.951   1.561   1.218  0.4735 -0.1329  0.2938
   72MPD2    H5 1108   1.999   1.487   1.267  1.8793 -0.0222 -0.8905
   72MPD2    N1 1109   1.950   1.878   0.847 -0.3197 -0.3605  0.4448
   72MPD2    H7 1110   1.896   1.946   0.900  2.2623  1.3386  0.8763
   73TMC2    C1 1111   1.826   3.876  14.414 -0.8192  0.1326  0.5861
   73TMC2    C2 1112   1.777   3.889  14.541  0.0673 -0.3182 -0.1514
   73TMC2    C3 1113   1.779   4.019  14.600  1.3907  0.8131 -0.2613
   73TMC2    C4 1114   1.872   3.986  14.357 -0.5149  0.4837  0.2066
   73TMC2    C5 1115   1.881   4.103  14.417 -0.2121 -0.3358 -0.2885
   73TMC2    C6 1116   1.847   4.114  14.547 -0.0304 -0.7244  0.3339
   73TMC2     C 1117   1.714   3.831  14.325 -0.5708 -0.4114  0.2558
   73TMC2     O 1118   1.682   3.908  14.232 -0.0798 -0.5421  0.3125
   73TMC2     H 1119   1.707   3.823  14.590 -0.8166  1.3855  0.9014
   73TMC2    H1 1120   1.914   3.971  14.258 -4.4624 -3.3166 -0.8935
   73TMC2    H2 1121   1.853   4.215  14.586 -3.0542 -0.1453 -0.6691
   73TMC2    C7 1122   1.851   4.218  14.335 -0.2414 -0.1204 -0.4476
   73TMC2    C8 1123   1.755   4.039  14.740  0.1410  1.3414  0.0168
   73TMC2    O1 1124   1.904   4.330  14.356  0.0422  0.0739  0.0610
   73TMC2    O2 1125   1.764   4.149  14.790  0.1826 -0.4570 -0.2863
   73TMC2    O5 1126   1.805   3.927  14.801 -0.1861 -0.2299  0.7927
   73TMC2    H5 1127   1.807   3.849  14.741  1.4730  0.8140 -0.4957
   74MPD2     C 1128   1.305   3.550  14.228 -0.3275  0.6270  0.0663
   74MPD2    C1 1129   1.349   3.672  14.178 -0.1961  0.0505  0.4039
   74MPD2    C2 1130   1.458   3.728  14.223 -0.2981  0.2324 -0.0344
   74MPD2    C3 1131   1.542   3.659  14.314  0.5243 -0.4515  0.9200
   74MPD2    C4 1132   1.494   3.537  14.365  0.0971  0.5994 -0.1647
   74MPD2    C5 1133   1.375   3.481  14.318 -0.8243 -0.2589  0.0324
   74MPD2     H 1134   1.488   3.820  14.173 -0.9098  0.2255 -0.4072
   74MPD2    H1 1135   1.551   3.473  14.432 -1.4305 -0.4825  0.1048
   74MPD2    H2 1136   1.210   3.508  14.196  0.4153 -0.4462 -0.7515
   74MPD2    H3 1137   1.349   3.379  14.345  0.4022 -0.5993 -0.1068
   74MPD2     N 1138   1.671   3.707  14.356  0.4155 -0.5449  0.0077
   74MPD2    H5 1139   1.723   3.650  14.422  0.6050 -0.1616  0.1890
   74MPD2    N1 1140   1.272   3.732  14.075  0.2406 -0.6463  0.1430
   74MPD2    H7 1141   1.184   3.690  14.047  0.6315 -0.6826 -1.0684
   75TCq2    C1 1142   1.222   0.462  13.865  0.0015  0.6929 -0.4608
   75TCq2    O2 1143   1.208   0.414  13.977  0.8219 -0.3271  0.1382
   75TCq2    C2 1144   1.102   0.534  13.812  0.1586 -0.3845  0.7376
   75TCq2    C3 1145   0.983   0.501  13.871 -0.2376  0.2583 -0.1760
   75TCq2    C4 1146   0.873   0.548  13.811  0.5765  0.3070 -0.4013
   75TCq2    C5 1147   0.876   0.615  13.695  1.0464  0.1197  0.0396
   75TCq2    C6 1148   0.996   0.660  13.650  0.0260 -0.2492  0.0774
   75TCq2    C7 1149   1.115   0.612  13.699  0.3438  0.0054  0.0878
   75TCq2    C8 1150   0.986   0.748  13.531  0.3151  0.6418  0.0398
   75TCq2    O4 1151   0.882   0.734  13.471 -0.0386  0.2826 -0.2820
   75TCq2    C9 1152   0.748   0.514  13.867  0.1657 -0.0836 -0.8473
   75TCq2    O5 1153   0.652   0.502  13.788 -1.0981 -0.4598 -0.7408
   75TCq2    O6 1154   0.753   0.477  13.984 -0.0777 -0.1748 -0.1654
   75TCq2    H2 1155   0.978   0.444  13.963 -3.7503 -0.3775 -0.7526
   75TCq2    H3 1156   0.784   0.662  13.662  0.3406 -0.2931  1.4063
   75TCq2    H4 1157   1.214   0.629  13.659  0.0733  0.1713 -0.4954
   76MPD2     C 1158   4.307   1.906  12.059  0.0354 -0.3897 -0.4942
   76MPD2    C1 1159   4.297   1.878  11.924 -0.3713  0.3763  0.4044
   76MPD2    C2 1160   4.409   1.858  11.854  0.2433  0.0105  0.0419
   76MPD2    C3 1161   4.537   1.843  11.907  0.1916 -1.1722  0.1628
   76MPD2    C4 1162   4.544   1.860  12.042  0.8804 -0.7046 -0.1458
   76MPD2    C5 1163   4.433   1.898  12.114  0.4324 -0.3102  0.5001
   76MPD2     H 1164   4.403   1.855  11.746 -1.8426  0.0336  0.1531
   76MPD2    H1 1165   4.636   1.839  12.095 -0.0240 -1.5796  1.0788
   76MPD2    H2 1166   4.225   1.932  12.125  0.8067  0.9929 -0.0724
   76MPD2    H3 1167   4.426   1.901  12.222 -0.0420 -2.4906  0.5458
   76MPD2     N 1168   4.658   1.830  11.827 -0.1014 -0.4021  0.0162
   76MPD2    H5 1169   0.023   1.818  11.874 -0.3330  2.4597  1.2045
   76MPD2    N1 1170   4.175   1.874  11.858  0.0134 -0.4477  0.9270
   76MPD2    H7 1171   4.179   1.874  11.757  0.9228 -0.3634  0.9641
   77TCq2    C1 1172   4.667   1.816  11.689 -0.9448 -0.3140  0.0492
   77TCq2    O2 1173   4.576   1.775  11.619 -0.5817  0.1272 -0.3438
   77TCq2    C2 1174   0.082   1.803  11.653  0.3054 -0.1324  1.0342
   77TCq2    C3 1175   0.176   1.878  11.723  0.3075 -0.5552  0.9671
   77TCq2    C4 1176   0.299   1.824  11.739  0.1849  0.3682  0.3717
   77TCq2    C5 1177   0.329   1.698  11.697  0.3430 -0.1931  0.2555
   77TCq2    C6 1178   0.235   1.623  11.628  0.0579  0.2426  0.4666
   77TCq2    C7 1179   0.114   1.679  11.600 -0.1192 -0.2086 -0.1478
   77TCq2    C8 1180   0.246   1.483  11.606 -0.5667 -0.1612 -0.7906
   77TCq2    O4 1181   0.190   1.438  11.508 -0.5772  0.1499 -0.1731
   77TCq2    C9 1182   0.406   1.910  11.795 -0.0597  0.6914 -0.2004
   77TCq2    O5 1183   0.377   2.028  11.826  0.1304  0.2026  0.0245
   77TCq2    O6 1184   0.517   1.855  11.816  0.0137  0.0390 -0.0184
   77TCq2    H2 1185   0.157   1.972  11.773 -0.2401  0.1045 -0.4900
   77TCq2    H3 1186   0.430   1.661  11.711  0.3714 -0.5188 -0.7586
   77TCq2    H4 1187   0.041   1.633  11.534  0.2825  0.4255 -1.0455
   78MPD1     C 1188   2.212   2.671   1.718 -0.0305 -0.6366  0.2385
   78MPD1    C1 1189   2.080   2.647   1.733 -0.4860  0.0536 -0.2263
   78MPD1    C2 1190   2.041   2.519   1.713  0.0660  0.0899 -0.1470
   78MPD1    C3 1191   2.125   2.421   1.668  0.2705 -0.4368  0.5258
   78MPD1    C4 1192   2.260   2.451   1.646 -0.9154 -0.0311  0.2875
   78MPD1    C5 1193   2.304   2.573   1.682  0.0755  0.5225 -0.2609
   78MPD1     H 1194   1.935   2.499   1.726 -0.0397 -0.9317 -2.5719
   78MPD1    H1 1195   2.332   2.380   1.609 -0.5057 -0.1896  1.3854
   78MPD1    H2 1196   2.248   2.769   1.746  1.3769 -1.5548  1.6282
   78MPD1    H3 1197   2.408   2.600   1.669  0.9182 -2.7981 -0.6423
   78MPD1     N 1198   2.090   2.284   1.642  0.7185  1.0466  0.3123
   78MPD1    H5 1199   2.167   2.221   1.623 -1.3477 -0.8010 -1.8734
   78MPD1    N1 1200   1.998   2.754   1.783 -0.1628 -0.5035 -0.3896
   78MPD1    H6 1201   1.901   2.722   1.788 -0.5437  0.6974 -0.0710
   78MPD1    H7 1202   2.007   2.833   1.719 -1.8875  0.4552  0.5243
   79TCq2    C1 1203   1.969   2.227   1.679  0.3953  0.3021 -0.6425
   79TCq2    O2 1204   1.896   2.276   1.764  0.7924 -0.2048 -0.1953
   79TCq2    C2 1205   1.962   2.083   1.651  0.8051  0.6610 -0.1653
   79TCq2    C3 1206   1.885   2.013   1.744  0.2209  0.5381  0.7701
   79TCq2    C4 1207   1.915   1.886   1.765  0.7017  0.1226  0.5468
   79TCq2    C5 1208   2.015   1.818   1.699 -0.1569 -0.8524 -0.5082
   79TCq2    C6 1209   2.073   1.883   1.591 -0.1230 -0.4157 -0.2827
   79TCq2    C7 1210   2.056   2.017   1.573  0.6964 -0.4486 -0.0155
   79TCq2    C8 1211   2.175   1.828   1.511  0.4059 -0.1085 -0.0114
   79TCq2    O4 1212   2.200   1.879   1.407 -0.0243  0.1095  0.6242
   79TCq2    C9 1213   1.850   1.816   1.871  0.1941  0.4831 -0.0975
   79TCq2    O5 1214   1.887   1.700   1.890 -0.2383  0.0039  0.4282
   79TCq2    O6 1215   1.773   1.881   1.948 -0.6099 -0.6767  0.1123
   79TCq2    H2 1216   1.814   2.071   1.802  0.8060  0.6425  1.3752
   79TCq2    H3 1217   2.033   1.711   1.706 -0.3375 -0.8217  0.4545
   79TCq2    H4 1218   2.105   2.066   1.490 -0.6430  0.3887 -0.3045
   80MPD2     C 1219   4.012   1.142  12.088  0.6106 -0.5947 -0.4262
   80MPD2    C1 1220   3.896   1.107  12.026 -0.1011 -0.1031  0.2212
   80MPD2    C2 1221   3.782   1.080  12.104  0.5852 -0.3884 -0.0869
   80MPD2    C3 1222   3.786   1.100  12.239  0.5641  0.5472  1.0566
   80MPD2    C4 1223   3.906   1.143  12.301 -0.0205  0.4868 -0.8160
   80MPD2    C5 1224   4.010   1.172  12.223 -0.2495 -0.6506  0.4560
   80MPD2     H 1225   3.691   1.042  12.058  0.7231 -2.6136  1.4636
   80MPD2    H1 1226   3.906   1.155  12.408 -0.3149  1.1393 -0.8868
   80MPD2    H2 1227   4.108   1.154  12.039  0.6776 -0.3873 -0.2452
   80MPD2    H3 1228   4.101   1.201  12.274 -0.6801  0.4339  0.6002
   80MPD2     N 1229   3.667   1.093  12.321  0.1696  0.1923 -0.3170
   80MPD2    H5 1230   3.679   1.088  12.422  1.7759  0.3231 -0.5049
   80MPD2    N1 1231   3.891   1.062  11.892 -0.0729 -0.1708  0.3382
   80MPD2    H7 1232   3.803   1.028  11.855 -0.8094 -0.1317  2.0628
   81TCq2    C1 1233   4.004   1.064  11.798  0.3626 -0.1860  0.0248
   81TCq2    O2 1234   4.115   1.115  11.806  0.5394 -0.0626 -0.5044
   81TCq2    C2 1235   3.980   0.993  11.680 -0.3286 -0.4194  0.7034
   81TCq2    C3 1236   4.059   1.020  11.572  0.2438 -0.0545 -0.5695
   81TCq2    C4 1237   4.057   0.935  11.464 -0.3820 -0.1409 -0.1741
   81TCq2    C5 1238   3.975   0.825  11.466  0.1804  0.3421 -0.8030
   81TCq2    C6 1239   3.906   0.793  11.583 -0.2649 -0.9484  0.0230
   81TCq2    C7 1240   3.900   0.882  11.689  0.0343  0.6208 -0.6216
   81TCq2    C8 1241   3.795   0.701  11.560  0.8056  0.3677 -0.3928
   81TCq2    O4 1242   3.760   0.687  11.442 -0.0221  0.1816  0.5042
   81TCq2    C9 1243   4.130   0.967  11.346  0.7307 -0.3328 -0.5328
   81TCq2    O5 1244   4.159   0.880  11.265 -0.0457  0.0263  0.3098
   81TCq2    O6 1245   4.179   1.083  11.336 -0.6596  0.3653 -0.0674
   81TCq2    H2 1246   4.112   1.114  11.569 -0.6505  0.4853  0.3542
   81TCq2    H3 1247   3.968   0.765  11.377  2.6219  0.0712 -0.8015
   81TCq2    H4 1248   3.852   0.851  11.781 -0.1638 -0.4132 -1.0814
   82MPD2     C 1249   1.788   0.715  10.382  0.2167  0.7444 -0.0390
   82MPD2    C1 1250   1.726   0.615  10.311  0.5453 -0.2063 -0.7074
   82MPD2    C2 1251   1.779   0.488  10.322  0.7059  0.0914  0.6264
   82MPD2    C3 1252   1.887   0.461  10.400  0.5280  0.0021  0.0150
   82MPD2    C4 1253   1.958   0.563  10.465  0.1748  0.3414  0.2218
   82MPD2    C5 1254   1.901   0.690  10.453  0.0419 -0.6453 -0.7533
   82MPD2     H 1255   1.729   0.402  10.278  2.8706 -0.4967 -0.6741
   82MPD2    H1 1256   2.035   0.544  10.538 -0.0481  2.1140  0.9030
   82MPD2    H2 1257   1.749   0.816  10.393  0.6201  0.7699  1.1449
   82MPD2    H3 1258   1.954   0.770  10.505 -3.0219  1.0172 -0.2003
   82MPD2     N 1259   1.917   0.322  10.427  0.3011  0.1581 -0.3658
   82MPD2    H5 1260   1.843   0.254  10.413  2.1398 -1.5318 -1.9110
   82MPD2    N1 1261   1.607   0.639  10.238  0.0061  0.1718 -0.3883
   82MPD2    H7 1262   1.567   0.732  10.232  1.0067  0.8384  3.7432
   83TCq2    C1 1263   2.035   0.269  10.478 -0.1370  0.1727  0.4616
   83TCq2    O2 1264   2.146   0.317  10.472  0.2715  0.2266  0.0467
   83TCq2    C2 1265   2.018   0.131  10.512  0.0473  0.2069 -0.8712
   83TCq2    C3 1266   2.133   0.068  10.548 -0.4203  0.5965  0.4576
   83TCq2    C4 1267   2.134   4.690  10.637  0.4798  0.5208  0.1210
   83TCq2    C5 1268   2.011   4.633  10.677 -0.3031  0.2634  0.0359
   83TCq2    C6 1269   1.898   4.693  10.641 -0.2581 -0.1191 -0.5009
   83TCq2    C7 1270   1.902   0.076  10.554  0.2407 -0.3882 -0.0313
   83TCq2    C8 1271   1.779   4.662  10.712 -0.1477  0.4236  0.0250
   83TCq2    O4 1272   1.784   4.612  10.826 -0.3728 -0.8412 -0.0260
   83TCq2    C9 1273   2.250   4.633  10.704 -0.3768 -0.3710 -0.8003
   83TCq2    O5 1274   2.356   4.691  10.675  0.2086  0.2735 -0.3288
   83TCq2    O6 1275   2.240   4.527  10.771 -0.2167  0.3159 -0.0534
   83TCq2    H2 1276   2.226   0.114  10.518 -0.0717  0.5985  1.5285
   83TCq2    H3 1277   2.006   4.551  10.749 -0.0627  0.2725  0.0634
   83TCq2    H4 1278   1.804   0.119  10.534 -0.7844 -2.6451  0.0503
   84TCq2    C1 1279   2.859   3.418  10.419 -0.5978 -0.8459  0.2192
   84TCq2    O2 1280   2.822   3.357  10.516  0.1955  0.8079 -0.3934
   84TCq2    C2 1281   2.897   3.558  10.429 -0.2183  0.0114  0.6394
   84TCq2    C3 1282   2.941   3.625  10.312  0.4776 -0.4490 -0.7356
   84TCq2    C4 1283   2.941   3.762  10.315  0.1228  0.1401 -0.1930
   84TCq2    C5 1284   2.896   3.836  10.426  0.2773  0.1432 -0.7471
   84TCq2    C6 1285   2.857   3.765  10.539 -0.4971  0.5262  0.0488
   84TCq2    C7 1286   2.859   3.627  10.540 -0.0828 -0.0492 -0.9428
   84TCq2    C8 1287   2.830   3.836  10.663 -0.0933 -0.0379  0.9101
   84TCq2    O4 1288   2.839   3.961  10.666 -0.0942 -0.5569 -0.3901
   84TCq2    C9 1289   2.975   3.832  10.192 -0.7406  0.0850 -0.1095
   84TCq2    O5 1290   2.944   3.776  10.084 -0.3564  0.1551 -0.6582
   84TCq2    O6 1291   3.008   3.953  10.203  0.4356 -0.5063  0.2876
   84TCq2    H2 1292   2.989   3.570  10.232 -0.4404  0.3193 -1.8264
   84TCq2    H3 1293   2.888   3.944  10.420 -0.3194  0.1427  0.1056
   84TCq2    H4 1294   2.814   3.571  10.621  1.1901 -0.8167 -0.7658
   85MPD2     C 1295   3.845   1.836  16.011 -0.2739  0.4545  0.1532
   85MPD2    C1 1296   3.784   1.812  15.892 -0.8441  0.1620 -0.6470
   85MPD2    C2 1297   3.816   1.892  15.783 -0.2687 -0.2176 -0.8474
   85MPD2    C3 1298   3.902   2.000  15.792 -0.6247  0.4683 -0.4130
   85MPD2    C4 1299   3.967   2.021  15.912  0.5974  0.7068  0.3125
   85MPD2    C5 1300   3.949   1.929  16.018 -0.5934  0.0526  0.3646
   85MPD2     H 1301   3.778   1.867  15.685  2.0519 -1.3045 -1.4665
   85MPD2    H1 1302   4.031   2.107  15.929 -0.1111  1.2184  0.3992
   85MPD2    H2 1303   3.820   1.784  16.103  1.9263 -0.4801  0.2116
   85MPD2    H3 1304   3.996   1.945  16.114 -0.2163 -0.2136  0.2247
   85MPD2     N 1305   3.925   2.083  15.683 -0.2439  0.3786 -0.2494
   85MPD2    H5 1306   3.864   2.070  15.603  0.9335  2.2755 -1.4277
   85MPD2    N1 1307   3.685   1.709  15.875 -0.1165 -0.2739 -0.0662
   85MPD2    H7 1308   3.649   1.689  15.783  1.7155  2.5685 -1.3962
   86TCq2    C1 1309   3.995   2.203  15.691  0.0139 -0.3087  0.1691
   86TCq2    O2 1310   4.070   2.245  15.777  0.2664 -0.3270 -0.3622
   86TCq2    C2 1311   4.000   2.286  15.569 -0.0165  0.0132 -0.3545
   86TCq2    C3 1312   4.041   2.414  15.600  0.2800  0.7484 -0.8104
   86TCq2    C4 1313   4.132   2.477  15.513 -0.1292  0.9268 -0.4446
   86TCq2    C5 1314   4.174   2.417  15.395  0.5917  0.1644 -0.3104
   86TCq2    C6 1315   4.133   2.288  15.372  0.8619 -0.0186 -0.7903
   86TCq2    C7 1316   4.055   2.216  15.458 -0.0161 -0.2228 -0.0853
   86TCq2    C8 1317   4.175   2.222  15.251  0.5238 -0.0015  0.2396
   86TCq2    O4 1318   4.183   2.098  15.248  0.2724 -0.3733  0.3298
   86TCq2    C9 1319   4.172   2.613  15.540 -0.5005 -0.0942  0.5575
   86TCq2    O5 1320   4.192   2.635  15.663  0.0306 -0.1438  0.5688
   86TCq2    O6 1321   4.184   2.691  15.438 -0.0456  0.1746 -0.4810
   86TCq2    H2 1322   4.017   2.461  15.695 -0.9339 -0.1378 -0.6871
   86TCq2    H3 1323   4.240   2.472  15.329  0.5119  2.1527  1.2615
   86TCq2    H4 1324   4.038   2.110  15.445  0.6164 -0.2367 -0.7976
   87MPD2     C 1325   1.314   0.121   0.313 -0.1564  0.1423  0.4896
   87MPD2    C1 1326   1.408   0.222   0.331  0.1033  0.6067  0.2122
   87MPD2    C2 1327   1.377   0.346   0.287 -0.1098  0.5698  0.7541
   87MPD2    C3 1328   1.269   0.376   0.208  0.3637  0.3002  0.0667
   87MPD2    C4 1329   1.175   0.279   0.189  0.4169 -0.0585  0.3199
   87MPD2    C5 1330   1.201   0.153   0.241  0.9849  0.6923 -0.3615
   87MPD2     H 1331   1.440   0.429   0.316 -0.2495  1.0846 -0.4020
   87MPD2    H1 1332   1.078   0.299   0.144  0.2865  2.1953  1.5523
   87MPD2    H2 1333   1.335   0.023   0.355 -0.1070 -0.5341 -1.1007
   87MPD2    H3 1334   1.133   0.071   0.219  3.1874 -1.1995 -0.0752
   87MPD2     N 1335   1.238   0.508   0.167 -0.1550 -0.6313 -0.4373
   87MPD2    H5 1336   1.143   0.518   0.133  0.6592  3.4638 -1.4589
   87MPD2    N1 1337   1.515   0.196   0.422 -0.3425 -0.3719 -0.2377
   87MPD2    H7 1338   1.515   0.109   0.473 -1.9852  0.9833  2.0647
   88TCq2    C1 1339   1.627   0.280   0.435  0.8296 -0.4718 -0.9525
   88TCq2    O2 1340   1.669   0.367   0.361 -0.0435 -0.0800 -0.1241
   88TCq2    C2 1341   1.718   0.235   0.539  0.2370 -0.4862 -0.9385
   88TCq2    C3 1342   1.664   0.183   0.654 -0.2064 -0.9425  0.1482
   88TCq2    C4 1343   1.751   0.115   0.741 -0.1561  0.3932  0.2437
   88TCq2    C5 1344   1.877   0.097   0.715  0.0729  0.6174 -0.4194
   88TCq2    C6 1345   1.930   0.167   0.607  0.0859 -0.3226  0.3992
   88TCq2    C7 1346   1.851   0.229   0.517 -0.3080  0.0666  0.6717
   88TCq2    C8 1347   2.062   0.125   0.558 -0.0346 -0.4770 -0.0869
   88TCq2    O4 1348   2.081   0.107   0.440  0.8265 -0.0029 -0.3945
   88TCq2    C9 1349   1.695   0.074   0.863  0.2568 -0.0169  0.1898
   88TCq2    O5 1350   1.771   0.022   0.947  0.1542 -0.1175 -0.4227
   88TCq2    O6 1351   1.571   0.096   0.877  0.2153 -0.2536 -0.4323
   88TCq2    H2 1352   1.560   0.193   0.684  0.5197 -0.3916  2.5209
   88TCq2    H3 1353   1.939   0.049   0.790 -1.6104  0.3365  0.7775
   88TCq2    H4 1354   1.888   0.266   0.422  0.9451  0.8498  1.4867
   89MPD2     C 1355   2.626   2.816   1.335  0.3377  0.3237  0.6636
   89MPD2    C1 1356   2.614   2.675   1.328 -0.2227  0.4961 -0.2891
   89MPD2    C2 1357   2.731   2.606   1.303 -0.2339 -0.5832  0.4017
   89MPD2    C3 1358   2.855   2.666   1.287  0.3503 -0.9136 -0.4359
   89MPD2    C4 1359   2.863   2.802   1.302  1.0407 -0.1337 -0.1134
   89MPD2    C5 1360   2.751   2.877   1.322 -0.5121  0.1261  0.6256
   89MPD2     H 1361   2.713   2.500   1.314 -1.5867 -0.4129 -0.1841
   89MPD2    H1 1362   2.952   2.864   1.305  1.7715 -1.3090  1.9088
   89MPD2    H2 1363   2.536   2.876   1.344  1.0414  1.9009 -2.8330
   89MPD2    H3 1364   2.755   2.986   1.323  1.2527  0.0707 -0.5503
   89MPD2     N 1365   2.962   2.580   1.251  0.1740  0.2698 -0.1726
   89MPD2    H5 1366   2.941   2.484   1.226  0.0457  0.2083  0.1681
   89MPD2    N1 1367   2.504   2.600   1.346  0.6493  0.4643 -0.0118
   89MPD2    H7 1368   2.505   2.500   1.330  0.5620  0.1940  1.7194
   90TCq2    C1 1369   3.097   2.620   1.241  0.4027  0.1590  0.3623
   90TCq2    O2 1370   3.150   2.731   1.243 -0.1180  0.6074 -0.0063
   90TCq2    C2 1371   3.180   2.505   1.193  0.0360 -0.3460 -0.3632
   90TCq2    C3 1372   3.124   2.387   1.173 -0.1802  0.1166  0.0763
   90TCq2    C4 1373   3.198   2.284   1.136  0.3903  0.9095  0.0910
   90TCq2    C5 1374   3.329   2.291   1.129  0.1974  0.3623  0.0866
   90TCq2    C6 1375   3.388   2.417   1.155  0.0263 -0.2036  0.3118
   90TCq2    C7 1376   3.313   2.534   1.181 -0.7303 -0.4358 -0.4654
   90TCq2    C8 1377   3.530   2.429   1.149 -0.6685  0.0486 -0.3094
   90TCq2    O4 1378   3.606   2.334   1.176  0.1542  0.0232  0.3981
   90TCq2    C9 1379   3.139   2.165   1.092  0.2350 -0.6378  0.3818
   90TCq2    O5 1380   3.206   2.102   0.999  0.3897 -0.7194 -0.0712
   90TCq2    O6 1381   3.019   2.139   1.127 -0.3928  0.3075  0.5661
   90TCq2    H2 1382   3.020   2.358   1.176 -0.1254 -0.2237 -1.0824
   90TCq2    H3 1383   3.398   2.212   1.101  2.6767  2.5251  0.0186
   90TCq2    H4 1384   3.362   2.628   1.207 -0.2244 -0.9770  0.5709
   91TMC2    C1 1385   4.412   2.529  16.726 -0.2367 -0.3537  0.2181
   91TMC2    C2 1386   4.510   2.521  16.822  0.4344  0.1995  0.1666
   91TMC2    C3 1387   4.496   2.592  16.942  0.0786  0.6579  0.0919
   91TMC2    C4 1388   4.303   2.608  16.749 -0.1367 -0.1208  0.3066
   91TMC2    C5 1389   4.288   2.670  16.869  0.0242 -0.4350 -0.0785
   91TMC2    C6 1390   4.383   2.666  16.964  0.3496  0.2842  0.0902
   91TMC2     C 1391   4.448   2.505  16.584  0.0385 -0.6049 -0.3579
   91TMC2     O 1392   4.357   2.479  16.505  0.7490 -0.1318  1.0346
   91TMC2     H 1393   4.610   2.480  16.810 -0.0089 -0.4722 -1.1624
   91TMC2    H1 1394   4.221   2.611  16.678  0.1466  0.4572  0.0038
   91TMC2    H2 1395   4.352   2.698  17.062 -2.3593 -1.7313 -0.0955
   91TMC2    C7 1396   4.156   2.711  16.912  0.6932 -0.6830 -0.7456
   91TMC2    C8 1397   4.581   2.545  17.050  0.1052 -0.2029 -0.2625
   91TMC2    O1 1398   4.132   2.710  17.035 -0.8190  0.4146  0.2860
   91TMC2    O2 1399   4.666   2.461  17.035 -0.4632  0.2115  0.6018
   91TMC2    O5 1400   4.531   2.575  17.172  0.0958  0.2210  0.5207
   91TMC2    H5 1401   4.484   2.660  17.165  0.4573  0.1871 -2.7171
   92MPD2     C 1402   4.577   2.513  16.325  0.8159 -0.4053 -0.0058
   92MPD2    C1 1403   4.610   2.605  16.424 -0.0239  0.3531  0.6509
   92MPD2    C2 1404   4.702   2.702  16.393 -0.2922  0.3023  0.1084
   92MPD2    C3 1405   0.032   2.718  16.263 -0.6689 -0.0568  0.1753
   92MPD2    C4 1406   4.712   2.637  16.164  0.0912  0.1800 -0.3636
   92MPD2    C5 1407   4.629   2.531  16.193 -0.2072 -0.1214  0.7714
   92MPD2     H 1408   0.024   2.767  16.466 -0.1405  1.0645 -0.6550
   92MPD2    H1 1409   0.021   2.651  16.062  1.7299  2.9196  0.5686
   92MPD2    H2 1410   4.508   2.431  16.341 -0.6142  0.9184  0.7339
   92MPD2    H3 1411   4.593   2.471  16.110  0.6162  0.0959  0.2520
   92MPD2     N 1412   0.123   2.823  16.240  0.4347  0.0225 -0.4409
   92MPD2    H5 1413   0.160   2.872  16.321 -1.1250  1.1748 -0.4153
   92MPD2    N1 1414   4.555   2.587  16.556 -0.1393 -0.3871  0.3070
   92MPD2    H7 1415   4.602   2.632  16.634 -0.1473  1.0702 -0.5142
   93MPD2     C 1416   0.983   2.731  13.861 -0.4879 -0.4365 -0.2782
   93MPD2    C1 1417   0.937   2.858  13.838  0.3301  0.1154 -0.4738
   93MPD2    C2 1418   0.818   2.876  13.769  0.4865  0.0603 -0.5301
   93MPD2    C3 1419   0.750   2.770  13.717  0.3496 -0.2409  0.0228
   93MPD2    C4 1420   0.794   2.642  13.753  0.2344 -0.0519 -0.2070
   93MPD2    C5 1421   0.911   2.624  13.823 -0.5728  0.5356 -0.3772
   93MPD2     H 1422   0.779   2.977  13.757 -2.4601 -1.1230 -0.9821
   93MPD2    H1 1423   0.727   2.559  13.732  0.4853 -0.2092 -0.3783
   93MPD2    H2 1424   1.069   2.709  13.923  1.4060 -0.3640 -2.9081
   93MPD2    H3 1425   0.953   2.525  13.839 -1.0632  0.5864  1.2149
   93MPD2     N 1426   0.616   2.785  13.660 -0.4486 -0.0573 -0.1289
   93MPD2    H5 1427   0.557   2.703  13.650 -0.2902 -0.4245  1.9729
   93MPD2    N1 1428   1.003   2.972  13.877 -0.5676  0.0723  0.0131
   93MPD2    H7 1429   0.942   3.050  13.897 -0.0331 -0.0081  1.9606
   94TCq2    C1 1430   1.135   2.986  13.906  0.4584 -0.6817 -0.0198
   94TCq2    O2 1431   1.223   2.906  13.888  0.9416  0.5655  0.0382
   94TCq2    C2 1432   1.171   3.121  13.939 -0.2922  0.4817  0.1038
   94TCq2    C3 1433   1.082   3.229  13.940  0.3425  0.3093 -0.2100
   94TCq2    C4 1434   1.121   3.354  13.944  0.4098 -0.2338  0.2034
   94TCq2    C5 1435   1.257   3.381  13.938  0.4398 -0.7804 -0.3173
   94TCq2    C6 1436   1.344   3.275  13.947 -0.4613 -0.4788  0.0808
   94TCq2    C7 1437   1.305   3.149  13.952 -0.4590  0.0907  0.4074
   94TCq2    C8 1438   1.486   3.298  13.940 -0.3782  0.6349  0.5861
   94TCq2    O4 1439   1.561   3.207  13.908  0.4195 -0.1707 -0.3570
   94TCq2    C9 1440   1.027   3.469  13.951  0.5432 -0.3402 -0.1201
   94TCq2    O5 1441   0.905   3.440  13.958  0.3485  0.0425 -0.0744
   94TCq2    O6 1442   1.076   3.588  13.951 -0.3758  0.4243  0.2370
   94TCq2    H2 1443   0.976   3.207  13.947  0.0641  2.0874  1.0768
   94TCq2    H3 1444   1.290   3.484  13.938  0.4984 -0.8093  1.8538
   94TCq2    H4 1445   1.369   3.063  13.967 -2.7911 -1.9375 -1.4402
   95TMC2    C1 1446   0.980   4.703  15.759 -0.1016  0.2865  0.2506
   95TMC2    C2 1447   0.898   4.684  15.870  0.5003  0.3259  0.0265
   95TMC2    C3 1448   0.791   0.037  15.876 -0.5637 -0.1832  0.3440
   95TMC2    C4 1449   0.953   0.064  15.661 -0.3299 -0.0866 -0.4166
   95TMC2    C5 1450   0.831   0.131  15.664  0.2708  0.0992  0.6330
   95TMC2    C6 1451   0.744   0.115  15.770 -0.0439  0.2259  0.2585
   95TMC2     C 1452   1.088   4.612  15.744  0.6564 -0.1975  0.0640
   95TMC2     O 1453   1.083   4.520  15.827  0.3549  0.6114 -0.6753
   95TMC2     H 1454   0.914   4.611  15.948  1.4379  0.5818  0.0657
   95TMC2    H1 1455   1.022   0.086  15.580 -0.9538  2.5659 -0.2348
   95TMC2    H2 1456   0.647   0.161  15.785  0.0837  1.0094 -1.3332
   95TMC2    C7 1457   0.788   0.194  15.543 -0.2242  0.0977 -0.6852
   95TMC2    C8 1458   0.704   0.040  15.992 -0.6897  0.3944 -0.1290
   95TMC2    O1 1459   0.866   0.204  15.448 -0.8951  0.4399  0.3024
   95TMC2    O2 1460   0.640   0.138  16.031 -0.0660  0.4594  0.0842
   95TMC2    O5 1461   0.699   4.639  16.041  0.1671  0.1849  0.0935
   95TMC2    H5 1462   0.736   4.572  15.979 -0.1734  0.3655 -0.3081
   96MPD2     C 1463   1.518   4.479  15.489 -0.2011  0.0631  0.3973
   96MPD2    C1 1464   1.499   4.612  15.482 -0.2586 -0.6228  0.1995
   96MPD2    C2 1465   1.398   4.676  15.555 -0.2411  0.4319 -0.0398
   96MPD2    C3 1466   1.302   4.594  15.618 -0.0866 -0.1558 -0.5602
   96MPD2    C4 1467   1.329   4.461  15.635 -0.1334 -0.0337  0.4085
   96MPD2    C5 1468   1.438   4.404  15.568  0.7609 -0.5140  1.0361
   96MPD2     H 1469   1.389   0.059  15.546  0.7246  0.3626 -1.8001
   96MPD2    H1 1470   1.265   4.394  15.691  1.3949 -1.4705  0.4450
   96MPD2    H2 1471   1.597   4.434  15.429 -0.9928 -0.1227 -0.5197
   96MPD2    H3 1472   1.445   4.296  15.556 -1.3049 -0.6722  1.3062
   96MPD2     N 1473   1.194   4.666  15.674 -0.8189 -0.3899 -0.6100
   96MPD2    H5 1474   1.186   0.038  15.642  1.2791  0.0926  0.3387
   96MPD2    N1 1475   1.587   4.679  15.396 -0.1124  0.1938  0.6864
   96MPD2    H7 1476   1.659   4.629  15.345 -0.8105 -0.1952  0.0699
   97MPD2     C 1477   2.939   3.584   0.132  0.1775 -0.5468 -0.1555
   97MPD2    C1 1478   3.065   3.538   0.167 -0.0585  0.1315  0.7312
   97MPD2    C2 1479   3.166   3.528   0.070 -0.1649  0.2435  0.1520
   97MPD2    C3 1480   3.136   3.553  17.638 -0.0212  0.2099 -0.9629
   97MPD2    C4 1481   3.016   3.594  17.598  0.1611  0.4212 -0.6138
   97MPD2    C5 1482   2.916   3.613  17.696 -0.2740 -0.1469 -0.4030
   97MPD2     H 1483   3.268   3.501   0.095 -0.0126 -0.7612 -1.5027
   97MPD2    H1 1484   2.997   3.622  17.495 -0.5818 -3.0953 -1.4336
   97MPD2    H2 1485   2.853   3.582   0.198 -0.7631 -4.6941 -1.5121
   97MPD2    H3 1486   2.813   3.640  17.675 -0.6880 -1.0964  0.3621
   97MPD2     N 1487   3.228   3.530  17.532 -0.3719  0.0264 -0.1551
   97MPD2    H5 1488   3.186   3.544  17.441  1.5096 -0.1144 -1.0353
   97MPD2    N1 1489   3.095   3.510   0.304  0.3101  0.3985  0.3107
   97MPD2    H7 1490   3.024   3.527   0.374 -1.1542 -0.9957 -0.8558
   98TCq2    C1 1491   3.357   3.488  17.540  0.8844  0.9984  0.6614
   98TCq2    O2 1492   3.401   3.407  17.623  0.0765  0.3548 -0.3751
   98TCq2    C2 1493   3.432   3.518  17.419  0.0242 -0.4024  0.0280
   98TCq2    C3 1494   3.420   3.637  17.362  0.2716 -0.3040 -0.0367
   98TCq2    C4 1495   3.520   3.681  17.278  0.0219 -0.1650 -0.3165
   98TCq2    C5 1496   3.645   3.620  17.273  0.1095 -0.1493 -0.1781
   98TCq2    C6 1497   3.653   3.494  17.326 -0.4823 -0.6537 -0.1901
   98TCq2    C7 1498   3.545   3.444  17.397  1.0075  0.3965  0.1202
   98TCq2    C8 1499   3.795   3.454  17.367  1.6205  0.1087  0.0897
   98TCq2    O4 1500   3.812   3.337  17.400 -0.0272  0.2039  0.5539
   98TCq2    C9 1501   3.513   3.810  17.214  0.1545  0.2859  0.2935
   98TCq2    O5 1502   3.420   3.823  17.133  0.4051 -0.0415  0.0462
   98TCq2    O6 1503   3.620   3.870  17.187  0.2462 -0.2340 -0.0420
   98TCq2    H2 1504   3.330   3.694  17.381  0.8372  0.9741 -1.1814
   98TCq2    H3 1505   3.724   3.673  17.219 -0.2707  0.2889 -0.3027
   98TCq2    H4 1506   3.545   3.343  17.437  1.3471 -0.1152 -1.1820
   99MPD2     C 1507   1.549   4.401   1.567  0.3691 -0.0334  0.0799
   99MPD2    C1 1508   1.414   4.409   1.587  0.5740 -0.4561 -0.0041
   99MPD2    C2 1509   1.320   4.402   1.486 -0.3285  0.2682  0.1806
   99MPD2    C3 1510   1.366   4.401   1.356  0.0271 -0.6093 -0.5401
   99MPD2    C4 1511   1.505   4.395   1.336 -0.4419 -0.8925  0.2100
   99MPD2    C5 1512   1.599   4.404   1.438  0.4393  0.0597  0.9248
   99MPD2     H 1513   1.215   4.404   1.514 -0.0128 -0.2644  1.4002
   99MPD2    H1 1514   1.541   4.404   1.234 -1.6037 -0.6612 -0.1872
   99MPD2    H2 1515   1.619   4.396   1.649  0.7319  4.5738  0.0694
   99MPD2    H3 1516   1.704   4.397   1.414  0.4848  1.0080  0.8337
   99MPD2     N 1517   1.272   4.393   1.251  0.1365 -0.7839  0.7814
   99MPD2    H5 1518   1.173   4.409   1.268  0.2629 -2.4223  3.0234
   99MPD2    N1 1519   1.357   4.409   1.720 -0.2825 -0.9643 -0.3002
   99MPD2    H7 1520   1.256   4.405   1.725 -0.3506  1.6317  0.4599
  100TCq2    C1 1521   1.425   4.435   1.838 -0.1592  0.2911 -1.1942
  100TCq2    O2 1522   1.541   4.470   1.852  0.0024  0.3995  0.3680
  100TCq2    C2 1523   1.336   4.456   1.953  0.2496 -0.2657  0.9960
  100TCq2    C3 1524   1.386   4.467   2.083  0.2028  0.5672 -0.1820
  100TCq2    C4 1525   1.295   4.461   2.184  0.2358 -0.1506 -0.1687
  100TCq2    C5 1526   1.162   4.435   2.167 -0.7697  0.4925  0.4190
  100TCq2    C6 1527   1.118   4.424   2.039  1.1407  0.1881 -0.2814
  100TCq2    C7 1528   1.198   4.437   1.930  0.0714 -0.2009 -0.3986
  100TCq2    C8 1529   0.978   4.405   2.019  0.0150  0.0033  0.4554
  100TCq2    O4 1530   0.907   4.433   2.112 -0.8304 -0.3203  0.3584
  100TCq2    C9 1531   1.336   4.474   2.323 -0.1444  0.3626 -0.3061
  100TCq2    O5 1532   1.247   4.515   2.402  0.6857 -0.1048  0.1024
  100TCq2    O6 1533   1.461   4.480   2.345 -0.0827  0.2158 -0.3608
  100TCq2    H2 1534   1.493   4.476   2.099  0.3492 -1.1871 -0.1946
  100TCq2    H3 1535   1.094   4.427   2.251 -0.0323 -1.1409  0.8627
  100TCq2    H4 1536   1.157   4.459   1.832 -1.5255 -1.9309 -0.1240
  101MPD2     C 1537   2.571   0.892  12.821  0.5831 -0.6389  0.5994
  101MPD2    C1 1538   2.444   0.900  12.872 -0.4000 -0.3269 -0.2344
  101MPD2    C2 1539   2.402   0.799  12.957 -0.6700  0.1131 -0.1605
  101MPD2    C3 1540   2.485   0.688  12.977 -0.0737 -0.8687 -0.7614
  101MPD2    C4 1541   2.613   0.682  12.930 -0.5324 -0.5022  0.7320
  101MPD2    C5 1542   2.652   0.787  12.858  0.5464  0.5153 -0.6220
  101MPD2     H 1543   2.298   0.800  12.989 -0.8055 -2.1325 -0.4942
  101MPD2    H1 1544   2.684   0.606  12.961  0.0938 -1.1566 -2.3277
  101MPD2    H2 1545   2.623   0.973  12.771  1.3872 -1.7982 -0.4435
  101MPD2    H3 1546   2.754   0.790  12.821  1.1824 -1.0983  1.0192
  101MPD2     N 1547   2.434   0.592  13.064 -0.1707 -0.3335 -0.1728
  101MPD2    H5 1548   2.341   0.606  13.104 -0.5241 -0.8928 -0.7972
  101MPD2    N1 1549   2.370   1.015  12.837  0.2843  0.4628 -0.9557
  101MPD2    H7 1550   2.409   1.062  12.757  1.0387 -0.8604 -1.3743
  102TCq2    C1 1551   2.357   1.432  12.612  0.1833  1.0817 -0.0234
  102TCq2    O2 1552   2.477   1.427  12.639  0.5713 -0.1733  0.6022
  102TCq2    C2 1553   2.254   1.379  12.701  0.0931 -0.8856  0.5486
  102TCq2    C3 1554   2.119   1.394  12.676  0.0123  0.7303  0.1715
  102TCq2    C4 1555   2.034   1.307  12.738  0.0996 -0.1209  0.1156
  102TCq2    C5 1556   2.081   1.204  12.811  0.7668  0.5869  0.6272
  102TCq2    C6 1557   2.216   1.187  12.823  0.3887 -0.4344 -0.0475
  102TCq2    C7 1558   2.307   1.275  12.772  0.0711 -0.7726  0.2640
  102TCq2    C8 1559   2.259   1.069  12.902 -0.1113 -0.4169 -0.0996
  102TCq2    O4 1560   2.178   1.013  12.975 -0.0368  0.1523 -0.1754
  102TCq2    C9 1561   1.899   1.321  12.698  0.1552 -0.6727  0.1595
  102TCq2    O5 1562   1.871   1.397  12.603 -0.0330  0.0882  0.6705
  102TCq2    O6 1563   1.809   1.265  12.769  0.1060 -0.5205  0.2314
  102TCq2    H2 1564   2.076   1.479  12.624 -1.9995  0.2065  0.9753
  102TCq2    H3 1565   2.015   1.128  12.850  0.8150  0.7185  0.9650
  102TCq2    H4 1566   2.413   1.275  12.795 -0.2851  0.7659  1.8642
  103TMC2    C1 1567   0.553   1.035  12.214  0.0915 -0.0477 -0.0478
  103TMC2    C2 1568   0.553   0.898  12.188 -0.5562  0.1542  0.1951
  103TMC2    C3 1569   0.609   0.826  12.290 -0.2118  0.1214 -0.5947
  103TMC2    C4 1570   0.618   1.089  12.320 -0.1228 -0.0334 -0.0758
  103TMC2    C5 1571   0.664   1.008  12.414  0.0594  0.0550  0.1507
  103TMC2    C6 1572   0.655   0.872  12.406  0.8890  0.3439  0.1918
  103TMC2     C 1573   0.512   1.120  12.098  0.1412 -0.3423  0.2222
  103TMC2     O 1574   0.560   1.231  12.089  0.5966  0.0164  0.1611
  103TMC2     H 1575   0.523   0.858  12.092 -1.8905  1.2562  0.1643
  103TMC2    H1 1576   0.606   1.195  12.343  0.5014  0.0079  0.0455
  103TMC2    H2 1577   0.698   0.808  12.482  0.0259  0.4443  0.7584
  103TMC2    C7 1578   0.721   1.054  12.536  1.0615  0.0239 -0.3618
  103TMC2    C8 1579   0.624   0.686  12.270 -0.6047  0.0130 -0.2105
  103TMC2    O1 1580   0.703   0.976  12.634  0.6233  0.1665  0.0440
  103TMC2    O2 1581   0.712   0.623  12.334  0.5707 -0.5535 -0.5101
  103TMC2    O5 1582   0.517   0.634  12.200 -0.1768 -0.0907  0.1095
  103TMC2    H5 1583   0.451   0.704  12.179  0.7529 -0.2197 -3.1492
  104MPD2     C 1584   0.297   1.018  11.821 -1.1686  0.4375  0.9343
  104MPD2    C1 1585   0.368   1.103  11.899  1.0375  0.7739 -0.4829
  104MPD2    C2 1586   0.372   1.235  11.856  0.3612  0.2358 -0.1986
  104MPD2    C3 1587   0.305   1.281  11.747 -0.0181  0.2053 -0.4246
  104MPD2    C4 1588   0.229   1.191  11.672  0.4866  0.4324  0.4375
  104MPD2    C5 1589   0.229   1.061  11.714  0.0408  0.8220  0.7281
  104MPD2     H 1590   0.427   1.308  11.914  0.4134  0.8864 -1.0849
  104MPD2    H1 1591   0.168   1.217  11.586 -0.8936 -1.2527  0.9045
  104MPD2    H2 1592   0.275   0.919  11.858  0.1351  0.3034  1.3478
  104MPD2    H3 1593   0.155   1.002  11.662  1.3502 -0.1585 -0.0195
  104MPD2     N 1594   0.305   1.419  11.712  0.1293  0.4133 -0.9128
  104MPD2    H5 1595   0.339   1.492  11.774 -0.1843 -0.2903  0.0976
  104MPD2    N1 1596   0.419   1.052  12.020  0.4100  0.0210 -0.1183
  104MPD2    H7 1597   0.390   0.958  12.045 -3.0188  0.8455 -0.9608
  105MPD2     C 1598   2.792   0.074  17.089  0.7262 -0.9741 -0.1130
  105MPD2    C1 1599   2.694   0.169  17.105 -0.8090 -0.5489 -0.0088
  105MPD2    C2 1600   2.669   0.215  17.236 -0.7598 -0.0890 -0.5107
  105MPD2    C3 1601   2.754   0.194  17.341 -1.1092 -0.6382 -0.7539
  105MPD2    C4 1602   2.869   0.118  17.315 -1.1075  0.1731  0.2532
  105MPD2    C5 1603   2.877   0.051  17.197 -0.1227 -0.8809  0.9632
  105MPD2     H 1604   2.573   0.255  17.265 -0.3558 -0.4466  1.3645
  105MPD2    H1 1605   2.941   0.088  17.391  1.0279  4.1887 -0.1480
  105MPD2    H2 1606   2.810   0.034  16.990  0.3109 -1.9610  0.2108
  105MPD2    H3 1607   2.962   4.713  17.173 -0.2671 -1.1013  1.0186
  105MPD2     N 1608   2.732   0.264  17.461 -0.3144 -0.0567  0.3372
  105MPD2    H5 1609   2.648   0.321  17.467  0.1618  0.6395  0.4413
  105MPD2    N1 1610   2.605   0.192  17.000  0.6660  0.7801 -0.3813
  105MPD2    H7 1611   2.612   0.131  16.920 -0.2431 -0.2851  0.3413
  106TCq2    C1 1612   2.802   0.259  17.580 -0.1240 -0.3574  0.5640
  106TCq2    O2 1613   2.898   0.187  17.615  0.8084 -0.4448  0.2276
  106TCq2    C2 1614   2.726   0.320  17.693  0.4235  1.3280  0.1858
  106TCq2    C3 1615   2.608   0.382  17.668 -0.0766 -0.6369  0.4035
  106TCq2    C4 1616   2.526   0.426   0.072  0.3939  0.7083  0.4662
  106TCq2    C5 1617   2.554   0.385   0.205  0.4905  0.2756 -0.1454
  106TCq2    C6 1618   2.672   0.313   0.227  0.5660 -0.4031 -0.1253
  106TCq2    C7 1619   2.752   0.275   0.123 -0.1817 -0.3375 -0.4497
  106TCq2    C8 1620   2.680   0.234   0.352  0.0074 -0.9783  0.4295
  106TCq2    O4 1621   2.773   0.254   0.433 -0.1202 -0.8109 -0.7791
  106TCq2    C9 1622   2.424   0.515   0.044  0.6197 -0.6644  0.1852
  106TCq2    O5 1623   2.425   0.575  17.637 -0.2850 -0.0173  0.0863
  106TCq2    O6 1624   2.360   0.550   0.145 -0.5022  0.5249  0.2707
  106TCq2    H2 1625   2.577   0.418  17.571 -0.1091  0.5315  0.8459
  106TCq2    H3 1626   2.495   0.432   0.283  1.8552  2.4416 -0.4331
  106TCq2    H4 1627   2.851   0.234   0.138 -1.4672 -2.9264  0.8982
  107TMC2    C1 1628   2.551   4.434  11.354 -0.8355 -0.0476 -0.7833
  107TMC2    C2 1629   2.587   4.522  11.261 -0.7567 -0.1727 -0.3145
  107TMC2    C3 1630   2.662   4.476  11.152 -0.2721  0.4281  1.1908
  107TMC2    C4 1631   2.596   4.304  11.348  0.5213 -0.3964  0.1783
  107TMC2    C5 1632   2.681   4.267  11.247 -0.2448 -0.1344 -0.1010
  107TMC2    C6 1633   2.716   4.351  11.150 -0.6670  0.6522  0.2758
  107TMC2     C 1634   2.443   4.472  11.447  0.0983 -0.3870 -0.6991
  107TMC2     O 1635   2.417   4.391  11.535 -0.1825 -0.1562 -0.0457
  107TMC2     H 1636   2.545   4.622  11.264 -0.3355  0.0405 -1.7028
  107TMC2    H1 1637   2.564   4.245  11.433  1.9838  0.8708  1.6047
  107TMC2    H2 1638   2.798   4.324  11.084  0.9554  1.7839  1.8453
  107TMC2    C7 1639   2.725   4.123  11.250  0.1924  0.8256 -0.6751
  107TMC2    C8 1640   2.685   4.577  11.052 -0.4212 -0.3069  0.0246
  107TMC2    O1 1641   2.714   4.060  11.355 -0.0246  0.8079 -0.3796
  107TMC2    O2 1642   2.672   4.696  11.071  0.2695 -0.0195  0.2256
  107TMC2    O5 1643   2.715   4.517  10.931 -0.2039  0.1501 -0.7791
  107TMC2    H5 1644   2.689   4.422  10.932  3.7795 -0.9273  0.7168
  108MPD2     C 1645   2.197   0.027  11.457  0.2879 -0.2689 -0.4196
  108MPD2    C1 1646   2.264   4.638  11.506 -0.8695  0.4609 -0.1012
  108MPD2    C2 1647   2.228   4.581  11.627  0.2002  0.9812  0.6078
  108MPD2    C3 1648   2.126   4.640  11.706  0.6853 -0.5603 -0.2716
  108MPD2    C4 1649   2.073   0.036  11.665 -0.0848  0.2429 -0.5691
  108MPD2    C5 1650   2.118   0.093  11.546 -0.5068  0.1933  0.0134
  108MPD2     H 1651   2.276   4.490  11.661  0.1242  0.1920 -1.3504
  108MPD2    H1 1652   2.010   0.092  11.733 -0.3098 -1.2094  0.4013
  108MPD2    H2 1653   2.216   0.068  11.359  1.2732 -0.8156 -0.4564
  108MPD2    H3 1654   2.080   0.189  11.513 -0.6355 -0.3796 -1.5062
  108MPD2     N 1655   2.065   4.584  11.821 -0.6230  0.1599  0.2815
  108MPD2    H5 1656   1.976   4.621  11.853 -0.5264  0.4837  0.1801
  108MPD2    N1 1657   2.370   4.584  11.422  0.3382  0.4266  0.7057
  108MPD2    H7 1658   2.396   4.643  11.344  0.2979 -0.8281 -0.2436
  109MPD2     C 1659   2.642   2.136   0.737 -0.1787 -0.8918 -0.4421
  109MPD2    C1 1660   2.734   2.036   0.754 -0.1105  0.6250 -1.0517
  109MPD2    C2 1661   2.868   2.078   0.763  0.1455  0.0358 -0.2460
  109MPD2    C3 1662   2.910   2.206   0.752  0.2176 -0.1519 -0.3914
  109MPD2    C4 1663   2.812   2.306   0.737  0.0452 -0.6735 -0.0380
  109MPD2    C5 1664   2.679   2.263   0.740  0.5222 -0.1077  0.5544
  109MPD2     H 1665   2.951   2.009   0.753  0.9293  0.7704  1.3642
  109MPD2    H1 1666   2.829   2.413   0.739 -1.8237 -0.3608 -0.7376
  109MPD2    H2 1667   2.537   2.112   0.748  0.0190 -0.9488  1.2046
  109MPD2    H3 1668   2.598   2.335   0.746  0.3213 -0.2991  0.0867
  109MPD2     N 1669   3.051   2.229   0.769 -0.2007  0.2481  0.3780
  109MPD2    H5 1670   3.111   2.147   0.772 -2.4540 -1.5135 -2.8266
  109MPD2    N1 1671   2.688   1.904   0.777 -0.0791 -0.4616 -0.2506
  109MPD2    H7 1672   2.588   1.887   0.787 -0.2500 -0.1476 -1.5161
  110TCq2    C1 1673   3.101   2.361   0.761 -0.2684 -0.3633 -0.0516
  110TCq2    O2 1674   3.046   2.461   0.790 -0.5555  0.4119 -0.2847
  110TCq2    C2 1675   3.246   2.376   0.769 -0.6791 -0.0622 -0.7770
  110TCq2    C3 1676   3.334   2.289   0.714 -0.1702 -0.4078  0.0996
  110TCq2    C4 1677   3.468   2.313   0.712 -0.3793  0.6342 -0.0368
  110TCq2    C5 1678   3.511   2.434   0.745 -0.3397 -0.2400  0.2154
  110TCq2    C6 1679   3.426   2.527   0.795 -0.7129 -0.0306 -0.2148
  110TCq2    C7 1680   3.294   2.500   0.809 -0.3928  0.3830  0.0134
  110TCq2    C8 1681   3.475   2.666   0.822 -0.4863 -0.0220  0.2399
  110TCq2    O4 1682   3.413   2.742   0.893  0.0146  0.8073  0.5378
  110TCq2    C9 1683   3.557   2.206   0.675 -0.1711 -0.5229  0.5458
  110TCq2    O5 1684   3.677   2.242   0.670  0.9323 -0.1242 -0.0964
  110TCq2    O6 1685   3.513   2.088   0.664  0.5992 -0.7828 -0.6490
  110TCq2    H2 1686   3.299   2.193   0.677  0.0165  0.4822 -2.4197
  110TCq2    H3 1687   3.619   2.437   0.742 -0.3815  1.9745  1.1136
  110TCq2    H4 1688   3.229   2.573   0.854 -1.7872 -1.2243  0.6173
  111TMC2    C1 1689   2.884   1.690  11.135  0.0853 -0.0033  0.4641
  111TMC2    C2 1690   2.951   1.639  11.023  0.3537 -0.1051  0.1035
  111TMC2    C3 1691   3.062   1.561  11.041  0.2357 -0.2833 -0.2226
  111TMC2    C4 1692   2.934   1.669  11.261 -0.4998 -0.1389 -0.6062
  111TMC2    C5 1693   3.038   1.583  11.272  0.6498 -0.4203  0.7914
  111TMC2    C6 1694   3.102   1.529  11.169 -0.4671 -0.6880 -0.1295
  111TMC2     C 1695   2.762   1.774  11.115  0.4055 -0.4483  0.0742
  111TMC2     O 1696   2.763   1.821  11.003 -0.5845 -0.2805  0.1384
  111TMC2     H 1697   2.919   1.665  10.923 -0.1748 -0.6896  0.1219
  111TMC2    H1 1698   2.892   1.702  11.355 -0.9055  1.4695 -1.3588
  111TMC2    H2 1699   3.191   1.470  11.185  0.6252  1.2962  1.0385
  111TMC2    C7 1700   3.074   1.561  11.418 -0.3874 -0.1733 -0.0472
  111TMC2    C8 1701   3.128   1.487  10.936 -0.4387 -0.6407 -0.3157
  111TMC2    O1 1702   2.985   1.568  11.501  1.0487  0.4106  0.1401
  111TMC2    O2 1703   3.182   1.382  10.961 -0.2765  0.1573 -0.7565
  111TMC2    O5 1704   3.089   1.530  10.815 -0.1555 -0.1926 -0.0575
  111TMC2    H5 1705   3.099   1.465  10.742 -0.9636 -0.3811 -0.0094
  112MPD2     C 1706   2.321   1.970  11.253  0.3464 -0.0293 -0.1281
  112MPD2    C1 1707   2.367   1.937  11.127 -0.3204  0.7252  0.5207
  112MPD2    C2 1708   2.495   1.890  11.115  0.2950  0.3783 -0.2657
  112MPD2    C3 1709   2.563   1.861  11.228 -0.3478  0.1613  0.3769
  112MPD2    C4 1710   2.519   1.894  11.355  0.1497 -0.2319 -0.8406
  112MPD2    C5 1711   2.398   1.949  11.370  0.4441  0.4280 -0.2597
  112MPD2     H 1712   2.528   1.870  11.014  0.7482 -0.6479  0.0898
  112MPD2    H1 1713   2.582   1.869  11.440 -1.9230  0.5077  0.9102
  112MPD2    H2 1714   2.221   2.009  11.265  0.9636  1.5222 -0.0794
  112MPD2    H3 1715   2.346   1.967  11.464  2.3821  0.0572  0.8825
  112MPD2     N 1716   2.690   1.796  11.228 -0.1712  0.1878 -0.2781
  112MPD2    H5 1717   2.738   1.775  11.314 -0.7857 -0.5156 -0.1037
  112MPD2    N1 1718   2.303   1.964  11.002  0.0593  0.6426  0.8583
  112MPD2    H7 1719   2.343   1.923  10.918  0.0901  1.4089  0.5071
  113MPD2     C 1720   0.863   4.119   1.019  0.1417 -0.2896  0.0813
  113MPD2    C1 1721   0.758   4.199   0.978  0.3567 -0.6481 -0.2103
  113MPD2    C2 1722   0.685   4.165   0.861 -0.2899 -0.0904  0.4521
  113MPD2    C3 1723   0.722   4.050   0.785  0.5875  0.2937  0.9181
  113MPD2    C4 1724   0.817   3.965   0.837  0.1625 -0.0158  0.5976
  113MPD2    C5 1725   0.903   4.014   0.936 -0.1559 -0.2925 -0.7530
  113MPD2     H 1726   0.601   4.227   0.833 -0.4859 -1.2643 -1.5636
  113MPD2    H1 1727   0.840   3.871   0.790 -2.0596 -0.3328  0.1507
  113MPD2    H2 1728   0.929   4.144   1.101 -0.0433 -1.0317  0.4549
  113MPD2    H3 1729   0.989   3.954   0.962  0.2407  0.6694  0.1255
  113MPD2     N 1730   0.665   4.014   0.662 -0.2221 -0.2899 -0.4559
  113MPD2    H5 1731   0.706   3.931   0.620  0.8493  0.0626 -0.1045
  113MPD2    N1 1732   0.715   4.311   1.047  1.0291  0.4964  0.0152
  113MPD2    H7 1733   0.647   4.371   1.001  1.5140  0.6637 -0.4793
  114TCq2    C1 1734   0.556   4.068   0.603 -0.4813  0.9555  0.8265
  114TCq2    O2 1735   0.485   4.153   0.642  1.0147  0.2417 -0.2209
  114TCq2    C2 1736   0.531   3.991   0.483 -0.1858  0.4332 -0.6956
  114TCq2    C3 1737   0.510   4.058   0.364 -0.1108  0.5725 -0.4076
  114TCq2    C4 1738   0.497   3.987   0.250 -0.0371  0.1870  0.4873
  114TCq2    C5 1739   0.488   3.850   0.257  0.6197 -0.8168 -0.3157
  114TCq2    C6 1740   0.504   3.787   0.378  0.2154  0.5301 -0.4431
  114TCq2    C7 1741   0.533   3.856   0.494 -0.4991 -0.2344  0.0960
  114TCq2    C8 1742   0.498   3.638   0.375  0.2574 -0.1018  0.0307
  114TCq2    O4 1743   0.526   3.585   0.266 -0.5215 -0.1778 -0.3015
  114TCq2    C9 1744   0.489   4.060   0.133  0.3013 -0.3837 -0.6108
  114TCq2    O5 1745   0.566   4.163   0.130 -0.1835  0.1082  0.3310
  114TCq2    O6 1746   0.437   4.005   0.033 -0.1973 -0.2707 -0.2603
  114TCq2    H2 1747   0.539   4.162   0.365  1.2810  0.1803  0.9002
  114TCq2    H3 1748   0.470   3.798   0.164  0.9660  2.8192 -2.4212
  114TCq2    H4 1749   0.520   3.815   0.593 -2.1973  0.5803  0.2088
  115TMC2    C1 1750   1.777   2.258  17.254  0.3958 -0.2052 -0.6702
  115TMC2    C2 1751   1.785   2.253  17.120 -0.0472  0.5006  0.0029
  115TMC2    C3 1752   1.756   2.367  17.055  0.1400  0.1489 -0.6019
  115TMC2    C4 1753   1.740   2.372  17.325 -0.1101  0.6066  0.5894
  115TMC2    C5 1754   1.725   2.486  17.254  0.0937  0.7341  0.0788
  115TMC2    C6 1755   1.741   2.488  17.116  0.4871  0.3065 -0.1648
  115TMC2     C 1756   1.741   2.126  17.308  0.4533 -0.2360  0.1250
  115TMC2     O 1757   1.625   2.115  17.347 -0.2064  0.1427 -0.3043
  115TMC2     H 1758   1.799   2.156  17.074 -2.1377 -0.1060  0.6610
  115TMC2    H1 1759   1.716   2.368  17.430  0.5295  0.6768  0.7335
  115TMC2    H2 1760   1.693   2.560  17.050 -0.6726  0.5726  0.9723
  115TMC2    C7 1761   1.723   2.611  17.327 -0.8046 -0.0203  0.4587
  115TMC2    C8 1762   1.708   2.367  16.921 -0.2293 -0.5847 -0.7249
  115TMC2    O1 1763   1.708   2.617  17.445 -0.8922  0.0904  0.6978
  115TMC2    O2 1764   1.688   2.471  16.856  0.0356 -0.2119 -0.7095
  115TMC2    O5 1765   1.648   2.249  16.886 -0.1012 -0.4241 -0.2309
  115TMC2    H5 1766   1.628   2.192  16.964  3.4019  0.7438  1.5044
  116MPD2     C 1767   1.788   1.652  17.103  0.2644  0.2725 -0.0851
  116MPD2    C1 1768   1.683   1.739  17.122 -0.2776 -0.1228 -0.3441
  116MPD2    C2 1769   1.698   1.857  17.193  0.3211  0.5912 -0.1132
  116MPD2    C3 1770   1.822   1.898  17.242  0.6784  0.5461 -0.2905
  116MPD2    C4 1771   1.933   1.822  17.212 -0.3658 -0.1561 -0.2500
  116MPD2    C5 1772   1.907   1.697  17.146  0.4255 -0.0961 -0.4751
  116MPD2     H 1773   1.618   1.929  17.187  0.0041  0.4156  1.8160
  116MPD2    H1 1774   2.034   1.851  17.238 -0.4944  1.6965 -1.8246
  116MPD2    H2 1775   1.779   1.553  17.060 -1.0712  0.4319 -0.1755
  116MPD2    H3 1776   1.985   1.625  17.127 -0.6023 -1.0708 -1.0232
  116MPD2     N 1777   1.842   2.032  17.287  0.1030  0.4463  0.1659
  116MPD2    H5 1778   1.938   2.066  17.294 -0.6775  2.9921 -1.4191
  116MPD2    N1 1779   1.551   1.693  17.079 -0.3899 -0.0338 -0.6740
  116MPD2    H7 1780   1.551   1.611  17.018  1.6861 -1.0047  0.6143
  117TMC2    C1 1781   4.629   3.628  13.979 -0.2508 -0.3772 -0.3615
  117TMC2    C2 1782   4.602   3.540  14.080 -0.1934 -0.7498 -0.0977
  117TMC2    C3 1783   4.672   3.552  14.190 -0.1566 -0.9952 -0.5095
  117TMC2    C4 1784   0.003   3.728  13.981  0.3553  0.1400  0.3360
  117TMC2    C5 1785   0.077   3.739  14.098 -0.5064 -0.3357  0.1759
  117TMC2    C6 1786   0.055   3.639  14.195 -0.1360 -0.3520 -0.6758
  117TMC2     C 1787   4.528   3.636  13.873 -0.2354 -0.1233 -0.3359
  117TMC2     O 1788   4.474   3.531  13.840  1.2418  0.4185 -0.5069
  117TMC2     H 1789   4.506   3.491  14.087  0.8320 -2.6080  0.9308
  117TMC2    H1 1790   0.030   3.796  13.902  0.5659 -1.1076 -0.6728
  117TMC2    H2 1791   0.136   3.607  14.261  0.3235  1.5828 -0.3183
  117TMC2    C7 1792   0.195   3.821  14.095  1.0651  0.4247  0.6823
  117TMC2    C8 1793   4.674   3.436  14.277  0.7358  0.3310  0.3435
  117TMC2    O1 1794   0.233   3.864  13.991  0.2739  0.1533 -0.0874
  117TMC2    O2 1795   4.564   3.387  14.318 -0.2970  0.1792  0.7349
  117TMC2    O5 1796   0.037   3.371  14.203 -0.0250 -0.0010  0.9821
  117TMC2    H5 1797   0.095   3.432  14.152 -0.9437  1.3631  1.5510
  118MPD2     C 1798   0.444   3.917  14.361  0.1267 -0.2970  0.0747
  118MPD2    C1 1799   0.396   3.893  14.235  0.0742  0.1481 -0.7288
  118MPD2    C2 1800   0.479   3.913  14.127  0.0265  0.2331  0.2149
  118MPD2    C3 1801   0.603   3.969  14.142 -0.0158 -0.2183 -0.3139
  118MPD2    C4 1802   0.650   3.989  14.270 -0.0876  0.0035  0.1051
  118MPD2    C5 1803   0.573   3.957  14.374 -0.1889 -1.3471 -0.3564
  118MPD2     H 1804   0.449   3.892  14.025 -0.2247  0.8691  0.1599
  118MPD2    H1 1805   0.747   4.030  14.296  0.1468 -1.4316  1.4439
  118MPD2    H2 1806   0.401   3.885  14.455  2.3557 -1.0063  0.8564
  118MPD2    H3 1807   0.613   3.968  14.474  0.8287 -2.4891 -0.6256
  118MPD2     N 1808   0.690   3.996  14.033 -0.0242 -0.6410  0.0964
  118MPD2    H5 1809   0.783   4.023  14.064  0.2775 -0.7603 -0.7028
  118MPD2    N1 1810   0.264   3.842  14.217  0.0590 -0.1009 -0.1890
  118MPD2    H7 1811   0.213   3.804  14.297 -2.2897  1.0996 -1.1122
  119MPD2     C 1812   3.538   0.283  13.646  0.3624 -0.5279  0.5635
  119MPD2    C1 1813   3.411   0.235  13.661  0.1007  0.8888 -0.1047
  119MPD2    C2 1814   3.341   0.199  13.552 -0.0318 -0.7908  0.2882
  119MPD2    C3 1815   3.402   0.183  13.428 -0.1807  0.5137  0.0631
  119MPD2    C4 1816   3.534   0.218  13.415  0.3626 -0.0746  0.2729
  119MPD2    C5 1817   3.599   0.271  13.522 -0.1904  0.6895 -0.4183
  119MPD2     H 1818   3.235   0.180  13.564 -0.3832  1.2050  0.3840
  119MPD2    H1 1819   3.578   0.195  13.319  3.2422  1.0082  1.3023
  119MPD2    H2 1820   3.588   0.327  13.731 -1.8799  1.1453  1.0080
  119MPD2    H3 1821   3.702   0.298  13.503  0.3703  0.2378  2.0024
  119MPD2     N 1822   3.344   0.109  13.317  0.4402 -0.2845  0.6904
  119MPD2    H5 1823   3.393   0.121  13.229  0.0076 -1.7610  0.2484
  119MPD2    N1 1824   3.351   0.254  13.786 -0.4155 -0.4715 -0.4911
  119MPD2    H7 1825   3.404   0.317  13.846  2.2726 -0.2287 -3.1490
  120TCq2    C1 1826   3.220   0.040  13.320 -0.3811 -0.5892  0.6421
  120TCq2    O2 1827   3.137   0.023  13.406 -0.4472 -0.2431 -0.1609
  120TCq2    C2 1828   3.189   4.704  13.187 -0.3744 -0.4897  0.3697
  120TCq2    C3 1829   3.294   4.691  13.099 -0.3269  0.5828 -0.0162
  120TCq2    C4 1830   3.271   4.603  12.996  0.7359  0.5299  0.5842
  120TCq2    C5 1831   3.154   4.535  12.988  0.9672 -0.0627 -0.4163
  120TCq2    C6 1832   3.059   4.542  13.080  0.3186 -0.0341  0.4208
  120TCq2    C7 1833   3.075   4.631  13.182 -0.0384 -0.4128 -0.3186
  120TCq2    C8 1834   2.930   4.481  13.050 -0.0624 -0.0268 -0.1084
  120TCq2    O4 1835   2.912   4.448  12.931  0.3229  0.2426  0.4132
  120TCq2    C9 1836   3.388   4.582  12.906  0.5538  0.1326 -0.4721
  120TCq2    O5 1837   3.386   4.479  12.835  0.0175  0.2112  0.3934
  120TCq2    O6 1838   3.460   4.680  12.878 -0.0827 -0.2172  0.5493
  120TCq2    H2 1839   3.394   0.006  13.115  0.0953 -0.8581  0.9704
  120TCq2    H3 1840   3.144   4.476  12.898 -0.3915  0.5085 -0.6482
  120TCq2    H4 1841   2.992   4.662  13.245 -0.4204 -0.7284 -0.6662
  121TMC2    C1 1842   4.647   1.754  13.883  0.0792 -0.3948  0.3872
  121TMC2    C2 1843   4.662   1.636  13.945 -0.0426 -0.1858  0.4809
  121TMC2    C3 1844   4.539   1.576  13.972 -0.5026  0.4680  0.1983
  121TMC2    C4 1845   4.529   1.796  13.822 -0.2478 -0.4259  0.1138
  121TMC2    C5 1846   4.419   1.719  13.830  0.0193 -0.1423  0.2451
  121TMC2    C6 1847   4.415   1.611  13.912  0.4981  0.0666  0.2203
  121TMC2     C 1848   0.029   1.850  13.895  0.3101  0.0115 -0.0652
  121TMC2     O 1849   0.099   1.848  13.995 -0.3257 -0.1510 -0.5292
  121TMC2     H 1850   0.029   1.610  13.996  0.6509  0.1151 -0.6169
  121TMC2    H1 1851   4.519   1.886  13.763  2.2032  2.1416  3.6451
  121TMC2    H2 1852   4.328   1.545  13.913 -0.1539  0.9364  0.3938
  121TMC2    C7 1853   4.289   1.782  13.807  0.0299  0.7165 -0.0107
  121TMC2    C8 1854   4.556   1.448  14.041  0.4323  0.1103 -0.6143
  121TMC2    O1 1855   4.282   1.868  13.722 -0.1916  0.5247  0.3735
  121TMC2    O2 1856   4.666   1.398  14.058  0.1074 -0.1397  0.8591
  121TMC2    O5 1857   4.454   1.431  14.121  0.2884 -0.5290  0.0118
  121TMC2    H5 1858   4.376   1.490  14.116 -0.1885 -1.1631 -0.0426
  122MPD2     C 1859   0.192   2.089  13.844  0.2316  0.2026  0.1131
  122MPD2    C1 1860   0.114   2.023  13.751  0.5697  0.5125  0.8743
  122MPD2    C2 1861   0.109   2.071  13.623 -0.1739 -0.1014 -0.1280
  122MPD2    C3 1862   0.180   2.188  13.587 -0.2790 -0.4026  0.5501
  122MPD2    C4 1863   0.248   2.252  13.684 -0.3026  0.5094 -0.2406
  122MPD2    C5 1864   0.259   2.206  13.810 -0.0823 -0.8568 -0.0757
  122MPD2     H 1865   0.040   2.027  13.552 -0.3765 -2.8210  1.7879
  122MPD2    H1 1866   0.308   2.339  13.657 -0.3788  0.1824 -1.4635
  122MPD2    H2 1867   0.190   2.073  13.951  1.1319  1.4480  0.3178
  122MPD2    H3 1868   0.311   2.265  13.884 -0.4206 -0.7677  0.0903
  122MPD2     N 1869   0.185   2.245  13.457  0.5586  0.3614 -0.2790
  122MPD2    H5 1870   0.228   2.335  13.441  3.2958 -1.4717 -3.1520
  122MPD2    N1 1871   0.035   1.918  13.778 -0.4891  0.2920 -0.4258
  122MPD2    H7 1872   4.700   1.881  13.704 -1.8020 -0.4405  0.9824
  123MPD2     C 1873   1.859   0.529   9.291 -0.3567  0.0853 -0.5970
  123MPD2    C1 1874   1.771   0.428   9.261 -0.0668 -0.4457 -0.5630
  123MPD2    C2 1875   1.815   0.297   9.274  0.1746  0.0864 -0.3060
  123MPD2    C3 1876   1.945   0.271   9.314  0.0706  0.9614  0.4264
  123MPD2    C4 1877   2.040   0.371   9.338 -0.0865  0.1842 -0.8858
  123MPD2    C5 1878   1.989   0.502   9.327 -0.1909  0.3500 -0.1286
  123MPD2     H 1879   1.756   0.208   9.252  0.8198 -0.0792 -1.3787
  123MPD2    H1 1880   2.146   0.358   9.361 -0.1424 -3.2205 -2.4108
  123MPD2    H2 1881   1.825   0.631   9.278 -2.1352 -0.4297  0.0432
  123MPD2    H3 1882   2.064   0.578   9.348  0.3283 -0.3951  0.7222
  123MPD2     N 1883   1.977   0.135   9.323  0.1987 -0.4088 -0.2563
  123MPD2    H5 1884   1.901   0.069   9.317 -0.3084  0.3270 -1.7962
  123MPD2    N1 1885   1.658   0.459   9.184 -0.4935  0.3121  0.0405
  123MPD2    H7 1886   1.637   0.556   9.161 -4.4810 -0.2925  1.0250
  124TCq2    C1 1887   2.105   0.085   9.332  0.2658  0.2881  0.2235
  124TCq2    O2 1888   2.211   0.137   9.350 -0.5280 -0.0397  0.2706
  124TCq2    C2 1889   2.095   4.661   9.320 -0.5177  0.6838  0.6963
  124TCq2    C3 1890   2.017   4.596   9.222  0.0025  0.4744  0.6210
  124TCq2    C4 1891   2.044   4.463   9.209 -0.2331 -0.2166  0.3061
  124TCq2    C5 1892   2.134   4.400   9.292 -0.4228 -0.5986 -0.0731
  124TCq2    C6 1893   2.207   4.469   9.381 -0.1345 -0.6655  0.2904
  124TCq2    C7 1894   2.196   4.605   9.389  0.6666 -1.2059 -0.0560
  124TCq2    C8 1895   2.222   4.411   9.514  0.3485 -1.0097 -0.6798
  124TCq2    O4 1896   2.316   4.451   9.578  0.4005 -0.3333 -0.2126
  124TCq2    C9 1897   1.957   4.385   9.124 -0.1720  0.6790 -0.0029
  124TCq2    O5 1898   1.988   4.264   9.104  0.2213 -0.4203 -0.5158
  124TCq2    O6 1899   1.856   4.437   9.069 -0.1002 -0.8908  0.0411
  124TCq2    H2 1900   1.945   4.649   9.161 -0.4548  0.3370  1.0406
  124TCq2    H3 1901   2.136   4.291   9.295 -1.5761 -0.6978 -2.4052
  124TCq2    H4 1902   2.230   4.655   9.479 -0.1333  0.2125 -0.5522
  125TMC2    C1 1903   3.078   2.410   9.448  0.1375  0.5879 -0.2700
  125TMC2    C2 1904   3.026   2.439   9.327 -0.5107  0.1203  0.0077
  125TMC2    C3 1905   3.004   2.332   9.247 -0.0871  0.3748 -0.4955
  125TMC2    C4 1906   3.118   2.285   9.483  0.6447 -0.2424  0.4799
  125TMC2    C5 1907   3.088   2.179   9.396  0.0499  0.1400 -0.0663
  125TMC2    C6 1908   3.035   2.203   9.276 -0.4101  0.0603  0.5042
  125TMC2     C 1909   3.157   2.522   9.510 -0.0203 -0.8330 -0.4549
  125TMC2     O 1910   3.241   2.500   9.595  0.0142  0.0082 -0.1240
  125TMC2     H 1911   2.998   2.536   9.288 -0.7220  0.7713  1.7826
  125TMC2    H1 1912   3.164   2.266   9.579 -0.6114  3.2684  1.7841
  125TMC2    H2 1913   3.023   2.121   9.205  0.4013  1.5125 -1.3292
  125TMC2    C7 1914   3.154   2.050   9.412  0.1846  0.2130  0.1171
  125TMC2    C8 1915   2.928   2.362   9.126  0.0686  0.0008  0.4370
  125TMC2    O1 1916   3.087   1.955   9.368  0.1557  0.2731  0.2398
  125TMC2    O2 1917   2.840   2.448   9.121 -0.0277 -0.2376  0.0635
  125TMC2    O5 1918   3.027   2.348   9.037 -0.1780 -0.0889 -0.2846
  125TMC2    H5 1919   3.075   2.265   9.058  1.0265 -0.0001 -2.7662
  126MPD1     C 1920   3.318   3.005   9.420 -0.3725  0.7082 -0.0876
  126MPD1    C1 1921   3.184   2.998   9.388  0.0954  0.5273 -0.7542
  126MPD1    C2 1922   3.126   2.879   9.413 -0.8866  0.2145 -0.2355
  126MPD1    C3 1923   3.184   2.765   9.466  0.0152  0.2524 -0.1223
  126MPD1    C4 1924   3.324   2.768   9.483  0.3450 -0.1283 -0.6793
  126MPD1    C5 1925   3.388   2.889   9.461 -0.0618  0.3319  0.4564
  126MPD1     H 1926   3.020   2.868   9.389 -0.9116 -0.1622  0.0513
  126MPD1    H1 1927   3.383   2.684   9.517 -1.6830 -0.6231  1.6309
  126MPD1    H2 1928   3.370   3.099   9.408  3.6931 -1.6007 -0.6952
  126MPD1    H3 1929   3.494   2.896   9.484 -0.1486 -1.5051  1.4006
  126MPD1     N 1930   3.108   2.643   9.472 -0.0882  0.5400 -0.2719
  126MPD1    H5 1931   3.012   2.651   9.440 -0.8036  0.4613  1.8443
  126MPD1    N1 1932   3.113   3.111   9.349 -0.6912 -0.3190  0.0743
  126MPD1    H6 1933   3.173   3.171   9.293 -2.2504 -0.8222 -2.1231
  126MPD1    H7 1934   3.042   3.093   9.279  0.8170 -1.2674 -1.1835
  127MPD2     C 1935   0.214   1.635   8.897  0.0849  0.2908 -0.3262
  127MPD2    C1 1936   0.156   1.637   9.025 -0.1236 -0.7996  0.5053
  127MPD2    C2 1937   0.185   1.748   9.106 -0.5301  0.7951 -0.2007
  127MPD2    C3 1938   0.271   1.854   9.064  0.4433  0.2939  0.2172
  127MPD2    C4 1939   0.317   1.854   8.929 -0.5638  0.0821 -0.5237
  127MPD2    C5 1940   0.286   1.743   8.851  0.5464  0.0863  0.4423
  127MPD2     H 1941   0.136   1.756   9.202  1.3434  3.6707  0.5442
  127MPD2    H1 1942   0.375   1.938   8.891 -0.6926  0.8842  1.0474
  127MPD2    H2 1943   0.189   1.549   8.835  1.4822 -0.6067  0.3453
  127MPD2    H3 1944   0.315   1.743   8.746 -0.5435  0.5019  0.1376
  127MPD2     N 1945   0.301   1.962   9.152 -0.2971 -0.2820 -0.6936
  127MPD2    H5 1946   0.254   1.961   9.242  0.8892  0.7485 -0.0681
  127MPD2    N1 1947   0.059   1.542   9.058 -0.2126  0.4506  0.0862
  127MPD2    H7 1948   0.037   1.467   8.994  0.0636 -0.2450  0.7968
  128TCq2    C1 1949   4.709   1.550   9.173  0.7287 -0.0007  0.3063
  128TCq2    O2 1950   4.667   1.650   9.229  0.0926 -0.4987  0.5440
  128TCq2    C2 1951   4.653   1.420   9.201  0.1213  0.0689 -0.3636
  128TCq2    C3 1952   4.723   1.306   9.185  0.1439 -0.0761 -0.6687
  128TCq2    C4 1953   4.674   1.187   9.225 -0.6849  0.4416 -0.9145
  128TCq2    C5 1954   4.554   1.181   9.292  0.4480  0.1827  0.1789
  128TCq2    C6 1955   4.487   1.303   9.315 -0.9121 -0.2168 -0.7956
  128TCq2    C7 1956   4.537   1.420   9.263  0.4486  0.3480  0.3667
  128TCq2    C8 1957   4.352   1.307   9.343  0.1414 -0.0661  0.2649
  128TCq2    O4 1958   4.296   1.415   9.325 -1.3153  0.4169 -0.1435
  128TCq2    C9 1959   0.005   1.062   9.172 -0.7400  0.0778 -0.3211
  128TCq2    O5 1960   4.662   0.958   9.187  0.3160  0.0051 -0.1609
  128TCq2    O6 1961   0.107   1.073   9.096  0.0545 -0.2457 -0.2559
  128TCq2    H2 1962   0.097   1.305   9.139 -0.0356 -0.0874 -1.0578
  128TCq2    H3 1963   4.517   1.083   9.319  3.4860 -0.6668  1.2534
  128TCq2    H4 1964   4.481   1.513   9.264 -1.4944 -0.8212 -0.0488
  129MPD2     C 1965   2.843   1.384   1.145 -0.0819 -0.0027  0.8129
  129MPD2    C1 1966   2.903   1.506   1.172  0.7059  0.7458  0.4729
  129MPD2    C2 1967   2.983   1.564   1.089  0.5473  0.3575  0.2510
  129MPD2    C3 1968   3.033   1.492   0.979  0.4280  0.3739 -0.0876
  129MPD2    C4 1969   2.984   1.362   0.960 -0.4714 -0.7547  0.6733
  129MPD2    C5 1970   2.883   1.311   1.037 -0.1955 -0.4169 -0.0770
  129MPD2     H 1971   3.012   1.667   1.104  1.2606  0.2239 -0.1824
  129MPD2    H1 1972   3.010   1.295   0.879  1.1455  2.3991 -1.3951
  129MPD2    H2 1973   2.775   1.339   1.216  1.2908 -1.9820  0.8628
  129MPD2    H3 1974   2.839   1.214   1.016 -0.7869 -0.1400 -0.1425
  129MPD2     N 1975   3.142   1.549   0.901 -0.2712  0.2494 -0.0866
  129MPD2    H5 1976   3.169   1.645   0.918  0.3783 -0.1544  1.1221
  129MPD2    N1 1977   2.864   1.584   1.284 -0.5773  0.3444 -0.0773
  129MPD2    H7 1978   2.895   1.681   1.293 -2.0215  0.8020 -0.0174
  130TCq2    C1 1979   2.821   1.531   1.400 -0.4072 -0.1154 -0.5505
  130TCq2    O2 1980   2.820   1.416   1.433  0.2307  0.0074 -0.6372
  130TCq2    C2 1981   2.792   1.629   1.505  0.1632  0.4730 -0.0436
  130TCq2    C3 1982   2.713   1.732   1.469 -0.2951  0.0886 -0.0189
  130TCq2    C4 1983   2.638   1.800   1.570 -0.1993  0.5233 -0.0762
  130TCq2    C5 1984   2.632   1.751   1.699 -0.0196  0.4842 -0.4849
  130TCq2    C6 1985   2.691   1.631   1.724  0.1512 -0.4181 -0.0056
  130TCq2    C7 1986   2.777   1.575   1.634 -0.6250 -0.6177 -0.5130
  130TCq2    C8 1987   2.628   1.545   1.821  1.4386  0.2623  0.5134
  130TCq2    O4 1988   2.642   1.426   1.793 -0.1765 -0.1535 -0.0303
  130TCq2    C9 1989   2.558   1.913   1.540 -0.3477  0.0319  0.0614
  130TCq2    O5 1990   2.544   2.003   1.629 -0.2277  0.1819 -0.1506
  130TCq2    O6 1991   2.531   1.931   1.420 -0.0650  0.3468  0.0241
  130TCq2    H2 1992   2.703   1.766   1.367  0.0497 -2.2644 -0.8425
  130TCq2    H3 1993   2.552   1.789   1.761 -0.1680  0.3637 -0.6037
  130TCq2    H4 1994   2.825   1.481   1.661  1.4645 -0.0733 -2.2496
  131MPD2     C 1995   1.643   1.180   8.855 -0.4145 -0.9044 -0.0749
  131MPD2    C1 1996   1.731   1.079   8.825  0.6451 -0.4717 -0.4317
  131MPD2    C2 1997   1.697   0.947   8.830 -0.3993  0.1947 -0.4705
  131MPD2    C3 1998   1.558   0.916   8.842 -0.5148 -0.3638 -0.8950
  131MPD2    C4 1999   1.464   1.017   8.861  0.8336 -0.4532 -0.0358
  131MPD2    C5 2000   1.514   1.144   8.875 -0.3238  0.1773 -0.6052
  131MPD2     H 2001   1.771   0.868   8.841 -0.3741  0.2700 -0.1037
  131MPD2    H1 2002   1.359   1.001   8.881  1.5714 -2.7371  1.9459
  131MPD2    H2 2003   1.670   1.285   8.855  0.8521 -1.2257  0.7340
  131MPD2    H3 2004   1.446   1.227   8.888 -2.3238 -1.4679 -0.5589
  131MPD2     N 2005   1.516   0.779   8.844  0.1640 -0.3677  0.1618
  131MPD2    H5 2006   1.592   0.711   8.842  0.4724 -0.0920  3.1231
  131MPD2    N1 2007   1.865   1.124   8.810  0.2694 -0.5337  0.1376
  131MPD2    H7 2008   1.885   1.221   8.830 -0.6570 -0.3399  0.0739
  132TCq2    C1 2009   2.259   1.386   8.967  0.3743 -0.2022  0.5928
  132TCq2    O2 2010   2.174   1.461   8.922 -0.6309 -0.4415 -0.2193
  132TCq2    C2 2011   2.238   1.246   8.929 -0.2484  0.3993 -0.4275
  132TCq2    C3 2012   2.340   1.162   8.939  0.4473  0.2764 -0.4171
  132TCq2    C4 2013   2.326   1.038   8.878  0.2077  0.0618 -0.0662
  132TCq2    C5 2014   2.210   1.000   8.820 -0.2767  0.3172  0.4720
  132TCq2    C6 2015   2.106   1.089   8.819 -0.1866  0.0794  0.4462
  132TCq2    C7 2016   2.114   1.203   8.893 -0.3793 -0.0906 -0.2339
  132TCq2    C8 2017   1.973   1.041   8.780 -0.2389 -0.0091 -0.1248
  132TCq2    O4 2018   1.968   0.946   8.703  0.2080  0.2738 -0.4623
  132TCq2    C9 2019   2.439   0.948   8.872 -0.2021  0.8149  0.3201
  132TCq2    O5 2020   2.428   0.842   8.806  0.0210  0.4301  0.1486
  132TCq2    O6 2021   2.551   0.993   8.917 -0.3134  0.1939 -0.1388
  132TCq2    H2 2022   2.434   1.185   8.988 -1.0886 -0.7985  3.0841
  132TCq2    H3 2023   2.197   0.901   8.777  0.6919 -0.5818  2.2436
  132TCq2    H4 2024   2.042   1.283   8.888  1.7573  1.9108  0.7943
  133MPD2     C 2025   0.956   0.327   9.294 -0.3592  0.1289  0.4705
  133MPD2    C1 2026   0.901   0.429   9.219  0.0932  0.4225 -0.0638
  133MPD2    C2 2027   0.972   0.546   9.209 -0.5995  0.0193 -0.2677
  133MPD2    C3 2028   1.102   0.546   9.255  0.1726 -0.3906 -0.0663
  133MPD2    C4 2029   1.157   0.439   9.321  0.1277  0.0515  0.7178
  133MPD2    C5 2030   1.082   0.326   9.346 -0.0434  0.8189  0.0458
  133MPD2     H 2031   0.923   0.634   9.171  1.2131  1.2471  0.2573
  133MPD2    H1 2032   1.255   0.449   9.366 -0.7235 -0.2713  2.6112
  133MPD2    H2 2033   0.887   0.245   9.314 -0.6557 -0.5027 -3.0650
  133MPD2    H3 2034   1.121   0.249   9.411 -0.4011  1.0046  0.4858
  133MPD2     N 2035   1.179   0.660   9.243 -0.3109 -0.7020  0.1726
  133MPD2    H5 2036   1.275   0.662   9.279  0.3267 -0.3087 -1.5757
  133MPD2    N1 2037   0.776   0.399   9.163 -0.4020  0.0484 -0.0829
  133MPD2    H7 2038   0.728   0.312   9.182  0.8078 -0.5902  0.0287
  134TCq2    C1 2039   0.699   0.492   9.096  0.5453 -0.0516 -0.4395
  134TCq2    O2 2040   0.709   0.614   9.081  0.2485 -0.4839  0.0335
  134TCq2    C2 2041   0.571   0.444   9.046  0.3414  0.5591  0.2414
  134TCq2    C3 2042   0.485   0.528   8.989  0.2250  0.6095  0.3461
  134TCq2    C4 2043   0.369   0.481   8.939 -0.8742  1.0707 -0.2588
  134TCq2    C5 2044   0.333   0.346   8.946  0.6935 -0.2643  0.0651
  134TCq2    C6 2045   0.427   0.260   8.995  0.1482  0.1250 -0.3792
  134TCq2    C7 2046   0.551   0.310   9.034  0.2425 -0.1943  0.2348
  134TCq2    C8 2047   0.419   0.118   8.954 -0.3554 -0.3887  0.0764
  134TCq2    O4 2048   0.495   0.045   9.013  0.6854  0.5950  0.5605
  134TCq2    C9 2049   0.256   0.572   8.923 -0.1929  0.3549 -0.5866
  134TCq2    O5 2050   0.265   0.683   8.977  0.3272  0.5754 -0.0282
  134TCq2    O6 2051   0.157   0.542   8.845 -0.2208 -0.2946 -0.7175
  134TCq2    H2 2052   0.508   0.633   8.986 -1.4195  1.0334  2.0897
  134TCq2    H3 2053   0.228   0.324   8.930  0.3734 -1.0407  3.2593
  134TCq2    H4 2054   0.616   0.231   9.069  1.3109  0.8151  0.5428
  135MPD2     C 2055   4.535   3.156   9.239 -0.4598  0.3454 -0.4056
  135MPD2    C1 2056   4.515   3.027   9.290 -0.3614 -0.0358 -0.8403
  135MPD2    C2 2057   4.574   2.926   9.220  0.0474 -0.3162 -0.0754
  135MPD2    C3 2058   4.673   2.943   9.127  0.0314 -0.1426  0.2554
  135MPD2    C4 2059   4.698   3.071   9.089 -0.5325 -0.7315 -0.1832
  135MPD2    C5 2060   4.632   3.180   9.144  0.0219 -0.2324 -0.5128
  135MPD2     H 2061   4.544   2.827   9.252 -0.7602 -0.0416  0.0202
  135MPD2    H1 2062   0.056   3.090   9.022 -1.0033 -1.0705 -0.8528
  135MPD2    H2 2063   4.488   3.243   9.283  2.3389  1.2573  0.8472
  135MPD2    H3 2064   4.649   3.276   9.097  1.6451  0.3499  1.2764
  135MPD2     N 2065   0.025   2.842   9.069 -0.8624 -0.0001 -0.8484
  135MPD2    H5 2066   0.097   2.876   9.006 -0.2033  1.5480  0.7366
  135MPD2    N1 2067   4.424   2.999   9.395 -1.0237 -1.1234  0.0371
  135MPD2    H7 2068   4.417   2.902   9.425 -0.0378 -1.4874 -0.9251
  136TCq2    C1 2069   4.335   3.083   9.463 -0.2648  0.6161 -0.7983
  136TCq2    O2 2070   4.284   3.186   9.422  0.0511 -0.0444 -0.5036
  136TCq2    C2 2071   4.252   3.017   9.567  0.2932  0.2506  0.1867
  136TCq2    C3 2072   4.314   2.968   9.682  0.2667 -0.0646  0.5442
  136TCq2    C4 2073   4.219   2.930   9.782 -0.2133 -0.1765 -1.3568
  136TCq2    C5 2074   4.085   2.949   9.769 -0.6144 -0.5632 -0.0730
  136TCq2    C6 2075   4.039   3.008   9.656 -0.2320  0.6376  0.6217
  136TCq2    C7 2076   4.117   3.044   9.555 -0.8737  0.1726  0.4777
  136TCq2    C8 2077   3.898   3.036   9.631 -0.1450  0.4082 -0.7622
  136TCq2    O4 2078   3.879   3.110   9.534  0.4328 -0.3599 -0.0139
  136TCq2    C9 2079   4.266   2.871   9.907  0.8903  0.2335  0.0697
  136TCq2    O5 2080   4.387   2.899   9.947 -0.5235 -0.3638  0.2986
  136TCq2    O6 2081   4.180   2.814   9.986 -0.6611 -0.4865 -0.2902
  136TCq2    H2 2082   4.418   2.939   9.692  0.6634  0.7899 -1.1170
  136TCq2    H3 2083   4.017   2.918   9.849 -0.5151 -0.9451 -0.1357
  136TCq2    H4 2084   4.079   3.074   9.458 -2.3931  0.5695  1.2016
  137MPD2     C 2085   4.190   1.446  10.097 -0.3568  0.0845 -0.2966
  137MPD2    C1 2086   4.054   1.475  10.092 -0.3259 -0.1605 -0.2355
  137MPD2    C2 2087   4.014   1.610  10.097  0.0832 -0.7540  0.1804
  137MPD2    C3 2088   4.106   1.713  10.109  0.3483  0.4770 -0.4898
  137MPD2    C4 2089   4.237   1.682  10.108 -0.2539  1.0560  0.1352
  137MPD2    C5 2090   4.284   1.554  10.094 -0.2694  0.4890  0.7743
  137MPD2     H 2091   3.909   1.636  10.094  1.4681  4.7067 -1.0306
  137MPD2    H1 2092   4.304   1.766  10.097  0.0331  0.5457 -1.9786
  137MPD2    H2 2093   4.233   1.347  10.094 -0.8021 -0.0333 -2.4783
  137MPD2    H3 2094   4.387   1.538  10.066 -0.5858 -1.7181  0.8460
  137MPD2     N 2095   4.054   1.846  10.107 -0.3422  0.0948 -0.0386
  137MPD2    H5 2096   3.955   1.866  10.115 -0.0890  1.5327 -0.5477
  137MPD2    N1 2097   3.970   1.365  10.084  0.0921 -0.0298 -0.3173
  137MPD2    H7 2098   4.020   1.279  10.069  0.1530  0.2138 -1.5158
  138TCq2    C1 2099   3.831   1.371  10.069 -0.5621 -0.2401 -0.4189
  138TCq2    O2 2100   3.752   1.462  10.041  0.8531 -0.4122  0.1441
  138TCq2    C2 2101   3.757   1.236  10.074  0.4548 -0.1311  0.7506
  138TCq2    C3 2102   3.827   1.127  10.123 -0.2694  0.9503 -1.0340
  138TCq2    C4 2103   3.770   1.001  10.114 -0.6700 -0.0919  0.1381
  138TCq2    C5 2104   3.646   0.983  10.061  0.1592 -0.7019 -0.0777
  138TCq2    C6 2105   3.579   1.094  10.017  0.7086  0.7503  0.2433
  138TCq2    C7 2106   3.632   1.218  10.023 -0.4017  0.4689  1.2101
  138TCq2    C8 2107   3.448   1.059   9.963 -0.0597  0.1768 -0.1677
  138TCq2    O4 2108   3.403   0.946   9.980 -0.5612 -0.2220  0.1328
  138TCq2    C9 2109   3.842   0.893  10.164  0.7598  0.6531 -1.0030
  138TCq2    O5 2110   3.967   0.897  10.149 -0.2883  0.4045  0.6522
  138TCq2    O6 2111   3.779   0.788  10.191  0.4023 -0.2595 -0.1458
  138TCq2    H2 2112   3.930   1.124  10.158 -0.1616 -0.1901 -1.4395
  138TCq2    H3 2113   3.613   0.881  10.050 -1.0586 -0.4105  0.8190
  138TCq2    H4 2114   3.590   1.300   9.967  1.1814  1.1060  0.9566
  139TMC2    C1 2115   0.138   0.061  13.362  0.1112  0.5452 -0.4878
  139TMC2    C2 2116   0.168   0.080  13.234  0.1563 -0.2060  0.0779
  139TMC2    C3 2117   0.077   0.145  13.148 -0.3015 -0.0764  0.3041
  139TMC2    C4 2118   0.036   0.133  13.416  0.1069 -0.6175  0.2103
  139TMC2    C5 2119   4.673   0.197  13.329  0.1945  0.5616 -0.3214
  139TMC2    C6 2120   4.691   0.208  13.197 -0.0125 -0.3981 -0.3959
  139TMC2     C 2121   0.202   4.677  13.439 -0.1342  0.1664  0.1127
  139TMC2     O 2122   0.248   4.582  13.370  0.3442 -0.3439  0.0284
  139TMC2     H 2123   0.244   0.019  13.187  1.0234  1.2918 -0.4800
  139TMC2    H1 2124   0.003   0.098  13.514 -1.0095  1.0368  0.4357
  139TMC2    H2 2125   4.619   0.236  13.121 -1.4653 -0.9611  0.7982
  139TMC2    C7 2126   4.582   0.296  13.388  0.4853  0.3211  0.8454
  139TMC2    C8 2127   0.090   0.162  13.010 -0.5489  0.1867  0.6151
  139TMC2    O1 2128   4.545   0.381  13.313 -1.0337  0.2858 -0.2324
  139TMC2    O2 2129   0.037   0.250  12.946  0.3153  0.1391  0.2500
  139TMC2    O5 2130   0.204   0.095  12.976  0.7592 -0.1349  0.6624
  139TMC2    H5 2131   0.205   0.012  13.028 -1.0895  1.3326  3.0155
  140MPD2     C 2132   0.128   4.573  13.792  0.3657 -0.4807 -0.0799
  140MPD2    C1 2133   0.165   4.569  13.656  0.2568  0.0617  0.7113
  140MPD2    C2 2134   0.173   4.439  13.608 -0.8573  0.2612  0.4586
  140MPD2    C3 2135   0.157   4.325  13.679  0.6578 -0.0367 -0.0774
  140MPD2    C4 2136   0.134   4.332  13.814 -0.6422 -0.0758 -0.0658
  140MPD2    C5 2137   0.122   4.455  13.869  0.0256  0.2795 -0.8042
  140MPD2     H 2138   0.196   4.424  13.504 -1.3828 -0.0357  0.3889
  140MPD2    H1 2139   0.103   4.243  13.868 -1.0235  1.9934  3.1035
  140MPD2    H2 2140   0.106   4.667  13.842  0.1900 -0.5844  0.0384
  140MPD2    H3 2141   0.090   4.453  13.973 -1.9049 -2.7022 -1.4515
  140MPD2     N 2142   0.150   4.206  13.601 -0.5196 -0.2097  0.2052
  140MPD2    H5 2143   0.176   4.225  13.505 -0.9497  1.4276  0.4212
  140MPD2    N1 2144   0.172   4.682  13.573 -1.4455  0.3669 -0.2342
  140MPD2    H7 2145   0.122   0.042  13.600 -2.8121 -0.0414 -1.4818
  141TCq2    C1 2146   0.535   0.763  14.050  0.8748 -0.1058 -0.6475
  141TCq2    O2 2147   0.611   0.860  14.048 -0.4778 -0.0114 -0.0305
  141TCq2    C2 2148   0.486   0.733  14.183  0.2320 -0.1375  0.1593
  141TCq2    C3 2149   0.513   0.607  14.227  0.1950 -0.3653  0.1006
  141TCq2    C4 2150   0.516   0.578  14.360  0.4827  0.3260  0.3036
  141TCq2    C5 2151   0.486   0.680  14.449  0.2278 -0.3694  0.0576
  141TCq2    C6 2152   0.455   0.807  14.403  0.7727 -0.2039  0.2604
  141TCq2    C7 2153   0.464   0.840  14.266  0.6560  0.0378 -0.0175
  141TCq2    C8 2154   0.452   0.904  14.507 -0.4436  0.1409 -1.0371
  141TCq2    O4 2155   0.416   0.879  14.623  0.0173  0.2605 -0.1401
  141TCq2    C9 2156   0.552   0.447  14.401 -0.2708  0.2398 -0.1103
  141TCq2    O5 2157   0.555   0.429  14.527  0.3438 -0.1161  0.2875
  141TCq2    O6 2158   0.577   0.355  14.314  0.7885  0.2652  0.2162
  141TCq2    H2 2159   0.535   0.531  14.152  0.5221 -1.9174  1.7553
  141TCq2    H3 2160   0.489   0.655  14.554 -1.1997 -1.7926 -0.2476
  141TCq2    H4 2161   0.419   0.936  14.246  0.4818 -0.0013  0.1863
  142MPD2     C 2162   2.479   3.739  10.843  0.4378  0.9008  0.0986
  142MPD2    C1 2163   2.470   3.703  10.711  0.0821 -0.2987 -0.0419
  142MPD2    C2 2164   2.460   3.803  10.617  0.3898  0.6623  0.5637
  142MPD2    C3 2165   2.464   3.936  10.650  0.2292  0.6106  0.7573
  142MPD2    C4 2166   2.462   3.970  10.781  0.4364  0.5201  0.0426
  142MPD2    C5 2167   2.471   3.872  10.874 -0.4559  0.4203 -0.1692
  142MPD2     H 2168   2.463   3.778  10.512 -1.2157  1.5238  0.3233
  142MPD2    H1 2169   2.455   4.071  10.818 -4.3584  0.8176 -1.6406
  142MPD2    H2 2170   2.488   3.667  10.923 -2.7898 -0.1282 -0.4530
  142MPD2    H3 2171   2.474   3.905  10.977  0.5320 -0.4427  0.0768
  142MPD2     N 2172   2.463   4.043  10.555  0.6156  0.1450  0.2820
  142MPD2    H5 2173   2.470   4.139  10.585  0.7001  0.3757 -0.4814
  142MPD2    N1 2174   2.492   3.563  10.683 -0.0682  0.1070 -0.1865
  142MPD2    H7 2175   2.499   3.503  10.765  0.1745  0.1298 -0.1890
  143TCq2    C1 2176   2.440   4.036  10.419 -0.2665  0.0027  0.1891
  143TCq2    O2 2177   2.417   3.930  10.359 -0.1168 -0.2499 -0.1522
  143TCq2    C2 2178   2.436   4.164  10.349  0.1988  0.1694 -0.0894
  143TCq2    C3 2179   2.534   4.254  10.382 -0.1548  0.2500  1.1139
  143TCq2    C4 2180   2.561   4.351  10.295 -0.4814 -0.0938  0.0379
  143TCq2    C5 2181   2.507   4.356  10.170  0.2085 -0.2281  0.2728
  143TCq2    C6 2182   2.437   4.240  10.135 -0.2700  0.0259 -0.0593
  143TCq2    C7 2183   2.380   4.153  10.224 -0.1866  0.1261 -0.3726
  143TCq2    C8 2184   2.380   4.255  10.001  0.7260 -0.1480 -0.5938
  143TCq2    O4 2185   2.441   4.304   9.908  0.5037  0.1622 -0.4262
  143TCq2    C9 2186   2.652   4.458  10.331 -0.2696  1.5281 -0.0935
  143TCq2    O5 2187   2.696   4.462  10.456  0.5200 -0.0358 -0.0802
  143TCq2    O6 2188   2.694   4.532  10.242  0.0229 -0.2214 -0.4591
  143TCq2    H2 2189   2.586   4.246  10.477  1.9212  0.8057  0.0476
  143TCq2    H3 2190   2.538   4.441  10.109  1.0815 -0.3038  0.6045
  143TCq2    H4 2191   2.336   4.058  10.199 -1.1329 -0.0198  1.8961
  144MPD2     C 2192   0.843   3.730   0.175 -0.7994 -0.0612 -0.2144
  144MPD2    C1 2193   0.861   3.589   0.169 -0.5454 -0.5193  0.0012
  144MPD2    C2 2194   0.920   3.523   0.269 -0.5848  0.2076  0.0259
  144MPD2    C3 2195   0.984   3.587   0.371 -1.0862  0.9075  0.8439
  144MPD2    C4 2196   0.976   3.730   0.378  0.1670 -0.4734  0.7133
  144MPD2    C5 2197   0.908   3.802   0.280  0.3869 -0.6367  0.1557
  144MPD2     H 2198   0.927   3.415   0.264 -1.3065  0.0928  1.6304
  144MPD2    H1 2199   1.027   3.782   0.458 -0.5735  0.8235  0.3440
  144MPD2    H2 2200   0.782   3.792   0.111  0.8832  2.0893  0.2671
  144MPD2    H3 2201   0.884   3.907   0.278 -1.0727 -0.9645  0.4444
  144MPD2     N 2202   1.060   3.533   0.470  0.2565 -0.2823 -0.1471
  144MPD2    H5 2203   1.116   3.590   0.534  0.5446  0.6956 -1.2688
  144MPD2    N1 2204   0.818   3.510   0.065  0.7992  0.0013  0.1324
  144MPD2    H7 2205   0.812   3.409   0.075 -0.6234  0.0806  0.0761
  145TCq2    C1 2206   1.097   3.398   0.466 -0.2154  0.3767 -0.2556
  145TCq2    O2 2207   1.064   3.305   0.393  0.7343  0.1443 -0.0069
  145TCq2    C2 2208   1.185   3.363   0.572 -0.6662  0.0265  0.1248
  145TCq2    C3 2209   1.295   3.299   0.523  1.2282 -0.5126  0.3497
  145TCq2    C4 2210   1.402   3.301   0.607 -0.2083 -0.0773  0.2491
  145TCq2    C5 2211   1.383   3.323   0.736  0.2334  0.6145  0.4144
  145TCq2    C6 2212   1.263   3.387   0.780 -0.4331  0.1296 -0.1747
  145TCq2    C7 2213   1.159   3.412   0.692  0.3506 -0.1282  0.3498
  145TCq2    C8 2214   1.253   3.417   0.918 -0.4098  0.2876  0.5609
  145TCq2    O4 2215   1.348   3.382   0.991  0.4487 -0.5057  0.3994
  145TCq2    C9 2216   1.528   3.258   0.552  0.1597 -0.8317 -0.0876
  145TCq2    O5 2217   1.627   3.252   0.633  0.6883 -0.3992  0.0795
  145TCq2    O6 2218   1.541   3.237   0.426 -0.1810 -0.2602  0.4193
  145TCq2    H2 2219   1.312   3.285   0.417 -1.2928 -0.3430 -0.0736
  145TCq2    H3 2220   1.462   3.301   0.807  1.0697  1.2867 -0.2941
  145TCq2    H4 2221   1.064   3.462   0.706 -0.5078 -1.3420 -1.1288
  146TMC2    C1 2222   2.409   1.908  12.379 -0.6817 -0.0515 -0.2152
  146TMC2    C2 2223   2.367   1.934  12.256  0.2151  0.5226 -0.1413
  146TMC2    C3 2224   2.446   1.922  12.150 -0.7790 -0.4514  0.0175
  146TMC2    C4 2225   2.542   1.878  12.398  0.2082 -0.0195 -0.6882
  146TMC2    C5 2226   2.620   1.859  12.286  0.0104  0.2810  0.3439
  146TMC2    C6 2227   2.579   1.880  12.161  0.6830 -0.4402 -0.3734
  146TMC2     C 2228   2.327   1.966  12.484 -0.9333 -0.3681 -0.4373
  146TMC2     O 2229   2.210   1.991  12.460 -0.2821 -0.0984 -0.1442
  146TMC2     H 2230   2.273   1.986  12.237  0.0779  0.0798 -0.6882
  146TMC2    H1 2231   2.573   1.865  12.501 -0.9422  2.5007 -0.0247
  146TMC2    H2 2232   2.641   1.835  12.084  1.8878 -2.3968  1.7448
  146TMC2    C7 2233   2.761   1.832  12.301 -0.8944 -0.4161  0.9434
  146TMC2    C8 2234   2.376   1.916  12.032  0.3587  0.7620 -0.2997
  146TMC2    O1 2235   2.836   1.881  12.217 -0.1605 -0.2116 -0.1836
  146TMC2    O2 2236   2.254   1.894  12.021  0.7937  0.6308 -0.3415
  146TMC2    O5 2237   2.470   1.883  11.942  0.0714  0.3305 -0.5006
  146TMC2    H5 2238   2.555   1.922  11.970 -0.1574  0.9455 -0.6610
  147MPD2     C 2239   3.172   1.745  12.596  0.2779 -0.3943  0.2648
  147MPD2    C1 2240   3.058   1.711  12.665 -0.6904  0.2404  0.1891
  147MPD2    C2 2241   2.935   1.713  12.605  0.7984  0.0870 -0.3171
  147MPD2    C3 2242   2.918   1.746  12.468  0.4340  0.8243  0.7255
  147MPD2    C4 2243   3.039   1.767  12.404 -0.5326 -0.3516 -0.1592
  147MPD2    C5 2244   3.160   1.769  12.466  0.0691  0.1339  0.4244
  147MPD2     H 2245   2.844   1.690  12.659  1.3609 -0.8271  0.2296
  147MPD2    H1 2246   3.034   1.788  12.298 -3.4642  1.0481  0.2732
  147MPD2    H2 2247   3.276   1.747  12.629  0.5945  1.5817 -0.8014
  147MPD2    H3 2248   3.244   1.777  12.398  1.1115  2.7147  1.9930
  147MPD2     N 2249   2.789   1.768  12.418  0.1850  0.1715 -0.1885
  147MPD2    H5 2250   2.709   1.737  12.471  0.4154  2.2115  1.3476
  147MPD2    N1 2251   3.087   1.667  12.794  0.5099  0.1940 -2.0041
  147MPD2    H7 2252   3.185   1.648  12.812  0.4320  2.2442  0.5015
  148MPD2     C 2253   2.674   0.681  10.313  0.4091 -0.1447  0.1766
  148MPD2    C1 2254   2.664   0.592  10.209  0.5994  0.2910  0.1972
  148MPD2    C2 2255   2.537   0.559  10.168  0.4529  0.3538  0.7197
  148MPD2    C3 2256   2.424   0.612  10.231 -0.1110  0.0724  0.7194
  148MPD2    C4 2257   2.439   0.707  10.327 -0.9418 -0.2545 -0.0151
  148MPD2    C5 2258   2.564   0.738  10.370 -0.5637 -0.6912 -0.3130
  148MPD2     H 2259   2.534   0.491  10.084  1.6789  1.7897 -0.4930
  148MPD2    H1 2260   2.346   0.737  10.374  0.3380 -1.1723  3.1355
  148MPD2    H2 2261   2.772   0.695  10.358  0.3901 -2.1212  0.8421
  148MPD2    H3 2262   2.577   0.816  10.443 -0.8416 -0.7164 -0.2342
  148MPD2     N 2263   2.293   0.585  10.195 -0.0101 -0.0080 -0.0610
  148MPD2    H5 2264   2.222   0.653  10.218  0.1112  1.1310 -3.2064
  148MPD2    N1 2265   2.780   0.531  10.161  0.2940  0.0517 -0.1086
  148MPD2    H7 2266   2.760   0.462  10.089 -2.1438 -1.6362  2.1699
  149TCq2    C1 2267   2.911   0.538  10.193 -0.3876 -0.3254 -0.0202
  149TCq2    O2 2268   2.969   0.609  10.276  0.4522  0.0973 -0.1360
  149TCq2    C2 2269   2.984   0.441  10.110 -0.4274 -0.0464  0.5316
  149TCq2    C3 2270   3.107   0.469  10.061  0.4929 -0.1420 -0.1794
  149TCq2    C4 2271   3.163   0.393   9.962  0.5466 -0.9308  0.0871
  149TCq2    C5 2272   3.090   0.285   9.920 -0.6420  0.4599 -0.6845
  149TCq2    C6 2273   2.970   0.256   9.980 -0.0867  0.4236 -1.1326
  149TCq2    C7 2274   2.916   0.330  10.079  1.2093  0.2398  1.7311
  149TCq2    C8 2275   2.880   0.163   9.908  0.1728 -0.0941 -0.6039
  149TCq2    O4 2276   2.773   0.150   9.964  0.0136 -0.3318 -0.0461
  149TCq2    C9 2277   3.258   0.451   9.868 -0.0054  0.0668 -0.1621
  149TCq2    O5 2278   3.248   0.404   9.754 -0.0079 -0.0971  0.1987
  149TCq2    O6 2279   3.349   0.522   9.917  0.2877 -0.6047 -0.0490
  149TCq2    H2 2280   3.159   0.560  10.091 -1.4268  0.4240  1.4386
  149TCq2    H3 2281   3.128   0.231   9.835  0.6445 -0.6659  0.6132
  149TCq2    H4 2282   2.824   0.304  10.131 -0.6624  2.0127 -0.6981
  150MPD2     C 2283   3.975   0.370  11.457 -0.1995  0.3512 -0.2171
  150MPD2    C1 2284   4.031   0.392  11.329 -0.0667  0.4803  0.1615
  150MPD2    C2 2285   4.132   0.479  11.321 -0.6590 -0.5417  0.0339
  150MPD2    C3 2286   4.182   0.539  11.432  0.1759 -0.5162  0.3783
  150MPD2    C4 2287   4.118   0.529  11.550 -0.2782  1.0237 -0.3615
  150MPD2    C5 2288   4.015   0.446  11.569  0.0260 -0.4320 -0.1313
  150MPD2     H 2289   4.198   0.488  11.236 -1.0268  0.5041 -0.1485
  150MPD2    H1 2290   4.132   0.586  11.641  0.5548  2.1315 -1.1861
  150MPD2    H2 2291   3.880   0.318  11.459 -0.0906  0.1007 -2.0898
  150MPD2    H3 2292   3.959   0.452  11.662  0.8975 -2.6237  0.5401
  150MPD2     N 2293   4.299   0.615  11.418 -0.5441 -0.1533  0.1338
  150MPD2    H5 2294   4.328   0.648  11.326 -1.4251  1.0606  0.2847
  150MPD2    N1 2295   3.965   0.324  11.218  0.1637  0.2930  0.9423
  150MPD2    H7 2296   3.890   0.261  11.245 -0.6398 -0.3445 -2.8774
  151TCq2    C1 2297   4.382   0.631  11.525 -0.4430  0.0427  0.1586
  151TCq2    O2 2298   4.383   0.579  11.637 -0.0090 -0.2870 -0.0761
  151TCq2    C2 2299   4.504   0.706  11.493  0.4146 -0.9213 -0.9771
  151TCq2    C3 2300   4.490   0.805  11.404  0.1865  0.6766 -0.1866
  151TCq2    C4 2301   4.604   0.868  11.374 -0.2502  0.9509  0.1773
  151TCq2    C5 2302   0.001   0.830  11.435 -0.0236 -0.8611 -0.2522
  151TCq2    C6 2303   0.008   0.730  11.528 -0.2379 -0.0940  0.5322
  151TCq2    C7 2304   4.620   0.668  11.558 -0.2486  0.6498  0.3955
  151TCq2    C8 2305   0.140   0.669  11.551  0.2547  0.3946 -0.1275
  151TCq2    O4 2306   0.226   0.704  11.463 -0.0366  0.5843 -0.0172
  151TCq2    C9 2307   4.615   0.967  11.267  0.1794  0.4746  0.4062
  151TCq2    O5 2308   4.711   0.948  11.184 -0.4017  0.0635  0.3393
  151TCq2    O6 2309   4.510   1.030  11.250  0.1948  0.3000  0.1140
  151TCq2    H2 2310   4.398   0.834  11.353  0.6024  0.2149 -1.1863
  151TCq2    H3 2311   0.086   0.892  11.413  0.0067 -1.1525 -0.9811
  151TCq2    H4 2312   4.621   0.581  11.623  1.8813  0.4992  0.1512
  152MPD2     C 2313   4.096   0.113  12.690  0.3470 -1.1780 -0.2329
  152MPD2    C1 2314   4.098   0.208  12.590  0.4879 -0.5129  0.0989
  152MPD2    C2 2315   3.992   0.219  12.503  1.1597  0.3467  0.2792
  152MPD2    C3 2316   3.875   0.147  12.536  0.0088  0.8611 -0.3044
  152MPD2    C4 2317   3.871   0.059  12.642 -0.3697 -0.0812 -0.0985
  152MPD2    C5 2318   3.982   0.041  12.718 -0.4640  0.5286  0.1324
  152MPD2     H 2319   3.994   0.293  12.424 -0.4825  0.1246  0.0284
  152MPD2    H1 2320   3.784   4.721  12.662 -0.0117 -0.4845  0.1955
  152MPD2    H2 2321   4.185   0.090  12.748  0.8980 -1.3140 -1.1303
  152MPD2    H3 2322   3.981   4.703  12.807 -0.6508  1.3447  0.7039
  152MPD2     N 2323   3.772   0.166  12.450 -0.2148 -0.0847 -0.3730
  152MPD2    H5 2324   3.792   0.231  12.375 -2.1255  0.0506 -0.7634
  152MPD2    N1 2325   4.221   0.269  12.574 -0.4692 -0.2261 -0.1968
  152MPD2    H7 2326   4.303   0.239  12.625  0.5920 -0.1075 -1.8390
  153TCq2    C1 2327   4.251   0.376  12.496  0.0378  0.8339  0.0590
  153TCq2    O2 2328   4.180   0.465  12.453  0.3287  0.3293 -1.0824
  153TCq2    C2 2329   4.390   0.383  12.482  0.4998  0.3319  0.1901
  153TCq2    C3 2330   4.462   0.264  12.464 -0.0601  0.0127  0.2098
  153TCq2    C4 2331   4.594   0.273  12.444  0.0912  0.0654 -0.5741
  153TCq2    C5 2332   4.663   0.393  12.437 -1.0703  0.9717 -0.0500
  153TCq2    C6 2333   4.589   0.509  12.455 -0.1789 -0.4532  0.7543
  153TCq2    C7 2334   4.446   0.507  12.471  0.4527  0.1246 -0.2010
  153TCq2    C8 2335   4.657   0.636  12.470  0.4153  0.8138 -0.2336
  153TCq2    O4 2336   4.598   0.744  12.479 -0.0829 -0.1491  0.8264
  153TCq2    C9 2337   4.670   0.146  12.416 -0.1253 -0.1260  0.7127
  153TCq2    O5 2338   4.609   0.037  12.409  0.1043 -0.3560  0.1347
  153TCq2    O6 2339   0.070   0.149  12.444 -0.1035 -0.5178  0.2565
  153TCq2    H2 2340   4.418   0.164  12.463  0.5853 -0.2545 -1.0458
  153TCq2    H3 2341   0.045   0.391  12.420 -1.3312  1.7889 -1.7760
  153TCq2    H4 2342   4.399   0.599  12.504 -0.7515 -0.7128  0.4217
  154MPD2     C 2343   1.066   4.634  17.647  0.4119 -0.2654 -0.2981
  154MPD2    C1 2344   1.028   0.040  17.648 -1.0687  0.2073 -0.0848
  154MPD2    C2 2345   0.911   0.085   0.009 -0.4621  0.0256  0.2559
  154MPD2    C3 2346   0.837   0.003   0.089 -0.8692  0.4988 -0.4971
  154MPD2    C4 2347   0.868   4.595   0.084 -0.4578 -0.7533  0.5459
  154MPD2    C5 2348   0.981   4.554   0.021 -0.7260  0.5048 -0.3121
  154MPD2     H 2349   0.879   0.188   0.006  0.9639  0.3979 -1.9943
  154MPD2    H1 2350   0.814   4.518   0.138 -2.2137 -0.6995 -1.1796
  154MPD2    H2 2351   1.152   4.589  17.598  0.6349  0.8023 -0.8801
  154MPD2    H3 2352   1.002   4.448   0.018  0.9753  0.8290 -0.0040
  154MPD2     N 2353   0.722   0.059   0.156 -0.6388  0.6723 -0.1431
  154MPD2    H5 2354   0.711   0.160   0.152 -4.4395  0.2314  0.0238
  154MPD2    N1 2355   1.111   0.129  17.570  0.1100 -0.1259  0.5513
  154MPD2    H7 2356   1.201   0.089  17.547  1.0284  1.1240  1.9835
  155TCq2    C1 2357   1.079   0.258  17.537 -0.1940  0.2070  0.4279
  155TCq2    O2 2358   0.981   0.326  17.565 -0.1853  0.4918  1.0693
  155TCq2    C2 2359   1.198   0.331  17.501  0.0138  0.0132 -0.1105
  155TCq2    C3 2360   1.297   0.262  17.434  0.2338  0.6395  0.4169
  155TCq2    C4 2361   1.414   0.323  17.403 -0.6472  1.3671 -0.9750
  155TCq2    C5 2362   1.430   0.457  17.421  0.1004  0.1979  0.3911
  155TCq2    C6 2363   1.324   0.523  17.478 -0.6175 -0.5675  0.0933
  155TCq2    C7 2364   1.209   0.464  17.523  0.2743 -0.3061  0.3364
  155TCq2    C8 2365   1.333   0.674  17.478  0.1679 -0.4927 -0.7071
  155TCq2    O4 2366   1.233   0.728  17.516 -0.0706 -0.0712  0.3885
  155TCq2    C9 2367   1.522   0.244  17.356  0.0406  0.1539  0.3083
  155TCq2    O5 2368   1.505   0.121  17.383  0.1670  0.1368  0.3340
  155TCq2    O6 2369   1.616   0.301  17.292 -0.2326  0.3476 -0.6708
  155TCq2    H2 2370   1.272   0.161  17.403  2.2368  0.6159 -1.1868
  155TCq2    H3 2371   1.530   0.492  17.397  0.5173 -2.3120 -1.6056
  155TCq2    H4 2372   1.131   0.525  17.566 -1.3321 -1.8571 -0.3814
  156MPD2     C 2373   3.920   2.320  11.806 -0.4796  0.5131  0.1573
  156MPD2    C1 2374   4.030   2.389  11.757 -0.5216 -0.0535 -0.1838
  156MPD2    C2 2375   4.160   2.378  11.811  0.0910  0.1686 -0.0366
  156MPD2    C3 2376   4.174   2.310  11.930  0.2909  0.1738 -0.0050
  156MPD2    C4 2377   4.061   2.238  11.977 -0.0196 -0.3630  0.1421
  156MPD2    C5 2378   3.940   2.243  11.915 -0.4793  0.0130 -0.3155
  156MPD2     H 2379   4.241   2.442  11.781  1.1530 -1.8013 -1.3713
  156MPD2    H1 2380   4.057   2.195  12.077 -0.9368 -1.9331 -0.5683
  156MPD2    H2 2381   3.825   2.324  11.755 -0.5662  0.1333  0.2946
  156MPD2    H3 2382   3.852   2.193  11.953 -0.4196 -2.2929 -3.2010
  156MPD2     N 2383   4.297   2.318  11.993  0.2988  0.5845 -0.2315
  156MPD2    H5 2384   4.370   2.370  11.945  1.9794 -0.4238  1.2132
  156MPD2    N1 2385   4.011   2.474  11.643  0.5589 -0.3190 -0.4235
  156MPD2    H7 2386   3.915   2.483  11.613  0.6197 -0.3528 -0.6299
  157TCq2    C1 2387   4.105   2.546  11.570 -0.1414  0.2202  0.2948
  157TCq2    O2 2388   4.229   2.556  11.576 -0.3654 -0.1837 -0.2062
  157TCq2    C2 2389   4.037   2.619  11.462  0.2702 -0.1859  0.1814
  157TCq2    C3 2390   3.928   2.557  11.405  0.5150 -0.5663  0.0410
  157TCq2    C4 2391   3.837   2.640  11.345 -0.3604 -0.4001 -0.0212
  157TCq2    C5 2392   3.863   2.773  11.339  0.8095 -0.5479  0.8529
  157TCq2    C6 2393   3.978   2.827  11.386 -0.2418  0.0821 -0.0699
  157TCq2    C7 2394   4.076   2.744  11.444  0.4007  0.0035 -0.5177
  157TCq2    C8 2395   3.974   2.964  11.431 -0.0066 -0.0633 -0.0549
  157TCq2    O4 2396   4.084   3.008  11.469  0.8500  0.4270  0.2238
  157TCq2    C9 2397   3.726   2.574  11.277  0.2549 -0.3192  0.1405
  157TCq2    O5 2398   3.720   2.450  11.249 -0.3914 -0.4079 -0.0707
  157TCq2    O6 2399   3.642   2.648  11.227 -0.2442 -0.6068 -0.6798
  157TCq2    H2 2400   3.921   2.449  11.398  0.7483 -0.3976 -2.6634
  157TCq2    H3 2401   3.796   2.831  11.277  1.3380  1.3691  2.0920
  157TCq2    H4 2402   4.141   2.788  11.519 -0.0429 -0.1344 -0.0533
  158TMC2    C1 2403   0.474   1.435  13.216 -0.2754  0.4045  0.5319
  158TMC2    C2 2404   0.566   1.475  13.121  0.4235 -0.4955 -0.5174
  158TMC2    C3 2405   0.519   1.509  13.001 -0.0113 -0.6513  0.0298
  158TMC2    C4 2406   0.343   1.425  13.187  0.3027 -0.2866  0.3319
  158TMC2    C5 2407   0.305   1.450  13.057  0.3342  0.3704 -0.1423
  158TMC2    C6 2408   0.392   1.497  12.961 -0.0475  0.2207 -0.4883
  158TMC2     C 2409   0.524   1.400  13.347 -0.2848 -0.1615  1.3157
  158TMC2     O 2410   0.638   1.430  13.372 -0.3217  0.2974  0.7381
  158TMC2     H 2411   0.664   1.501  13.158  0.8025 -1.4904 -0.8304
  158TMC2    H1 2412   0.269   1.416  13.265 -0.9754  1.0784 -0.7316
  158TMC2    H2 2413   0.358   1.511  12.859  1.6751  0.5851 -1.0205
  158TMC2    C7 2414   0.164   1.449  13.019 -0.0559 -0.3279  0.1953
  158TMC2    C8 2415   0.617   1.567  12.910 -0.7099  0.1140  0.0397
  158TMC2    O1 2416   0.138   1.527  12.927  0.1311  0.7222  0.1040
  158TMC2    O2 2417   0.609   1.561  12.789  0.4177 -0.0367 -0.1887
  158TMC2    O5 2418   0.645   1.685  12.969  0.3684 -0.5385  0.6038
  158TMC2    H5 2419   0.631   1.691  13.066 -1.9055  2.4183  0.0946
  159MPD2     C 2420   0.488   1.195  13.820  0.1121  0.6408 -0.0425
  159MPD2    C1 2421   0.374   1.156  13.747  0.5375 -0.3004 -1.2075
  159MPD2    C2 2422   0.358   1.211  13.619 -0.4948 -0.0300  0.5739
  159MPD2    C3 2423   0.455   1.290  13.562  0.4812 -0.1912  0.2359
  159MPD2    C4 2424   0.564   1.328  13.641  0.2451  0.0863  0.2433
  159MPD2    C5 2425   0.575   1.292  13.767  0.0715 -0.4894 -0.3445
  159MPD2     H 2426   0.276   1.182  13.554 -0.1514  0.6101 -0.1455
  159MPD2    H1 2427   0.642   1.394  13.605 -0.5090  1.8146  1.8100
  159MPD2    H2 2428   0.512   1.155  13.918  3.2598  0.2461 -0.9713
  159MPD2    H3 2429   0.663   1.315  13.826  0.1019 -1.0940 -0.1512
  159MPD2     N 2430   0.434   1.327  13.426 -0.1459  1.1516 -0.0080
  159MPD2    H5 2431   0.348   1.300  13.380  0.0317  1.3603 -0.4611
  159MPD2    N1 2432   0.278   1.074  13.808  0.1859 -0.3788  0.1699
  159MPD2    H7 2433   0.291   1.048  13.905  0.2336 -0.5871  0.1085
  160TMC2    C1 2434   4.514   3.406   1.045 -0.0295 -0.3781 -0.0267
  160TMC2    C2 2435   4.522   3.286   1.106 -0.3685 -0.7129 -0.0088
  160TMC2    C3 2436   4.599   3.188   1.038 -0.0702 -0.9040 -0.4164
  160TMC2    C4 2437   4.573   3.436   0.923 -0.7297  0.4684  0.8540
  160TMC2    C5 2438   4.649   3.340   0.864 -0.0991 -0.3517  0.3348
  160TMC2    C6 2439   4.670   3.219   0.927  0.3546  0.3793 -0.6529
  160TMC2     C 2440   4.395   3.477   1.091  0.1802  0.3533 -0.8770
  160TMC2     O 2441   4.337   3.454   1.194 -0.0150  0.5676 -0.5962
  160TMC2     H 2442   4.460   3.254   1.189 -1.3835 -1.1337 -0.9295
  160TMC2    H1 2443   4.567   3.531   0.871 -2.5141 -0.3622 -0.4438
  160TMC2    H2 2444   0.021   3.151   0.888 -0.9254 -0.8305 -1.0444
  160TMC2    C7 2445   0.005   3.378   0.747 -0.2507 -0.5244  0.3643
  160TMC2    C8 2446   4.656   3.077   1.108  0.0384 -0.1800  0.4940
  160TMC2    O1 2447   0.062   3.282   0.699  0.1279 -0.1994 -0.2093
  160TMC2    O2 2448   0.046   3.037   1.092 -0.2166 -0.1655 -0.0871
  160TMC2    O5 2449   4.557   2.993   1.140 -0.1731  0.7542 -0.0319
  160TMC2    H5 2450   4.466   3.023   1.116  0.7228  2.3541 -1.4130
  161MPD2     C 2451   4.123   3.579   1.048 -0.6141  0.4809  0.0395
  161MPD2    C1 2452   4.234   3.612   0.972 -0.0046 -0.0835 -0.0807
  161MPD2    C2 2453   4.213   3.701   0.866 -0.0262 -0.8505  0.0992
  161MPD2    C3 2454   4.090   3.768   0.844  0.6345 -0.4967  0.5597
  161MPD2    C4 2455   3.980   3.729   0.916 -0.1841  0.7430 -0.3483
  161MPD2    C5 2456   4.000   3.640   1.022  0.5516 -0.7532  0.4793
  161MPD2     H 2457   4.298   3.727   0.803 -0.3654 -0.8833 -0.3717
  161MPD2    H1 2458   3.886   3.781   0.906 -0.5240  0.1811 -0.0827
  161MPD2    H2 2459   4.128   3.511   1.132  0.8714  0.1963 -0.2818
  161MPD2    H3 2460   3.917   3.610   1.085  0.2044 -0.6402  0.0812
  161MPD2     N 2461   4.082   3.870   0.750  0.0544  0.1672  0.2007
  161MPD2    H5 2462   3.987   3.893   0.722  0.4534  0.7106 -0.6879
  161MPD2    N1 2463   4.364   3.565   0.994 -1.1452 -0.1410  0.1699
  161MPD2    H7 2464   4.427   3.607   0.927  0.7647 -0.3528  1.8359
  162TMC2    C1 2465   1.949   1.283   0.874  0.1784 -0.7228 -0.5535
  162TMC2    C2 2466   1.898   1.375   0.786  0.5626 -0.3109  0.1090
  162TMC2    C3 2467   1.779   1.433   0.812  0.0488 -0.7529  0.2549
  162TMC2    C4 2468   1.882   1.249   0.989 -0.3542 -0.2894 -0.0192
  162TMC2    C5 2469   1.769   1.317   1.012  0.1701 -0.1026 -0.2619
  162TMC2    C6 2470   1.710   1.405   0.925 -0.3716 -0.1430  0.5808
  162TMC2     C 2471   2.075   1.212   0.836  0.1360  0.5051  0.1410
  162TMC2     O 2472   2.142   1.279   0.755 -0.6240  0.2890 -0.6648
  162TMC2     H 2473   1.964   1.428   0.719 -0.4030 -2.3870 -2.4768
  162TMC2    H1 2474   1.918   1.183   1.067  0.9126 -3.0177 -2.9120
  162TMC2    H2 2475   1.613   1.451   0.942 -0.1393  0.5587  0.0286
  162TMC2    C7 2476   1.683   1.277   1.125  0.0854  0.1975  0.3338
  162TMC2    C8 2477   1.740   1.534   0.710 -0.1068  0.4873  0.0626
  162TMC2    O1 2478   1.565   1.311   1.118 -0.4769 -0.4236 -0.0018
  162TMC2    O2 2479   1.791   1.535   0.599  0.0419 -0.0152  0.0484
  162TMC2    O5 2480   1.676   1.645   0.763 -0.7016 -0.1284 -0.6649
  162TMC2    H5 2481   1.641   1.636   0.854  1.4053  0.7030  0.2439
  163MPD2     C 2482   2.354   0.793   0.700  0.6424  0.6143  0.4681
  163MPD2    C1 2483   2.375   0.928   0.674  0.2743 -0.4571  0.0108
  163MPD2    C2 2484   2.294   1.023   0.735  0.1091  0.0999 -0.1295
  163MPD2    C3 2485   2.186   0.985   0.814 -0.3645  0.2163  0.7314
  163MPD2    C4 2486   2.172   0.849   0.844  0.8058  0.5098 -0.1192
  163MPD2    C5 2487   2.259   0.763   0.789 -0.7923  0.3524  0.0039
  163MPD2     H 2488   2.301   1.130   0.718  0.2836  0.2700  0.9999
  163MPD2    H1 2489   2.098   0.815   0.914  1.7747  1.0852  1.1819
  163MPD2    H2 2490   2.431   0.726   0.663 -1.1369 -0.8225 -0.6266
  163MPD2    H3 2491   2.253   0.658   0.814 -2.2076  1.3076  3.6521
  163MPD2     N 2492   2.081   1.078   0.865 -0.4306 -0.0474  0.1666
  163MPD2    H5 2493   1.998   1.039   0.909  0.3205 -1.7193  0.1074
  163MPD2    N1 2494   2.486   0.967   0.596  0.4754  0.1306 -0.5394
  163MPD2    H7 2495   2.553   0.893   0.581 -0.8602 -0.8053 -1.8862
  164TCq2    C1 2496   3.017   1.118  11.041  0.0649 -0.6468  0.4835
  164TCq2    O2 2497   3.077   1.127  11.148  0.4648 -0.2930  0.2103
  164TCq2    C2 2498   2.916   1.216  11.001 -0.7586 -0.3661  0.4988
  164TCq2    C3 2499   2.898   1.257  10.871  0.0150  0.0046 -0.0511
  164TCq2    C4 2500   2.796   1.351  10.849  0.0399 -0.0626 -0.3146
  164TCq2    C5 2501   2.726   1.405  10.952 -0.8995 -0.7226 -0.0163
  164TCq2    C6 2502   2.756   1.365  11.077  0.4831  0.5761 -0.7299
  164TCq2    C7 2503   2.850   1.275  11.103  0.2398 -0.4368  0.2992
  164TCq2    C8 2504   2.666   1.391  11.177  0.3880 -0.4121  0.0110
  164TCq2    O4 2505   2.697   1.362  11.291  0.0626 -0.1490  0.0439
  164TCq2    C9 2506   2.771   1.397  10.714  0.1076  0.3495 -0.0427
  164TCq2    O5 2507   2.835   1.348  10.618 -0.7048 -0.6831  0.4013
  164TCq2    O6 2508   2.706   1.507  10.705  0.6714 -0.0043  0.1612
  164TCq2    H2 2509   2.945   1.215  10.783 -3.5647 -1.5283 -1.2563
  164TCq2    H3 2510   2.664   1.494  10.941  1.0324  0.8145  1.6223
  164TCq2    H4 2511   2.866   1.251  11.208  0.8984  0.9635  0.5225
  165MPD2     C 2512   3.643   2.859   1.638 -0.0758 -0.0677  0.6766
  165MPD2    C1 2513   3.709   2.743   1.606 -0.0223 -0.1333  0.2037
  165MPD2    C2 2514   3.845   2.728   1.629  0.7375  0.2896  0.5161
  165MPD2    C3 2515   3.920   2.832   1.689 -0.1533 -0.0889 -0.9107
  165MPD2    C4 2516   3.858   2.953   1.701 -0.0402  0.0015 -0.4099
  165MPD2    C5 2517   3.722   2.961   1.680 -0.2154  0.6277  0.0167
  165MPD2     H 2518   3.901   2.636   1.614  1.3965  0.3521  2.5561
  165MPD2    H1 2519   3.912   3.039   1.740  1.3754 -1.8257  1.6676
  165MPD2    H2 2520   3.536   2.864   1.625 -0.1405 -0.6639  0.9555
  165MPD2    H3 2521   3.690   3.063   1.697 -2.1644  0.1237 -0.5825
  165MPD2     N 2522   4.051   2.814   1.724 -0.2867 -0.5023 -0.1388
  165MPD2    H5 2523   4.105   2.899   1.734  0.8050 -1.4476  1.8814
  165MPD2    N1 2524   3.628   2.633   1.556  0.4937  0.0971 -0.2834
  165MPD2    H7 2525   3.530   2.657   1.544  0.4676 -0.1945 -0.6582
  166TCq2    C1 2526   4.108   2.688   1.753  0.0512  0.5891 -0.4542
  166TCq2    O2 2527   4.061   2.578   1.765  0.1963 -0.5359 -0.4908
  166TCq2    C2 2528   4.245   2.704   1.799  0.4279  0.0456 -0.9407
  166TCq2    C3 2529   4.303   2.619   1.890 -0.0412 -0.1335  0.3763
  166TCq2    C4 2530   4.441   2.606   1.899 -0.4447  0.1262 -0.4806
  166TCq2    C5 2531   4.518   2.695   1.831  0.0412 -0.0497 -0.0522
  166TCq2    C6 2532   4.453   2.797   1.762  0.3263 -0.3603  0.4381
  166TCq2    C7 2533   4.318   2.802   1.745 -0.1545  0.0911 -1.0443
  166TCq2    C8 2534   4.531   2.907   1.715  0.0719  0.7122 -0.5772
  166TCq2    O4 2535   4.647   2.882   1.715  0.1238 -0.2496  0.4429
  166TCq2    C9 2536   4.495   2.501   1.986  0.0177  0.7504  0.0790
  166TCq2    O5 2537   4.414   2.426   2.043  0.0796 -0.3147 -0.6559
  166TCq2    O6 2538   4.615   2.473   1.980 -0.0611 -0.5314  0.4239
  166TCq2    H2 2539   4.240   2.553   1.947 -1.7725  0.1787 -1.1627
  166TCq2    H3 2540   4.625   2.688   1.849  0.1638 -2.5130 -1.7165
  166TCq2    H4 2541   4.270   2.859   1.667 -1.2710  0.0503 -0.3834
  167TMC2    C1 2542   2.019   0.682  12.743 -0.3730 -0.4376 -0.2888
  167TMC2    C2 2543   1.975   0.701  12.870 -0.3479 -0.4185  0.2010
  167TMC2    C3 2544   2.042   0.617  12.955  0.4681 -0.3255  0.6569
  167TMC2    C4 2545   2.107   0.591  12.696 -0.1042 -0.6362 -0.8373
  167TMC2    C5 2546   2.164   0.505  12.788  0.2092  0.2244  0.3754
  167TMC2    C6 2547   2.133   0.522  12.921  0.3689  0.3563  0.0944
  167TMC2     C 2548   1.982   0.790  12.656 -0.0637  0.3373 -0.3283
  167TMC2     O 2549   1.868   0.837  12.660  0.0997 -0.2331 -0.0518
  167TMC2     H 2550   1.920   0.790  12.899  2.1028 -0.1405  3.9054
  167TMC2    H1 2551   2.126   0.579  12.590  2.8008 -1.9916 -0.1836
  167TMC2    H2 2552   2.182   0.462  12.997 -1.8783 -1.2351  0.2992
  167TMC2    C7 2553   2.262   0.405  12.754  0.0256 -0.3118 -0.6679
  167TMC2    C8 2554   2.066   0.678  13.083 -0.6081  0.5624  0.5330
  167TMC2    O1 2555   2.327   0.360  12.847  0.4424  0.1689  0.5500
  167TMC2    O2 2556   2.156   0.633  13.154  0.3609  0.2866 -0.1259
  167TMC2    O5 2557   1.943   0.712  13.130 -0.3253  0.4915 -0.1315
  167TMC2    H5 2558   1.882   0.723  13.054  0.3391 -1.1090 -0.8948
  168MPD2     C 2559   2.000   1.036  12.499  0.4684 -0.2831  0.8654
  168MPD2    C1 2560   2.110   0.968  12.548  0.3327  0.3145  0.3483
  168MPD2    C2 2561   2.238   1.012  12.527 -0.3937 -0.0301  0.0662
  168MPD2    C3 2562   2.261   1.117  12.434  0.4306 -0.6826 -0.0272
  168MPD2    C4 2563   2.148   1.186  12.381 -0.1531  0.2470  0.1439
  168MPD2    C5 2564   2.021   1.145  12.417  0.3390 -0.4089  0.2054
  168MPD2     H 2565   2.315   0.952  12.573  0.2451  1.4067  0.8707
  168MPD2    H1 2566   2.149   1.258  12.301 -0.9157 -0.5111 -0.5502
  168MPD2    H2 2567   1.896   1.011  12.510 -0.6991  3.8350 -0.6991
  168MPD2    H3 2568   1.932   1.203  12.393  1.4871  2.2482  2.3318
  168MPD2     N 2569   2.388   1.168  12.410  0.5416 -0.0892  0.0141
  168MPD2    H5 2570   2.412   1.224  12.328 -1.0757  2.1303  1.0771
  168MPD2    N1 2571   2.097   0.850  12.618 -0.2467  1.0389 -0.1979
  168MPD2    H7 2572   2.186   0.810  12.646  0.1868  0.9977 -1.6101
  169MPD1     C 2573   4.375   1.363   8.877  0.0016 -0.3955  0.1333
  169MPD1    C1 2574   4.491   1.294   8.899  0.2083 -0.2902 -0.2899
  169MPD1    C2 2575   4.471   1.168   8.968 -0.9118 -1.3576  0.3378
  169MPD1    C3 2576   4.344   1.132   9.005 -0.9479 -0.2589 -0.9210
  169MPD1    C4 2577   4.236   1.215   8.986 -0.1460  0.1490  0.7237
  169MPD1    C5 2578   4.249   1.318   8.905  0.8005  0.4113  0.3708
  169MPD1     H 2579   4.555   1.102   8.986  1.0079  1.2389  0.8725
  169MPD1    H1 2580   4.139   1.201   9.034  0.1018  0.3270  1.2701
  169MPD1    H2 2581   4.389   1.458   8.826 -1.7382 -0.1611  0.0952
  169MPD1    H3 2582   4.169   1.390   8.894  1.9230  1.3444 -1.8080
  169MPD1     N 2583   4.340   1.020   9.084 -0.2092 -0.2782  0.2473
  169MPD1    H5 2584   4.426   0.969   9.105 -0.1095 -0.5617 -0.8745
  169MPD1    N1 2585   4.616   1.351   8.882 -0.4334  0.5447 -0.2992
  169MPD1    H6 2586   4.612   1.409   8.798  1.3975  0.0787 -0.7080
  169MPD1    H7 2587   4.678   1.271   8.869 -0.3698  0.3380  1.3475
  170MPD1     C 2588   3.735   3.057  12.497  0.4738 -0.0032  0.4329
  170MPD1    C1 2589   3.617   3.133  12.513 -1.1670  0.2512 -0.4147
  170MPD1    C2 2590   3.577   3.153  12.648 -0.2416  0.2124 -0.4218
  170MPD1    C3 2591   3.634   3.088  12.754 -0.1883  0.7366  0.1190
  170MPD1    C4 2592   3.745   3.007  12.730  0.8057  0.5173 -0.4144
  170MPD1    C5 2593   3.797   2.995  12.604 -0.4731  0.5320 -0.3986
  170MPD1     H 2594   3.492   3.219  12.663 -1.0137 -1.2005  1.3458
  170MPD1    H1 2595   3.800   2.959  12.810 -3.7409 -1.0212  1.8305
  170MPD1    H2 2596   3.781   3.044  12.400  1.0951  1.8636  0.4886
  170MPD1    H3 2597   3.867   2.915  12.580 -2.4044 -1.3278  0.1673
  170MPD1     N 2598   3.581   3.104  12.880 -0.0150 -0.3020  0.1619
  170MPD1    H5 2599   3.522   3.186  12.892 -0.7792 -0.9881  1.1185
  170MPD1    N1 2600   3.573   3.216  12.412  0.6578 -0.1254 -0.2918
  170MPD1    H6 2601   3.583   3.178  12.318  1.8132  0.3717 -0.3713
  170MPD1    H7 2602   3.473   3.223  12.429  0.7137  0.3533 -0.1770
  171MPD1     C 2603   2.124   4.540  15.243 -0.7296 -0.7060 -0.4700
  171MPD1    C1 2604   2.059   4.487  15.133 -0.1108 -0.6412  0.9387
  171MPD1    C2 2605   2.085   4.350  15.107  0.5291  0.1306 -0.4523
  171MPD1    C3 2606   2.184   4.282  15.181  0.1210 -0.9515 -0.7906
  171MPD1    C4 2607   2.251   4.343  15.279  0.5516 -0.1277 -0.0697
  171MPD1    C5 2608   2.223   4.470  15.317 -0.1689 -0.1259 -0.2109
  171MPD1     H 2609   2.028   4.296  15.033  0.1693  0.3069 -0.3054
  171MPD1    H1 2610   2.325   4.286  15.335 -0.8836 -0.5191  1.4365
  171MPD1    H2 2611   2.103   4.642  15.274  0.0431 -0.5080 -0.6080
  171MPD1    H3 2612   2.270   4.516  15.403  3.3477 -0.8874 -1.7259
  171MPD1     N 2613   2.214   4.143  15.159 -0.2064  0.3653  0.8492
  171MPD1    H5 2614   2.297   4.106  15.204 -0.6388 -0.7269  0.7500
  171MPD1    N1 2615   1.960   4.567  15.064 -0.5800  0.4124  0.4970
  171MPD1    H6 2616   1.920   4.529  14.978  0.5711  1.6556 -0.5707
  171MPD1    H7 2617   1.978   4.667  15.061 -0.6837  0.3966 -0.6013
  172MPD1     C 2618   1.248   3.046  17.337  0.0348  0.0502 -1.0098
  172MPD1    C1 2619   1.214   3.163  17.274  0.6017  0.4714  0.5756
  172MPD1    C2 2620   1.196   3.270  17.356  0.0652 -0.1997  0.1683
  172MPD1    C3 2621   1.187   3.255  17.492 -0.5422 -0.2068 -0.6217
  172MPD1    C4 2622   1.204   3.137  17.549  0.4054  0.5645  0.2452
  172MPD1    C5 2623   1.235   3.034  17.473 -0.1357  0.0330  0.4707
  172MPD1     H 2624   1.193   3.368  17.310 -0.5487 -0.1629  0.2870
  172MPD1    H1 2625   1.202   3.116  17.656 -0.5242 -0.9012 -0.0554
  172MPD1    H2 2626   1.263   2.956  17.280  1.4699 -1.6537  2.0741
  172MPD1    H3 2627   1.253   2.936  17.516 -1.1735  1.1615  3.4350
  172MPD1     N 2628   1.161   3.356  17.583  0.2527  0.3611 -0.0373
  172MPD1    H5 2629   1.149   3.324  17.678  0.4475 -1.4291 -0.6160
  172MPD1    N1 2630   1.231   3.170  17.139 -0.0668 -0.1737  0.4591
  172MPD1    H6 2631   1.170   3.242  17.103  2.4161  2.2631  1.0770
  172MPD1    H7 2632   1.223   3.084  17.085 -3.1381  1.4529 -1.6066
  173MPD1     C 2633   2.795   3.226  13.883 -0.3482  0.0600  0.5562
  173MPD1    C1 2634   2.726   3.122  13.824  0.0618 -0.1566 -0.7670
  173MPD1    C2 2635   2.646   3.049  13.907  0.0394 -0.6951  0.0200
  173MPD1    C3 2636   2.600   3.098  14.028  0.3028 -0.3900 -0.0311
  173MPD1    C4 2637   2.660   3.210  14.076  0.3216  0.1671 -1.0597
  173MPD1    C5 2638   2.766   3.268  14.010 -0.1122  0.3276 -0.0734
  173MPD1     H 2639   2.597   2.961  13.867  1.3894 -0.4618 -2.1233
  173MPD1    H1 2640   2.633   3.270  14.163 -2.8505  0.4041 -2.1914
  173MPD1    H2 2641   2.865   3.283  13.822 -1.1069  1.1664  0.7089
  173MPD1    H3 2642   2.815   3.355  14.052  1.4972 -0.7463  0.2662
  173MPD1     N 2643   2.494   3.032  14.106 -0.0111 -0.4175  0.4296
  173MPD1    H5 2644   2.438   2.960  14.062  0.4195 -1.2543  1.2239
  173MPD1    N1 2645   2.767   3.075  13.697 -0.1533  0.1436  0.0490
  173MPD1    H6 2646   2.800   3.155  13.643  1.7605  0.0891  1.1497
  173MPD1    H7 2647   2.704   3.019  13.640  1.8373 -0.5032 -1.5023
  174MPD1     C 2648   1.933   2.486  13.782  0.0918  0.1375 -0.0207
  174MPD1    C1 2649   2.010   2.441  13.884  0.4599 -0.5395 -0.6320
  174MPD1    C2 2650   2.077   2.540  13.959  0.6832 -0.4808 -0.0681
  174MPD1    C3 2651   2.043   2.673  13.948  0.1329  0.3651 -0.0698
  174MPD1    C4 2652   1.961   2.709  13.844 -0.0064  0.4922 -0.8940
  174MPD1    C5 2653   1.910   2.616  13.763 -0.3412 -0.0845  0.2297
  174MPD1     H 2654   2.149   2.517  14.037  1.0103  0.0411 -0.2159
  174MPD1    H1 2655   1.931   2.810  13.817  0.7005  0.9503  0.0476
  174MPD1    H2 2656   1.883   2.411  13.723  0.2605 -0.2496  0.3360
  174MPD1    H3 2657   1.842   2.647  13.684  0.8572  1.1538 -0.3080
  174MPD1     N 2658   2.091   2.769  14.038 -0.1037 -0.5717  0.0302
  174MPD1    H5 2659   2.080   2.867  14.014  0.2382 -0.1319  1.6112
  174MPD1    N1 2660   2.032   2.305  13.905  0.0320 -0.5386 -0.7242
  174MPD1    H6 2661   2.057   2.279  14.000  1.6759  3.2811 -0.1039
  174MPD1    H7 2662   1.968   2.244  13.854  0.5271  1.5569 -3.8915
  175MPD1     C 2663   0.646   3.934  15.004  0.0206  0.2588  0.2945
  175MPD1    C1 2664   0.728   3.844  15.074 -0.7060 -0.5887 -0.0532
  175MPD1    C2 2665   0.739   3.874  15.217 -0.3366  0.1586 -0.4222
  175MPD1    C3 2666   0.689   3.999  15.264  0.3540 -0.7153 -0.2186
  175MPD1    C4 2667   0.609   4.077  15.186 -0.3249 -0.5633  0.3862
  175MPD1    C5 2668   0.578   4.036  15.060 -0.1548 -1.0983 -1.2811
  175MPD1     H 2669   0.800   3.802  15.271 -0.3898  0.9984  0.7653
  175MPD1    H1 2670   0.564   4.166  15.227  1.6512  0.7334 -0.3073
  175MPD1    H2 2671   0.637   3.921  14.897  0.2348  0.0364  0.3029
  175MPD1    H3 2672   0.521   4.101  14.995  0.2441 -0.7873 -1.3221
  175MPD1     N 2673   0.717   4.045  15.394 -0.3694 -0.4226 -0.7360
  175MPD1    H5 2674   0.689   4.140  15.418  0.8364 -0.1836 -0.2430
  175MPD1    N1 2675   0.785   3.731  15.016 -0.1641  0.3812 -0.3802
  175MPD1    H6 2676   0.812   3.743  14.919 -0.4413  0.2064 -0.4776
  175MPD1    H7 2677   0.866   3.699  15.069  0.9930  0.0729 -2.3251
  176MPD1     C 2678   2.256   1.196  16.612 -0.0758 -0.1604  0.4889
  176MPD1    C1 2679   2.318   1.187  16.738  0.0306 -0.5606 -0.4568
  176MPD1    C2 2680   2.339   1.307  16.810 -0.5087 -0.3684  0.1946
  176MPD1    C3 2681   2.297   1.428  16.757 -0.0100  0.3703  0.9563
  176MPD1    C4 2682   2.233   1.427  16.630 -0.6855 -0.4556  1.2304
  176MPD1    C5 2683   2.223   1.315  16.557  0.0114 -0.5733 -0.0430
  176MPD1     H 2684   2.392   1.317  16.905  0.3121 -1.4766 -0.1361
  176MPD1    H1 2685   2.201   1.519  16.582  0.8422 -0.7150 -0.2663
  176MPD1    H2 2686   2.232   1.113  16.546 -2.3239  0.6803  0.2569
  176MPD1    H3 2687   2.173   1.306  16.461  0.1584  2.6618 -0.4413
  176MPD1     N 2688   2.325   1.540  16.837  0.6253 -0.0732 -0.5402
  176MPD1    H5 2689   2.376   1.529  16.924  1.9690 -1.7213 -1.5361
  176MPD1    N1 2690   2.390   1.071  16.777 -0.0343  0.0668 -0.2463
  176MPD1    H6 2691   2.356   0.988  16.728  1.5571 -0.5274 -0.3459
  176MPD1    H7 2692   2.408   1.055  16.875 -0.9476  1.7653  0.1981
  177MPD1     C 2693   1.066   2.201   9.615  0.1223  0.8309 -0.0015
  177MPD1    C1 2694   1.058   2.129   9.499  0.1243  0.4993 -0.2255
  177MPD1    C2 2695   0.956   2.163   9.412 -0.3569 -0.1858  0.4234
  177MPD1    C3 2696   0.869   2.266   9.447 -0.6118  0.7513  0.4908
  177MPD1    C4 2697   0.893   2.345   9.556  0.0608  0.1743 -0.4627
  177MPD1    C5 2698   0.990   2.307   9.643 -0.3642  0.0971  0.5708
  177MPD1     H 2699   0.943   2.107   9.320  0.0096 -0.2152  0.3888
  177MPD1    H1 2700   0.840   2.432   9.593  0.7856  0.3255  0.2156
  177MPD1    H2 2701   1.146   2.172   9.681 -1.2070 -2.3717  0.2216
  177MPD1    H3 2702   1.003   2.369   9.731 -2.1395 -1.5527  1.9644
  177MPD1     N 2703   0.760   2.281   9.369  0.1265  0.3082 -0.1588
  177MPD1    H5 2704   0.747   2.207   9.300  0.9336  0.5321 -0.5505
  177MPD1    N1 2705   1.130   2.015   9.486  0.3541 -0.3814  0.0375
  177MPD1    H6 2706   1.219   2.019   9.537 -0.2054  0.4630  0.9356
  177MPD1    H7 2707   1.149   2.009   9.386 -2.2326 -1.0370 -0.4088
  178MPD1     C 2708   3.461   2.070   0.234  0.2966 -0.4585  0.1022
  178MPD1    C1 2709   3.376   1.999   0.159 -0.8968 -0.3740  1.0456
  178MPD1    C2 2710   3.388   2.016   0.020 -0.1185 -0.0013 -0.4100
  178MPD1    C3 2711   3.482   2.104  17.664 -0.4255 -0.5189 -0.0689
  178MPD1    C4 2712   3.576   2.160   0.046  0.2156  0.2989 -0.0347
  178MPD1    C5 2713   3.565   2.143   0.180  0.1568 -0.9412 -0.4790
  178MPD1     H 2714   3.325   1.954  17.656 -1.0845 -0.2434  0.7891
  178MPD1    H1 2715   3.652   2.225   0.004 -0.2844  0.7716 -0.2207
  178MPD1    H2 2716   3.436   2.072   0.339 -1.2714 -1.3319 -0.2436
  178MPD1    H3 2717   3.629   2.203   0.244  0.0233  0.7729 -1.9366
  178MPD1     N 2718   3.504   2.114  17.524 -0.2018  0.8523 -0.2849
  178MPD1    H5 2719   3.589   2.161  17.493 -1.7999  3.9107 -0.0530
  178MPD1    N1 2720   3.263   1.928   0.209  0.0251  0.4822  0.2151
  178MPD1    H6 2721   3.241   1.852   0.145  0.3445  0.2406  0.3914
  178MPD1    H7 2722   3.288   1.888   0.299 -0.6577  1.2094  0.7242
  179MPD1     C 2723   3.326   4.657  16.489 -0.3477 -0.4012 -0.5748
  179MPD1    C1 2724   3.349   4.544  16.415 -1.1709  0.5488  0.1326
  179MPD1    C2 2725   3.336   4.551  16.278 -0.0861 -0.8164  0.2841
  179MPD1    C3 2726   3.271   4.665  16.227  0.1871  0.4410  0.2984
  179MPD1    C4 2727   3.226   0.044  16.306 -0.1047 -0.2772  0.8942
  179MPD1    C5 2728   3.271   0.042  16.434 -0.6058  0.1319  0.2111
  179MPD1     H 2729   3.371   4.464  16.223  1.0016  0.6975 -1.4430
  179MPD1    H1 2730   3.172   0.134  16.281  0.9572  0.0404 -0.2496
  179MPD1    H2 2731   3.343   4.661  16.596  1.3698 -1.6564 -0.8187
  179MPD1    H3 2732   3.254   0.129  16.496 -1.3999 -0.7226  1.1865
  179MPD1     N 2733   3.233   4.670  16.091  0.1569  0.1046 -0.3738
  179MPD1    H5 2734   3.190   0.034  16.065 -2.0805 -0.5522  1.1517
  179MPD1    N1 2735   3.395   4.428  16.477 -0.4015  0.6377  0.3796
  179MPD1    H6 2736   3.355   4.348  16.430  0.9201  0.3090 -0.2014
  179MPD1    H7 2737   3.359   4.440  16.572  0.7603 -0.5150  0.9717
  180MPD1     C 2738   3.397   2.101  15.144  0.1983  0.4076 -0.0797
  180MPD1    C1 2739   3.280   2.145  15.088 -0.1289 -0.4030 -0.1160
  180MPD1    C2 2740   3.210   2.061  15.003 -0.1263 -0.5508 -0.1044
  180MPD1    C3 2741   3.266   1.942  14.964  0.3467 -0.5330  0.7558
  180MPD1    C4 2742   3.386   1.908  15.019 -0.4396 -0.7835 -0.1065
  180MPD1    C5 2743   3.451   1.986  15.107 -0.4122 -0.4701 -0.1971
  180MPD1     H 2744   3.116   2.106  14.971  0.5308  1.8686  1.3449
  180MPD1    H1 2745   3.423   1.808  15.003 -1.6685 -1.3299  0.4714
  180MPD1    H2 2746   3.450   2.162  15.217  0.2142  0.5266 -0.1918
  180MPD1    H3 2747   3.545   1.961  15.154 -0.2849  1.5454  0.6195
  180MPD1     N 2748   3.186   1.864  14.876 -0.5181 -0.2439 -0.0876
  180MPD1    H5 2749   3.102   1.897  14.829 -1.2589 -0.6413  0.9571
  180MPD1    N1 2750   3.233   2.271  15.127 -1.0738  0.2398 -0.1901
  180MPD1    H6 2751   3.287   2.329  15.190  0.0855 -1.1109  0.0612
  180MPD1    H7 2752   3.132   2.260  15.136 -0.9949 -0.4028 -0.1199
  181MPD1     C 2753   3.617   3.822   9.903 -0.5981  0.2086  0.6783
  181MPD1    C1 2754   3.670   3.937   9.860  0.0132  0.3650 -0.1166
  181MPD1    C2 2755   3.781   3.992   9.932 -0.2602 -0.0931  0.3848
  181MPD1    C3 2756   3.839   3.919  10.036  0.1323  0.1697 -0.2448
  181MPD1    C4 2757   3.791   3.798  10.075  0.2827 -0.2128  0.9375
  181MPD1    C5 2758   3.680   3.755  10.003 -0.1929  0.1310 -0.2744
  181MPD1     H 2759   3.823   4.086   9.898 -1.9250  0.2907 -0.6124
  181MPD1    H1 2760   3.834   3.728  10.146  1.1291 -0.3441  0.2860
  181MPD1    H2 2761   3.534   3.774   9.852 -0.8481  0.0401  1.2461
  181MPD1    H3 2762   3.639   3.659  10.032  0.0313  0.4525  1.1065
  181MPD1     N 2763   3.956   3.957  10.101  0.6218  0.8586  0.0806
  181MPD1    H5 2764   4.006   3.881  10.146  1.4900  1.4703  0.1471
  181MPD1    N1 2765   3.624   3.993   9.736 -0.4042  0.1464  0.3095
  181MPD1    H6 2766   3.651   4.090   9.727  1.4326 -0.6636 -3.0968
  181MPD1    H7 2767   3.523   4.000   9.746 -0.2278  2.2792  0.4465
  182MPD1     C 2768   1.251   2.183   1.221  0.0759 -0.6042  0.3794
  182MPD1    C1 2769   1.256   2.142   1.092 -0.7579 -0.6180 -0.2621
  182MPD1    C2 2770   1.153   2.177   1.006 -0.5949 -0.8940 -0.9383
  182MPD1    C3 2771   1.044   2.247   1.055 -0.0421 -0.2044 -0.4189
  182MPD1    C4 2772   1.052   2.298   1.182  0.1898 -0.9001  0.0206
  182MPD1    C5 2773   1.150   2.260   1.266 -0.1773  0.0687 -0.0405
  182MPD1     H 2774   1.167   2.152   0.902 -1.5356  0.4441 -1.3826
  182MPD1    H1 2775   0.967   2.354   1.219  0.5519  0.1220 -0.6839
  182MPD1    H2 2776   1.332   2.159   1.290  0.5932  0.8751  0.3002
  182MPD1    H3 2777   1.147   2.292   1.370 -0.2807 -1.0536  0.2978
  182MPD1     N 2778   0.933   2.275   0.978 -0.1744 -0.2378 -0.4950
  182MPD1    H5 2779   0.865   2.343   1.010  1.8018  0.7324  1.5775
  182MPD1    N1 2780   1.354   2.056   1.053 -0.2135 -0.0747  0.0256
  182MPD1    H6 2781   1.382   2.065   0.955 -1.1826  0.3692 -0.2029
  182MPD1    H7 2782   1.442   2.083   1.097 -0.4856  0.0714  0.4704
  183MPD1     C 2783   1.706   3.622   9.808 -0.3785  0.3333  0.1655
  183MPD1    C1 2784   1.610   3.522   9.816  0.3670 -0.1856  0.1492
  183MPD1    C2 2785   1.486   3.544   9.771  0.4643 -0.2391 -0.2762
  183MPD1    C3 2786   1.455   3.669   9.721 -0.6034  0.0288  0.3588
  183MPD1    C4 2787   1.552   3.765   9.701 -0.5545  0.1630  1.0062
  183MPD1    C5 2788   1.675   3.739   9.743  0.2752  0.3956 -0.4453
  183MPD1     H 2789   1.404   3.474   9.769  0.5482 -0.2876 -2.3538
  183MPD1    H1 2790   1.546   3.869   9.670  1.0130 -0.4094 -1.1936
  183MPD1    H2 2791   1.811   3.600   9.823 -0.6054 -0.1917  0.9952
  183MPD1    H3 2792   1.750   3.813   9.720 -0.0128  0.4691 -1.1604
  183MPD1     N 2793   1.322   3.698   9.694 -0.3905  0.4571  0.1825
  183MPD1    H5 2794   1.250   3.627   9.703  1.4459 -1.0519  2.7788
  183MPD1    N1 2795   1.650   3.397   9.858 -0.0398 -0.0196  0.0655
  183MPD1    H6 2796   1.745   3.394   9.894 -0.3985 -2.9104  0.7558
  183MPD1    H7 2797   1.582   3.361   9.925 -0.5336  0.6684 -0.0579
  184MPD1     C 2798   3.985   1.121   9.792 -0.2289 -0.2859  0.6009
  184MPD1    C1 2799   4.105   1.115   9.863 -0.1838 -0.0532  0.8310
  184MPD1    C2 2800   4.202   1.209   9.825 -0.2473 -0.0548  0.3520
  184MPD1    C3 2801   4.165   1.315   9.745  0.1263  0.5384  0.0339
  184MPD1    C4 2802   4.043   1.326   9.684  0.6629 -0.8767  0.3826
  184MPD1    C5 2803   3.953   1.224   9.708  0.1854  0.1157 -1.1729
  184MPD1     H 2804   4.298   1.201   9.874 -0.0733  1.1090  0.1969
  184MPD1    H1 2805   4.011   1.407   9.620 -2.7219 -2.0099  0.6690
  184MPD1    H2 2806   3.905   1.048   9.793 -0.0217 -0.5101  0.6719
  184MPD1    H3 2807   3.854   1.225   9.664 -0.5015  1.4167  0.4264
  184MPD1     N 2808   4.254   1.421   9.718 -0.1183 -0.3302  0.0696
  184MPD1    H5 2809   4.212   1.501   9.673  0.7860  0.8012  1.2704
  184MPD1    N1 2810   4.142   1.003   9.939  0.0241 -0.1049  0.6191
  184MPD1    H6 2811   4.069   0.951   9.988  0.0324  0.0110  0.7555
  184MPD1    H7 2812   4.215   1.027  10.006  1.3603 -0.8634 -0.5639
  185MPD1     C 2813   4.350   2.131   9.050  0.4879 -0.6943  0.6618
  185MPD1    C1 2814   4.265   2.100   9.155  0.4867 -0.5674  0.4164
  185MPD1    C2 2815   4.298   1.998   9.243  0.4235  0.3070 -0.1770
  185MPD1    C3 2816   4.414   1.926   9.223  0.5934 -0.9374 -0.2246
  185MPD1    C4 2817   4.504   1.952   9.120 -0.6184 -0.7741  0.6205
  185MPD1    C5 2818   4.459   2.045   9.031 -0.1320 -0.1092  0.3587
  185MPD1     H 2819   4.226   1.974   9.321  0.5369  0.7949  0.0748
  185MPD1    H1 2820   4.587   1.890   9.088  0.1069  0.7748 -0.5445
  185MPD1    H2 2821   4.333   2.204   8.973 -2.1781 -0.7742  1.1857
  185MPD1    H3 2822   4.525   2.061   8.946 -0.2626  0.0229  0.2817
  185MPD1     N 2823   4.448   1.818   9.311  0.3514 -0.2411 -0.0677
  185MPD1    H5 2824   4.533   1.764   9.303  0.9198  1.0136 -2.4240
  185MPD1    N1 2825   4.137   2.165   9.153  0.3931 -0.4868  0.1519
  185MPD1    H6 2826   4.109   2.191   9.248  1.0560 -0.0817  0.2312
  185MPD1    H7 2827   4.150   2.251   9.101 -1.5458  0.1974  0.7741
  186MPD1     C 2828   2.488   1.070  15.813  0.3401  0.6768  0.2196
  186MPD1    C1 2829   2.580   1.007  15.733  0.2425  0.3513  0.3040
  186MPD1    C2 2830   2.704   0.979  15.792  0.1951  0.2781 -0.1144
  186MPD1    C3 2831   2.753   1.037  15.910  0.1974  0.0328 -0.7513
  186MPD1    C4 2832   2.660   1.106  15.984  0.4594  0.8093 -0.1690
  186MPD1    C5 2833   2.529   1.119  15.939  0.4665 -1.0552  0.4334
  186MPD1     H 2834   2.766   0.907  15.739  1.4914  1.2103  0.1245
  186MPD1    H1 2835   2.688   1.137  16.084  1.0515  0.2316 -0.1534
  186MPD1    H2 2836   2.383   1.085  15.789  0.3880 -2.8419 -2.1053
  186MPD1    H3 2837   2.449   1.152  16.005  1.0862 -1.9576  1.6373
  186MPD1     N 2838   2.876   1.009  15.975  0.4640  0.8337 -0.6575
  186MPD1    H5 2839   2.886   1.034  16.073 -0.3813 -1.8355  0.1101
  186MPD1    N1 2840   2.535   0.950  15.615  0.0601  0.8045 -0.2257
  186MPD1    H6 2841   2.481   1.020  15.564 -2.4319 -0.5102  0.6194
  186MPD1    H7 2842   2.600   0.913  15.546  2.0509 -0.8959  2.5413
  187MPD1     C 2843   2.908   2.525  17.674  0.3612  0.4736  0.4282
  187MPD1    C1 2844   2.781   2.475  17.648  0.7008 -0.3590  0.4289
  187MPD1    C2 2845   2.720   2.509  17.535  0.0363 -0.4385  0.4957
  187MPD1    C3 2846   2.770   2.611  17.461 -0.1046  0.1016  0.1047
  187MPD1    C4 2847   2.892   2.674  17.492  0.1335  0.0026 -0.2248
  187MPD1    C5 2848   2.955   2.632  17.604 -0.7390 -0.2503  0.4064
  187MPD1     H 2849   2.629   2.456  17.511 -0.2312  0.3732 -0.3106
  187MPD1    H1 2850   2.928   2.756  17.431 -0.4666  1.0579  0.8237
  187MPD1    H2 2851   2.952   2.506   0.072 -2.3028 -0.4113  1.4450
  187MPD1    H3 2852   3.040   2.684  17.647 -0.8940 -0.1922  0.6418
  187MPD1     N 2853   2.714   2.649  17.338 -0.4080  0.2114 -0.5722
  187MPD1    H5 2854   2.762   2.727  17.295 -1.6936 -0.1435 -2.6341
  187MPD1    N1 2855   2.724   2.374   0.029  0.5625  0.2345 -0.2522
  187MPD1    H6 2856   2.625   2.390   0.043  0.4402 -0.3893 -0.4110
  187MPD1    H7 2857   2.767   2.354   0.119  2.0123 -0.2872 -1.0602
  188MPD1     C 2858   1.944   2.707  10.091 -0.2812  0.3314 -0.7329
  188MPD1    C1 2859   2.068   2.665  10.059  0.1615  0.2049  0.2433
  188MPD1    C2 2860   2.087   2.538  10.020  0.4469  0.1289  0.2310
  188MPD1    C3 2861   1.982   2.450   9.998  0.0404 -0.8672  0.5584
  188MPD1    C4 2862   1.855   2.498  10.006 -1.1533  0.8997  0.0028
  188MPD1    C5 2863   1.839   2.619  10.073  0.6807  0.4870 -0.0988
  188MPD1     H 2864   2.189   2.501  10.008 -0.7438 -2.2143 -2.6623
  188MPD1    H1 2865   1.767   2.436   9.992 -2.2592  2.8176 -1.5207
  188MPD1    H2 2866   1.919   2.808  10.120 -0.7325 -0.3925  1.4309
  188MPD1    H3 2867   1.738   2.657  10.085  0.3454 -0.6653  0.8116
  188MPD1     N 2868   2.001   2.310   9.965  0.6977 -0.0846 -0.0083
  188MPD1    H5 2869   1.920   2.249   9.958 -0.1738  0.8061  2.3191
  188MPD1    N1 2870   2.166   2.762  10.058  0.0229  0.4882 -0.0726
  188MPD1    H6 2871   2.254   2.718  10.083  0.7030  1.8532 -0.0412
  188MPD1    H7 2872   2.148   2.845  10.115  0.9404 -0.3636  1.4328
  189MPD1     C 2873   4.226   2.607   0.463  0.2253  0.4373  0.9192
  189MPD1    C1 2874   4.129   2.664   0.385 -0.2137 -0.5066  0.6005
  189MPD1    C2 2875   4.164   2.744   0.281 -0.2735  0.1322 -0.9634
  189MPD1    C3 2876   4.300   2.769   0.255  0.1197  0.5391 -0.4115
  189MPD1    C4 2877   4.396   2.715   0.336  0.3959 -0.5033 -0.2511
  189MPD1    C5 2878   4.355   2.638   0.448  0.2914 -0.2606  0.3363
  189MPD1     H 2879   4.098   2.797   0.213  0.1708  0.2904 -1.2669
  189MPD1    H1 2880   4.501   2.739   0.325  0.9440 -2.3428  0.8965
  189MPD1    H2 2881   4.199   2.542   0.545 -4.6291  3.3390  1.6057
  189MPD1    H3 2882   4.427   2.598   0.518  1.6494 -0.2477 -1.0387
  189MPD1     N 2883   4.327   2.855   0.145 -0.0640  0.1328 -0.5435
  189MPD1    H5 2884   4.247   2.899   0.100  0.8371 -0.0124 -2.2588
  189MPD1    N1 2885   3.990   2.646   0.419 -0.3903 -0.3748  0.6149
  189MPD1    H6 2886   3.962   2.648   0.517 -0.0990  4.0579  0.6086
  189MPD1    H7 2887   3.925   2.703   0.364 -0.8077  0.6232  2.1403
  190MPD1     C 2888   2.791   2.151  15.157 -0.2076 -0.2956 -0.3042
  190MPD1    C1 2889   2.904   2.185  15.224  0.5126 -0.4988  0.4316
  190MPD1    C2 2890   2.995   2.090  15.252  0.0535 -0.0174  0.7459
  190MPD1    C3 2891   2.983   1.961  15.214  0.6417  0.1189  0.3923
  190MPD1    C4 2892   2.868   1.922  15.145 -0.7629  0.5922  0.6456
  190MPD1    C5 2893   2.772   2.023  15.128  0.1428 -0.3471  0.5301
  190MPD1     H 2894   3.085   2.113  15.308  0.2619  0.5060  0.1853
  190MPD1    H1 2895   2.838   1.824  15.111  0.3029 -0.1812  1.9488
  190MPD1    H2 2896   2.720   2.228  15.129  1.1246 -0.3955 -3.8525
  190MPD1    H3 2897   2.675   1.995  15.088  1.0455 -2.2203 -0.3340
  190MPD1     N 2898   3.083   1.864  15.248  0.3616 -0.4971 -0.0947
  190MPD1    H5 2899   3.169   1.899  15.287  0.7594 -0.6361 -0.8400
  190MPD1    N1 2900   2.937   2.316  15.232 -0.0143 -0.1970 -0.3515
  190MPD1    H6 2901   2.858   2.369  15.268  0.0538  0.6749 -1.4863
  190MPD1    H7 2902   3.000   2.328  15.312 -0.7365 -1.5883  0.4237
  191MPD1     C 2903   2.617   3.270  12.745  0.0488 -1.0528  0.4276
  191MPD1    C1 2904   2.687   3.377  12.716  0.1116 -0.0424  0.2092
  191MPD1    C2 2905   2.613   3.485  12.668 -0.7760 -0.2750 -0.6293
  191MPD1    C3 2906   2.477   3.477  12.654 -0.0757 -0.5007  0.4800
  191MPD1    C4 2907   2.407   3.369  12.694  0.3064 -0.8592  0.5774
  191MPD1    C5 2908   2.482   3.263  12.741 -0.0305  0.2490 -0.5081
  191MPD1     H 2909   2.659   3.570  12.619 -2.0501  0.6651 -0.1906
  191MPD1    H1 2910   2.300   3.358  12.681 -0.0696  0.2480  2.7335
  191MPD1    H2 2911   2.667   3.178  12.773  0.6440 -0.4417  1.3381
  191MPD1    H3 2912   2.433   3.170  12.767 -0.8186  0.4464 -1.2637
  191MPD1     N 2913   2.418   3.588  12.583 -0.2126  0.3419  0.7244
  191MPD1    H5 2914   2.486   3.654  12.547  0.7740 -0.3375  1.3125
  191MPD1    N1 2915   2.826   3.363  12.703  0.4908  0.2865 -0.8619
  191MPD1    H6 2916   2.878   3.450  12.696  0.8938  0.0957 -0.2273
  191MPD1    H7 2917   2.866   3.306  12.778 -0.5657 -0.6265 -0.9936
  192MPD1     C 2918   1.550   4.188  12.202  0.2852  0.3229  0.0377
  192MPD1    C1 2919   1.594   4.150  12.326  0.3839  0.1432 -0.1067
  192MPD1    C2 2920   1.702   4.060  12.340  0.2844 -0.1558 -0.5664
  192MPD1    C3 2921   1.785   4.032  12.232 -0.1330  0.1505 -0.8417
  192MPD1    C4 2922   1.743   4.067  12.105 -0.0919 -0.0645 -0.3647
  192MPD1    C5 2923   1.627   4.147  12.092  0.0139  0.0107 -0.1797
  192MPD1     H 2924   1.716   4.030  12.443  2.8968 -2.8142 -1.6754
  192MPD1    H1 2925   1.800   4.044  12.016 -1.4796  0.2368 -1.3429
  192MPD1    H2 2926   1.469   4.258  12.188  0.0538  0.5165  2.3590
  192MPD1    H3 2927   1.610   4.177  11.990  1.6392  0.4217 -0.3303
  192MPD1     N 2928   1.899   3.948  12.239 -0.4570 -0.3404 -0.4257
  192MPD1    H5 2929   1.961   3.956  12.158 -0.3767  0.4138 -0.2941
  192MPD1    N1 2930   1.512   4.192  12.439 -0.6093  0.1888 -0.6780
  192MPD1    H6 2931   1.501   4.293  12.440  1.9529  0.5035 -2.6543
  192MPD1    H7 2932   1.552   4.178  12.532  1.4649 -0.2652 -1.6375
  193MPD1     C 2933   1.904   3.871  15.913  0.0547  0.8578 -0.0864
  193MPD1    C1 2934   1.893   3.946  16.033  0.0790 -0.1429  0.3714
  193MPD1    C2 2935   1.962   3.909  16.144  0.4140 -0.0871 -0.3884
  193MPD1    C3 2936   2.050   3.807  16.134  1.0619 -0.4203 -0.6808
  193MPD1    C4 2937   2.064   3.736  16.019  0.5044  0.3980 -0.9986
  193MPD1    C5 2938   1.978   3.759  15.913 -0.1897 -0.8653  1.0502
  193MPD1     H 2939   1.945   3.975  16.228 -0.6455 -0.9679  0.0900
  193MPD1    H1 2940   2.124   3.648  15.999 -2.6472 -1.2902 -3.0475
  193MPD1    H2 2941   1.855   3.899  15.820  2.5313  0.8805 -1.3730
  193MPD1    H3 2942   1.981   3.692  15.828  1.3573 -0.9828  1.1834
  193MPD1     N 2943   2.129   3.765  16.247  0.1512 -0.3770 -0.0611
  193MPD1    H5 2944   2.192   3.685  16.246  0.8081  0.1068  1.9079
  193MPD1    N1 2945   1.791   4.037  16.050 -0.1778 -0.0634  0.1819
  193MPD1    H6 2946   1.768   4.088  15.965  0.8659 -3.4497 -2.1174
  193MPD1    H7 2947   1.806   4.105  16.125 -0.0187 -0.8291  0.8491
  194MPD1     C 2948   4.370   1.607  16.413  0.7002 -0.9264  0.3093
  194MPD1    C1 2949   4.344   1.582  16.546 -0.6937 -0.4457  0.2387
  194MPD1    C2 2950   4.430   1.503  16.615 -0.0888  0.4845 -0.5809
  194MPD1    C3 2951   4.533   1.434  16.548 -0.5368  0.4602 -0.3363
  194MPD1    C4 2952   4.555   1.462  16.419 -0.2619 -0.4705  0.9507
  194MPD1    C5 2953   4.477   1.546  16.349 -0.2411  1.1006  0.0806
  194MPD1     H 2954   4.414   1.480  16.720 -2.7212 -2.5887 -1.6319
  194MPD1    H1 2955   4.628   1.403  16.365  0.3315  0.2370  0.9878
  194MPD1    H2 2956   4.318   1.682  16.355  0.2022 -0.9832  0.6876
  194MPD1    H3 2957   4.497   1.554  16.243 -0.8833  1.8365  0.0156
  194MPD1     N 2958   4.610   1.325  16.604 -0.0944  1.0764  0.1833
  194MPD1    H5 2959   4.692   1.288  16.556 -0.0400  1.9721 -0.4226
  194MPD1    N1 2960   4.235   1.642  16.613  0.2246 -0.0561 -0.6831
  194MPD1    H6 2961   4.161   1.584  16.651 -0.7014  0.6263 -1.4516
  194MPD1    H7 2962   4.183   1.709  16.556  1.9043  1.7333 -0.1157
  195MPD1     C 2963   1.868   3.449   0.140 -0.1306 -0.1183 -0.7693
  195MPD1    C1 2964   1.807   3.348   0.209 -0.4335 -0.0902  0.7577
  195MPD1    C2 2965   1.852   3.218   0.179 -0.0054  0.3926 -0.5881
  195MPD1    C3 2966   1.909   3.190   0.052  0.0478  0.1261  0.7065
  195MPD1    C4 2967   1.951   3.298  17.673 -0.2314 -0.6169 -0.4265
  195MPD1    C5 2968   1.936   3.423   0.026 -0.1847  0.1183 -0.1737
  195MPD1     H 2969   1.817   3.135   0.240  1.6947 -0.4048 -0.7233
  195MPD1    H1 2970   2.020   3.284  17.591 -0.8655 -3.9238 -0.4052
  195MPD1    H2 2971   1.871   3.551   0.176 -0.0415 -0.2593 -0.3625
  195MPD1    H3 2972   1.976   3.511  17.677  0.8647 -0.8547 -1.1000
  195MPD1     N 2973   1.941   3.058   0.004 -0.9444  0.2037 -0.5952
  195MPD1    H5 2974   1.987   3.044  17.614 -0.6515 -2.7806  0.0231
  195MPD1    N1 2975   1.745   3.381   0.333 -0.0621  0.1124 -0.6929
  195MPD1    H6 2976   1.666   3.319   0.350 -1.0131  1.5516  0.0391
  195MPD1    H7 2977   1.719   3.479   0.339  0.5053  0.3423 -2.0664
  196MPD1     C 2978   1.139   1.648   0.655  0.7632 -0.1652  0.4058
  196MPD1    C1 2979   1.143   1.775   0.706  0.0041 -0.1740  0.6028
  196MPD1    C2 2980   1.249   1.858   0.695  0.0718 -0.8932  0.0570
  196MPD1    C3 2981   1.363   1.825   0.624  0.0885 -0.4275  0.4479
  196MPD1    C4 2982   1.356   1.699   0.565  0.1169 -0.3506 -0.0222
  196MPD1    C5 2983   1.249   1.612   0.583 -0.4084 -0.4675 -0.1359
  196MPD1     H 2984   1.240   1.954   0.744  0.8936 -1.1990  0.8025
  196MPD1    H1 2985   1.446   1.675   0.511 -1.2006 -0.7797 -2.0278
  196MPD1    H2 2986   1.058   1.577   0.672 -0.0115  0.5741 -0.1962
  196MPD1    H3 2987   1.251   1.511   0.543 -1.5768 -0.6938  0.3905
  196MPD1     N 2988   1.483   1.904   0.619  0.0565 -0.5826 -0.3494
  196MPD1    H5 2989   1.554   1.852   0.569  1.7167  1.8224 -0.5165
  196MPD1    N1 2990   1.046   1.816   0.802  0.2295 -0.0625  0.4363
  196MPD1    H6 2991   1.027   1.915   0.818  0.9078  0.2711 -0.8246
  196MPD1    H7 2992   0.958   1.765   0.808 -0.2321  0.7544  0.5984
  197MPD1     C 2993   0.651   0.219  17.468 -0.3462  0.0364 -0.6460
  197MPD1    C1 2994   0.663   0.331  17.391  1.0765  0.5667 -0.2382
  197MPD1    C2 2995   0.702   0.328  17.258 -0.0941  0.5815  0.3796
  197MPD1    C3 2996   0.733   0.203  17.209 -0.0037 -0.4040  0.2931
  197MPD1    C4 2997   0.741   0.096  17.298 -0.1968 -0.3599 -0.0711
  197MPD1    C5 2998   0.702   0.102  17.431  0.1379 -0.6277 -0.0028
  197MPD1     H 2999   0.711   0.418  17.198 -0.9661  0.0594 -0.5620
  197MPD1    H1 3000   0.782   0.001  17.268  0.3550 -0.3889  0.7370
  197MPD1    H2 3001   0.618   0.234  17.570 -1.1904 -0.1944 -0.8858
  197MPD1    H3 3002   0.690   0.009  17.485  1.0510 -1.0266 -0.4917
  197MPD1     N 3003   0.761   0.176  17.078 -0.0868 -0.6468  0.2935
  197MPD1    H5 3004   0.755   0.078  17.054  1.2044 -0.8121  0.6428
  197MPD1    N1 3005   0.608   0.445  17.443  0.1933  0.6308 -0.5524
  197MPD1    H6 3006   0.599   0.446  17.545  0.6472  1.5387 -0.5215
  197MPD1    H7 3007   0.646   0.530  17.402  1.7992  0.9768  1.6328
  198MPD1     C 3008   3.014   2.699  15.726 -0.0365  0.9222  0.5892
  198MPD1    C1 3009   3.139   2.656  15.688  0.5279  0.0917  0.5210
  198MPD1    C2 3010   3.240   2.694  15.767  0.9807  0.3291  0.1808
  198MPD1    C3 3011   3.211   2.751  15.889  0.4861 -0.2147  0.2756
  198MPD1    C4 3012   3.085   2.787  15.926 -0.4921  0.2269 -0.5524
  198MPD1    C5 3013   2.982   2.748  15.850  0.0064  0.0123 -0.2048
  198MPD1     H 3014   3.342   2.676  15.738  1.0027 -0.3707  0.6993
  198MPD1    H1 3015   3.063   2.838  16.019 -1.9777 -0.1109 -0.7254
  198MPD1    H2 3016   2.930   2.669  15.664  0.0302  0.0608  0.9172
  198MPD1    H3 3017   2.882   2.779  15.878 -0.4428 -0.7513 -0.9701
  198MPD1     N 3018   3.324   2.788  15.977  0.7351 -0.1855  0.1906
  198MPD1    H5 3019   3.416   2.765  15.940  0.6570  2.8473 -1.8634
  198MPD1    N1 3020   3.158   2.608  15.562  0.2855 -0.1529  0.2765
  198MPD1    H6 3021   3.247   2.560  15.548 -0.2683 -0.9667 -0.4910
  198MPD1    H7 3022   3.088   2.545  15.523  0.2938  0.1323 -0.2051
  199MPD1     C 3023   4.345   3.780   9.826 -0.1308  0.2129  0.0595
  199MPD1    C1 3024   4.433   3.880   9.794  0.0173 -0.2182 -0.0525
  199MPD1    C2 3025   4.371   4.006   9.776  0.1526  0.3194  0.7488
  199MPD1    C3 3026   4.233   4.027   9.786  0.3806 -0.3567  0.5433
  199MPD1    C4 3027   4.152   3.917   9.813 -0.0966 -0.2960  0.2939
  199MPD1    C5 3028   4.210   3.796   9.832  0.8541  1.1464 -0.6061
  199MPD1     H 3029   4.434   4.088   9.743 -0.9234  0.2407 -1.4986
  199MPD1    H1 3030   4.044   3.925   9.813 -0.0977 -0.3568 -0.3337
  199MPD1    H2 3031   4.388   3.685   9.856  1.1780 -0.3204 -3.4751
  199MPD1    H3 3032   4.149   3.713   9.866  3.6524 -0.4434  0.5434
  199MPD1     N 3033   4.173   4.159   9.773  0.0723  0.5022  0.7725
  199MPD1    H5 3034   4.072   4.164   9.778  0.0124  0.0889  0.0299
  199MPD1    N1 3035   4.560   3.846   9.750 -0.3552 -0.1614 -0.0600
  199MPD1    H6 3036   4.604   3.762   9.788 -0.9960  0.8586  2.8667
  199MPD1    H7 3037   4.623   3.926   9.753  0.7970 -1.0235 -1.1417
  200MPD1     C 3038   3.639   3.959  15.306 -0.6331 -0.4046  0.3068
  200MPD1    C1 3039   3.777   3.959  15.304 -0.8791 -0.0248  0.0343
  200MPD1    C2 3040   3.843   3.941  15.182  0.4027 -0.3085 -0.3776
  200MPD1    C3 3041   3.782   3.947  15.062  0.2625  0.0795  0.2866
  200MPD1    C4 3042   3.642   3.961  15.065  0.9923 -0.8231 -0.7218
  200MPD1    C5 3043   3.574   3.956  15.187  0.3266  0.1221 -0.3562
  200MPD1     H 3044   3.949   3.924  15.170  0.5373 -0.6127  1.2101
  200MPD1    H1 3045   3.574   3.944  14.981 -1.1036  0.1469  0.7681
  200MPD1    H2 3046   3.582   3.953  15.398 -3.4025  2.7803 -1.2181
  200MPD1    H3 3047   3.466   3.956  15.176  0.2900 -1.3197 -0.0974
  200MPD1     N 3048   3.863   3.932  14.944  0.1308  0.1762  0.3242
  200MPD1    H5 3049   3.962   3.927  14.963 -0.1434 -2.1990  1.0928
  200MPD1    N1 3050   3.846   3.956  15.425  0.1731 -0.9411 -0.3590
  200MPD1    H6 3051   3.913   3.880  15.429  0.7115 -0.3993  0.7255
  200MPD1    H7 3052   3.776   3.945  15.499  1.5739 -1.2457  0.9055
  201MPD1     C 3053   1.502   3.309  12.485 -0.3561 -0.5745 -0.0091
  201MPD1    C1 3054   1.577   3.211  12.424  1.0402 -0.0236  0.5777
  201MPD1    C2 3055   1.645   3.119  12.493  0.1508 -0.3457  0.2991
  201MPD1    C3 3056   1.621   3.100  12.631 -0.6422  0.2331  0.2778
  201MPD1    C4 3057   1.542   3.193  12.688 -0.1301 -0.0444 -0.2963
  201MPD1    C5 3058   1.482   3.291  12.618 -0.3807  0.3819  0.1264
  201MPD1     H 3059   1.716   3.055  12.442  0.4805  0.9519 -0.8953
  201MPD1    H1 3060   1.522   3.191  12.794  2.2082  3.0970  0.1989
  201MPD1    H2 3061   1.452   3.387  12.430  0.0058 -0.3198  0.0249
  201MPD1    H3 3062   1.415   3.362  12.666 -2.2430  0.4400 -2.5434
  201MPD1     N 3063   1.679   2.990  12.688  0.4911  0.0465 -0.1708
  201MPD1    H5 3064   1.726   2.921  12.630 -2.7381 -1.8266 -0.5737
  201MPD1    N1 3065   1.626   3.235  12.296  0.0726 -0.4688 -0.3224
  201MPD1    H6 3066   1.551   3.288  12.251  1.0329  0.3601 -0.9458
  201MPD1    H7 3067   1.659   3.154  12.244  1.5035 -0.2301  0.2147
  202MPD1     C 3068   2.008   3.105  10.173 -0.0527 -0.0009 -0.7763
  202MPD1    C1 3069   1.961   3.091  10.046  1.2218  0.2263 -0.4551
  202MPD1    C2 3070   1.822   3.067  10.042 -0.0660  0.4389 -0.4207
  202MPD1    C3 3071   1.751   3.002  10.140 -0.0046  0.6164 -0.7241
  202MPD1    C4 3072   1.819   2.979  10.260  0.2475 -0.2925  0.2020
  202MPD1    C5 3073   1.935   3.047  10.275 -0.0836 -0.1790  0.1123
  202MPD1     H 3074   1.768   3.083   9.950 -0.7640 -1.3569 -0.3259
  202MPD1    H1 3075   1.777   2.920  10.341  3.2630 -1.9690  0.5241
  202MPD1    H2 3076   2.105   3.152  10.189  0.5000 -0.8165 -1.7521
  202MPD1    H3 3077   1.982   3.055  10.372  1.9230  2.4754 -1.0740
  202MPD1     N 3078   1.617   2.946  10.126  0.3652  0.4364  0.3783
  202MPD1    H5 3079   1.590   2.898  10.212 -1.3913 -0.3460 -0.6130
  202MPD1    N1 3080   2.021   3.161   9.938 -0.5867 -0.1535  0.0202
  202MPD1    H6 3081   1.988   3.122   9.850 -3.1396  0.5479  0.6609
  202MPD1    H7 3082   2.123   3.159   9.940 -0.6530 -0.3362  3.5107
  203MPD1     C 3083   4.492   3.819  12.286 -0.3219  0.6454  0.3602
  203MPD1    C1 3084   4.589   3.783  12.204 -0.0139  0.3898 -0.3920
  203MPD1    C2 3085   4.650   3.671  12.236  0.1382  0.1210  0.1723
  203MPD1    C3 3086   4.636   3.605  12.355  0.5682  0.3505 -0.4723
  203MPD1    C4 3087   4.536   3.646  12.439 -0.4241 -0.0313 -0.5622
  203MPD1    C5 3088   4.461   3.750  12.395  0.2681  0.8642 -0.1406
  203MPD1     H 3089   4.708   3.630  12.155  0.1454  2.3214 -0.9425
  203MPD1    H1 3090   4.502   3.584  12.521  1.3844 -1.0171 -0.5675
  203MPD1    H2 3091   4.429   3.905  12.269 -0.6801  0.4685  0.7905
  203MPD1    H3 3092   4.378   3.782  12.456  0.5147 -1.4428  1.4361
  203MPD1     N 3093   4.714   3.485  12.376  0.2030 -0.2436  0.0649
  203MPD1    H5 3094   0.039   3.452  12.294 -0.1697  2.0111 -1.0872
  203MPD1    N1 3095   4.598   3.839  12.071  0.5396  0.1638 -0.0296
  203MPD1    H6 3096   4.685   3.812  12.026 -0.1108 -2.2204  0.1471
  203MPD1    H7 3097   4.592   3.941  12.078  1.1803  0.2933 -1.4298
  204MPD1     C 3098   0.326   3.546  17.602  0.2974  0.4476  0.0576
  204MPD1    C1 3099   0.264   3.420  17.613  0.2875  0.3826 -0.0649
  204MPD1    C2 3100   0.161   3.393  17.522  0.2363  0.0162 -0.1992
  204MPD1    C3 3101   0.138   3.485  17.419  0.7548 -0.1667 -0.9325
  204MPD1    C4 3102   0.215   3.594  17.406  0.0675 -0.2238  1.1928
  204MPD1    C5 3103   0.308   3.632  17.496  0.3283 -0.5602 -0.2126
  204MPD1     H 3104   0.090   3.312  17.537  0.2746 -0.1735 -1.0274
  204MPD1    H1 3105   0.213   3.658  17.318 -0.3330 -0.9685  0.6620
  204MPD1    H2 3106   0.421   3.561  17.652  0.1121  0.0854  0.5162
  204MPD1    H3 3107   0.364   3.720  17.466  0.3735 -0.3665  0.4283
  204MPD1     N 3108   0.040   3.441  17.322  0.0841  0.4664 -0.3272
  204MPD1    H5 3109   4.720   3.351  17.333  1.2174 -0.5889 -4.4583
  204MPD1    N1 3110   0.281   3.334   0.022  0.2585  0.6472  0.1025
  204MPD1    H6 3111   0.278   3.239  17.686  0.6089  0.4516  0.6045
  204MPD1    H7 3112   0.377   3.343   0.055 -0.5163  0.4191  2.4009
  205MPD1     C 3113   0.440   2.521  15.888  0.0184 -0.9060  0.9350
  205MPD1    C1 3114   0.311   2.487  15.916 -0.6226  0.3775  0.6743
  205MPD1    C2 3115   0.284   2.460  16.049 -0.3365 -0.1053  0.1365
  205MPD1    C3 3116   0.380   2.472  16.149 -0.2880  0.1881 -0.5178
  205MPD1    C4 3117   0.511   2.512  16.114  0.7113 -0.8336  0.0472
  205MPD1    C5 3118   0.538   2.531  15.981 -0.5692  1.1003 -0.6330
  205MPD1     H 3119   0.183   2.431  16.075 -0.7769  1.9617  0.7300
  205MPD1    H1 3120   0.587   2.522  16.192 -1.9628  0.5842  2.4627
  205MPD1    H2 3121   0.452   2.527  15.781 -1.1153 -2.7577  0.7083
  205MPD1    H3 3122   0.635   2.575  15.961  1.0089 -1.2259  1.9128
  205MPD1     N 3123   0.344   2.452  16.284 -0.1124  0.0665 -0.1844
  205MPD1    H5 3124   0.411   2.477  16.357 -0.1148  0.6423 -0.3808
  205MPD1    N1 3125   0.212   2.482  15.812 -0.2018  0.1092 -0.6561
  205MPD1    H6 3126   0.247   2.487  15.716 -2.0272  0.3281 -1.3151
  205MPD1    H7 3127   0.155   2.397  15.814 -1.5100  0.9806 -1.1689
  206MPD1     C 3128   0.376   0.973  16.770  0.6789  0.0633  0.2787
  206MPD1    C1 3129   0.320   1.095  16.759  0.4029  0.5973  0.3495
  206MPD1    C2 3130   0.270   1.127  16.635  0.5143  0.4741  0.2638
  206MPD1    C3 3131   0.285   1.047  16.524  0.6121  0.1576  0.3380
  206MPD1    C4 3132   0.341   0.925  16.545 -0.3489 -0.8322 -0.0683
  206MPD1    C5 3133   0.388   0.892  16.665 -0.2113  0.4965  0.4997
  206MPD1     H 3134   0.222   1.222  16.652 -1.6671 -1.0867  3.0193
  206MPD1    H1 3135   0.354   0.849  16.469 -0.2917 -0.5469 -0.3442
  206MPD1    H2 3136   0.421   0.949  16.865  1.6483  1.4867  0.1901
  206MPD1    H3 3137   0.433   0.795  16.686  1.3174  0.7835 -1.4839
  206MPD1     N 3138   0.229   1.069  16.399 -0.0285  0.1113  0.0188
  206MPD1    H5 3139   0.255   1.004  16.326 -2.1539 -2.2149  1.3393
  206MPD1    N1 3140   0.307   1.175  16.869 -0.5765  0.0353 -0.2133
  206MPD1    H6 3141   0.315   1.274  16.851  0.9305  0.0488  0.4791
  206MPD1    H7 3142   0.386   1.157  16.931 -0.4674 -0.1067 -0.3923
  207MPD1     C 3143   2.356   3.038   9.821 -0.0207 -0.4730  0.3564
  207MPD1    C1 3144   2.406   2.946   9.911 -0.2020 -0.0677 -0.5630
  207MPD1    C2 3145   2.418   2.993  10.043  0.3858  0.3076 -0.5239
  207MPD1    C3 3146   2.367   3.116  10.078  0.4337  0.5604 -1.0038
  207MPD1    C4 3147   2.321   3.201   9.988  0.2620  0.3272 -0.3760
  207MPD1    C5 3148   2.321   3.162   9.857 -1.0929 -0.3772 -0.1192
  207MPD1     H 3149   2.487   2.942  10.110  0.8684  0.4220 -0.9299
  207MPD1    H1 3150   2.283   3.298  10.018 -0.3824  0.3887 -1.3832
  207MPD1    H2 3151   2.339   3.018   9.716  0.3605  0.9851  0.0313
  207MPD1    H3 3152   2.299   3.230   9.776 -2.0857 -0.5903 -0.0333
  207MPD1     N 3153   2.373   3.166  10.218 -0.8114  0.5959 -0.3354
  207MPD1    H5 3154   2.360   3.266  10.232  0.8251  0.5786  1.2784
  207MPD1    N1 3155   2.455   2.824   9.870  0.0123  0.4670 -0.3830
  207MPD1    H6 3156   2.438   2.752   9.940  0.2468  2.5376  1.8115
  207MPD1    H7 3157   2.413   2.796   9.782 -0.5161 -0.0590  0.0347
  208MPD1     C 3158   1.171   2.622  17.404 -0.3594 -0.3213  0.5175
  208MPD1    C1 3159   1.227   2.507  17.460 -0.2744 -0.2753  0.5639
  208MPD1    C2 3160   1.142   2.395  17.469 -0.4549 -0.6829  0.6917
  208MPD1    C3 3161   1.014   2.405  17.418  0.1725 -0.2571  0.3080
  208MPD1    C4 3162   0.958   2.517  17.364 -0.0719  0.6029  0.6711
  208MPD1    C5 3163   1.035   2.629  17.365 -0.3086 -0.0514 -0.1481
  208MPD1     H 3164   1.182   2.301  17.506 -1.2848 -1.6526 -0.8284
  208MPD1    H1 3165   0.854   2.533  17.335  0.2467  2.2279  0.4053
  208MPD1    H2 3166   1.231   2.711  17.394 -1.7052  0.6138  0.7694
  208MPD1    H3 3167   0.984   2.713  17.317 -0.7506 -1.5793 -2.3578
  208MPD1     N 3168   0.939   2.284  17.431 -0.4056  0.2578  0.4334
  208MPD1    H5 3169   0.982   2.208  17.483  0.4210 -0.1410 -0.8069
  208MPD1    N1 3170   1.367   2.502  17.485  0.2029  0.2342  0.0122
  208MPD1    H6 3171   1.405   2.595  17.505  0.1911  0.3443 -0.4669
  208MPD1    H7 3172   1.404   2.436  17.553  1.3569  1.0847  0.2271
  209MPD1     C 3173   2.148   2.678  12.194  0.4694 -0.4295 -0.2734
  209MPD1    C1 3174   2.160   2.813  12.192  0.0120 -0.7405  0.6726
  209MPD1    C2 3175   2.236   2.872  12.090  0.5190 -0.6015  0.4965
  209MPD1    C3 3176   2.278   2.801  11.980 -0.3259 -0.2801 -0.0343
  209MPD1    C4 3177   2.262   2.662  11.976 -0.4657  0.3091 -0.3537
  209MPD1    C5 3178   2.185   2.606  12.083  0.3690 -0.3463  0.4729
  209MPD1     H 3179   2.257   2.977  12.101  1.0207 -0.6138 -0.3440
  209MPD1    H1 3180   2.287   2.593  11.896  3.1158 -1.0872  2.0190
  209MPD1    H2 3181   2.109   2.621  12.278  0.1057 -1.3303 -1.0559
  209MPD1    H3 3182   2.169   2.499  12.071 -1.6603 -0.0229  0.3134
  209MPD1     N 3183   2.362   2.876  11.890  0.0243 -0.6123  0.2305
  209MPD1    H5 3184   2.381   2.973  11.911  0.0241 -0.4408 -0.5638
  209MPD1    N1 3185   2.132   2.888  12.310 -0.3299  0.4969 -0.4084
  209MPD1    H6 3186   2.049   2.859  12.361 -0.6849 -1.0103 -1.8364
  209MPD1    H7 3187   2.141   2.987  12.291 -2.0293  0.8092  0.4002
  210MPD1     C 3188   2.768   3.747  11.739  0.1010 -0.2960 -0.4112
  210MPD1    C1 3189   2.749   3.660  11.844  0.3718 -0.4755  0.1843
  210MPD1    C2 3190   2.711   3.532  11.815 -0.5967  0.2168  0.0707
  210MPD1    C3 3191   2.689   3.490  11.688 -0.1737  0.2794 -0.9570
  210MPD1    C4 3192   2.690   3.582  11.584 -0.0390  0.1350  0.0450
  210MPD1    C5 3193   2.726   3.714  11.611 -0.1070  0.8444 -0.6081
  210MPD1     H 3194   2.683   3.467  11.898 -1.5217  0.8547  0.2597
  210MPD1    H1 3195   2.669   3.566  11.479 -2.7389  1.0714  0.4631
  210MPD1    H2 3196   2.783   3.853  11.757  0.5207 -0.7348  1.8525
  210MPD1    H3 3197   2.725   3.794  11.539 -1.1330  0.9849 -0.4408
  210MPD1     N 3198   2.641   3.359  11.656  0.7726 -0.0169 -0.2806
  210MPD1    H5 3199   2.620   3.342  11.558 -1.2957 -0.8281  0.2912
  210MPD1    N1 3200   2.786   3.705  11.975 -0.5319  0.0541 -0.4956
  210MPD1    H6 3201   2.750   3.651  12.053 -1.0200  0.3607 -0.5103
  210MPD1    H7 3202   2.763   3.803  11.986 -0.1729  0.0703  0.0713
  211MPD1     C 3203   0.635   3.049  16.865 -0.1606  0.2403 -0.3551
  211MPD1    C1 3204   0.514   2.996  16.848  0.0525  0.2887 -0.0334
  211MPD1    C2 3205   0.455   3.003  16.718  0.4707  0.0346 -0.8988
  211MPD1    C3 3206   0.519   3.061  16.610  0.3632 -0.1243 -0.5462
  211MPD1    C4 3207   0.635   3.128  16.639  0.1620 -0.1974 -0.5686
  211MPD1    C5 3208   0.695   3.114  16.762  0.4192 -0.4995 -0.3246
  211MPD1     H 3209   0.350   2.976  16.716  0.1836  1.1287 -0.5717
  211MPD1    H1 3210   0.685   3.191  16.566  0.7301 -1.2147 -1.0527
  211MPD1    H2 3211   0.678   3.063  16.963  2.0784  1.7226 -1.5503
  211MPD1    H3 3212   0.786   3.170  16.783 -0.5882  1.0936 -0.2501
  211MPD1     N 3213   0.453   3.063  16.485  0.6915 -0.3521 -0.2634
  211MPD1    H5 3214   0.362   3.021  16.470 -0.2966  1.0327  1.8988
  211MPD1    N1 3215   0.442   2.958  16.964 -0.3079 -0.2970  0.7205
  211MPD1    H6 3216   0.504   2.921  17.036  0.7288 -0.8771 -0.4785
  211MPD1    H7 3217   0.368   2.892  16.940 -1.9129  1.7854 -0.0270
  212MPD1     C 3218   4.044   1.775  16.340  0.4800 -0.3528 -0.2623
  212MPD1    C1 3219   4.057   1.655  16.270 -0.3084  0.0072 -0.6845
  212MPD1    C2 3220   3.994   1.543  16.314 -0.6045  0.4860 -0.0873
  212MPD1    C3 3221   3.907   1.541  16.426  0.0697  0.0784  0.3578
  212MPD1    C4 3222   3.891   1.660  16.495  0.1461 -0.0323 -0.6086
  212MPD1    C5 3223   3.958   1.770  16.453  0.0696  0.0574 -0.1932
  212MPD1     H 3224   3.989   1.458  16.247  1.1879 -0.9908  1.6807
  212MPD1    H1 3225   3.827   1.668  16.582  1.9436 -1.3322  0.8130
  212MPD1    H2 3226   4.104   1.860  16.310  0.7378 -1.2607 -2.2735
  212MPD1    H3 3227   3.943   1.864  16.505 -0.9193 -0.7180  0.9215
  212MPD1     N 3228   3.835   1.425  16.468 -0.4253 -0.7229  0.1596
  212MPD1    H5 3229   3.760   1.449  16.532 -1.9495 -2.6696 -0.8792
  212MPD1    N1 3230   4.128   1.666  16.148  0.3565  0.3409 -0.3343
  212MPD1    H6 3231   4.189   1.586  16.129 -0.1488 -0.2126  0.3556
  212MPD1    H7 3232   4.191   1.745  16.136  0.3023  0.3107 -0.8409
  213MPD1     C 3233   2.571   1.995  15.482  0.6741 -0.3144 -0.5744
  213MPD1    C1 3234   2.450   1.939  15.442 -0.5850 -0.6847 -0.7183
  213MPD1    C2 3235   2.401   1.985  15.317 -0.3394  0.0915 -0.1356
  213MPD1    C3 3236   2.446   2.106  15.260 -0.1051  1.0376 -0.3365
  213MPD1    C4 3237   2.536   2.181  15.329  0.0076  0.0276  0.2809
  213MPD1    C5 3238   2.605   2.121  15.427 -0.4524 -0.4231  0.4120
  213MPD1     H 3239   2.332   1.923  15.260 -0.7667  0.3006  0.1584
  213MPD1    H1 3240   2.564   2.280  15.295  1.6277  0.4476  2.8354
  213MPD1    H2 3241   2.619   1.976  15.577  0.6436 -0.6645 -0.6293
  213MPD1    H3 3242   2.675   2.190  15.473 -1.0468  1.0045 -0.8382
  213MPD1     N 3243   2.364   2.159  15.151  0.5233 -0.6516 -0.4749
  213MPD1    H5 3244   2.281   2.105  15.127  0.9402 -0.6399 -1.9905
  213MPD1    N1 3245   2.418   1.810  15.495  0.1562 -0.4960  0.0380
  213MPD1    H6 3246   2.443   1.800  15.593  1.0492 -0.9151 -0.2285
  213MPD1    H7 3247   2.319   1.790  15.485  0.5107 -2.2970  0.0151
  214MPD1     C 3248   1.540   1.960  14.965 -0.0068 -0.2308 -0.7907
  214MPD1    C1 3249   1.593   1.989  14.841  0.9453  0.0165 -0.4132
  214MPD1    C2 3250   1.722   2.042  14.834 -0.8713  0.5418 -0.4930
  214MPD1    C3 3251   1.805   2.047  14.939  0.0969  0.4480 -0.3164
  214MPD1    C4 3252   1.763   1.995  15.057  0.2594  0.3554 -0.1098
  214MPD1    C5 3253   1.635   1.946  15.072  0.4945  0.1762  0.0445
  214MPD1     H 3254   1.745   2.073  14.733  2.6306  1.0557  0.4743
  214MPD1    H1 3255   1.831   1.990  15.141 -0.7616 -2.0460  0.5861
  214MPD1    H2 3256   1.437   1.930  14.979 -0.6829  1.3384 -2.4783
  214MPD1    H3 3257   1.610   1.901  15.168  4.2116 -1.6779  0.1561
  214MPD1     N 3258   1.931   2.107  14.940 -0.1762 -0.8680  0.0050
  214MPD1    H5 3259   1.989   2.094  15.023 -0.0209 -1.9602 -0.2654
  214MPD1    N1 3260   1.504   2.005  14.733 -0.1642  0.0731 -0.2238
  214MPD1    H6 3261   1.561   2.000  14.649  0.4205 -1.7449  0.2952
  214MPD1    H7 3262   1.440   1.926  14.732  0.5966 -0.5654  0.9369
  215MPD1     C 3263   1.764   2.624  10.430  0.0354  0.0551 -0.3568
  215MPD1    C1 3264   1.686   2.646  10.537  0.0311  0.5861 -0.6010
  215MPD1    C2 3265   1.727   2.746  10.618 -1.1455  0.0496  0.3264
  215MPD1    C3 3266   1.859   2.789  10.619  0.3976  0.0866  0.4154
  215MPD1    C4 3267   1.940   2.747  10.519  0.4135  0.5181 -0.1043
  215MPD1    C5 3268   1.894   2.667  10.424  0.4248  0.1527 -0.3313
  215MPD1     H 3269   1.658   2.777  10.695  0.0171  1.2507  0.8828
  215MPD1    H1 3270   2.043   2.781  10.518  0.6025 -0.0166  0.5738
  215MPD1    H2 3271   1.731   2.568  10.343  1.4287  0.2360 -0.9995
  215MPD1    H3 3272   1.957   2.645  10.338  1.0643  0.7556 -0.0200
  215MPD1     N 3273   1.895   2.876  10.724 -0.0097  0.1442  0.5963
  215MPD1    H5 3274   1.812   2.897  10.778 -1.0267 -0.1441 -0.8590
  215MPD1    N1 3275   1.552   2.618  10.521  0.2297 -0.6067  0.4337
  215MPD1    H6 3276   1.494   2.609  10.605  1.1215  0.5083  1.1534
  215MPD1    H7 3277   1.543   2.533  10.465 -0.0545 -0.2334 -0.0830
  216MPD1     C 3278   3.582   0.980  17.571  0.9466 -0.5391 -0.6530
  216MPD1    C1 3279   3.710   0.986  17.609  0.4861  0.6722 -0.1459
  216MPD1    C2 3280   3.731   0.948   0.037 -0.3032 -0.7708 -0.5441
  216MPD1    C3 3281   3.638   0.932   0.135 -0.1355  0.3491 -0.2737
  216MPD1    C4 3282   3.512   0.969   0.099  1.0750  0.4248 -0.6334
  216MPD1    C5 3283   3.485   0.994  17.662  0.0439 -0.4387  0.1086
  216MPD1     H 3284   3.832   0.921   0.065 -0.3453  0.0351  0.4102
  216MPD1    H1 3285   3.427   0.972   0.166  2.7055 -3.9050  1.6016
  216MPD1    H2 3286   3.549   0.981  17.468  0.5439  0.3872 -0.5095
  216MPD1    H3 3287   3.381   1.007  17.633  0.1335 -0.3751 -0.1804
  216MPD1     N 3288   3.677   0.893   0.262 -0.4903  0.1204 -0.1213
  216MPD1    H5 3289   3.773   0.859   0.268 -0.3661  0.2485 -1.4131
  216MPD1    N1 3290   3.810   0.990  17.517  0.1054  0.3626 -0.2194
  216MPD1    H6 3291   3.789   1.054  17.440 -2.6627 -0.2917 -0.0182
  216MPD1    H7 3292   3.890   1.030  17.565  0.7797 -1.5496  0.2606
  217MPD1     C 3293   4.586   1.970   8.594 -0.4819 -0.0578 -0.6285
  217MPD1    C1 3294   4.664   1.929   8.699  0.7110  0.2173 -0.1780
  217MPD1    C2 3295   4.714   2.030   8.789 -0.4548 -0.5270 -0.2881
  217MPD1    C3 3296   4.678   2.165   8.774  0.5225 -0.0864 -0.4779
  217MPD1    C4 3297   4.593   2.194   8.665 -0.1038  0.3441  0.2244
  217MPD1    C5 3298   4.541   2.099   8.581  0.3332 -0.1681  0.3450
  217MPD1     H 3299   0.063   2.006   8.865  0.0338 -1.3289 -1.0216
  217MPD1    H1 3300   4.564   2.294   8.636  0.1622  0.1211 -0.8361
  217MPD1    H2 3301   4.540   1.898   8.527 -1.7883 -1.2021  1.5397
  217MPD1    H3 3302   4.465   2.125   8.509 -0.2661  0.8785  1.3578
  217MPD1     N 3303   4.724   2.273   8.854  0.2021  0.6680  0.0124
  217MPD1    H5 3304   4.671   2.359   8.840  1.0742  1.1161 -0.5740
  217MPD1    N1 3305   4.716   1.803   8.702 -0.0656  0.7426 -0.2446
  217MPD1    H6 3306   4.647   1.737   8.668 -0.1262  1.4452 -1.4797
  217MPD1    H7 3307   0.021   1.770   8.794  0.8836  3.4186  0.4229
  218MPD1     C 3308   1.472   3.971  12.797 -0.5857 -0.0404  0.3359
  218MPD1    C1 3309   1.593   4.015  12.736 -0.6477 -0.0053 -0.5757
  218MPD1    C2 3310   1.662   3.921  12.676  0.4365 -0.0353  0.9886
  218MPD1    C3 3311   1.629   3.787  12.691  0.3752  0.4940  0.4590
  218MPD1    C4 3312   1.523   3.747  12.765 -0.3674 -0.2705 -0.3959
  218MPD1    C5 3313   1.444   3.841  12.818  0.2518 -0.7605  0.3142
  218MPD1     H 3314   1.750   3.940  12.616 -0.4286 -0.3192 -0.4044
  218MPD1    H1 3315   1.492   3.644  12.778 -0.6765  0.1637  2.2640
  218MPD1    H2 3316   1.407   4.045  12.843 -2.7510 -1.0658 -1.0449
  218MPD1    H3 3317   1.357   3.824  12.880  0.5650  0.8347  1.2075
  218MPD1     N 3318   1.723   3.694  12.635 -0.0045 -0.4162  0.3665
  218MPD1    H5 3319   1.800   3.727  12.579  0.8207  0.4507  2.0183
  218MPD1    N1 3320   1.620   4.148  12.721 -0.1157  0.2930 -0.1090
  218MPD1    H6 3321   1.589   4.194  12.807 -1.8077  1.4500 -1.3274
  218MPD1    H7 3322   1.718   4.172  12.708 -0.6779  2.0371 -1.1323
  219MPD1     C 3323   2.379   3.562  11.942 -0.0191  0.4239 -0.0182
  219MPD1    C1 3324   2.260   3.631  11.956  0.5280  0.0433 -0.1541
  219MPD1    C2 3325   2.165   3.584  12.033  0.6997  0.2327 -0.1941
  219MPD1    C3 3326   2.192   3.479  12.121  0.3085 -0.5413 -0.9784
  219MPD1    C4 3327   2.310   3.408  12.106 -0.3392  0.3281  0.3976
  219MPD1    C5 3328   2.403   3.447  12.014  0.1052 -0.2373 -0.1235
  219MPD1     H 3329   2.062   3.617  12.030  1.3200  1.8734 -2.7083
  219MPD1    H1 3330   2.341   3.328  12.173  2.6430 -0.3129 -1.7909
  219MPD1    H2 3331   2.464   3.593  11.881 -0.4392  0.9675 -0.3233
  219MPD1    H3 3332   2.489   3.381  12.009 -0.0270 -0.2676 -2.0428
  219MPD1     N 3333   2.103   3.435  12.217 -0.7079 -0.7035 -0.1435
  219MPD1    H5 3334   2.129   3.354  12.272 -0.2606 -0.5278 -0.0947
  219MPD1    N1 3335   2.241   3.741  11.869  0.1518 -1.0282 -0.1000
  219MPD1    H6 3336   2.169   3.803  11.904 -0.1927 -1.2972 -0.3359
  219MPD1    H7 3337   2.323   3.798  11.847  0.2054 -1.3041 -0.6236
  220MPD1     C 3338   1.330   4.381   9.755 -0.0737  0.0737 -0.3064
  220MPD1    C1 3339   1.240   4.315   9.840  0.0048  0.1142 -0.3116
  220MPD1    C2 3340   1.289   4.197   9.908 -0.6210 -0.3198 -0.0360
  220MPD1    C3 3341   1.414   4.146   9.865  0.8796  0.5151 -0.6259
  220MPD1    C4 3342   1.496   4.220   9.776  0.6118 -0.0473  0.7174
  220MPD1    C5 3343   1.453   4.333   9.717 -0.3496  0.5116  0.6131
  220MPD1     H 3344   1.227   4.146   9.980 -0.0697 -1.7207 -0.5579
  220MPD1    H1 3345   1.596   4.192   9.747  1.5227  0.4551  3.3819
  220MPD1    H2 3346   1.304   4.474   9.705  1.1113  0.6314  0.1110
  220MPD1    H3 3347   1.515   4.373   9.637  0.1580 -1.4384  0.0457
  220MPD1     N 3348   1.467   4.035   9.930 -0.0988 -0.2261 -0.2087
  220MPD1    H5 3349   1.397   3.985   9.984 -1.8713  0.4615 -1.8857
  220MPD1    N1 3350   1.122   4.381   9.880 -0.8316 -0.0374 -0.8317
  220MPD1    H6 3351   1.080   4.424   9.798 -1.8176  0.0213 -0.2865
  220MPD1    H7 3352   1.051   4.316   9.912  0.2982 -2.1495 -2.6550
  221MPD1     C 3353   1.276   1.810  15.805  0.6204  0.6608  0.0491
  221MPD1    C1 3354   1.186   1.769  15.887 -0.3149 -0.4270 -0.1703
  221MPD1    C2 3355   1.058   1.821  15.868  0.4207  0.4003 -0.3004
  221MPD1    C3 3356   1.024   1.890  15.749 -0.1320  0.0730  0.6139
  221MPD1    C4 3357   1.125   1.914  15.654  0.0096 -0.0552  0.0041
  221MPD1    C5 3358   1.246   1.881  15.692 -0.5558 -0.3625 -0.2444
  221MPD1     H 3359   0.984   1.809  15.946  0.2353  1.1806 -0.3578
  221MPD1    H1 3360   1.101   1.971  15.565  3.3368  1.4659  0.0814
  221MPD1    H2 3361   1.379   1.795  15.831  0.3598 -1.4880 -0.2045
  221MPD1    H3 3362   1.326   1.917  15.628  0.7317 -1.7259  0.5949
  221MPD1     N 3363   0.896   1.934  15.710  0.4282 -0.3534 -0.3143
  221MPD1    H5 3364   0.890   1.961  15.612  0.5075 -1.1839 -0.5507
  221MPD1    N1 3365   1.207   1.711  16.010  0.1587  0.4815 -0.1167
  221MPD1    H6 3366   1.133   1.647  16.038  1.3128 -0.5260  0.6370
  221MPD1    H7 3367   1.290   1.652  16.003  0.3158  0.7317 -0.3755
  222MPD1     C 3368   4.440   0.425  16.901 -0.6169 -0.3403 -0.4143
  222MPD1    C1 3369   4.488   0.536  16.965 -0.0694 -0.1554  0.1496
  222MPD1    C2 3370   4.446   0.669  16.921  0.0489 -0.2655  0.0994
  222MPD1    C3 3371   4.378   0.677  16.801 -0.5316 -0.3554  0.9529
  222MPD1    C4 3372   4.356   0.564  16.728  0.7855 -0.0363  0.0027
  222MPD1    C5 3373   4.373   0.442  16.784  0.3617  0.3741 -0.4111
  222MPD1     H 3374   4.483   0.755  16.975 -2.5465  1.7763 -1.4179
  222MPD1    H1 3375   4.315   0.580  16.629  1.1569 -1.2875 -0.3533
  222MPD1    H2 3376   4.463   0.330  16.947  0.8210 -0.6736 -1.8308
  222MPD1    H3 3377   4.330   0.349  16.747  0.7244 -0.1033  0.3720
  222MPD1     N 3378   4.342   0.798  16.743  0.1097 -0.5430  0.0993
  222MPD1    H5 3379   4.299   0.793  16.650  1.7340  0.7278 -0.7053
  222MPD1    N1 3380   4.538   0.524  17.094 -0.4146  0.0374  0.5468
  222MPD1    H6 3381   4.596   0.442  17.112 -0.2869 -1.0875 -4.7729
  222MPD1    H7 3382   4.589   0.609  17.115  0.6591 -0.1281 -1.3993
  223MPD1     C 3383   4.283   1.215  15.892  0.1512  0.5559 -0.5076
  223MPD1    C1 3384   4.184   1.287  15.950 -0.6920 -0.4917  0.2919
  223MPD1    C2 3385   4.156   1.270  16.085  0.3796  0.6843 -0.3447
  223MPD1    C3 3386   4.254   1.212  16.162 -0.1191 -0.5417 -0.7799
  223MPD1    C4 3387   4.368   1.166  16.097  0.2196  0.9603 -0.7401
  223MPD1    C5 3388   4.383   1.163  15.962 -0.0647 -0.3250 -0.3697
  223MPD1     H 3389   4.069   1.316  16.130  0.7373  0.2236  0.7950
  223MPD1    H1 3390   4.449   1.115  16.147 -0.3684 -0.2096 -0.9896
  223MPD1    H2 3391   4.288   1.209  15.784  1.0505 -0.4492 -0.4060
  223MPD1    H3 3392   4.460   1.106  15.911  0.9717  0.5470  0.2120
  223MPD1     N 3393   4.230   1.195  16.302 -0.3551  0.1923 -0.2442
  223MPD1    H5 3394   4.137   1.217  16.337 -1.3005 -1.6023 -1.6102
  223MPD1    N1 3395   4.085   1.333  15.861 -0.2943  0.4298 -0.5346
  223MPD1    H6 3396   4.044   1.421  15.894  2.7890  0.6156  2.8676
  223MPD1    H7 3397   4.128   1.356  15.772  0.2763 -1.6455 -0.7869
  224MPD1     C 3398   0.145   3.468   8.955  0.4473 -0.2292  0.0265
  224MPD1    C1 3399   0.090   3.571   9.026 -0.3780  0.2647  0.2688
  224MPD1    C2 3400   0.104   3.565   9.164  0.2751 -0.0054 -0.1380
  224MPD1    C3 3401   0.147   3.448   9.232  0.9424  0.0693 -0.2887
  224MPD1    C4 3402   0.208   3.349   9.158  0.0088  0.2609  0.1217
  224MPD1    C5 3403   0.204   3.363   9.024 -0.1409 -0.4054  0.1244
  224MPD1     H 3404   0.077   3.657   9.214  1.9957  0.3968  0.0510
  224MPD1    H1 3405   0.250   3.260   9.204  1.8009  1.8808  1.6314
  224MPD1    H2 3406   0.136   3.464   8.847 -0.7340  2.2243  0.0319
  224MPD1    H3 3407   0.246   3.279   8.970 -0.2829  0.0797 -0.7445
  224MPD1     N 3408   0.150   3.436   9.372  0.2006 -0.3826  0.4003
  224MPD1    H5 3409   0.208   3.359   9.404  1.0883  0.1720  0.1405
  224MPD1    N1 3410   0.056   3.696   8.961 -0.1210  0.1262  0.3742
  224MPD1    H6 3411   4.713   3.751   9.015 -0.0136 -0.9358  1.5783
  224MPD1    H7 3412   0.004   3.678   8.876 -0.5206  0.1986  0.6009
  225MPD1     C 3413   1.050   4.240  12.902 -0.2038  0.0378 -1.1206
  225MPD1    C1 3414   1.016   4.331  12.807  0.0233 -0.1142 -0.6903
  225MPD1    C2 3415   1.041   4.307  12.666  0.0868 -0.4008  0.2995
  225MPD1    C3 3416   1.105   4.184  12.637  0.5750 -0.0965  0.7076
  225MPD1    C4 3417   1.146   4.101  12.742 -0.0703 -0.3045 -0.0386
  225MPD1    C5 3418   1.121   4.131  12.872  0.0019  0.1734 -0.4974
  225MPD1     H 3419   1.024   4.381  12.589 -1.2796 -2.3062 -1.2383
  225MPD1    H1 3420   1.197   4.006  12.725  0.4295  0.2625 -1.7096
  225MPD1    H2 3421   1.034   4.271  13.004  1.0714  0.1499 -0.9594
  225MPD1    H3 3422   1.147   4.060  12.949  2.1866  2.0272  0.4767
  225MPD1     N 3423   1.144   4.147  12.506  0.6431 -0.4119 -0.4537
  225MPD1    H5 3424   1.197   4.061  12.495  0.0539 -0.8310 -0.0258
  225MPD1    N1 3425   0.983   4.459  12.853 -0.0842 -0.0050 -0.0361
  225MPD1    H6 3426   0.932   4.464  12.941  2.1674  0.4065  1.2285
  225MPD1    H7 3427   0.927   4.517  12.790  2.8956  1.4161 -1.3698
  226MPD1     C 3428   4.722   0.536   9.961 -0.1043  0.6261 -1.0931
  226MPD1    C1 3429   4.716   0.474   9.835 -0.2980 -0.1610  0.1025
  226MPD1    C2 3430   0.099   0.396   9.803 -0.2869  0.2237  0.1539
  226MPD1    C3 3431   0.215   0.395   9.881 -0.0386  0.0284 -0.2240
  226MPD1    C4 3432   0.216   0.468  10.004 -0.0006 -0.4901 -0.8845
  226MPD1    C5 3433   0.108   0.540  10.040  0.1101  0.4245 -0.3056
  226MPD1     H 3434   0.115   0.359   9.702  0.9267 -2.8046  1.4425
  226MPD1    H1 3435   0.299   0.468  10.073  0.7839 -1.3545 -1.8231
  226MPD1    H2 3436   4.635   0.597   9.982 -1.2196 -0.5097 -2.3860
  226MPD1    H3 3437   0.108   0.590  10.137  0.8711  1.6558 -0.9375
  226MPD1     N 3438   0.313   0.307   9.836  0.3894  0.4256  0.7842
  226MPD1    H5 3439   0.293   0.261   9.748 -1.4668  1.6013  0.6058
  226MPD1    N1 3440   4.599   0.481   9.757 -0.4561  0.2962 -0.1710
  226MPD1    H6 3441   4.545   0.564   9.777 -2.9893 -0.9910 -1.6180
  226MPD1    H7 3442   4.630   0.479   9.660  0.0280  3.2755 -0.0751
  227MPD1     C 3443   1.349   0.022   9.620  0.5617 -0.2525  0.0618
  227MPD1    C1 3444   1.255   4.713   9.526  0.0970  0.1555  0.0682
  227MPD1    C2 3445   1.125   0.002   9.552 -0.3696 -0.4685 -1.0586
  227MPD1    C3 3446   1.078   0.056   9.670 -0.1123 -0.6795  0.9440
  227MPD1    C4 3447   1.169   0.106   9.761  0.3591 -0.1893  0.0841
  227MPD1    C5 3448   1.305   0.091   9.732 -0.2151 -0.1000 -0.1902
  227MPD1     H 3449   1.051   4.688   9.483 -3.5322  3.1852  0.2922
  227MPD1    H1 3450   1.143   0.159   9.852  0.9892  0.3642 -0.0583
  227MPD1    H2 3451   1.456   0.012   9.605  0.2019  0.5331 -2.9630
  227MPD1    H3 3452   1.372   0.118   9.812  0.2835  0.0742 -0.6668
  227MPD1     N 3453   0.940   0.071   9.676 -0.0751 -0.2009  0.0326
  227MPD1    H5 3454   0.885   0.018   9.609  1.0200  0.7182 -1.6039
  227MPD1    N1 3455   1.307   4.644   9.412  0.6372 -0.3106 -0.4042
  227MPD1    H6 3456   1.407   4.640   9.394  0.7027 -0.8992  0.0917
  227MPD1    H7 3457   1.268   4.671   9.322 -0.5548 -1.4668 -0.2413
  228MPD1     C 3458   3.580   2.197  13.170 -0.0828 -0.0668  0.1205
  228MPD1    C1 3459   3.566   2.117  13.060 -0.4373  0.3474  1.0116
  228MPD1    C2 3460   3.466   2.027  13.058 -0.5610 -0.6923  0.3063
  228MPD1    C3 3461   3.397   1.997  13.168  0.0005  0.3660 -0.4008
  228MPD1    C4 3462   3.415   2.068  13.284  0.2884 -0.9040 -0.3375
  228MPD1    C5 3463   3.507   2.170  13.275 -0.2069 -0.0877 -0.6105
  228MPD1     H 3464   3.444   1.980  12.963 -2.0228  0.9849 -0.1673
  228MPD1    H1 3465   3.372   2.039  13.379  2.7120  0.4771  1.1663
  228MPD1    H2 3466   3.659   2.270  13.180 -1.7252  1.7361  0.0521
  228MPD1    H3 3467   3.515   2.233  13.363 -1.4233  0.1765 -0.6967
  228MPD1     N 3468   3.310   1.894  13.153  0.3597 -0.7563  0.0267
  228MPD1    H5 3469   3.325   1.833  13.073 -1.9262  1.5613 -2.1524
  228MPD1    N1 3470   3.625   2.167  12.945 -0.0077 -0.4016 -0.1059
  228MPD1    H6 3471   3.718   2.205  12.961 -0.0883  0.3452 -1.3740
  228MPD1    H7 3472   3.626   2.095  12.872 -0.0185  0.0336 -0.5351
  229MPD1     C 3473   2.748   0.535  14.620 -0.0822  0.5497 -0.3985
  229MPD1    C1 3474   2.775   0.423  14.545 -0.1545 -0.0708  0.4080
  229MPD1    C2 3475   2.893   0.350  14.567  0.3719  0.3094 -0.2219
  229MPD1    C3 3476   2.964   0.371  14.684  0.0486 -0.0801 -0.3698
  229MPD1    C4 3477   2.914   0.463  14.773  0.3560  0.3219  0.1667
  229MPD1    C5 3478   2.804   0.541  14.746  0.0548 -0.6854 -0.3253
  229MPD1     H 3479   2.927   0.283  14.488  0.8449  0.8635 -0.4843
  229MPD1    H1 3480   2.968   0.472  14.866 -0.4486 -0.8867  0.7449
  229MPD1    H2 3481   2.659   0.593  14.598 -0.1415  0.6570  0.1093
  229MPD1    H3 3482   2.774   0.611  14.823  0.2318 -0.8805 -0.0800
  229MPD1     N 3483   3.079   0.290  14.722  0.3712 -0.1796  0.3672
  229MPD1    H5 3484   3.114   0.307  14.816  3.2774  0.7454 -0.8990
  229MPD1    N1 3485   2.698   0.399  14.432 -0.1852  0.6258  0.3500
  229MPD1    H6 3486   2.602   0.432  14.433 -1.4795 -3.1766  1.6771
  229MPD1    H7 3487   2.691   0.299  14.413  3.3074  0.8304 -1.8943
  230MPD1     C 3488   3.584   0.487  15.376 -0.5006 -0.6817  0.1476
  230MPD1    C1 3489   3.501   0.545  15.288 -0.5838  0.0417 -0.0141
  230MPD1    C2 3490   3.446   0.472  15.189 -0.2207 -0.5039 -0.5719
  230MPD1    C3 3491   3.475   0.340  15.168 -0.1536 -0.9849  0.1414
  230MPD1    C4 3492   3.564   0.280  15.256  0.3592 -0.3571 -0.0260
  230MPD1    C5 3493   3.613   0.354  15.363 -0.3976 -0.7706 -0.2781
  230MPD1     H 3494   3.367   0.514  15.128 -1.6855  0.5978  2.1004
  230MPD1    H1 3495   3.594   0.177  15.245  1.5708 -0.1440  1.2566
  230MPD1    H2 3496   3.633   0.532  15.462 -2.2593 -0.4922  1.0444
  230MPD1    H3 3497   3.683   0.309  15.433  0.3470 -0.1048 -0.5962
  230MPD1     N 3498   3.422   0.275  15.054 -0.2810 -0.1109  0.0215
  230MPD1    H5 3499   3.363   0.333  14.995  0.5109  0.1510 -0.5135
  230MPD1    N1 3500   3.458   0.677  15.302 -0.0002  0.2492 -0.7583
  230MPD1    H6 3501   3.525   0.723  15.364  2.4766 -1.1959 -2.3576
  230MPD1    H7 3502   3.457   0.726  15.213 -0.9941 -1.0446 -1.4720
  231MPD1     C 3503   1.072   2.403  15.573  0.9959  0.1030  0.3784
  231MPD1    C1 3504   1.100   2.509  15.489 -0.5655  0.2709 -0.1247
  231MPD1    C2 3505   1.200   2.491  15.397  0.1999 -0.7064 -0.0235
  231MPD1    C3 3506   1.264   2.368  15.389 -0.3375 -0.9039 -0.2009
  231MPD1    C4 3507   1.229   2.264  15.473 -0.3932  0.5970 -0.3451
  231MPD1    C5 3508   1.124   2.278  15.556  0.3532  0.0475  0.1443
  231MPD1     H 3509   1.225   2.574  15.332  1.9539  0.2040  1.8224
  231MPD1    H1 3510   1.282   2.170  15.488  0.5608  0.9427 -1.5838
  231MPD1    H2 3511   1.001   2.411  15.655 -2.1804 -1.1678 -2.2121
  231MPD1    H3 3512   1.110   2.202  15.633  2.2316  0.1927  0.6534
  231MPD1     N 3513   1.364   2.357  15.291  0.5335  0.5040  0.5806
  231MPD1    H5 3514   1.362   2.431  15.221 -1.2704  0.6430  0.7759
  231MPD1    N1 3515   1.043   2.639  15.495  0.3545 -0.4304 -0.3590
  231MPD1    H6 3516   0.944   2.626  15.516 -0.6136  1.9062 -3.6233
  231MPD1    H7 3517   1.041   2.692  15.409  0.9773  0.6032  0.2649
  232MPD1     C 3518   3.336   3.896  17.537 -0.5397 -0.0319  0.1080
  232MPD1    C1 3519   3.199   3.927  17.563 -0.6552 -0.3759  0.4772
  232MPD1    C2 3520   3.159   3.920  17.697  0.7924 -0.3112  0.2047
  232MPD1    C3 3521   3.241   3.870   0.098  0.4444  0.1860  0.1828
  232MPD1    C4 3522   3.369   3.826   0.069 -0.0811 -0.1834 -0.0182
  232MPD1    C5 3523   3.408   3.838  17.636 -0.4793 -0.0537  0.6642
  232MPD1     H 3524   3.055   3.936   0.021  0.8241  1.0999 -0.6971
  232MPD1    H1 3525   3.431   3.762   0.131  0.3603  1.0410  0.7979
  232MPD1    H2 3526   3.385   3.920  17.444 -1.1421 -1.5259 -0.6026
  232MPD1    H3 3527   3.509   3.810  17.610 -0.4260 -0.3850  1.2174
  232MPD1     N 3528   3.194   3.863   0.227 -0.3872 -0.6216  0.0442
  232MPD1    H5 3529   3.097   3.891   0.240  0.2658  0.6684  2.1360
  232MPD1    N1 3530   3.122   3.980  17.465  0.1328  0.0423 -0.1625
  232MPD1    H6 3531   3.151   3.942  17.375 -0.1489  0.9649 -0.6429
  232MPD1    H7 3532   3.021   3.968  17.472  0.0213  1.8666  1.1520
  233MPD1     C 3533   4.103   2.767   1.368  0.5437  0.3924 -0.2236
  233MPD1    C1 3534   4.171   2.660   1.416  0.1748 -0.0228  0.2892
  233MPD1    C2 3535   4.309   2.677   1.422 -0.2443  0.2410 -0.5823
  233MPD1    C3 3536   4.377   2.792   1.385 -0.2213  0.6034  0.6057
  233MPD1    C4 3537   4.302   2.901   1.348 -0.0181  0.1440 -0.1347
  233MPD1    C5 3538   4.160   2.885   1.349  0.0153  0.0801  0.3105
  233MPD1     H 3539   4.373   2.596   1.455  1.0015  1.1433 -0.7397
  233MPD1    H1 3540   4.336   2.999   1.317  0.2791  0.1292  0.1382
  233MPD1    H2 3541   3.995   2.758   1.361  0.1719  3.2262  1.8178
  233MPD1    H3 3542   4.093   2.968   1.332  1.1363  0.5342 -1.8587
  233MPD1     N 3543   4.516   2.810   1.386 -0.1440  0.3969 -0.0503
  233MPD1    H5 3544   4.558   2.887   1.336  0.0561  0.0704 -0.3858
  233MPD1    N1 3545   4.120   2.532   1.452 -0.5142 -0.2596  0.4167
  233MPD1    H6 3546   4.167   2.487   1.530  1.6453  1.1931 -0.0284
  233MPD1    H7 3547   4.019   2.534   1.461 -0.4878  0.2802  0.5939
  234MPD1     C 3548   1.627   2.253   9.682 -0.2458  0.6039  0.0317
  234MPD1    C1 3549   1.586   2.269   9.551  0.6797  0.5742 -0.4711
  234MPD1    C2 3550   1.472   2.344   9.523  0.3007 -0.0271  0.6953
  234MPD1    C3 3551   1.413   2.422   9.618 -0.4796 -0.6929  1.2331
  234MPD1    C4 3552   1.462   2.415   9.747  0.9828  0.0504 -0.3829
  234MPD1    C5 3553   1.558   2.322   9.777  0.2207  0.0233  0.4409
  234MPD1     H 3554   1.432   2.350   9.422  1.2668 -1.2704  0.2252
  234MPD1    H1 3555   1.423   2.476   9.827 -0.8387 -0.2317 -1.0513
  234MPD1    H2 3556   1.691   2.169   9.708 -2.4613 -0.1720  3.0017
  234MPD1    H3 3557   1.583   2.304   9.881  1.8289  0.4767  0.1218
  234MPD1     N 3558   1.297   2.493   9.580  0.7455 -0.1923 -0.3870
  234MPD1    H5 3559   1.263   2.469   9.487 -2.3893  0.1101  0.6687
  234MPD1    N1 3560   1.638   2.185   9.458  0.7094  0.4030  0.0505
  234MPD1    H6 3561   1.727   2.145   9.485  0.6844  1.3200  1.4499
  234MPD1    H7 3562   1.635   2.219   9.362 -2.6906  0.3761  0.1306
  235MPD1     C 3563   0.680   0.196   8.747  0.1170 -0.4622 -0.0617
  235MPD1    C1 3564   0.724   0.311   8.679  0.0640  0.1693  0.5619
  235MPD1    C2 3565   0.835   0.380   8.732  0.3814 -0.0245 -0.2721
  235MPD1    C3 3566   0.909   0.321   8.834  0.1268 -0.0579  0.3715
  235MPD1    C4 3567   0.875   0.196   8.886 -0.2494 -0.8280 -0.6252
  235MPD1    C5 3568   0.763   0.135   8.833  0.4398 -0.4768  0.2157
  235MPD1     H 3569   0.864   0.474   8.685  0.5464  0.1865  0.2486
  235MPD1    H1 3570   0.928   0.145   8.966  0.9762 -0.5340 -1.2608
  235MPD1    H2 3571   0.591   0.148   8.709  0.1183 -0.7541  0.2974
  235MPD1    H3 3572   0.729   0.042   8.877 -1.5059 -0.9035 -2.2212
  235MPD1     N 3573   1.034   0.385   8.862  0.4554  0.0672  0.7755
  235MPD1    H5 3574   1.056   0.478   8.830  0.1457  0.4553  1.7112
  235MPD1    N1 3575   0.646   0.378   8.585 -0.1284  0.0494 -0.1444
  235MPD1    H6 3576   0.709   0.427   8.521  1.3467 -1.0028  0.5170
  235MPD1    H7 3577   0.592   0.312   8.530  0.2489  0.9194 -1.5682
  236MPD1     C 3578   1.762   1.222  10.059  0.2523  0.0575  0.3246
  236MPD1    C1 3579   1.717   1.128   9.966 -0.1959  0.0171 -0.9736
  236MPD1    C2 3580   1.772   1.003   9.972 -0.3945  0.1992 -0.4277
  236MPD1    C3 3581   1.855   0.958  10.070  0.3265 -0.4354  0.1544
  236MPD1    C4 3582   1.884   1.049  10.170  0.2338 -0.1448 -0.1355
  236MPD1    C5 3583   1.846   1.179  10.161  0.2823 -0.7240 -0.7828
  236MPD1     H 3584   1.751   0.934   9.890 -0.1759  0.5683 -0.7938
  236MPD1    H1 3585   1.946   1.023  10.255  0.9602 -0.6181 -0.8019
  236MPD1    H2 3586   1.726   1.324  10.052  0.1258  0.0035  0.1796
  236MPD1    H3 3587   1.858   1.246  10.246 -1.1212  0.7493 -1.7559
  236MPD1     N 3588   1.897   0.822  10.074 -0.0175  0.3435 -0.2183
  236MPD1    H5 3589   1.969   0.794  10.140  0.1280  0.8760 -0.1552
  236MPD1    N1 3590   1.642   1.172   9.853 -0.1108  0.7081  0.0427
  236MPD1    H6 3591   1.598   1.094   9.806  1.4507 -0.7809  1.0644
  236MPD1    H7 3592   1.575   1.245   9.878  2.2289  2.3860  1.3318
  237MPD1     C 3593   1.737   4.273  15.744  0.1226 -1.0231  0.0252
  237MPD1    C1 3594   1.831   4.185  15.699 -0.0721 -0.0516 -0.4905
  237MPD1    C2 3595   1.782   4.064  15.657 -0.2151 -0.0734  0.1355
  237MPD1    C3 3596   1.652   4.018  15.683 -0.0734 -0.2364  0.1450
  237MPD1    C4 3597   1.568   4.104  15.750 -0.5630  0.1625 -0.6818
  237MPD1    C5 3598   1.609   4.228  15.777  0.0419 -0.1618 -0.6928
  237MPD1     H 3599   1.858   3.999  15.615  1.5931 -0.0743  3.4536
  237MPD1    H1 3600   1.465   4.080  15.772  0.1772 -0.5518  1.9625
  237MPD1    H2 3601   1.745   4.381  15.751 -0.7898 -1.0159  0.9298
  237MPD1    H3 3602   1.533   4.297  15.812 -0.0820  0.2242 -1.7209
  237MPD1     N 3603   1.600   3.892  15.629 -0.4823 -0.1867  0.1963
  237MPD1    H5 3604   1.513   3.850  15.660 -1.7073  0.4957 -2.2975
  237MPD1    N1 3605   1.963   4.224  15.665  0.3770 -0.5578 -0.2461
  237MPD1    H6 3606   1.997   4.300  15.722 -2.8707  0.9088 -0.2504
  237MPD1    H7 3607   2.033   4.151  15.670 -0.2236 -1.2102 -1.2256
  238MPD1     C 3608   3.277   2.744  15.150 -0.0303 -0.1413  0.4716
  238MPD1    C1 3609   3.367   2.726  15.045 -0.0335 -0.2177  0.1211
  238MPD1    C2 3610   3.321   2.655  14.938 -0.3326  0.3739 -0.2538
  238MPD1    C3 3611   3.202   2.585  14.941  0.0248  0.4610  0.7855
  238MPD1    C4 3612   3.122   2.590  15.052 -0.5769 -0.2053 -0.3568
  238MPD1    C5 3613   3.162   2.668  15.160 -0.2720  0.2825 -0.3061
  238MPD1     H 3614   3.399   2.617  14.873 -0.5401  0.2111 -0.4068
  238MPD1    H1 3615   3.038   2.524  15.071  0.0212 -0.3127  1.9088
  238MPD1    H2 3616   3.309   2.806  15.234 -0.0925 -0.0141  0.4009
  238MPD1    H3 3617   3.110   2.669  15.255 -0.1274  0.8195 -0.2349
  238MPD1     N 3618   3.163   2.491  14.839 -0.4042  0.6845 -0.5402
  238MPD1    H5 3619   3.076   2.443  14.861  0.7607  0.1165  2.7478
  238MPD1    N1 3620   3.489   2.798  15.042  0.2376 -0.1117 -0.4258
  238MPD1    H6 3621   3.510   2.851  15.126  1.3152 -1.4933  0.1691
  238MPD1    H7 3622   3.567   2.779  14.979  0.4609 -1.1397  0.1718
  239MPD1     C 3623   3.874   3.072  14.451  0.8558 -1.2657  0.0315
  239MPD1    C1 3624   3.980   3.086  14.354 -0.7273 -0.7447 -0.1183
  239MPD1    C2 3625   3.942   3.146  14.234 -0.2757  0.5828 -0.7622
  239MPD1    C3 3626   3.810   3.172  14.206  0.1489 -0.5366  0.2247
  239MPD1    C4 3627   3.709   3.155  14.296 -0.0991 -0.9230  0.6021
  239MPD1    C5 3628   3.748   3.108  14.419  0.3452 -0.1638 -0.5893
  239MPD1     H 3629   4.019   3.179  14.166  0.0428  1.1980 -0.1076
  239MPD1    H1 3630   3.608   3.184  14.270  0.3592  0.4023  0.2877
  239MPD1    H2 3631   3.899   3.043  14.553  2.9937 -1.1226 -0.4534
  239MPD1    H3 3632   3.671   3.105  14.495  0.9970 -0.3072  0.0629
  239MPD1     N 3633   3.771   3.227  14.085  0.2416  0.4273  0.1463
  239MPD1    H5 3634   3.670   3.224  14.075  0.3041  3.5018 -1.4319
  239MPD1    N1 3635   4.112   3.076  14.398  0.9483  0.2336 -0.0850
  239MPD1    H6 3636   4.135   2.996  14.456  1.1152 -0.7019 -1.4391
  239MPD1    H7 3637   4.178   3.080  14.321 -1.0576  2.0886 -1.7322
  240MPD1     C 3638   2.660   2.843  13.380  0.2505  0.3975 -0.9561
  240MPD1    C1 3639   2.560   2.785  13.455  0.0908 -0.5543  0.3820
  240MPD1    C2 3640   2.590   2.725  13.583 -0.6563 -0.4189 -0.3219
  240MPD1    C3 3641   2.716   2.737  13.635  0.2958 -0.0194 -0.4094
  240MPD1    C4 3642   2.812   2.802  13.557  0.9922 -0.0360  0.8844
  240MPD1    C5 3643   2.784   2.853  13.437  0.2914  0.0102 -0.8763
  240MPD1     H 3644   2.506   2.679  13.635 -0.6183  0.9702  0.9428
  240MPD1    H1 3645   2.907   2.832  13.599  1.8455  0.2270 -1.2422
  240MPD1    H2 3646   2.644   2.901  13.291  0.3525  1.3101 -0.3797
  240MPD1    H3 3647   2.858   2.918  13.392  0.9837 -0.4623 -0.4238
  240MPD1     N 3648   2.741   2.689  13.764 -0.4192  0.0242 -0.4183
  240MPD1    H5 3649   2.658   2.660  13.814  0.0990 -0.2494  0.2782
  240MPD1    N1 3650   2.429   2.761  13.397 -0.0350 -0.3972  0.9813
  240MPD1    H6 3651   2.369   2.754  13.479  0.7749  1.7616  1.7618
  240MPD1    H7 3652   2.405   2.854  13.362  1.1852  0.3388  2.1322
  241MPD1     C 3653   3.390   2.959  14.455 -0.5564 -0.8632  1.0609
  241MPD1    C1 3654   3.337   2.847  14.520 -0.3291  0.1375 -0.0463
  241MPD1    C2 3655   3.237   2.779  14.449  0.2773  0.1289  0.2770
  241MPD1    C3 3656   3.205   2.808  14.317  0.0920  0.0834  0.9227
  241MPD1    C4 3657   3.272   2.911  14.255 -0.1447 -0.2886  0.7190
  241MPD1    C5 3658   3.356   2.990  14.326 -0.4430 -0.3814  0.7304
  241MPD1     H 3659   3.180   2.699  14.495  2.0439 -2.1704 -1.5161
  241MPD1    H1 3660   3.240   2.942  14.156  0.5389 -0.1098  0.5530
  241MPD1    H2 3661   3.464   3.019  14.506  1.3105  0.7932 -3.5348
  241MPD1    H3 3662   3.395   3.081  14.283  0.2895 -1.7146 -1.4163
  241MPD1     N 3663   3.103   2.739  14.252  0.4979 -0.2012 -0.1936
  241MPD1    H5 3664   3.100   2.766  14.154 -2.5095 -2.5052 -0.7242
  241MPD1    N1 3665   3.368   2.812  14.656  1.0865 -0.2262  0.7706
  241MPD1    H6 3666   3.347   2.718  14.688  1.3990  0.1488  2.0615
  241MPD1    H7 3667   3.450   2.853  14.701  0.7829  3.2122 -1.7640
  242MPD1     C 3668   2.750   1.290  15.615 -0.1768 -0.2538 -0.3597
  242MPD1    C1 3669   2.641   1.314  15.532  0.0252 -0.4051 -0.2432
  242MPD1    C2 3670   2.644   1.262  15.409 -0.4332  0.3269  0.1762
  242MPD1    C3 3671   2.744   1.170  15.369 -0.1521 -0.2512  0.1691
  242MPD1    C4 3672   2.846   1.145  15.453 -0.3199  0.0230 -0.7449
  242MPD1    C5 3673   2.853   1.202  15.581 -0.1625 -0.0005  0.6368
  242MPD1     H 3674   2.565   1.298  15.344 -1.5873 -0.9347  0.8772
  242MPD1    H1 3675   2.935   1.092  15.420 -0.2835 -0.5949  0.3625
  242MPD1    H2 3676   2.756   1.343  15.709 -0.0614  0.3257 -0.6990
  242MPD1    H3 3677   2.942   1.197  15.644  0.1709  3.4996  0.4335
  242MPD1     N 3678   2.753   1.117  15.236 -0.4849  0.5400  0.2718
  242MPD1    H5 3679   2.834   1.058  15.222 -1.1439 -0.3033  0.0216
  242MPD1    N1 3680   2.558   1.422  15.553  0.1580  0.0259  0.2948
  242MPD1    H6 3681   2.464   1.391  15.531 -0.7818  3.3802 -0.4202
  242MPD1    H7 3682   2.542   1.447  15.650 -0.5482  1.8619 -0.2938
  243MPD1     C 3683   0.240   3.262  16.833  0.1009  0.0402  0.4315
  243MPD1    C1 3684   0.277   3.324  16.953  0.1981  0.4798 -0.4754
  243MPD1    C2 3685   0.246   3.460  16.967 -0.0888  0.0070  0.1635
  243MPD1    C3 3686   0.206   3.539  16.859 -0.0045  0.3785 -0.1283
  243MPD1    C4 3687   0.190   3.483  16.734  0.1647 -0.1945  0.8567
  243MPD1    C5 3688   0.196   3.343  16.729  0.6169 -0.5511  0.1969
  243MPD1     H 3689   0.252   3.504  17.066 -1.4863 -1.9250  1.1136
  243MPD1    H1 3690   0.146   3.530  16.648  0.7151  1.9340  1.7475
  243MPD1    H2 3691   0.251   3.155  16.817 -1.1879 -0.1388  0.7546
  243MPD1    H3 3692   0.171   3.295  16.635 -1.6847  1.3253 -0.1162
  243MPD1     N 3693   0.171   3.673  16.885  0.0665  0.5518  0.1022
  243MPD1    H5 3694   0.190   3.708  16.978  0.4865 -0.3085  0.3430
  243MPD1    N1 3695   0.304   3.240  17.060  0.0837  0.0850  0.6899
  243MPD1    H6 3696   0.360   3.280  17.135  1.0706 -4.5604  2.4422
  243MPD1    H7 3697   0.338   3.147  17.035  0.4839  0.6122 -0.7055
  244MPD1     C 3698   4.500   3.818  17.602 -0.9693  0.3574 -0.2219
  244MPD1    C1 3699   4.626   3.784  17.568  0.7566 -0.1925 -0.2059
  244MPD1    C2 3700   4.665   3.804  17.437 -0.7206  0.0439  0.3411
  244MPD1    C3 3701   4.582   3.865  17.346  0.0023 -0.0482 -0.4833
  244MPD1    C4 3702   4.461   3.911  17.392 -0.1189  0.3828  0.3982
  244MPD1    C5 3703   4.413   3.879  17.520 -0.3488  0.0389 -0.0337
  244MPD1     H 3704   0.045   3.790  17.413 -0.5131  0.1773  1.1810
  244MPD1    H1 3705   4.409   3.974  17.321  0.2177  0.3896  0.1604
  244MPD1    H2 3706   4.459   3.791  17.699  2.0440  0.2912  1.0283
  244MPD1    H3 3707   4.310   3.901  17.545 -0.5497 -1.8051  0.7105
  244MPD1     N 3708   4.631   3.896  17.217  0.2286 -0.0062  0.7308
  244MPD1    H5 3709   4.719   3.850  17.196 -0.4242 -0.1988 -1.5888
  244MPD1    N1 3710   4.702   3.708  17.654  0.1420  0.2125  0.4274
  244MPD1    H6 3711   0.077   3.709  17.632 -0.1380 -2.5372 -0.8782
  244MPD1    H7 3712   4.698   3.740   0.052 -0.9336 -1.5033  0.9402
  245MPD1     C 3713   1.440   0.247  12.922 -0.3457 -0.8291  0.6013
  245MPD1    C1 3714   1.560   0.314  12.908  0.4339 -0.0972 -0.2791
  245MPD1    C2 3715   1.576   0.438  12.967 -0.0133 -0.0080 -0.6470
  245MPD1    C3 3716   1.466   0.507  13.024 -0.1862  0.7392  0.3984
  245MPD1    C4 3717   1.347   0.438  13.037  0.6363 -0.6557  0.4139
  245MPD1    C5 3718   1.335   0.309  12.983  0.2598 -0.1578 -0.4401
  245MPD1     H 3719   1.671   0.488  12.949  1.2621 -2.2966 -0.3046
  245MPD1    H1 3720   1.263   0.492  13.080  0.1812 -0.4406 -0.7439
  245MPD1    H2 3721   1.421   0.150  12.877 -1.4391 -0.9312  1.3029
  245MPD1    H3 3722   1.241   0.255  12.989  0.2395  0.1053  1.7177
  245MPD1     N 3723   1.480   0.625  13.105  0.0284  0.1287 -0.2432
  245MPD1    H5 3724   1.403   0.651  13.166 -0.9637 -2.6442 -0.3247
  245MPD1    N1 3725   1.676   0.251  12.853  0.0198 -0.5351  0.5713
  245MPD1    H6 3726   1.756   0.311  12.835 -0.6084  0.0443 -0.2981
  245MPD1    H7 3727   1.649   0.201  12.768  1.5052  2.1875 -1.5078
  246MPD1     C 3728   0.264   4.487   8.626  0.3426 -0.0307  0.3440
  246MPD1    C1 3729   0.187   4.594   8.606 -0.2936  0.0574  0.3242
  246MPD1    C2 3730   0.212   4.714   8.675 -0.4107 -0.0352 -0.3798
  246MPD1    C3 3731   0.316   4.715   8.769  0.3686  0.1649  0.6148
  246MPD1    C4 3732   0.398   4.600   8.790  1.1191  0.0183  0.0485
  246MPD1    C5 3733   0.365   4.493   8.713  0.2362  0.0499 -0.5509
  246MPD1     H 3734   0.146   0.076   8.672  0.0199  0.2184 -2.9515
  246MPD1    H1 3735   0.489   4.603   8.849 -0.3010 -2.0548  2.2995
  246MPD1    H2 3736   0.242   4.394   8.574 -2.1465  0.4022  0.6039
  246MPD1    H3 3737   0.414   4.399   8.737  0.1095 -0.4954 -2.4118
  246MPD1     N 3738   0.338   0.106   8.841  0.2247  0.6980 -0.0595
  246MPD1    H5 3739   0.284   0.187   8.811 -0.7590 -0.9418 -2.6394
  246MPD1    N1 3740   0.082   4.591   8.515  0.3311 -0.2018 -0.0520
  246MPD1    H6 3741   0.047   4.498   8.491 -0.5850 -0.2667  1.5208
  246MPD1    H7 3742   0.010   4.657   8.544  0.6725 -0.6489  1.8502
  247MPD1     C 3743   0.427   0.338  15.213  0.7589  0.4719 -0.3608
  247MPD1    C1 3744   0.527   0.246  15.197  0.0848  0.1027  0.3829
  247MPD1    C2 3745   0.608   0.223  15.312  0.1234  0.5677  0.2619
  247MPD1    C3 3746   0.580   0.273  15.437 -0.0093 -0.2829 -0.2731
  247MPD1    C4 3747   0.469   0.354  15.452 -0.5291  0.3506 -0.4350
  247MPD1    C5 3748   0.394   0.383  15.341 -0.0821 -0.2307  0.1732
  247MPD1     H 3749   0.687   0.149  15.300 -1.7139 -1.3993  0.2623
  247MPD1    H1 3750   0.437   0.390  15.549 -1.7513  1.0687 -1.1032
  247MPD1    H2 3751   0.358   0.353  15.131  0.5915  0.0276 -0.2995
  247MPD1    H3 3752   0.304   0.441  15.349  1.4436  2.5179 -2.5893
  247MPD1     N 3753   0.658   0.242  15.550  0.6608 -0.4406 -0.1580
  247MPD1    H5 3754   0.624   0.259  15.644  0.5130 -0.6354 -0.1776
  247MPD1    N1 3755   0.573   0.192  15.075 -0.6814 -0.3498  0.2298
  247MPD1    H6 3756   0.498   0.180  15.007 -0.5101  0.6274 -0.1335
  247MPD1    H7 3757   0.624   0.105  15.087 -1.9006 -1.2196 -0.7857
  248MPD1     C 3758   1.566   1.124  17.427 -0.0668  0.2941 -0.4492
  248MPD1    C1 3759   1.644   1.027  17.368  0.0767  0.5329  0.4679
  248MPD1    C2 3760   1.591   0.902  17.367  0.2919 -0.5765 -0.3531
  248MPD1    C3 3761   1.468   0.867  17.421  0.3307  0.4140 -0.1318
  248MPD1    C4 3762   1.384   0.964  17.471 -0.6378  0.3873  0.4977
  248MPD1    C5 3763   1.440   1.088  17.476 -0.1645 -0.2282 -0.2628
  248MPD1     H 3764   1.650   0.824  17.319  0.6620 -1.9783  2.4105
  248MPD1    H1 3765   1.294   0.935  17.522 -0.6788 -0.5012 -0.0813
  248MPD1    H2 3766   1.602   1.226  17.430  0.7390  0.0297 -1.1069
  248MPD1    H3 3767   1.381   1.168  17.518 -1.2662 -0.4323 -1.4313
  248MPD1     N 3768   1.445   0.727  17.426 -0.4671  0.1681  0.1935
  248MPD1    H5 3769   1.517   0.663  17.394  0.9269  0.7224  2.2011
  248MPD1    N1 3770   1.766   1.063  17.309 -0.9549  0.1240 -0.6828
  248MPD1    H6 3771   1.753   1.154  17.266  0.5416  1.4516  1.6358
  248MPD1    H7 3772   1.788   0.990  17.242  1.6514  1.5601 -1.3709
  249MPD1     C 3773   2.753   2.890  11.199  0.2891  0.3000 -0.2289
  249MPD1    C1 3774   2.755   2.756  11.180 -0.3723 -0.1404  0.0565
  249MPD1    C2 3775   2.753   2.709  11.049 -0.2389  0.0037 -0.0655
  249MPD1    C3 3776   2.734   2.790  10.940  0.0342 -0.4594  0.2348
  249MPD1    C4 3777   2.718   2.927  10.960 -0.7613  0.4095  0.3636
  249MPD1    C5 3778   2.740   2.977  11.090 -0.1457 -0.0605  0.1734
  249MPD1     H 3779   2.750   2.601  11.034 -0.2819 -0.2779  1.9935
  249MPD1    H1 3780   2.693   3.004  10.888 -0.0991 -0.7415 -1.0975
  249MPD1    H2 3781   2.792   2.928  11.293  2.2454 -1.5697 -0.3031
  249MPD1    H3 3782   2.740   3.082  11.115 -1.9945 -0.6986  2.7957
  249MPD1     N 3783   2.720   2.728  10.815  0.2128 -0.1199  0.3546
  249MPD1    H5 3784   2.734   2.628  10.811  0.9237 -0.0416  1.1226
  249MPD1    N1 3785   2.778   2.667  11.287  0.2597  0.1717  1.0004
  249MPD1    H6 3786   2.763   2.704  11.381  1.1550 -0.8976  1.5746
  249MPD1    H7 3787   2.725   2.580  11.278 -1.5693  1.7983 -3.4830
  250MPD2     C 3788   4.316   3.685  12.835  0.5495 -0.2848 -0.6540
  250MPD2    C1 3789   4.262   3.763  12.732  0.4145 -0.7026 -0.1135
  250MPD2    C2 3790   4.186   3.692  12.638 -0.2274 -0.1135 -0.2682
  250MPD2    C3 3791   4.177   3.550  12.644  0.0400 -0.0307  0.4046
  250MPD2    C4 3792   4.223   3.485  12.748 -0.2822  0.3472 -0.5119
  250MPD2    C5 3793   4.295   3.551  12.837 -0.0394 -0.2930 -0.3309
  250MPD2     H 3794   4.145   3.745  12.552  0.5379  1.1864  0.1718
  250MPD2    H1 3795   4.197   3.381  12.760  0.5405 -0.0721 -2.2445
  250MPD2    H2 3796   4.365   3.736  12.917 -0.2685  0.7546 -0.7995
  250MPD2    H3 3797   4.319   3.490  12.923 -2.9693 -1.2597 -0.1927
  250MPD2     N 3798   4.115   3.471  12.544  0.2437 -0.2946  0.2247
  250MPD2    H5 3799   4.120   3.370  12.555  0.8646 -0.1242  1.5275
  250MPD2    N1 3800   4.298   3.902  12.732  0.0397  0.0424 -0.1727
  250MPD2    H7 3801   4.367   3.930  12.801 -0.0754 -1.6164  0.5932
  251TMC3    C1 3802   4.329   4.119  12.650  0.0127 -0.0194  0.2409
  251TMC3    C2 3803   4.284   4.236  12.706  0.1662  0.3597 -0.0397
  251TMC3    C3 3804   4.373   4.332  12.743  0.0078  0.3778  0.2238
  251TMC3    C4 3805   4.463   4.105  12.615 -0.0329  0.7409  0.1341
  251TMC3    C5 3806   4.552   4.204  12.653  0.0072  0.0089 -0.0220
  251TMC3    C6 3807   4.506   4.317  12.716 -0.2529 -0.0443  0.2966
  251TMC3     C 3808   4.253   3.994  12.647  0.6161 -0.2180 -0.4418
  251TMC3     O 3809   4.158   3.993  12.577  0.2373 -0.2993 -0.3985
  251TMC3     H 3810   4.179   4.248  12.730 -0.3338 -0.9603 -1.5148
  251TMC3    H1 3811   4.498   4.011  12.573 -0.4961  1.2823 -1.4825
  251TMC3    H2 3812   4.579   4.385  12.758 -1.3869  1.1850  0.2855
  251TMC3    C7 3813   4.661   4.138  12.722  0.3773 -0.9673  0.4301
  251TMC3    C8 3814   4.320   4.453  12.796  0.1890  0.5854  0.0461
  251TMC3    O1 3815   4.633   4.027  12.770 -0.6761 -0.4085 -0.5771
  251TMC3    O2 3816   4.203   4.462  12.816 -0.5921  0.0637 -0.3146
  252TMC3    C1 3817   4.248   0.836   9.186 -0.2942  0.0703 -0.1498
  252TMC3    C2 3818   4.370   0.815   9.243 -0.8154 -0.1437 -0.1009
  252TMC3    C3 3819   4.402   0.699   9.295  0.0129  0.3768 -0.1250
  252TMC3    C4 3820   4.165   0.729   9.168  0.2700 -0.5388 -1.2963
  252TMC3    C5 3821   4.198   0.610   9.233 -0.6107 -0.0718  0.1588
  252TMC3    C6 3822   4.317   0.590   9.295 -0.4730  0.4633 -0.2977
  252TMC3     C 3823   4.222   0.954   9.104 -0.4182  0.3272 -0.8445
  252TMC3     O 3824   4.114   0.966   9.041  0.2915 -0.2213 -0.3555
  252TMC3     H 3825   4.439   0.894   9.269  1.3336 -1.4804 -1.7472
  252TMC3    H1 3826   4.066   0.751   9.130 -0.4732 -1.6394  0.0058
  252TMC3    H2 3827   4.350   0.493   9.329  0.2459  1.1775  1.0397
  252TMC3    C7 3828   4.103   0.502   9.220  0.1721 -0.4590  0.4515
  252TMC3    C8 3829   4.477   0.700   9.414  0.1878 -0.3571  0.2057
  252TMC3    O1 3830   4.007   0.515   9.145 -0.5071 -0.1239 -0.1025
  252TMC3    O2 3831   4.428   0.630   9.503 -0.2053  0.2047 -0.5005
  253MPD2     C 3832   1.000   3.378  15.015  0.1415  0.0968 -0.0940
  253MPD2    C1 3833   0.862   3.370  14.986 -0.3448  0.8553 -0.0658
  253MPD2    C2 3834   0.774   3.403  15.091 -0.5058 -0.4807  0.0223
  253MPD2    C3 3835   0.821   3.447  15.216 -0.1653  0.2850  0.1150
  253MPD2    C4 3836   0.955   3.457  15.232  0.2988 -0.5985 -0.4610
  253MPD2    C5 3837   1.042   3.428  15.135 -0.4171 -0.2261  0.1932
  253MPD2     H 3838   0.669   3.397  15.064  0.1058  1.1699 -2.6515
  253MPD2    H1 3839   0.996   3.512  15.316 -1.2606 -0.7866  0.4217
  253MPD2    H2 3840   1.077   3.347  14.945 -0.7637 -0.7306 -0.7249
  253MPD2    H3 3841   1.147   3.448  15.154 -0.5499 -0.5801  1.3346
  253MPD2     N 3842   0.740   3.479  15.323 -0.2471 -0.2408 -0.0080
  253MPD2    H5 3843   0.793   3.495  15.409 -1.2692  0.3546  0.5081
  253MPD2    N1 3844   0.806   3.321  14.868  0.0482 -0.3005  0.0503
  253MPD2    H7 3845   0.707   3.299  14.863  0.6992 -3.2332  0.1167
  254TMC3    C1 3846   0.558   3.535  15.455 -0.4693 -0.3239 -0.2312
  254TMC3    C2 3847   0.544   3.668  15.488  0.5375  0.0994 -0.2511
  254TMC3    C3 3848   0.569   3.693  15.617 -0.0111  0.2527  0.2231
  254TMC3    C4 3849   0.585   3.426  15.543 -0.9636  0.6027 -0.0486
  254TMC3    C5 3850   0.589   3.463  15.673  0.2989 -0.3876  0.7786
  254TMC3    C6 3851   0.579   3.593  15.713 -0.0237  0.7228  0.2657
  254TMC3     C 3852   0.601   3.506  15.323  0.0722  0.0907  0.2385
  254TMC3     O 3853   0.514   3.498  15.234  0.0735 -0.2262  0.2616
  254TMC3     H 3854   0.534   3.741  15.409 -1.2908 -1.0373 -1.0722
  254TMC3    H1 3855   0.607   3.324  15.514 -3.0906  0.0230  0.3471
  254TMC3    H2 3856   0.559   3.625  15.815 -0.2934  0.3591  0.3255
  254TMC3    C7 3857   0.621   3.366  15.774  0.3925 -1.2752  0.9772
  254TMC3    C8 3858   0.528   3.824  15.679 -0.0185 -0.0998  0.1469
  254TMC3    O1 3859   0.685   3.399  15.872  1.0137  0.4434 -0.1172
  254TMC3    O2 3860   0.552   3.840  15.798  0.1196  0.5310  0.4051
  255MPD2     C 3861   3.235   2.229  10.388 -0.4632  0.2301  0.3576
  255MPD2    C1 3862   3.287   2.340  10.318  0.5845  0.3034 -0.2578
  255MPD2    C2 3863   3.421   2.331  10.282 -0.0662 -0.3620 -0.6098
  255MPD2    C3 3864   3.495   2.220  10.310  0.2392  0.1966  0.2422
  255MPD2    C4 3865   3.438   2.110  10.381  0.7172 -0.5393 -0.5912
  255MPD2    C5 3866   3.311   2.123  10.418  0.2753 -0.7104  0.8498
  255MPD2     H 3867   3.464   2.408  10.219 -1.0817 -0.7580 -1.7708
  255MPD2    H1 3868   3.492   2.025  10.421 -2.1520 -1.3738  1.5560
  255MPD2    H2 3869   3.132   2.229  10.421  0.0002  0.1174  1.7974
  255MPD2    H3 3870   3.266   2.046  10.480  1.9370 -0.5952  2.2030
  255MPD2     N 3871   3.626   2.214  10.263 -0.2982 -0.4026  0.2816
  255MPD2    H5 3872   3.677   2.300  10.248 -0.6542 -0.7076 -2.5898
  255MPD2    N1 3873   3.203   2.442  10.280  0.6243  0.5178 -0.0212
  255MPD2    H7 3874   3.104   2.430  10.293  0.7514 -0.8009 -0.3341
  256TMC3    C1 3875   3.150   2.641  10.135 -0.2930 -0.6593  0.3140
  256TMC3    C2 3876   3.204   2.740  10.064  0.1097 -0.3645  0.0408
  256TMC3    C3 3877   3.161   2.756   9.934 -0.5443 -0.2124  0.8054
  256TMC3    C4 3878   3.046   2.564  10.090  0.0070  0.1088 -0.1923
  256TMC3    C5 3879   2.994   2.594   9.972 -0.4534  0.4659  0.6626
  256TMC3    C6 3880   3.055   2.681   9.887  0.6650 -0.0841 -0.0060
  256TMC3     C 3881   3.246   2.559  10.217  0.0221 -0.3461 -0.6901
  256TMC3     O 3882   3.355   2.606  10.216  0.2775 -0.0977  0.2225
  256TMC3     H 3883   3.289   2.795  10.102  1.8354 -2.1174 -1.2428
  256TMC3    H1 3884   2.998   2.484  10.146 -0.2093  0.1158 -0.3662
  256TMC3    H2 3885   3.036   2.697   9.782  1.2395  0.7176  0.0126
  256TMC3    C7 3886   2.923   2.484   9.905 -0.0259 -0.0688  0.6440
  256TMC3    C8 3887   3.220   2.844   9.843  0.4037  0.4140 -0.0428
  256TMC3    O1 3888   2.954   2.375   9.946  0.9122 -0.2387 -0.4521
  256TMC3    O2 3889   3.145   2.914   9.777  0.7523 -0.3543  0.4569
  257MPD2     C 3890   3.593   3.898  12.941  1.0311 -0.3622  0.1053
  257MPD2    C1 3891   3.520   3.816  12.857  1.1049 -0.1558 -0.0638
  257MPD2    C2 3892   3.498   3.684  12.896  0.3419 -0.3202 -0.1711
  257MPD2    C3 3893   3.528   3.639  13.018 -0.3205  0.1465  0.3447
  257MPD2    C4 3894   3.608   3.719  13.097  0.1302 -0.2370  0.0364
  257MPD2    C5 3895   3.639   3.850  13.058  0.4593  0.1096 -0.1010
  257MPD2     H 3896   3.431   3.617  12.843 -0.2950 -0.6328  1.0230
  257MPD2    H1 3897   3.659   3.685  13.187 -0.4515 -2.9809 -0.6632
  257MPD2    H2 3898   3.618   4.000  12.914  0.8478 -0.8059 -1.7628
  257MPD2    H3 3899   3.696   3.920  13.118 -1.3755  0.1693  1.5690
  257MPD2     N 3900   3.490   3.504  13.064 -0.7479 -0.0956  0.2425
  257MPD2    H5 3901   3.457   3.436  12.996 -1.6636  1.5386 -0.9597
  257MPD2    N1 3902   3.476   3.868  12.739  0.1614  0.1256  0.3639
  257MPD2    H7 3903   3.498   3.965  12.719  0.2962 -0.6515 -3.2353
  258TMC3    C1 3904   3.511   3.315  13.198 -0.5623 -0.4974 -0.3364
  258TMC3    C2 3905   3.568   3.251  13.095 -0.2246 -0.5111  0.7978
  258TMC3    C3 3906   3.597   3.118  13.108 -0.8167  0.5131  0.7239
  258TMC3    C4 3907   3.510   3.253  13.324 -0.0356 -0.0617  0.2369
  258TMC3    C5 3908   3.551   3.127  13.335  0.2084 -0.0859  0.0715
  258TMC3    C6 3909   3.595   3.057  13.229 -0.2125 -0.6499 -0.0619
  258TMC3     C 3910   3.502   3.459  13.191 -0.1691 -0.4682  0.2871
  258TMC3     O 3911   3.484   3.512  13.301  0.1276  0.1207 -0.2253
  258TMC3     H 3912   3.596   3.305  13.005 -0.7597 -1.2108  0.2140
  258TMC3    H1 3913   3.450   3.306  13.396 -0.0049 -0.3561  0.4772
  258TMC3    H2 3914   3.628   2.955  13.249  3.4833  0.3345 -1.2639
  258TMC3    C7 3915   3.493   3.059  13.448 -0.0539  0.6899  0.1068
  258TMC3    C8 3916   3.616   3.034  12.993  0.1514 -0.3110 -0.3895
  258TMC3    O1 3917   3.372   3.072  13.456 -0.1690  0.0389 -0.1267
  258TMC3    O2 3918   3.651   2.918  13.005 -0.1014 -0.4068  0.0137
  259MPD2     C 3919   2.192   4.610   1.543  0.4001  0.4431 -0.6651
  259MPD2    C1 3920   2.078   4.631   1.469 -0.6467  0.2643 -0.6635
  259MPD2    C2 3921   2.079   4.599   1.333 -0.5067  0.0494  0.2830
  259MPD2    C3 3922   2.196   4.543   1.279  0.3257 -0.0457  0.0392
  259MPD2    C4 3923   2.303   4.512   1.360 -0.7430  0.1787  0.2143
  259MPD2    C5 3924   2.299   4.541   1.497  0.3767  0.0065 -0.5970
  259MPD2     H 3925   1.995   4.621   1.268  0.1913 -1.1163 -1.0173
  259MPD2    H1 3926   2.396   4.475   1.319  0.0842 -0.0269  2.2581
  259MPD2    H2 3927   2.188   4.640   1.647  1.4693 -1.0020 -0.2103
  259MPD2    H3 3928   2.378   4.511   1.564 -0.3143  1.5486  0.8906
  259MPD2     N 3929   2.200   4.525   1.138  0.3407  0.2539 -0.4112
  259MPD2    H5 3930   2.124   4.570   1.088 -0.1699 -0.4285 -0.2529
  259MPD2    N1 3931   1.962   4.685   1.527 -0.0002  0.3650  0.0245
  259MPD2    H7 3932   1.968   4.700   1.627 -1.2900 -1.1361  0.3274
  260TMC3    C1 3933   2.269   4.474   0.918  0.1225  0.1412 -0.5684
  260TMC3    C2 3934   2.376   4.465   0.833  0.0676 -0.5420 -0.4818
  260TMC3    C3 3935   2.363   4.459   0.699 -0.6578  0.0565 -0.5769
  260TMC3    C4 3936   2.138   4.477   0.870 -0.0612  0.0611  0.1754
  260TMC3    C5 3937   2.126   4.478   0.734  0.3859  0.1996 -0.2384
  260TMC3    C6 3938   2.234   4.468   0.645 -1.0880  0.5108 -0.4667
  260TMC3     C 3939   2.296   4.457   1.061 -0.1222 -0.0810  0.3315
  260TMC3     O 3940   2.390   4.387   1.094 -0.0898 -0.2610 -0.0521
  260TMC3     H 3941   2.469   4.471   0.887  0.3982  0.3730 -1.1402
  260TMC3    H1 3942   2.055   4.477   0.941 -1.3182 -1.7020 -1.2935
  260TMC3    H2 3943   2.221   4.464   0.537 -0.5583  1.7715 -0.5769
  260TMC3    C7 3944   1.989   4.487   0.683 -1.1353 -0.3766 -0.8085
  260TMC3    C8 3945   2.473   4.493   0.608  0.4381 -0.1268  0.2912
  260TMC3    O1 3946   1.890   4.496   0.760  0.7818  0.1671  0.5054
  260TMC3    O2 3947   2.448   4.560   0.507 -0.0465  0.5343  0.3246
  261MPD2     C 3948   3.563   3.509  11.899  0.0688 -0.5337  0.0317
  261MPD2    C1 3949   3.673   3.575  11.946 -1.0789 -0.0768 -0.0434
  261MPD2    C2 3950   3.706   3.699  11.899  0.0028 -0.1615  0.1932
  261MPD2    C3 3951   3.611   3.777  11.832 -0.0360  0.3463 -0.0184
  261MPD2    C4 3952   3.504   3.712  11.779 -0.1338  0.2215  0.1206
  261MPD2    C5 3953   3.485   3.577  11.811  0.2386 -0.1543 -0.8233
  261MPD2     H 3954   3.806   3.730  11.925 -0.0635  0.7482 -0.6506
  261MPD2    H1 3955   3.431   3.767  11.721  1.9426  0.7172 -2.0223
  261MPD2    H2 3956   3.532   3.411  11.932 -0.8878 -0.0968  0.4228
  261MPD2    H3 3957   3.394   3.530  11.776  0.8093 -0.8723 -1.3583
  261MPD2     N 3958   3.637   3.915  11.817  0.6297  0.6361 -0.0626
  261MPD2    H5 3959   3.718   3.953  11.865  1.8422  0.1436 -1.6865
  261MPD2    N1 3960   3.744   3.516  12.043  0.3033  0.3520  0.6487
  261MPD2    H7 3961   3.814   3.575  12.087 -0.5181  1.6882  0.1516
  262TMC3    C1 3962   3.609   4.140  11.752  0.0740  0.1929  0.3717
  262TMC3    C2 3963   3.548   4.232  11.670 -0.6653 -0.4479 -0.3939
  262TMC3    C3 3964   3.586   4.360  11.675  0.0934 -0.1111 -0.0886
  262TMC3    C4 3965   3.693   4.185  11.855 -0.3021 -0.2213  0.7045
  262TMC3    C5 3966   3.721   4.321  11.874 -0.5578 -0.4572 -0.6283
  262TMC3    C6 3967   3.668   4.410  11.778  0.3406  0.3303  0.7197
  262TMC3     C 3968   3.560   4.002  11.741  0.1106  0.1538 -0.5371
  262TMC3     O 3969   3.470   3.983  11.657 -0.0372  0.1879  0.2008
  262TMC3     H 3970   3.484   4.203  11.587  0.7756  0.5321 -1.8562
  262TMC3    H1 3971   3.751   4.117  11.915  0.8930  1.3514  1.3397
  262TMC3    H2 3972   3.688   4.516  11.789  0.1933  0.1915  2.2978
  262TMC3    C7 3973   3.860   4.341  11.900  0.1655  0.1484  0.3980
  262TMC3    C8 3974   3.583   4.443  11.559 -0.2347  0.2302  0.1417
  262TMC3    O1 3975   3.926   4.262  11.966 -0.1404  0.1012 -0.1025
  262TMC3    O2 3976   3.675   4.524  11.557  0.4326 -0.2572  0.6523
  263MPD2     C 3977   4.384   2.864  11.300 -0.3196  0.0487 -0.1092
  263MPD2    C1 3978   4.507   2.899  11.286 -0.2877 -0.5378  0.4763
  263MPD2    C2 3979   4.540   3.005  11.198 -0.1319 -0.7763  0.4343
  263MPD2    C3 3980   4.442   3.052  11.110  0.1409  0.5067  0.9474
  263MPD2    C4 3981   4.309   3.005  11.124  0.3434  0.8021  0.8330
  263MPD2    C5 3982   4.289   2.918  11.225  0.5405 -0.1891  0.7152
  263MPD2     H 3983   4.644   3.032  11.188  0.4135 -1.4177  4.3127
  263MPD2    H1 3984   4.225   3.035  11.062  1.7491  1.1855 -0.8967
  263MPD2    H2 3985   4.358   2.782  11.366 -1.3307 -1.7164 -2.7233
  263MPD2    H3 3986   4.187   2.888  11.246  0.3238  0.4081  0.5310
  263MPD2     N 3987   4.477   3.146  11.014 -0.3595 -0.4209  0.0938
  263MPD2    H5 3988   4.577   3.157  10.997 -0.3906  0.8138  0.7000
  263MPD2    N1 3989   4.596   2.832  11.375  0.3387 -0.0381 -0.0527
  263MPD2    H7 3990   4.561   2.770  11.448 -3.4230  3.1415  0.8501
  264TMC3    C1 3991   4.444   3.342  10.871  0.1984  0.5035 -0.2546
  264TMC3    C2 3992   4.377   3.455  10.851  0.6530  0.2402  0.7929
  264TMC3    C3 3993   4.423   3.550  10.766 -0.2748  0.1413 -0.0168
  264TMC3    C4 3994   4.564   3.324  10.806 -0.1964 -0.5056 -0.5122
  264TMC3    C5 3995   4.611   3.426  10.725  0.0391  0.0431 -0.5229
  264TMC3    C6 3996   4.537   3.535  10.691  0.1610 -0.6657 -0.7119
  264TMC3     C 3997   4.386   3.240  10.966 -0.8479  0.6978  0.2219
  264TMC3     O 3998   4.267   3.258  10.997  0.1451  0.0683  0.5667
  264TMC3     H 3999   4.289   3.473  10.912 -0.5031  1.6424 -1.2920
  264TMC3    H1 4000   4.625   3.243  10.844  0.1043  0.7818  1.8045
  264TMC3    H2 4001   4.575   3.616  10.630 -0.8865  0.2620 -0.1483
  264TMC3    C7 4002   0.026   3.428  10.715  0.1547 -0.1171  0.1299
  264TMC3    C8 4003   4.392   3.692  10.793  0.1473 -0.5628  0.2048
  264TMC3    O1 4004   0.079   3.315  10.717  0.9152  0.3458  0.5245
  264TMC3    O2 4005   4.391   3.761  10.689 -0.6690 -0.1491  0.6171
  265MPD2     C 4006   2.175   3.425  14.642  0.0793  0.1189 -0.4413
  265MPD2    C1 4007   2.281   3.478  14.716 -0.0112  0.4604  0.3208
  265MPD2    C2 4008   2.411   3.436  14.680 -0.4742 -0.4405 -0.2205
  265MPD2    C3 4009   2.435   3.364  14.563  0.7209 -0.2457  0.5048
  265MPD2    C4 4010   2.323   3.317  14.488 -0.2669 -0.2564 -1.0289
  265MPD2    C5 4011   2.202   3.344  14.537 -0.1610 -0.1938  0.8932
  265MPD2     H 4012   2.501   3.466  14.734  0.0927 -0.7960 -0.9728
  265MPD2    H1 4013   2.341   3.254  14.401  0.5506  1.0209 -1.8013
  265MPD2    H2 4014   2.074   3.454  14.667  1.3987  3.0570  1.5574
  265MPD2    H3 4015   2.115   3.302  14.488  0.2283 -1.1736  1.0596
  265MPD2     N 4016   2.556   3.315  14.519  0.1687  0.0646 -0.3158
  265MPD2    H5 4017   2.557   3.242  14.449  0.2538  0.1752 -0.4299
  265MPD2    N1 4018   2.272   3.556  14.829 -0.1933  0.4962 -0.1585
  265MPD2    H7 4019   2.353   3.564  14.890  0.5853 -1.4294 -0.9269
  266TMC3    C1 4020   2.174   3.703  14.992  0.5660 -0.4849 -0.4059
  266TMC3    C2 4021   2.238   3.652  15.099 -0.3193  0.0791  0.1739
  266TMC3    C3 4022   2.262   3.737  15.209 -0.4094 -0.1360  0.4613
  266TMC3    C4 4023   2.136   3.833  14.985  0.1340  0.7038  0.1385
  266TMC3    C5 4024   2.189   3.913  15.080 -0.0791  0.2304  0.0655
  266TMC3    C6 4025   2.243   3.869  15.198 -0.3869 -0.3672 -0.3238
  266TMC3     C 4026   2.158   3.626  14.866 -0.4259  0.1158 -0.2324
  266TMC3     O 4027   2.062   3.651  14.795  0.5801  0.2506  0.5153
  266TMC3     H 4028   2.253   3.546  15.113 -2.7951 -0.3176 -0.1211
  266TMC3    H1 4029   2.084   3.879  14.902 -1.0460 -1.9431 -0.5645
  266TMC3    H2 4030   2.231   3.938  15.281  0.6468  0.7542 -1.1027
  266TMC3    C7 4031   2.142   4.056  15.076 -0.1305 -0.0729  0.4970
  266TMC3    C8 4032   2.294   3.666  15.331  0.5539 -0.3433 -0.0342
  266TMC3    O1 4033   2.032   4.073  15.030 -0.0350  0.6079 -0.0335
  266TMC3    O2 4034   2.315   3.545  15.326  0.1369  0.3600  0.1276
  267MPD2     C 4035   4.464   1.033   0.218 -0.3612  0.4157  0.1860
  267MPD2    C1 4036   4.435   0.909   0.224 -0.4599 -0.1466 -0.1690
  267MPD2    C2 4037   4.314   0.864   0.282  0.1251 -0.0429  0.0578
  267MPD2    C3 4038   4.221   0.959   0.326  0.2085 -0.5602  0.2491
  267MPD2    C4 4039   4.252   1.094   0.309  0.2296 -0.7562  0.0421
  267MPD2    C5 4040   4.375   1.127   0.264 -0.0579  0.3500  0.7214
  267MPD2     H 4041   4.287   0.760   0.266  2.0087 -0.1985 -2.0702
  267MPD2    H1 4042   4.176   1.166   0.339  1.0560  0.6212 -1.1985
  267MPD2    H2 4043   4.545   1.082   0.165  0.4946 -2.7946 -1.4608
  267MPD2    H3 4044   4.399   1.233   0.261 -0.6989  0.4666 -0.0555
  267MPD2     N 4045   4.093   0.921   0.379 -0.1217  0.1293 -0.0913
  267MPD2    H5 4046   4.023   0.994   0.382 -0.7493 -0.5043  0.8585
  267MPD2    N1 4047   4.530   0.826   0.176  0.7477  0.3341 -0.2168
  267MPD2    H7 4048   4.619   0.872   0.158 -0.9611  3.2115 -1.1925
  268TMC3    C1 4049   4.623   0.622   0.087 -0.2965  0.2458  0.8534
  268TMC3    C2 4050   4.703   0.698   0.007 -0.0617 -0.2941 -0.6643
  268TMC3    C3 4051   0.104   0.654  17.689  0.2629 -0.1218  0.4510
  268TMC3    C4 4052   4.665   0.502   0.138  0.4115 -0.3819  0.2753
  268TMC3    C5 4053   0.065   0.460   0.118 -0.0784  0.1013  0.5537
  268TMC3    C6 4054   0.152   0.540   0.052  0.3245  0.3005 -0.7107
  268TMC3     C 4055   4.509   0.692   0.145 -1.0459 -0.2447  0.2482
  268TMC3     O 4056   4.414   0.615   0.166  0.1860 -0.0656 -0.1977
  268TMC3     H 4057   4.675   0.795  17.667 -3.5152 -0.3518  1.6565
  268TMC3    H1 4058   4.585   0.442   0.182  0.7275 -1.4863 -0.6452
  268TMC3    H2 4059   0.257   0.517   0.055  0.3227  0.1621 -1.7464
  268TMC3    C7 4060   0.105   0.325   0.149  0.1625 -0.4505 -0.6563
  268TMC3    C8 4061   0.193   0.743  17.619 -0.5265  0.4944 -0.3341
  268TMC3    O1 4062   0.042   0.269   0.237  0.1670  0.3289  0.5395
  268TMC3    O2 4063   0.314   0.754  17.650 -0.3203 -0.2539 -0.0662
  269MPD2     C 4064   0.205   3.651  15.387 -0.1812  0.6844 -0.3392
  269MPD2    C1 4065   0.099   3.687  15.469  0.1770  0.1704 -0.0438
  269MPD2    C2 4066   0.050   3.816  15.462  0.4052  0.3959  0.2935
  269MPD2    C3 4067   0.124   3.918  15.401  0.2385  0.4126 -0.3536
  269MPD2    C4 4068   0.229   3.881  15.319 -0.6217 -0.1647 -0.0583
  269MPD2    C5 4069   0.259   3.749  15.304 -0.5342 -0.2489 -0.2145
  269MPD2     H 4070   4.685   3.847  15.515  0.2388 -1.2595  0.9990
  269MPD2    H1 4071   0.287   3.953  15.263 -1.1651 -1.1218 -1.8636
  269MPD2    H2 4072   0.233   3.547  15.381 -1.8035  0.0419  2.9642
  269MPD2    H3 4073   0.342   3.730  15.237 -1.4250 -1.0986 -1.0880
  269MPD2     N 4074   0.076   4.054  15.401 -1.1677 -0.5195  0.4161
  269MPD2    H5 4075   4.724   4.076  15.464  0.0219  1.0026  1.3198
  269MPD2    N1 4076   0.027   3.578  15.538  0.1171 -0.5362  0.2926
  269MPD2    H7 4077   0.054   3.482  15.519 -1.1478 -1.1282  1.5205
  270TMC3    C1 4078   4.602   3.463  15.661 -0.1131  0.0970 -0.2933
  270TMC3    C2 4079   4.465   3.450  15.634 -0.5768  0.5874  0.0705
  270TMC3    C3 4080   4.419   3.340  15.573  0.0583  0.8209  0.3883
  270TMC3    C4 4081   4.689   3.359  15.640  0.5456  0.7153 -0.3159
  270TMC3    C5 4082   4.636   3.237  15.593  0.3045  0.3500  0.3633
  270TMC3    C6 4083   4.505   3.230  15.547  0.2284  0.2559  0.6468
  270TMC3     C 4084   4.649   3.594  15.621 -0.7409  0.0494  0.2371
  270TMC3     O 4085   4.594   3.695  15.659 -0.4184 -0.6217 -0.4231
  270TMC3     H 4086   4.396   3.533  15.627 -1.0713  0.0844 -1.0461
  270TMC3    H1 4087   0.067   3.370  15.673  0.2190  0.3363  0.8292
  270TMC3    H2 4088   4.450   3.144  15.511 -1.1878  1.3822  0.0615
  270TMC3    C7 4089   0.011   3.154  15.527  0.1038 -0.3067 -0.1092
  270TMC3    C8 4090   4.297   3.345  15.488  0.1742  0.5010  0.3341
  270TMC3    O1 4091   0.115   3.208  15.490  0.2692 -0.3625 -0.6631
  270TMC3    O2 4092   4.197   3.406  15.526 -0.1395 -0.2145  0.0893
  271MPD2     C 4093   3.791   3.847  13.763 -0.0345 -0.3291  0.1238
  271MPD2    C1 4094   3.734   3.779  13.869  0.1601  0.0921  0.0623
  271MPD2    C2 4095   3.598   3.798  13.894 -0.0616 -0.5287 -0.1625
  271MPD2    C3 4096   3.523   3.868  13.798 -0.1858  0.2607  0.8500
  271MPD2    C4 4097   3.586   3.915  13.682  0.5873  0.7360 -0.6661
  271MPD2    C5 4098   3.719   3.915  13.675 -0.6806  1.5168 -0.1413
  271MPD2     H 4099   3.551   3.765  13.986 -0.6777  0.7322 -0.0230
  271MPD2    H1 4100   3.520   3.960  13.609  0.4449  1.3677 -0.1499
  271MPD2    H2 4101   3.899   3.847  13.752 -0.2916 -2.9804 -2.3145
  271MPD2    H3 4102   3.765   3.962  13.589  1.8805 -0.7981 -0.0429
  271MPD2     N 4103   3.384   3.889  13.800  0.3054  0.2696  0.2587
  271MPD2    H5 4104   3.344   3.952  13.731  0.8941 -2.0840 -2.2358
  271MPD2    N1 4105   3.802   3.687  13.954  0.1247  0.1148 -0.0481
  271MPD2    H7 4106   3.749   3.630  14.019  1.8244 -0.6600  0.6301
  272TMC3    C1 4107   3.983   3.582  14.059  0.3654  0.4995  0.0070
  272TMC3    C2 4108   4.100   3.505  14.045  0.6470 -0.6152 -0.0669
  272TMC3    C3 4109   4.148   3.430  14.152 -0.6296 -0.0655 -0.7579
  272TMC3    C4 4110   3.911   3.563  14.177  0.1230  0.2263 -0.5573
  272TMC3    C5 4111   3.957   3.478  14.273  1.2600 -0.2728  0.1164
  272TMC3    C6 4112   4.077   3.420  14.266  0.4890  0.9211  0.8815
  272TMC3     C 4113   3.937   3.662  13.945  0.0909 -0.0472 -0.5356
  272TMC3     O 4114   4.015   3.690  13.859 -0.3452  0.3153  0.1187
  272TMC3     H 4115   4.171   3.518  13.964  2.4800 -1.9760  1.3084
  272TMC3    H1 4116   3.821   3.620  14.196 -0.3997 -1.6512  2.5905
  272TMC3    H2 4117   4.109   3.350  14.343 -1.4288  0.7506  1.5354
  272TMC3    C7 4118   3.895   3.489  14.404  0.5926 -0.7237  0.3773
  272TMC3    C8 4119   4.245   3.328  14.118 -0.6096  0.4766 -0.0699
  272TMC3    O1 4120   3.776   3.520  14.403  0.9507  0.4156 -0.1117
  272TMC3    O2 4121   4.275   3.316  14.000  0.3841  0.4658  0.2139
  273MPD2     C 4122   0.032   1.997  11.324  0.2843  0.6337 -0.0225
  273MPD2    C1 4123   0.164   2.017  11.351 -0.6983 -0.3274 -0.0644
  273MPD2    C2 4124   0.257   1.942  11.280  0.2274 -1.0025  1.1351
  273MPD2    C3 4125   0.221   1.853  11.177 -0.9718  0.3611 -0.5536
  273MPD2    C4 4126   0.086   1.848  11.148 -0.2859  0.5798  0.5064
  273MPD2    C5 4127   4.716   1.911  11.223  0.5380  0.1938 -0.1022
  273MPD2     H 4128   0.360   1.947  11.314  0.5777  1.8635 -0.3317
  273MPD2    H1 4129   0.058   1.784  11.065  1.5133 -1.3571  1.3796
  273MPD2    H2 4130   4.685   2.061  11.375  0.3044  0.3460  0.3631
  273MPD2    H3 4131   4.612   1.911  11.192  0.9798  0.9592 -1.6051
  273MPD2     N 4132   0.324   1.806  11.084  0.0083 -0.3497 -0.1650
  273MPD2    H5 4133   0.294   1.767  10.996 -2.0319 -1.0709  0.8363
  273MPD2    N1 4134   0.199   2.122  11.447 -1.0081  0.4730  0.0255
  273MPD2    H7 4135   0.126   2.169  11.500 -1.6581  0.5456 -0.9254
  274TMC3    C1 4136   0.537   1.864  10.982 -0.2025 -0.1429  0.2673
  274TMC3    C2 4137   0.480   1.875  10.858 -0.3174  0.4141 -0.2033
  274TMC3    C3 4138   0.524   1.974  10.766 -0.0034  0.1068  0.1034
  274TMC3    C4 4139   0.639   1.957  11.008 -0.3836 -0.3739  0.0409
  274TMC3    C5 4140   0.682   2.046  10.912  0.4557 -0.3944 -0.1033
  274TMC3    C6 4141   0.631   2.055  10.785  0.3135  0.9613 -0.2207
  274TMC3     C 4142   0.457   1.832  11.101 -1.0210  1.0414 -0.1138
  274TMC3     O 4143   0.519   1.836  11.205 -0.9055  0.8625  0.0956
  274TMC3     H 4144   0.397   1.815  10.821 -1.0971  1.1280  0.4011
  274TMC3    H1 4145   0.688   1.957  11.104  0.0571 -1.3147 -0.1889
  274TMC3    H2 4146   0.655   2.141  10.723  1.6770  1.2257  0.6793
  274TMC3    C7 4147   0.733   2.163  10.971 -0.2410  0.2877 -0.8183
  274TMC3    C8 4148   0.427   2.018  10.666 -0.1874 -1.3706  1.0157
  274TMC3    O1 4149   0.811   2.235  10.904  0.1010 -0.2188  0.4311
  274TMC3    O2 4150   0.314   1.977  10.684 -0.1357  0.3603  0.0531
  275MPD2     C 4151   0.744   4.480  14.123 -0.1487  0.1188 -0.0775
  275MPD2    C1 4152   0.712   4.417  14.238 -0.2289 -0.2776 -0.6621
  275MPD2    C2 4153   0.599   4.342  14.242  0.4357 -0.1583  0.2874
  275MPD2    C3 4154   0.504   4.349  14.146  0.6470  0.1487 -0.3926
  275MPD2    C4 4155   0.537   4.407  14.024 -0.8156 -1.1136  0.5136
  275MPD2    C5 4156   0.662   4.467  14.012  0.3496  0.5827 -0.0902
  275MPD2     H 4157   0.568   4.296  14.335 -0.2236  0.4804  0.3882
  275MPD2    H1 4158   0.466   4.400  13.942 -1.2142 -1.5655  0.8974
  275MPD2    H2 4159   0.842   4.527  14.121 -1.7370  3.3936 -1.0596
  275MPD2    H3 4160   0.697   4.502  13.916  0.0497 -0.0173 -0.4190
  275MPD2     N 4161   0.366   4.314  14.158  0.0235  0.5104  1.2266
  275MPD2    H5 4162   0.312   4.332  14.074 -0.7754  0.5932  1.7639
  275MPD2    N1 4163   0.786   4.432  14.360 -0.4411 -0.3553  0.2334
  275MPD2    H7 4164   0.763   4.375  14.441  0.4203 -1.7114 -0.4662
  276TMC3    C1 4165   0.929   4.511  14.525 -0.0008 -0.3243  0.2217
  276TMC3    C2 4166   0.939   4.383  14.571  0.1887 -0.4840  0.0498
  276TMC3    C3 4167   1.005   4.370  14.693  0.6827 -0.5010 -0.0745
  276TMC3    C4 4168   0.986   4.618  14.583  0.0137 -0.1806 -0.1321
  276TMC3    C5 4169   1.048   4.597  14.706  0.0965 -0.3558  0.1953
  276TMC3    C6 4170   1.052   4.476  14.758 -0.8533 -0.3159  0.0999
  276TMC3     C 4171   0.883   4.530  14.387  0.2806 -0.5925  0.5671
  276TMC3     O 4172   0.933   4.628  14.328  0.0019 -0.4394 -0.1501
  276TMC3     H 4173   0.925   4.304  14.498 -1.4017 -1.3221  1.2679
  276TMC3    H1 4174   0.968   4.716  14.541 -3.3909 -0.5831  0.3354
  276TMC3    H2 4175   1.082   4.462  14.861 -0.6238  2.1157  0.3515
  276TMC3    C7 4176   1.142   4.695  14.765 -0.1322 -0.0739 -0.3515
  276TMC3    C8 4177   1.050   4.242  14.751 -0.2826 -0.2109  0.8963
  276TMC3    O1 4178   1.181   4.667  14.881 -0.7020 -0.5894 -0.7930
  276TMC3    O2 4179   1.144   4.247  14.830 -0.1318 -0.0494 -0.2047
  277MPD2     C 4180   2.490   3.554  13.011 -0.0609 -0.3741  0.7003
  277MPD2    C1 4181   2.363   3.520  13.044  0.4382  0.2711  0.3246
  277MPD2    C2 4182   2.346   3.468  13.172 -0.1185  0.7183  0.5852
  277MPD2    C3 4183   2.451   3.449  13.261 -0.7447 -1.0879 -0.6985
  277MPD2    C4 4184   2.579   3.489  13.220  0.3755  0.3040 -0.4251
  277MPD2    C5 4185   2.596   3.546  13.097 -0.7671  0.0239 -0.8474
  277MPD2     H 4186   2.246   3.437  13.202  0.2023 -1.1782 -0.3341
  277MPD2    H1 4187   2.661   3.485  13.292  1.0000  1.1508 -1.1005
  277MPD2    H2 4188   2.518   3.591  12.913 -3.0766  2.3386  0.8556
  277MPD2    H3 4189   2.689   3.588  13.061  1.3818 -3.6282  0.4624
  277MPD2     N 4190   2.413   3.396  13.389  0.5265  0.3782 -0.0946
  277MPD2    H5 4191   2.316   3.374  13.410  0.8468 -0.9656 -0.0240
  277MPD2    N1 4192   2.263   3.551  12.950 -0.3659  0.3087  0.4094
  277MPD2    H7 4193   2.297   3.622  12.886  1.1965 -0.9240 -0.1355
  278TMC3    C1 4194   2.418   3.338  13.629 -1.0828 -0.6048  0.6492
  278TMC3    C2 4195   2.416   3.206  13.669  0.0041  0.4997  0.1291
  278TMC3    C3 4196   2.292   3.161  13.706  0.0120  0.8313 -0.6434
  278TMC3    C4 4197   2.308   3.412  13.630 -0.3751  0.1415  0.6899
  278TMC3    C5 4198   2.193   3.366  13.687 -0.4458 -0.4570  0.4039
  278TMC3    C6 4199   2.179   3.236  13.719 -0.7426 -0.4625 -0.1332
  278TMC3     C 4200   2.493   3.363  13.502 -0.3782  0.0448 -0.1976
  278TMC3     O 4201   2.612   3.331  13.497 -0.0430  0.3581  0.7671
  278TMC3     H 4202   2.495   3.132  13.669  0.9491  1.5115  0.9935
  278TMC3    H1 4203   2.316   3.513  13.590  0.3586  1.1645  3.4268
  278TMC3    H2 4204   2.082   3.192  13.740 -1.0615  0.0135 -0.5952
  278TMC3    C7 4205   2.101   3.471  13.740  0.8774  0.1741  0.1681
  278TMC3    C8 4206   2.276   3.022  13.675 -0.4379  0.0549 -0.8914
  278TMC3    O1 4207   2.141   3.587  13.744  0.1840  0.0010  0.0433
  278TMC3    O2 4208   2.358   2.942  13.725  0.5494  0.3178  0.8163
  279MPD2     C 4209   1.532   3.235   0.074 -0.4379 -1.4143 -0.4276
  279MPD2    C1 4210   1.501   3.369   0.087  0.7976 -0.9079  0.0642
  279MPD2    C2 4211   1.505   3.445  17.672  0.0750  0.8088  0.5251
  279MPD2    C3 4212   1.508   3.389  17.542  0.5248 -0.1203 -0.8722
  279MPD2    C4 4213   1.531   3.252  17.536  0.7052 -0.1466  0.2054
  279MPD2    C5 4214   1.545   3.177  17.645 -1.0717  0.4540 -0.0932
  279MPD2     H 4215   1.491   3.552  17.679  3.2397  1.1675  0.9546
  279MPD2    H1 4216   1.522   3.206  17.438 -0.0047 -0.8254  0.5876
  279MPD2    H2 4217   1.527   3.159   0.150  0.4116 -1.2157 -0.1738
  279MPD2    H3 4218   1.549   3.069  17.635 -1.7556  0.2590  1.6831
  279MPD2     N 4219   1.487   3.466  17.424 -0.4067 -0.9758  1.3932
  279MPD2    H5 4220   1.511   3.419  17.338  0.6276  1.4337  0.3552
  279MPD2    N1 4221   1.459   3.417   0.218  0.1713  0.4656  0.2804
  279MPD2    H7 4222   1.498   3.362   0.293 -0.7215  0.1838  0.5329
  280TMC3    C1 4223   1.322   3.595   0.149  0.4435 -0.2519 -0.1018
  280TMC3    C2 4224   1.249   3.509   0.073 -0.1665 -0.2722  0.8142
  280TMC3    C3 4225   1.157   3.564  17.689 -0.4998 -0.8732  0.5948
  280TMC3    C4 4226   1.321   3.724   0.119 -0.2702 -0.8847 -0.6217
  280TMC3    C5 4227   1.231   3.780   0.032 -0.6415 -0.7655 -1.1978
  280TMC3    C6 4228   1.146   3.696  17.668 -0.7377 -0.2741  0.1295
  280TMC3     C 4229   1.419   3.543   0.248 -0.0560 -0.0587  0.3854
  280TMC3     O 4230   1.439   3.604   0.349 -0.1322 -0.1134  0.1506
  280TMC3     H 4231   1.252   3.404   0.101 -1.5404 -0.3652  0.6489
  280TMC3    H1 4232   1.377   3.795   0.179 -1.4444  0.2095 -0.8142
  280TMC3    H2 4233   1.071   3.734  17.600  0.8300 -0.6257 -1.8186
  280TMC3    C7 4234   1.268   3.910  17.675 -0.6149  0.2777  0.1513
  280TMC3    C8 4235   1.161   3.489  17.559  0.4106 -0.6048  0.7053
  280TMC3    O1 4236   1.380   3.958   0.006  0.4555 -0.4430  0.0663
  280TMC3    O2 4237   1.168   3.546  17.451 -0.0362  0.0905  0.8215
  281TMC3    C1 4238   0.100   3.980  13.541  0.6289  0.5107 -0.2614
  281TMC3    C2 4239   0.104   4.022  13.409 -0.8793 -0.0709  0.2831
  281TMC3    C3 4240   0.061   3.940  13.313  0.7499 -0.1727 -0.0845
  281TMC3    C4 4241   0.054   3.852  13.575 -0.0351  0.1073  0.1169
  281TMC3    C5 4242   0.021   3.773  13.476  0.3561  0.4424 -0.9440
  281TMC3    C6 4243   0.016   3.812  13.342 -0.6970 -0.7025 -0.0555
  281TMC3     C 4244   0.120   4.080  13.650  0.5879  0.5998 -0.4814
  281TMC3     O 4245   0.133   4.031  13.760 -0.0864 -0.1245  0.2627
  281TMC3     H 4246   0.122   4.126  13.383  0.1209 -0.7709 -1.8255
  281TMC3    H1 4247   0.060   3.805  13.672  2.1339  2.7389  1.2582
  281TMC3    H2 4248   0.010   3.740  13.261 -0.6399  0.7164 -1.3085
  281TMC3    C7 4249   4.716   3.637  13.510 -0.3443  0.0802  0.1562
  281TMC3    C8 4250   0.072   3.977  13.177 -0.1433 -0.4071  0.9865
  281TMC3    O1 4251   0.061   3.586  13.599 -0.5038  0.9846  0.1085
  281TMC3    O2 4252   4.709   3.928  13.105 -0.1123 -0.2428 -0.0916
  282MPD2     C 4253   2.356   0.553  14.967  0.4002  0.6816  0.2386
  282MPD2    C1 4254   2.249   0.503  15.035  0.2069  0.0109 -0.1794
  282MPD2    C2 4255   2.147   0.454  14.961 -0.0265  0.5604 -0.2167
  282MPD2    C3 4256   2.147   0.464  14.825  0.3420  0.2861 -0.6283
  282MPD2    C4 4257   2.255   0.510  14.754  0.1768 -0.2599  0.3120
  282MPD2    C5 4258   2.357   0.560  14.828 -0.0124 -0.4223  0.2754
  282MPD2     H 4259   2.070   0.402  15.017 -1.5248  1.1396 -1.7548
  282MPD2    H1 4260   2.261   0.518  14.646 -0.3643  0.3430  0.3275
  282MPD2    H2 4261   2.441   0.602  15.011  0.4018  0.1102  0.8738
  282MPD2    H3 4262   2.450   0.603  14.790 -0.0446 -0.9095 -0.3554
  282MPD2     N 4263   2.031   0.418  14.758  0.4213  0.5458 -0.4479
  282MPD2    H5 4264   1.946   0.401  14.810  0.5545 -2.6766 -1.2885
  282MPD2    N1 4265   2.246   0.495  15.174  0.1355  0.1951  1.1556
  282MPD2    H7 4266   2.157   0.472  15.216  0.4937 -0.8822  1.3306
  283TMC3    C1 4267   2.294   0.545  15.386  0.3273  0.5693  1.0663
  283TMC3    C2 4268   2.345   0.647  15.460  0.6056 -0.0253 -0.0773
  283TMC3    C3 4269   2.303   0.662  15.589 -0.6027  0.7653 -0.0865
  283TMC3    C4 4270   2.237   0.441  15.443 -0.3229 -0.1123 -0.0382
  283TMC3    C5 4271   2.210   0.447  15.577  0.6976 -0.2170 -0.4415
  283TMC3    C6 4272   2.230   0.560  15.650 -0.7100  0.7754 -0.1711
  283TMC3     C 4273   2.345   0.531  15.257 -0.2466 -0.7801 -0.4057
  283TMC3     O 4274   2.459   0.576  15.236  0.4496 -0.3481 -0.0824
  283TMC3     H 4275   2.393   0.729  15.408 -0.2304 -1.3186 -2.8648
  283TMC3    H1 4276   2.194   0.356  15.391  0.2845 -1.2508  1.3116
  283TMC3    H2 4277   2.179   0.575  15.744 -0.2553  4.0060 -0.4156
  283TMC3    C7 4278   2.146   0.337  15.649 -0.2993  0.4478  0.0552
  283TMC3    C8 4279   2.254   0.796  15.630 -1.2828 -0.2947  0.1737
  283TMC3    O1 4280   2.094   0.358  15.757  0.7579 -0.0564 -0.1423
  283TMC3    O2 4281   2.208   0.807  15.743  0.3021  0.2957  0.1316
  284MPD2     C 4282   0.417   4.474  11.807  0.4617 -0.1597  0.8444
  284MPD2    C1 4283   0.345   4.502  11.695  0.4479 -0.3465  0.3967
  284MPD2    C2 4284   0.243   4.417  11.664  0.2271  0.1143 -0.6659
  284MPD2    C3 4285   0.207   4.307  11.739 -0.2130  0.5347  0.4758
  284MPD2    C4 4286   0.275   4.275  11.853 -0.3996  0.1236  0.2390
  284MPD2    C5 4287   0.374   4.367  11.882 -0.2362  0.4026  0.5282
  284MPD2     H 4288   0.179   4.435  11.579 -1.9224 -1.4863  0.6067
  284MPD2    H1 4289   0.258   4.179  11.900  0.0764  0.6089  1.3912
  284MPD2    H2 4290   0.505   4.527  11.842  1.2543  0.0731 -1.5476
  284MPD2    H3 4291   0.436   4.346  11.969 -0.7987 -0.5996  0.6895
  284MPD2     N 4292   0.108   4.216  11.697  0.4957  0.8247  0.1557
  284MPD2    H5 4293   0.092   4.139  11.761 -0.9545  1.6157  0.7447
  284MPD2    N1 4294   0.379   4.610  11.611  0.4579  0.0362  0.9403
  284MPD2    H7 4295   0.326   4.617  11.524  0.6008  0.2012  0.8668
  285TMC3    C1 4296   0.502   0.072  11.524 -0.6068  0.5039 -0.2876
  285TMC3    C2 4297   0.447   0.046  11.400 -0.0667 -0.1784  0.3034
  285TMC3    C3 4298   0.508   0.104  11.289 -0.5843  0.0562  0.1085
  285TMC3    C4 4299   0.612   0.151  11.537  0.0841  0.2428  0.4539
  285TMC3    C5 4300   0.668   0.211  11.426  0.4556 -0.1534 -0.4834
  285TMC3    C6 4301   0.617   0.186  11.302  0.3739  0.0015 -0.2916
  285TMC3     C 4302   0.476   4.705  11.638  0.7043 -0.3107  0.4745
  285TMC3     O 4303   0.534   0.006  11.743  0.6635 -0.5947 -0.1392
  285TMC3     H 4304   0.351   4.720  11.390 -0.4599  0.6804 -0.1942
  285TMC3    H1 4305   0.651   0.178  11.635 -0.0809 -1.2327  0.9277
  285TMC3    H2 4306   0.652   0.254  11.225 -1.1488 -0.3875 -1.3294
  285TMC3    C7 4307   0.740   0.334  11.434 -0.5268 -0.2548 -0.2760
  285TMC3    C8 4308   0.458   0.061  11.163  0.1738  0.7604 -0.2142
  285TMC3    O1 4309   0.708   0.421  11.354  0.4093  0.1020 -0.0187
  285TMC3    O2 4310   0.350   0.007  11.168 -0.0095 -0.7002 -0.6522
  286MPD2     C 4311   0.649   2.765   1.356  0.6733  0.1601 -0.0004
  286MPD2    C1 4312   0.654   2.830   1.234  0.2409  0.0508 -0.2230
  286MPD2    C2 4313   0.758   2.793   1.145  0.5666  0.4834  0.2839
  286MPD2    C3 4314   0.854   2.700   1.182 -0.2190 -0.5226  0.2901
  286MPD2    C4 4315   0.854   2.645   1.310  0.2982 -0.1617  0.0809
  286MPD2    C5 4316   0.750   2.677   1.391 -0.4382  0.1293 -0.8253
  286MPD2     H 4317   0.772   2.843   1.049 -0.8222 -1.6957 -1.0420
  286MPD2    H1 4318   0.920   2.567   1.344  0.1196 -0.2505  0.2289
  286MPD2    H2 4319   0.578   2.788   1.434 -0.6755 -2.5902 -0.4378
  286MPD2    H3 4320   0.755   2.621   1.484  1.3066 -0.9111 -1.5486
  286MPD2     N 4321   0.964   2.654   1.101 -0.5817 -0.4074  0.1520
  286MPD2    H5 4322   1.041   2.609   1.149  0.5598  1.8057  0.4295
  286MPD2    N1 4323   0.572   2.935   1.189 -0.1658  0.1604 -0.2285
  286MPD2    H7 4324   0.588   2.955   1.091  2.3659  0.7197  0.2808
  287TMC3    C1 4325   1.079   2.618   0.905 -0.0947  0.1375 -0.5396
  287TMC3    C2 4326   1.072   2.532   0.806 -0.2188 -0.0596  0.2776
  287TMC3    C3 4327   1.170   2.444   0.777 -0.1655  0.8553 -0.0443
  287TMC3    C4 4328   1.196   2.624   0.979 -0.8205 -0.3501 -0.0513
  287TMC3    C5 4329   1.296   2.528   0.958  0.0292 -0.4549 -0.1923
  287TMC3    C6 4330   1.280   2.433   0.858  0.5659  1.4997 -0.8777
  287TMC3     C 4331   0.960   2.673   0.964 -0.7132 -0.5650  0.3264
  287TMC3     O 4332   0.865   2.680   0.890  0.2462 -0.1214 -0.2421
  287TMC3     H 4333   0.980   2.540   0.750  0.3320 -2.5145 -1.0168
  287TMC3    H1 4334   1.206   2.713   1.041  3.0388 -2.7597  2.7434
  287TMC3    H2 4335   1.366   2.369   0.842  0.3275  0.8206  0.5438
  287TMC3    C7 4336   1.421   2.556   1.021  0.2714  0.0567  0.1499
  287TMC3    C8 4337   1.163   2.359   0.660 -0.0578 -0.2516  0.9737
  287TMC3    O1 4338   1.518   2.505   0.973  0.5076 -0.1861  0.0400
  287TMC3    O2 4339   1.051   2.336   0.611 -0.0902 -0.6516  0.1507
  288TMC3    C1 4340   2.165   2.858  14.243  0.0704  0.2470  0.4577
  288TMC3    C2 4341   2.142   2.844  14.377 -0.3064 -0.1804  0.4595
  288TMC3    C3 4342   2.222   2.907  14.460 -0.2432 -0.1530  0.0479
  288TMC3    C4 4343   2.265   2.924  14.180 -0.0779 -0.1349  0.2786
  288TMC3    C5 4344   2.345   2.984  14.274 -0.6317  0.0211 -0.0672
  288TMC3    C6 4345   2.330   2.971  14.413  0.0884 -0.3587  0.2132
  288TMC3     C 4346   2.123   2.739  14.170  0.3627  0.5623  0.2859
  288TMC3     O 4347   2.098   2.640  14.237 -0.7434 -0.0527 -0.0190
  288TMC3     H 4348   2.075   2.769  14.416  0.6605 -0.8754  0.7993
  288TMC3    H1 4349   2.282   2.933  14.074  0.4702 -0.0664  0.3707
  288TMC3    H2 4350   2.405   3.015  14.478 -0.7405  0.8646  0.3332
  288TMC3    C7 4351   2.465   3.058  14.235  0.3375  0.3320  0.6107
  288TMC3    C8 4352   2.220   2.895  14.604 -0.6954 -0.5622  0.0536
  288TMC3    O1 4353   2.518   3.131  14.315  0.2550  0.2466 -0.5212
  288TMC3    O2 4354   2.296   2.966  14.674  0.5067 -0.0302  0.2589
  289MPD2     C 4355   2.657   2.079  14.334 -0.5452 -0.7878  1.0249
  289MPD2    C1 4356   2.606   2.190  14.277  0.4577  0.5058 -0.4425
  289MPD2    C2 4357   2.469   2.219  14.279 -0.2930 -0.8950 -1.0016
  289MPD2    C3 4358   2.382   2.128  14.338 -0.1118  0.2227  0.9116
  289MPD2    C4 4359   2.435   2.014  14.405 -0.1254  0.5050 -0.2140
  289MPD2    C5 4360   2.573   1.999  14.401  0.2686  0.7462  0.1109
  289MPD2     H 4361   2.430   2.310  14.235  0.3680 -0.5850 -0.9476
  289MPD2    H1 4362   2.373   1.941  14.456  0.0418 -0.9987 -2.1709
  289MPD2    H2 4363   2.762   2.052  14.329 -0.2647  0.4309  0.4364
  289MPD2    H3 4364   2.615   1.907  14.441 -2.4851 -0.5144  0.1004
  289MPD2     N 4365   2.241   2.150  14.352 -0.2625 -0.1671 -0.0543
  289MPD2    H5 4366   2.195   2.098  14.426 -0.2514 -1.0749 -0.6820
  289MPD2    N1 4367   2.698   2.278  14.222 -0.6329 -0.2261  0.7047
  289MPD2    H7 4368   2.795   2.261  14.244 -0.6869  1.9676  2.6029
  290TMC3    C1 4369   2.020   2.231  14.295  0.0523 -0.1861  0.8160
  290TMC3    C2 4370   1.942   2.320  14.227  0.3770  0.5056  0.1589
  290TMC3    C3 4371   1.812   2.292  14.206  0.3203  1.1047 -0.1176
  290TMC3    C4 4372   1.967   2.115  14.343 -0.7617 -0.3317 -0.3575
  290TMC3    C5 4373   1.829   2.103  14.336 -0.1975  0.2322  0.6301
  290TMC3    C6 4374   1.749   2.182  14.260  0.1590 -0.3595 -0.3593
  290TMC3     C 4375   2.167   2.231  14.267  0.0081  0.6786 -0.1065
  290TMC3     O 4376   2.204   2.308  14.179 -0.3700  0.3752  0.3545
  290TMC3     H 4377   1.993   2.407  14.187  0.4397  1.5943  2.5483
  290TMC3    H1 4378   2.021   2.048  14.409 -1.1980  0.4775  0.8272
  290TMC3    H2 4379   1.647   2.152  14.241 -0.4222  2.6870 -2.1034
  290TMC3    C7 4380   1.768   1.990  14.400  0.7375  0.0508 -0.1314
  290TMC3    C8 4381   1.737   2.394  14.144  0.7165  0.3802  0.5007
  290TMC3    O1 4382   1.666   2.014  14.461  0.9018 -0.1459  0.1569
  290TMC3    O2 4383   1.636   2.351  14.092 -0.2268 -0.0877  0.2530
  291MPD2     C 4384   1.413   2.218   0.007  0.5704 -0.2419 -0.4916
  291MPD2    C1 4385   1.546   2.177  17.679  0.3149 -0.3007  0.3406
  291MPD2    C2 4386   1.648   2.269  17.690 -0.5433 -0.1908  0.1198
  291MPD2    C3 4387   1.631   2.389   0.050 -0.5187 -1.2424 -0.5324
  291MPD2    C4 4388   1.510   2.415   0.107 -0.0817 -0.5255 -0.7792
  291MPD2    C5 4389   1.399   2.341   0.071  0.1350  0.3892  0.0765
  291MPD2     H 4390   1.740   2.228  17.652 -0.1594  2.1318 -1.4616
  291MPD2    H1 4391   1.490   2.511   0.152 -2.6453 -0.7903 -1.3606
  291MPD2    H2 4392   1.330   2.148   0.000  0.1188 -0.0288  2.8470
  291MPD2    H3 4393   1.299   2.364   0.107 -0.3480 -1.9647  0.2202
  291MPD2     N 4394   1.736   2.482   0.045 -0.2722  0.4312  0.1583
  291MPD2    H5 4395   1.705   2.577   0.063  3.1089  1.6375 -0.4261
  291MPD2    N1 4396   1.571   2.043  17.656 -0.1790  0.1328 -0.2485
  291MPD2    H7 4397   1.670   2.020  17.655  0.0402  1.0672 -1.3724
  292TMC3    C1 4398   1.522   1.824  17.594  0.0600 -0.1052 -0.2124
  292TMC3    C2 4399   1.642   1.796  17.656  0.2041 -0.6067 -0.7990
  292TMC3    C3 4400   1.690   1.673  17.629  0.8104 -0.0201  0.4254
  292TMC3    C4 4401   1.459   1.750  17.496  0.0062 -0.1804  0.3952
  292TMC3    C5 4402   1.533   1.644  17.444 -0.0687 -0.5651  0.4504
  292TMC3    C6 4403   1.647   1.603  17.520  0.1225 -0.2905  0.3162
  292TMC3     C 4404   1.478   1.958  17.597 -0.3612  0.3162  0.3722
  292TMC3     O 4405   1.364   1.987  17.557 -0.3774 -0.0879  0.3754
  292TMC3     H 4406   1.689   1.849   0.038 -0.5470 -0.3208 -0.5504
  292TMC3    H1 4407   1.369   1.792  17.452  1.1977 -1.9268 -3.7224
  292TMC3    H2 4408   1.694   1.507  17.500 -0.3501 -0.4298 -0.1483
  292TMC3    C7 4409   1.467   1.532  17.383  0.3214  0.5751 -0.7663
  292TMC3    C8 4410   1.731   1.596   0.050  0.0108  0.1716  0.0374
  292TMC3    O1 4411   1.542   1.451  17.331 -0.2744 -0.3066  0.5451
  292TMC3    O2 4412   1.800   1.652   0.136 -0.4118  0.0557 -0.9534
  293MPD2     C 4413   3.418   3.879  12.126  0.7287  0.4932 -0.7057
  293MPD2    C1 4414   3.394   3.769  12.210 -0.1439  0.2145 -0.0847
  293MPD2    C2 4415   3.480   3.738  12.314 -0.3102 -0.0259  0.5213
  293MPD2    C3 4416   3.591   3.817  12.329  0.2201  0.1777 -0.3554
  293MPD2    C4 4417   3.619   3.921  12.244 -0.2877 -0.5022 -0.3564
  293MPD2    C5 4418   3.537   3.955  12.140  0.0414  0.2310  0.6181
  293MPD2     H 4419   3.460   3.652  12.377 -0.5781 -1.5189 -1.6054
  293MPD2    H1 4420   3.708   3.983  12.256  0.4521 -1.8933  1.3251
  293MPD2    H2 4421   3.353   3.913  12.046 -0.6633  1.7702  0.9516
  293MPD2    H3 4422   3.560   4.038  12.075 -2.7703  1.2834  0.9875
  293MPD2     N 4423   3.670   3.788  12.445 -0.4421 -0.5284 -0.2701
  293MPD2    H5 4424   3.663   3.695  12.486  0.1881 -0.0238  0.9749
  293MPD2    N1 4425   3.275   3.697  12.180  0.8382  0.4792  0.1192
  293MPD2    H7 4426   3.225   3.725  12.097  1.9016  2.1312  0.0109
  294TMC3    C1 4427   3.131   3.515  12.171  0.8783 -0.4851 -0.2926
  294TMC3    C2 4428   3.037   3.434  12.228 -0.0555  0.1977  0.1560
  294TMC3    C3 4429   2.961   3.359  12.142  0.0047  0.5479  0.1521
  294TMC3    C4 4430   3.156   3.510  12.038 -0.3350  0.0185  1.0446
  294TMC3    C5 4431   3.071   3.445  11.953  0.0228  0.4403  0.8577
  294TMC3    C6 4432   2.967   3.370  12.005 -0.8593  0.2667 -0.6927
  294TMC3     C 4433   3.224   3.587  12.252 -0.4623  0.1088  0.1086
  294TMC3     O 4434   3.250   3.554  12.367 -0.0797 -0.0161 -0.0472
  294TMC3     H 4435   3.031   3.420  12.335 -1.1085 -3.0795 -0.3454
  294TMC3    H1 4436   3.252   3.543  12.000 -0.8267 -0.0898 -0.3063
  294TMC3    H2 4437   2.915   3.310  11.931 -1.0554 -1.1602  0.6029
  294TMC3    C7 4438   3.066   3.491  11.814  0.1514  0.5393 -0.6284
  294TMC3    C8 4439   2.911   3.236  12.199  0.3840 -0.1359  0.2837
  294TMC3    O1 4440   3.124   3.598  11.788  0.4030  0.0746  0.2286
  294TMC3    O2 4441   2.873   3.235  12.314 -0.5578 -0.1709 -0.1318
  295MPD2     C 4442   3.312   1.624  17.647  0.1941  0.1052 -0.2823
  295MPD2    C1 4443   3.439   1.637  17.692 -0.2101 -0.3982  0.6576
  295MPD2    C2 4444   3.454   1.615   0.126 -0.3638 -0.5887  0.6267
  295MPD2    C3 4445   3.349   1.600   0.215  0.1461 -0.8931  0.6621
  295MPD2    C4 4446   3.219   1.600   0.171  0.3111 -0.5580  0.3501
  295MPD2    C5 4447   3.201   1.616   0.037  0.6353 -0.0847  0.1446
  295MPD2     H 4448   3.554   1.591   0.160 -0.2274 -0.2587  0.4581
  295MPD2    H1 4449   3.138   1.577   0.240 -1.6499 -0.0783 -1.8192
  295MPD2    H2 4450   3.292   1.636  17.541 -2.6803  2.0047  0.4592
  295MPD2    H3 4451   3.102   1.613  17.691  0.1344  0.6294  1.2036
  295MPD2     N 4452   3.366   1.578   0.355 -0.0316 -0.1457 -0.9686
  295MPD2    H5 4453   3.280   1.570   0.407  0.0006 -0.0172 -0.8985
  295MPD2    N1 4454   3.555   1.671  17.612  0.1008 -0.1062  0.4106
  295MPD2    H7 4455   3.640   1.687  17.664  0.2829  1.5349 -0.4259
  296TMC3    C1 4456   3.468   1.559   0.567 -0.8891  1.2756 -0.1021
  296TMC3    C2 4457   3.565   1.608   0.650  0.0587  0.3973 -0.8127
  296TMC3    C3 4458   3.527   1.644   0.775  0.0780 -0.7462  0.5245
  296TMC3    C4 4459   3.350   1.516   0.613 -0.2097  0.4512  0.6054
  296TMC3    C5 4460   3.316   1.553   0.737  1.3302  0.9936 -0.1043
  296TMC3    C6 4461   3.397   1.634   0.811 -0.4778  0.0775  0.3291
  296TMC3     C 4462   3.487   1.578   0.423  0.0081 -0.6927 -0.1699
  296TMC3     O 4463   3.602   1.600   0.389 -0.3373 -0.1256  0.1081
  296TMC3     H 4464   3.655   1.645   0.603 -0.8110  1.5859 -1.5540
  296TMC3    H1 4465   3.281   1.456   0.555 -0.3531  0.2655  0.9705
  296TMC3    H2 4466   3.384   1.642   0.918  3.1348 -0.8022  0.8211
  296TMC3    C7 4467   3.203   1.480   0.799 -0.1504 -1.0611 -0.2981
  296TMC3    C8 4468   3.639   1.682   0.861  0.3414  0.5607 -0.9444
  296TMC3    O1 4469   3.179   1.372   0.753  0.1411  0.3524  0.0547
  296TMC3    O2 4470   3.749   1.645   0.823 -0.0355  0.1796  0.0097
  297MPD2     C 4471   1.252   4.071  16.060 -0.2396 -0.3775  0.4413
  297MPD2    C1 4472   1.232   4.188  15.987  0.3376  0.9269 -0.1599
  297MPD2    C2 4473   1.316   4.294  16.009  0.5908  0.3237 -0.3497
  297MPD2    C3 4474   1.430   4.272  16.088 -0.1966 -1.0074  0.2587
  297MPD2    C4 4475   1.454   4.147  16.136  0.1139  0.3511  0.2934
  297MPD2    C5 4476   1.357   4.048  16.138 -0.1663 -0.1954 -0.6532
  297MPD2     H 4477   1.293   4.390  15.964 -1.9167 -1.1657 -2.2182
  297MPD2    H1 4478   1.539   4.126  16.200  0.2065  1.0179  0.3890
  297MPD2    H2 4479   1.169   4.001  16.058 -2.3259  2.0194  2.4659
  297MPD2    H3 4480   1.373   3.956  16.193 -0.9643 -0.8291 -1.4672
  297MPD2     N 4481   1.530   4.374  16.090  0.1538  0.3876 -0.5724
  297MPD2    H5 4482   1.513   4.464  16.046  1.4378  1.8397  1.8514
  297MPD2    N1 4483   1.126   4.202  15.896 -0.7970 -0.5407  0.2366
  297MPD2    H7 4484   1.120   4.293  15.852 -1.8762  0.0612  1.6355
  298TMC3    C1 4485   0.953   4.134  15.761 -0.4583 -0.7647 -0.1165
  298TMC3    C2 4486   0.906   4.032  15.686  0.3764  0.2105 -0.7674
  298TMC3    C3 4487   0.798   4.062  15.612  0.0281 -0.2635  0.7000
  298TMC3    C4 4488   0.904   4.264  15.761 -0.0838 -0.6477  0.1121
  298TMC3    C5 4489   0.799   4.285  15.679 -0.6036 -0.6822 -0.9039
  298TMC3    C6 4490   0.743   4.187  15.607 -0.0210 -0.2145 -0.4056
  298TMC3     C 4491   1.064   4.091  15.843  0.1200 -0.0869  0.2223
  298TMC3     O 4492   1.083   3.973  15.865 -0.0387 -0.3345 -0.5787
  298TMC3     H 4493   0.939   3.929  15.690 -0.9178 -0.2156 -1.2162
  298TMC3    H1 4494   0.927   4.337  15.838 -1.0222 -0.1616 -0.0642
  298TMC3    H2 4495   0.650   4.206  15.556  0.3421  0.4514 -0.8218
  298TMC3    C7 4496   0.703   4.395  15.726 -0.3454  0.3085  0.1853
  298TMC3    C8 4497   0.779   3.973  15.501  0.1375  0.4667 -0.8051
  298TMC3    O1 4498   0.715   4.443  15.838  0.3767  0.5355 -0.7968
  298TMC3    O2 4499   0.818   3.857  15.506 -0.3344  0.4744  0.1788
  299MPD2     C 4500   1.379   3.787  10.498 -0.3099 -0.2053 -0.3289
  299MPD2    C1 4501   1.385   3.889  10.409 -0.2521  0.1619 -0.5378
  299MPD2    C2 4502   1.291   3.891  10.305  0.2548  1.1645 -0.1893
  299MPD2    C3 4503   1.208   3.778  10.292  0.4172  0.1203  0.1857
  299MPD2    C4 4504   1.204   3.675  10.383 -0.1241 -0.0716 -0.1285
  299MPD2    C5 4505   1.289   3.685  10.487  0.1147  0.6319  0.4624
  299MPD2     H 4506   1.301   3.982  10.246 -2.9363  0.9989 -0.9669
  299MPD2    H1 4507   1.132   3.596  10.364 -0.5606  0.0975  0.8349
  299MPD2    H2 4508   1.442   3.772  10.584 -3.5541  0.3648  2.1823
  299MPD2    H3 4509   1.297   3.606  10.562 -0.9631 -2.5886 -2.8291
  299MPD2     N 4510   1.120   3.763  10.187 -0.0547  0.3639 -0.3500
  299MPD2    H5 4511   1.053   3.689  10.202  0.7302  0.1619  2.1005
  299MPD2    N1 4512   1.476   3.992  10.439  0.2190 -0.3246 -0.2700
  299MPD2    H7 4513   1.529   3.978  10.524 -0.1854  1.9140  0.3427
  300TMC3    C1 4514   0.994   3.830   9.993  0.6061  0.0844 -0.0943
  300TMC3    C2 4515   0.980   3.954   9.938 -0.1634 -0.4654 -0.5624
  300TMC3    C3 4516   0.858   4.008   9.942  0.1980  0.2591  0.4151
  300TMC3    C4 4517   0.899   3.754  10.047  0.3231 -0.9902 -0.1119
  300TMC3    C5 4518   0.774   3.814  10.041  0.3661 -0.8495  0.2020
  300TMC3    C6 4519   0.753   3.938   9.994 -0.4596  0.5553  0.6208
  300TMC3     C 4520   1.123   3.832  10.067  0.2789 -0.9298  0.4306
  300TMC3     O 4521   1.205   3.907  10.022 -0.0358 -0.0800  0.2452
  300TMC3     H 4522   1.060   4.009   9.890  0.7478  0.2695  1.8139
  300TMC3    H1 4523   0.908   3.653  10.084  0.8079 -0.3084  1.6003
  300TMC3    H2 4524   0.654   3.979  10.009 -1.1986 -2.0085  2.7364
  300TMC3    C7 4525   0.664   3.732  10.100  0.7341 -0.8474 -0.3728
  300TMC3    C8 4526   0.854   4.145   9.946 -0.6869  0.8298  0.6606
  300TMC3    O1 4527   0.632   3.628  10.044 -0.2760  0.0002  0.2583
  300TMC3    O2 4528   0.959   4.192   9.988 -0.2586  0.0075 -0.5142
  301MPD2     C 4529   4.483   0.029   0.712 -0.1689 -0.0414 -0.0435
  301MPD2    C1 4530   4.352   0.022   0.675 -0.5104  0.3640  0.2465
  301MPD2    C2 4531   4.312   4.636   0.607  0.3229 -0.0776 -0.3732
  301MPD2    C3 4532   4.393   4.527   0.574  0.1064 -0.6206  0.3941
  301MPD2    C4 4533   4.521   4.536   0.619 -0.3277  0.1803 -0.1186
  301MPD2    C5 4534   4.565   4.650   0.681  0.1654 -1.0407  0.3551
  301MPD2     H 4535   4.206   4.624   0.588 -0.0835  1.6071  0.8213
  301MPD2    H1 4536   4.586   4.450   0.622  0.0215  0.5474  2.5973
  301MPD2    H2 4537   4.525   0.111   0.770 -0.9708 -0.2418  0.8188
  301MPD2    H3 4538   4.665   4.658   0.721 -0.3725  0.4523  1.4447
  301MPD2     N 4539   4.337   4.396   0.548 -0.0668 -0.1128  0.1970
  301MPD2    H5 4540   4.397   4.315   0.552  0.8900  0.4465 -3.1648
  301MPD2    N1 4541   4.259   0.126   0.708  0.2664 -0.4220  0.3417
  301MPD2    H7 4542   4.161   0.100   0.702  0.3827 -0.9042  0.5493
  302TMC3    C1 4543   4.168   4.240   0.498  0.0016 -0.2711  0.1962
  302TMC3    C2 4544   4.223   4.149   0.590 -0.2251 -0.5731  0.4378
  302TMC3    C3 4545   4.165   4.025   0.593 -0.0138 -0.8417 -0.0132
  302TMC3    C4 4546   4.058   4.221   0.429 -0.5608  0.1574 -0.3177
  302TMC3    C5 4547   3.997   4.101   0.439  0.3854 -0.4586 -0.1928
  302TMC3    C6 4548   4.045   4.003   0.527 -0.5249  0.7657 -0.1618
  302TMC3     C 4549   4.212   4.374   0.495 -0.0579  0.3970  0.7407
  302TMC3     O 4550   4.134   4.461   0.456 -0.2194 -0.3143 -0.1934
  302TMC3     H 4551   4.317   4.169   0.641 -1.4461  1.9977  1.6498
  302TMC3    H1 4552   4.014   4.291   0.359  0.5097  0.0482 -1.1016
  302TMC3    H2 4553   4.001   3.904   0.528 -1.1704  1.0759  1.6532
  302TMC3    C7 4554   3.867   4.085   0.389 -0.1265 -0.5026 -0.4490
  302TMC3    C8 4555   4.188   3.949   0.717  0.2712 -0.2756  0.3756
  302TMC3    O1 4556   3.826   3.970   0.370 -0.1730  0.1479 -0.0808
  302TMC3    O2 4557   4.297   3.962   0.760  0.6560  0.3374 -0.2802
  303MPD2     C 4558   3.664   3.882  10.919  0.2620  0.3752  0.4982
  303MPD2    C1 4559   3.671   3.752  10.876 -0.3791 -0.2442  0.3564
  303MPD2    C2 4560   3.663   3.727  10.738 -0.3479 -0.2227  0.2118
  303MPD2    C3 4561   3.642   3.835  10.652  0.1010 -0.2163 -0.6862
  303MPD2    C4 4562   3.651   3.969  10.695  0.0897 -0.1322  0.7254
  303MPD2    C5 4563   3.658   3.985  10.831  0.4005 -0.5577  0.0485
  303MPD2     H 4564   3.654   3.625  10.701 -0.0117 -0.2165  0.1191
  303MPD2    H1 4565   3.626   4.059  10.639  0.6583 -1.8907 -2.3963
  303MPD2    H2 4566   3.677   3.896  11.025 -0.7590  0.7822  0.5734
  303MPD2    H3 4567   3.654   4.089  10.862 -0.9214 -0.3714 -0.7213
  303MPD2     N 4568   3.594   3.831  10.517 -0.5328  0.2638  0.2908
  303MPD2    H5 4569   3.577   3.920  10.471 -0.3574  0.5172  0.7088
  303MPD2    N1 4570   3.685   3.647  10.976  0.7461 -0.1585 -0.6739
  303MPD2    H7 4571   3.682   3.674  11.073 -1.4098  1.1270 -1.0819
  304TMC3    C1 4572   3.694   3.439  11.068  0.6165 -0.3246 -0.2294
  304TMC3    C2 4573   3.587   3.471  11.149 -0.7712  0.2930 -0.3261
  304TMC3    C3 4574   3.537   3.361  11.223 -0.3515  0.1637  0.0972
  304TMC3    C4 4575   3.755   3.319  11.060  0.4189 -0.1864  0.0695
  304TMC3    C5 4576   3.724   3.226  11.154 -0.7666 -0.3925 -0.1163
  304TMC3    C6 4577   3.611   3.240  11.233 -0.0150 -0.3120  0.7256
  304TMC3     C 4578   3.711   3.512  10.943 -0.7730 -0.1452 -0.3581
  304TMC3     O 4579   3.721   3.454  10.835  0.2707  0.0503  0.0719
  304TMC3     H 4580   3.545   3.570  11.164 -1.3225 -0.0579  0.4595
  304TMC3    H1 4581   3.837   3.306  10.990 -0.3799  2.4412 -1.3656
  304TMC3    H2 4582   3.587   3.160  11.303  0.6075 -1.2982 -0.1803
  304TMC3    C7 4583   3.751   3.086  11.118 -0.0886 -0.7769 -0.2890
  304TMC3    C8 4584   3.407   3.324  11.170  0.0705 -0.1223 -0.5724
  304TMC3    O1 4585   3.866   3.050  11.096  0.2329  0.4136 -0.2456
  304TMC3    O2 4586   3.379   3.211  11.200  0.0728 -0.6637 -0.1543
  305MPD2     C 4587   1.972   0.717  13.716 -0.1710  0.1064 -0.2368
  305MPD2    C1 4588   2.041   0.601  13.733  0.3010  0.4283  0.7563
  305MPD2    C2 4589   2.090   0.522  13.631 -0.1921  0.0669 -0.3334
  305MPD2    C3 4590   2.062   0.567  13.504  0.3088  0.4333  0.2493
  305MPD2    C4 4591   1.986   0.684  13.480  0.2817  0.7577  0.5832
  305MPD2    C5 4592   1.942   0.760  13.590 -0.0612 -0.5449  0.9088
  305MPD2     H 4593   2.158   0.440  13.652  0.1890  0.5564  0.3850
  305MPD2    H1 4594   1.965   0.720  13.380 -1.3186  0.0776  0.6683
  305MPD2    H2 4595   1.940   0.771  13.804 -0.6775 -0.8673  0.1677
  305MPD2    H3 4596   1.890   0.853  13.571 -2.2474 -1.1563  3.9311
  305MPD2     N 4597   2.129   0.501  13.396  0.5095  0.0462 -0.1743
  305MPD2    H5 4598   2.143   0.543  13.305  2.7320 -0.1412  0.0613
  305MPD2    N1 4599   2.057   0.566  13.868 -0.1866 -0.0780 -0.2786
  305MPD2    H7 4600   2.023   0.637  13.933 -0.4785 -0.4812  0.0080
  306TMC3    C1 4601   2.149   0.444  14.054  0.2954  0.1547  0.4215
  306TMC3    C2 4602   2.241   0.347  14.098 -0.5907 -0.2836  0.2533
  306TMC3    C3 4603   2.287   0.356  14.227 -0.5436 -0.8947  0.3682
  306TMC3    C4 4604   2.110   0.546  14.137  0.5972  0.2252 -0.4058
  306TMC3    C5 4605   2.178   0.559  14.255  0.4474  0.1320 -0.1514
  306TMC3    C6 4606   2.261   0.462  14.307  0.6911  0.3447 -0.0628
  306TMC3     C 4607   2.116   0.446  13.908  0.3332 -0.1925  0.2635
  306TMC3     O 4608   2.158   0.346  13.847  0.1937  0.0819  0.5353
  306TMC3     H 4609   2.272   0.265  14.035  0.6878 -0.3207  0.9118
  306TMC3    H1 4610   2.048   0.624  14.094  0.4507 -0.3170 -1.1917
  306TMC3    H2 4611   2.303   0.470  14.407  0.8022 -0.3468 -0.0525
  306TMC3    C7 4612   2.123   0.658  14.337  0.0296  0.3300 -0.1008
  306TMC3    C8 4613   2.374   0.252  14.279 -0.7952 -0.5347 -0.5428
  306TMC3    O1 4614   2.022   0.712  14.300 -0.2291 -0.1542  0.6182
  306TMC3    O2 4615   2.427   0.166  14.205 -0.5903  0.0892 -0.2504
  307MPD2     C 4616   4.666   2.358   1.091  0.6650  0.5531  0.7800
  307MPD2    C1 4617   4.721   2.361   0.967 -0.4750 -0.0927 -0.2281
  307MPD2    C2 4618   4.706   2.476   0.894  0.2440 -0.0330 -0.1365
  307MPD2    C3 4619   4.645   2.591   0.936 -0.9058  0.3554 -0.9744
  307MPD2    C4 4620   4.606   2.590   1.068 -1.2644 -0.2249 -0.4216
  307MPD2    C5 4621   4.612   2.476   1.138  0.0328  0.0789  0.4573
  307MPD2     H 4622   0.001   2.472   0.787  0.8112  0.6019 -0.0590
  307MPD2    H1 4623   4.567   2.678   1.118  3.1393  2.4372 -1.6453
  307MPD2    H2 4624   4.682   2.283   1.168  3.0765  1.9860  1.6579
  307MPD2    H3 4625   4.574   2.490   1.239  0.7095 -2.1362  1.0086
  307MPD2     N 4626   4.614   2.698   0.852  0.2419 -0.8960 -0.3482
  307MPD2    H5 4627   4.651   2.694   0.758 -2.9612  1.2907 -1.6800
  307MPD2    N1 4628   0.043   2.251   0.895 -0.3272 -0.1862  0.3168
  307MPD2    H7 4629   0.074   2.276   0.802  0.5688  0.2791  0.7469
  308TMC3    C1 4630   4.374   2.989   0.603 -0.1858  0.2823 -0.3335
  308TMC3    C2 4631   4.472   2.990   0.507  0.8065 -0.0931  0.1273
  308TMC3    C3 4632   4.593   2.934   0.535 -0.1143 -0.0165  0.4181
  308TMC3    C4 4633   4.387   2.930   0.729 -0.4916  0.2607 -0.1339
  308TMC3    C5 4634   4.503   2.863   0.746 -0.4075  0.2162  0.0878
  308TMC3    C6 4635   4.613   2.878   0.662  0.6616  0.1949  0.3765
  308TMC3     C 4636   4.239   3.016   0.559 -0.2270 -0.0374 -0.6264
  308TMC3     O 4637   4.145   2.951   0.605 -0.0268 -0.3311 -0.2646
  308TMC3     H 4638   4.451   3.033   0.410  0.2195 -2.8130 -0.9534
  308TMC3    H1 4639   4.313   2.933   0.809 -0.2597  0.4498  0.0736
  308TMC3    H2 4640   4.715   2.849   0.688  0.2022 -1.9675 -0.2629
  308TMC3    C7 4641   4.528   2.796   0.871 -0.0989  0.5654  0.0702
  308TMC3    C8 4642   4.704   2.994   0.464  0.3603 -0.1321 -0.1327
  308TMC3    O1 4643   4.442   2.806   0.957 -0.3619 -0.5115 -1.2939
  308TMC3    O2 4644   4.685   3.089   0.387  0.3239 -0.6480 -0.1436
  309MPD2     C 4645   4.004   3.642  16.859 -0.0223  0.8888  0.1787
  309MPD2    C1 4646   3.954   3.701  16.745  0.0138 -0.1397 -0.3716
  309MPD2    C2 4647   3.853   3.799  16.753  0.6598  0.5961  0.2154
  309MPD2    C3 4648   3.804   3.828  16.876  0.4385  0.4126 -1.0468
  309MPD2    C4 4649   3.862   3.777  16.993  0.0810 -0.1086  0.2413
  309MPD2    C5 4650   3.965   3.692  16.976  0.4735 -0.3041  0.4688
  309MPD2     H 4651   3.807   3.826  16.659 -0.7942  2.5926  1.4921
  309MPD2    H1 4652   3.821   3.800  17.091  1.5067  0.3733  0.7244
  309MPD2    H2 4653   4.097   3.586  16.853  0.0190  1.0667 -0.7919
  309MPD2    H3 4654   4.012   3.656  17.067  0.0248  1.0795  1.2548
  309MPD2     N 4655   3.685   3.911  16.895 -0.0569 -0.2190 -0.3928
  309MPD2    H5 4656   3.637   3.911  16.984  0.8164 -1.4693  0.0810
  309MPD2    N1 4657   3.996   3.664  16.616 -0.6459 -0.3225  0.0228
  309MPD2    H7 4658   3.982   3.731  16.541  1.0290  1.6954  1.5133
  310TMC3    C1 4659   4.114   3.562  16.453 -0.2930  0.2462 -0.0574
  310TMC3    C2 4660   4.029   3.591  16.354  0.0090  0.4016 -0.0303
  310TMC3    C3 4661   4.077   3.619  16.232 -0.2184  0.3019 -0.3936
  310TMC3    C4 4662   4.248   3.543  16.440 -0.4029  0.1837  0.2319
  310TMC3    C5 4663   4.292   3.583  16.314  0.1501 -0.2088  0.1806
  310TMC3    C6 4664   4.210   3.606  16.204 -0.4339  0.3834  0.7635
  310TMC3     C 4665   4.073   3.554  16.587  0.0452 -0.1989 -0.1149
  310TMC3     O 4666   4.111   3.464  16.661 -0.0622  0.4176  0.3761
  310TMC3     H 4667   3.923   3.581  16.371 -0.0638  0.3153 -0.5225
  310TMC3    H1 4668   4.308   3.506  16.522  1.1534  2.5693  0.1544
  310TMC3    H2 4669   4.234   3.617  16.099 -2.7422 -0.1038  0.1921
  310TMC3    C7 4670   4.433   3.550  16.284  0.4398 -0.0740 -0.8792
  310TMC3    C8 4671   3.986   3.645  16.125 -0.3462  0.3088 -0.1828
  310TMC3    O1 4672   4.492   3.483  16.369 -0.3942  0.6300  0.1471
  310TMC3    O2 4673   4.028   3.632  16.013 -0.5414 -0.2105 -0.0916
  311MPD2     C 4674   1.462   0.331  12.552 -0.1083  0.1106 -0.2896
  311MPD2    C1 4675   1.467   0.459  12.604  0.3534  0.0267  0.6052
  311MPD2    C2 4676   1.360   0.504  12.682  0.4518 -0.4739 -0.0226
  311MPD2    C3 4677   1.235   0.444  12.670  0.2304  0.1213 -0.5147
  311MPD2    C4 4678   1.230   0.311  12.626  0.3282 -0.0795  0.9334
  311MPD2    C5 4679   1.341   0.260  12.561 -0.5542  0.0983  0.6271
  311MPD2     H 4680   1.370   0.601  12.730 -1.8810 -0.4588  0.4278
  311MPD2    H1 4681   1.142   0.248  12.630  0.6127 -0.2827  3.6790
  311MPD2    H2 4682   1.543   0.290  12.493  0.2163 -2.0077  1.6287
  311MPD2    H3 4683   1.325   0.170  12.504  0.0988 -0.2329  0.9664
  311MPD2     N 4684   1.129   0.502  12.739  0.2852 -1.0660 -0.3277
  311MPD2    H5 4685   1.146   0.589  12.788  0.8019 -0.6625 -1.2350
  311MPD2    N1 4686   1.579   0.544  12.588 -0.0494 -0.0064  0.5427
  311MPD2    H7 4687   1.574   0.640  12.622  0.4897 -0.1233  0.9522
  312TMC3    C1 4688   0.905   0.541  12.790 -0.3631  0.5785 -0.0394
  312TMC3    C2 4689   0.780   0.548  12.733  0.4929  0.0009  0.3397
  312TMC3    C3 4690   0.695   0.647  12.763 -0.5871 -0.5596 -0.0085
  312TMC3    C4 4691   0.945   0.637  12.873 -0.0193  0.6633  0.3891
  312TMC3    C5 4692   0.854   0.731  12.907 -0.4115 -0.1163 -0.8354
  312TMC3    C6 4693   0.732   0.740  12.858 -0.3675 -0.2038  0.3167
  312TMC3     C 4694   1.003   0.457  12.728  0.6967 -0.8007  0.5063
  312TMC3     O 4695   0.961   0.362  12.664 -0.2128 -0.6548 -0.1748
  312TMC3     H 4696   0.756   0.471  12.661  3.5306 -1.3633  0.7998
  312TMC3    H1 4697   1.037   0.617  12.927 -0.4531 -1.1178  0.4680
  312TMC3    H2 4698   0.657   0.814  12.882 -1.2459 -0.4915 -1.5139
  312TMC3    C7 4699   0.893   0.818  13.015 -0.0265  0.4842 -0.5377
  312TMC3    C8 4700   0.558   0.634  12.715  0.4018  0.3995 -0.4605
  312TMC3    O1 4701   0.817   0.895  13.071 -0.0699  0.1017 -0.2107
  312TMC3    O2 4702   0.531   0.521  12.677 -0.2882  0.0509  0.1182
  313MPD2     C 4703   0.804   0.486  10.721  0.6907 -0.1085  0.1719
  313MPD2    C1 4704   0.801   0.465  10.589  0.2363 -0.1944 -0.0739
  313MPD2    C2 4705   0.688   0.424  10.525  0.4491  0.2628  0.5184
  313MPD2    C3 4706   0.576   0.385  10.591  0.1812  0.1766  0.1679
  313MPD2    C4 4707   0.580   0.406  10.728 -0.4498  0.4613 -0.0248
  313MPD2    C5 4708   0.691   0.462  10.792 -0.5948  0.2826  0.4217
  313MPD2     H 4709   0.679   0.402  10.420 -2.1361 -1.1547  1.0530
  313MPD2    H1 4710   0.496   0.377  10.789 -2.1152 -0.7679 -2.8708
  313MPD2    H2 4711   0.895   0.527  10.763  0.3520 -0.8693  1.6303
  313MPD2    H3 4712   0.688   0.480  10.898  0.4293 -1.9145  0.8264
  313MPD2     N 4713   0.471   0.323  10.516  0.7652 -0.3754  0.1691
  313MPD2    H5 4714   0.487   0.320  10.416 -2.0885 -0.0951 -0.3088
  313MPD2    N1 4715   0.907   0.489  10.496  0.2347  1.4076 -0.2383
  313MPD2    H7 4716   0.886   0.463  10.400 -5.2104 -0.3027  1.4437
  314TMC3    C1 4717   1.133   0.541  10.440  0.2432 -0.0726  0.5238
  314TMC3    C2 4718   1.262   0.511  10.475  0.3578 -0.0696 -0.3364
  314TMC3    C3 4719   1.357   0.606  10.476  0.1515  0.1067  0.2081
  314TMC3    C4 4720   1.109   0.660  10.375 -0.0888  0.5193  0.6921
  314TMC3    C5 4721   1.214   0.750  10.362 -0.2117  0.2462  0.1984
  314TMC3    C6 4722   1.333   0.728  10.415 -0.9830 -0.5830 -0.2292
  314TMC3     C 4723   1.035   0.501  10.538 -0.0146 -0.2248 -0.1794
  314TMC3     O 4724   1.081   0.477  10.653  0.5414  0.5388 -0.5076
  314TMC3     H 4725   1.290   0.408  10.496  1.2338  0.1080 -0.6379
  314TMC3    H1 4726   1.006   0.682  10.349  0.8556  0.5607 -2.9741
  314TMC3    H2 4727   1.409   0.804  10.428 -1.3793 -0.5188  1.7288
  314TMC3    C7 4728   1.196   0.884  10.293  0.0593 -0.2247  0.2684
  314TMC3    C8 4729   1.423   0.613  10.605 -0.3061 -0.2424 -0.1437
  314TMC3    O1 4730   1.287   0.966  10.299 -0.4349  0.0102  0.1917
  314TMC3    O2 4731   1.530   0.672  10.607 -0.6629  0.2493  0.5682
  315MPD2     C 4732   0.541   3.616  17.009  0.1150  0.3319  0.6561
  315MPD2    C1 4733   0.612   3.656  17.120 -0.0738 -0.4467  0.1130
  315MPD2    C2 4734   0.651   3.790  17.127 -0.1574 -0.0444  0.0584
  315MPD2    C3 4735   0.632   3.876  17.014  0.8234 -0.0153 -0.2278
  315MPD2    C4 4736   0.559   3.830  16.903  0.2282  0.7142  0.8497
  315MPD2    C5 4737   0.522   3.702  16.907 -0.3847  0.0487 -0.0865
  315MPD2     H 4738   0.702   3.827  17.215 -0.3350 -0.1253  0.1954
  315MPD2    H1 4739   0.547   3.877  16.806  1.4943  1.4747  1.0511
  315MPD2    H2 4740   0.491   3.520  16.998 -0.7212  0.6652  1.5648
  315MPD2    H3 4741   0.468   3.670  16.818  1.5773  1.3926 -1.7446
  315MPD2     N 4742   0.696   4.004  17.011 -0.2133 -0.2577  0.6104
  315MPD2    H5 4743   0.749   4.033  17.093  0.6239 -0.6938  0.2353
  315MPD2    N1 4744   0.628   3.571  17.235  0.0873  0.2517  0.3476
  315MPD2    H7 4745   0.663   3.609  17.323  0.1229  0.0987  0.4007
  316TMC3    C1 4746   0.759   4.218  16.939 -0.1298 -0.3602  0.0604
  316TMC3    C2 4747   0.855   4.226  17.039 -0.0392 -0.3727 -0.5024
  316TMC3    C3 4748   0.892   4.348  17.084 -0.5387 -0.1161 -0.7308
  316TMC3    C4 4749   0.701   4.330  16.891 -0.1390 -0.3479 -0.4208
  316TMC3    C5 4750   0.734   4.452  16.945 -0.3130 -0.0842  0.1865
  316TMC3    C6 4751   0.837   4.469  17.039  0.3206 -0.6154  0.2303
  316TMC3     C 4752   0.694   4.091  16.908 -0.3822  0.3867  0.7376
  316TMC3     O 4753   0.644   4.090  16.799 -0.5844 -0.0563  0.5988
  316TMC3     H 4754   0.918   4.143  17.068 -1.0878 -0.6206  1.0411
  316TMC3    H1 4755   0.617   4.323  16.824 -0.0414 -1.3801 -0.4380
  316TMC3    H2 4756   0.859   4.560  17.094  1.1800 -1.7299  1.7369
  316TMC3    C7 4757   0.651   4.570  16.923 -0.3928  0.4033  0.1288
  316TMC3    C8 4758   0.994   4.362  17.185  0.4016  0.2605  0.3756
  316TMC3    O1 4759   0.663   4.654  17.011  0.0270  0.8097  0.3698
  316TMC3    O2 4760   1.043   4.473  17.206  0.2237  0.6431  0.0479
  317MPD2     C 4761   2.234   2.108  12.740 -0.1035  0.7480 -0.2346
  317MPD2    C1 4762   2.353   2.027  12.722  0.1394 -0.3165  0.4359
  317MPD2    C2 4763   2.444   2.008  12.824  0.1297 -0.2072  0.0947
  317MPD2    C3 4764   2.427   2.072  12.945 -0.2628  0.6484 -0.3036
  317MPD2    C4 4765   2.323   2.162  12.956 -0.1472 -0.3459  0.5402
  317MPD2    C5 4766   2.228   2.171  12.859 -0.3920 -0.0904 -0.3226
  317MPD2     H 4767   2.530   1.943  12.813 -0.2491 -0.5767 -0.6940
  317MPD2    H1 4768   2.305   2.220  13.046 -0.9526 -3.0664  2.1235
  317MPD2    H2 4769   2.164   2.124  12.659  0.7703  2.1959 -0.7291
  317MPD2    H3 4770   2.136   2.223  12.883 -1.0463 -1.3863  0.0130
  317MPD2     N 4771   2.533   2.050  13.039  0.0897  0.1067 -0.2252
  317MPD2    H5 4772   2.614   2.000  13.004 -1.3248 -1.7571 -0.8700
  317MPD2    N1 4773   2.394   1.968  12.604 -0.0974 -0.1966  0.1997
  317MPD2    H7 4774   2.481   1.917  12.602 -0.8093 -1.4173  0.4622
  318TMC3    C1 4775   2.601   1.987  13.236 -0.5812 -0.1304  0.3034
  318TMC3    C2 4776   2.513   1.877  13.249 -0.1019  0.1104 -1.2181
  318TMC3    C3 4777   2.505   1.807  13.368 -0.0784  0.9099 -0.2095
  318TMC3    C4 4778   2.686   2.020  13.334  0.0928 -0.2934 -0.3435
  318TMC3    C5 4779   2.684   1.934  13.442 -0.1103 -0.0992 -0.0782
  318TMC3    C6 4780   2.595   1.833  13.463  0.5357 -0.1329 -0.2134
  318TMC3     C 4781   2.524   2.085  13.170  0.1562 -0.2279 -0.4740
  318TMC3     O 4782   2.421   2.126  13.223 -0.0324 -0.1121 -0.2630
  318TMC3     H 4783   2.459   1.837  13.164 -1.7069  0.5196 -0.3840
  318TMC3    H1 4784   2.748   2.107  13.316  0.7122 -0.7321 -0.3442
  318TMC3    H2 4785   2.603   1.766  13.548 -1.1420  2.4748  1.9986
  318TMC3    C7 4786   2.802   1.950  13.533 -0.6321  1.0463 -0.3164
  318TMC3    C8 4787   2.404   1.705  13.398  0.3445  0.0112  0.7007
  318TMC3    O1 4788   2.862   2.056  13.530 -0.3125  0.0227 -0.7875
  318TMC3    O2 4789   2.422   1.637  13.501 -0.3973  0.7453  0.4479
  319MPD2     C 4790   3.623   3.318  16.279  0.2173  0.0538 -0.0913
  319MPD2    C1 4791   3.529   3.297  16.377  1.1554  0.6720  0.1771
  319MPD2    C2 4792   3.397   3.285  16.345 -0.3337 -0.3228  0.4291
  319MPD2    C3 4793   3.349   3.271  16.218 -0.0261 -0.2083 -0.2488
  319MPD2    C4 4794   3.446   3.291  16.121 -0.1449  0.1765  0.3383
  319MPD2    C5 4795   3.579   3.309  16.148  0.1254 -0.0417 -0.0424
  319MPD2     H 4796   3.326   3.298  16.426 -0.2790 -1.3994  0.6489
  319MPD2    H1 4797   3.420   3.280  16.016 -0.2568  1.4734  0.2214
  319MPD2    H2 4798   3.727   3.337  16.302  0.2985 -2.1756  1.4138
  319MPD2    H3 4799   3.659   3.317  16.075  0.0839  0.2696 -0.0567
  319MPD2     N 4800   3.223   3.244  16.173 -0.0656  0.5512 -0.2366
  319MPD2    H5 4801   3.210   3.245  16.072  0.9620  1.8407 -0.3638
  319MPD2    N1 4802   3.565   3.310  16.512  0.0923  0.0793 -0.0758
  319MPD2    H7 4803   3.493   3.333  16.580  0.2371  1.4145 -0.3708
  320TMC3    C1 4804   3.000   3.195  16.184  0.0671 -0.6143 -0.7148
  320TMC3    C2 4805   2.974   3.272  16.073  0.3022  0.0240  0.1182
  320TMC3    C3 4806   2.857   3.257  16.003  0.7162  0.2200  0.5957
  320TMC3    C4 4807   2.909   3.105  16.233 -0.5030 -0.0873 -0.7470
  320TMC3    C5 4808   2.792   3.087  16.156  0.2750 -0.5018 -0.1326
  320TMC3    C6 4809   2.765   3.155  16.038  0.5953  0.1866 -0.2514
  320TMC3     C 4810   3.124   3.200  16.258 -0.4277 -0.2345 -0.6558
  320TMC3     O 4811   3.129   3.179  16.378  0.3676  0.3943  0.5572
  320TMC3     H 4812   3.039   3.354  16.043  0.0409  0.4067  0.6012
  320TMC3    H1 4813   2.945   3.045  16.316 -0.7537  1.2592  0.3447
  320TMC3    H2 4814   2.676   3.135  15.980 -0.7289 -0.5646  2.0362
  320TMC3    C7 4815   2.743   2.955  16.153 -0.1377 -0.3645 -0.4938
  320TMC3    C8 4816   2.821   3.374  15.925  0.7642  0.2150  0.0178
  320TMC3    O1 4817   2.674   2.923  16.058  0.0837  0.0309 -0.2484
  320TMC3    O2 4818   2.846   3.485  15.970  0.1032  0.3920  0.3007
  321TMC3    C1 4819   3.696   3.340  16.708 -1.4520 -0.0232 -0.7353
  321TMC3    C2 4820   3.591   3.332  16.786  0.1356 -0.4579  0.3490
  321TMC3    C3 4821   3.605   3.345  16.919 -0.5062  0.0418 -0.1783
  321TMC3    C4 4822   3.819   3.353  16.763 -0.4362  0.3277  0.1439
  321TMC3    C5 4823   3.833   3.380  16.897 -0.7270  0.0792  0.0219
  321TMC3    C6 4824   3.723   3.377  16.973  0.3378 -0.0473 -0.2444
  321TMC3     C 4825   3.691   3.304  16.566  0.2229  0.3739 -0.2586
  321TMC3     O 4826   3.791   3.272  16.505 -0.1050  0.3602  0.1969
  321TMC3     H 4827   3.498   3.285  16.756 -0.2261  0.8952 -0.6462
  321TMC3    H1 4828   3.904   3.335  16.697 -0.5439 -1.9425  0.6388
  321TMC3    H2 4829   3.717   3.396  17.080  0.3444 -2.0086  0.1046
  321TMC3    C7 4830   3.939   3.307  16.964  0.6449  0.1680  0.4201
  321TMC3    C8 4831   3.542   3.228  16.982  0.1830  0.0295  0.2412
  321TMC3    O1 4832   3.906   3.260  17.073  0.5285  0.0663 -0.2600
  321TMC3    O2 4833   3.427   3.194  16.961 -0.0618 -0.0586 -0.0264
  322MPD2     C 4834   1.764   4.489  13.536 -1.0485  0.0934 -1.2313
  322MPD2    C1 4835   1.836   4.402  13.613 -0.2562  0.1202  0.0207
  322MPD2    C2 4836   1.887   4.280  13.558 -0.4366 -0.5649 -0.5201
  322MPD2    C3 4837   1.874   4.253  13.424  0.3195 -0.1599  0.3681
  322MPD2    C4 4838   1.809   4.345  13.349  0.1969 -0.0798 -0.0239
  322MPD2    C5 4839   1.746   4.456  13.406 -0.6338  0.0052  0.2656
  322MPD2     H 4840   1.947   4.218  13.624  0.0078 -2.1290 -2.3777
  322MPD2    H1 4841   1.809   4.340  13.241  1.7027 -2.2928  0.0673
  322MPD2    H2 4842   1.718   4.581  13.569  2.1038  1.3066 -0.2028
  322MPD2    H3 4843   1.704   4.528  13.337 -0.0717  0.1060  0.0237
  322MPD2     N 4844   1.933   4.141  13.370 -0.1543  0.6068  0.2309
  322MPD2    H5 4845   1.970   4.076  13.439  1.6572 -0.4597 -1.7752
  322MPD2    N1 4846   1.875   4.448  13.746  0.3599 -0.2853 -0.4868
  322MPD2    H7 4847   1.852   4.546  13.759 -1.4544 -0.5390 -1.8285
  323TMC3    C1 4848   2.029   4.464  13.931  0.8348 -0.2204  1.2662
  323TMC3    C2 4849   2.103   4.569  13.881 -0.6687 -0.1990 -0.0977
  323TMC3    C3 4850   2.185   4.632  13.973  0.5980 -0.0950 -0.3213
  323TMC3    C4 4851   2.049   4.415  14.054  0.4991  0.5450  0.1006
  323TMC3    C5 4852   2.127   4.483  14.143 -0.2928  0.2265  0.1579
  323TMC3    C6 4853   2.204   4.593  14.109 -0.1398 -0.1503  0.6425
  323TMC3     C 4854   1.949   4.381  13.841 -0.7089 -0.1465  0.5731
  323TMC3     O 4855   1.965   4.260  13.856 -0.0211 -0.0168 -0.5097
  323TMC3     H 4856   2.096   4.584  13.774  3.7576 -0.1256 -0.3883
  323TMC3    H1 4857   2.005   4.322  14.088  0.7626  0.8263  1.2324
  323TMC3    H2 4858   2.266   4.651  14.176  1.9888  0.3345 -1.7554
  323TMC3    C7 4859   2.187   4.403  14.246  0.9015 -0.0828 -0.0217
  323TMC3    C8 4860   2.312   4.660  13.911  0.4682  0.4497  0.1486
  323TMC3    O1 4861   2.193   4.284  14.221  0.5826 -0.3969 -0.0231
  323TMC3    O2 4862   2.409   4.616  13.972 -0.4920 -0.1528 -0.2674
  324MPD2     C 4863   3.634   0.904  14.058 -0.1038  1.2337  0.4845
  324MPD2    C1 4864   3.621   1.016  14.133 -0.0358 -0.7043  0.6584
  324MPD2    C2 4865   3.493   1.068  14.156  0.0433  0.4027 -0.0872
  324MPD2    C3 4866   3.380   0.990  14.127  1.0572  0.0543 -0.2420
  324MPD2    C4 4867   3.398   0.871  14.063  0.3889  0.1801  0.0454
  324MPD2    C5 4868   3.521   0.835  14.020  0.3624  0.2878  0.0597
  324MPD2     H 4869   3.478   1.163  14.206  1.1877  1.0759 -0.9963
  324MPD2    H1 4870   3.323   0.798  14.036 -0.3242  0.4474  1.3064
  324MPD2    H2 4871   3.729   0.870  14.019 -0.3423  1.9509 -0.7175
  324MPD2    H3 4872   3.539   0.745  13.963  1.1923  1.8183 -2.1020
  324MPD2     N 4873   3.246   1.024  14.146  0.0743  0.6263  0.4165
  324MPD2    H5 4874   3.170   0.972  14.103  1.1177 -0.7721  0.2945
  324MPD2    N1 4875   3.729   1.091  14.184  0.0630  0.2496 -0.1451
  324MPD2    H7 4876   3.695   1.179  14.220 -2.0033 -0.2759 -0.8086
  325TMC3    C1 4877   3.059   1.138  14.217  0.0360 -0.8738  0.5616
  325TMC3    C2 4878   2.984   1.020  14.200  0.4202  0.0348 -0.1221
  325TMC3    C3 4879   2.847   1.020  14.167  0.3955 -0.7912  0.1969
  325TMC3    C4 4880   3.002   1.263  14.210  0.1852 -0.0818  0.0119
  325TMC3    C5 4881   2.869   1.259  14.169  0.0738 -0.1485 -0.2434
  325TMC3    C6 4882   2.789   1.145  14.145  0.3513  1.8698  0.7666
  325TMC3     C 4883   3.207   1.136  14.217 -0.2443 -0.2362 -0.4717
  325TMC3     O 4884   3.271   1.235  14.250  0.5251  0.4528  0.2880
  325TMC3     H 4885   3.033   0.924  14.201  0.2323 -0.0477  0.9932
  325TMC3    H1 4886   3.060   1.354  14.225  0.7730 -0.0099 -2.7398
  325TMC3    H2 4887   2.684   1.166  14.128  0.4425  2.0052  0.3641
  325TMC3    C7 4888   2.795   1.381  14.170 -0.1344  0.3156  0.8307
  325TMC3    C8 4889   2.807   0.914  14.080 -0.1545 -0.6689  0.6696
  325TMC3    O1 4890   2.696   1.394  14.099  0.0698  0.0114  0.3226
  325TMC3    O2 4891   2.901   0.846  14.027 -0.1058 -0.1176 -0.0988
  326MPD2     C 4892   4.565   2.280  11.034 -0.4257 -0.7600 -0.2175
  326MPD2    C1 4893   4.625   2.331  10.923  0.0744  0.1337 -0.3164
  326MPD2    C2 4894   0.038   2.361  10.930  0.1026 -0.3327  0.3717
  326MPD2    C3 4895   0.105   2.375  11.050 -0.4451  0.0955 -0.4436
  326MPD2    C4 4896   0.038   2.346  11.162  0.0890 -0.3869 -0.4531
  326MPD2    C5 4897   4.634   2.291  11.149  0.7445  0.2438 -0.2957
  326MPD2     H 4898   0.083   2.402  10.841 -1.9942  1.5395  0.1771
  326MPD2    H1 4899   0.097   2.351  11.253  0.4428 -0.1951 -0.6906
  326MPD2    H2 4900   4.463   2.243  11.034 -1.3591  1.8547 -0.4091
  326MPD2    H3 4901   4.595   2.258  11.244  0.0911  0.8738 -0.3431
  326MPD2     N 4902   0.237   2.419  11.050  0.5005  0.2376 -0.4164
  326MPD2    H5 4903   0.281   2.440  11.140 -1.7943 -0.0413  0.7822
  326MPD2    N1 4904   4.553   2.362  10.803  0.3763  0.4279 -0.4093
  326MPD2    H7 4905   4.605   2.420  10.739  1.7401 -0.0013  0.3091
  327TMC3    C1 4906   4.412   2.352  10.625 -0.5210 -0.1864  0.3832
  327TMC3    C2 4907   4.326   2.439  10.579  0.3154  0.0605 -0.2278
  327TMC3    C3 4908   4.354   2.495  10.451 -0.0317  0.0711 -0.2653
  327TMC3    C4 4909   4.518   2.306  10.553 -0.0791  0.8049  0.6661
  327TMC3    C5 4910   4.548   2.364  10.433  0.4665  0.2329  0.6629
  327TMC3    C6 4911   4.463   2.460  10.376 -0.2521 -0.0794 -0.6236
  327TMC3     C 4912   4.421   2.332  10.768  0.2084  0.4793 -0.0224
  327TMC3     O 4913   4.331   2.278  10.830  0.6950 -0.3368 -0.6199
  327TMC3     H 4914   4.245   2.476  10.639 -0.2449  0.2427 -1.0962
  327TMC3    H1 4915   4.579   2.225  10.592 -1.4362 -0.9460 -0.8451
  327TMC3    H2 4916   4.481   2.519  10.287  0.4910  0.1361 -0.3308
  327TMC3    C7 4917   4.680   2.360  10.371 -0.1116 -0.5676  0.0871
  327TMC3    C8 4918   4.281   2.615  10.403  0.0119  0.1281  0.0197
  327TMC3    O1 4919   4.699   2.435  10.276  0.1254 -0.0387  0.7433
  327TMC3    O2 4920   4.316   2.668  10.300 -0.3934 -0.3665 -0.1344
  328MPD2     C 4921   2.748   2.247  17.148  0.4019 -0.4900 -0.6584
  328MPD2    C1 4922   2.692   2.172  17.041 -0.4417  0.3888 -0.4453
  328MPD2    C2 4923   2.687   2.221  16.914 -0.1625  0.0263  0.5985
  328MPD2    C3 4924   2.732   2.351  16.893 -0.3467  0.4850  0.1295
  328MPD2    C4 4925   2.779   2.428  16.993 -1.3455  0.2789 -0.6759
  328MPD2    C5 4926   2.791   2.376  17.118 -0.1489  0.4823 -0.4682
  328MPD2     H 4927   2.645   2.158  16.836  0.2601  1.7514 -1.0274
  328MPD2    H1 4928   2.817   2.527  16.972 -0.5893  0.2111  0.3909
  328MPD2    H2 4929   2.752   2.208  17.249  0.1594  1.5200  0.1309
  328MPD2    H3 4930   2.838   2.431  17.198  0.2930  0.8882 -1.0167
  328MPD2     N 4931   2.704   2.418  16.774  0.8668 -0.3560  0.5802
  328MPD2    H5 4932   2.713   2.519  16.771 -0.8810 -0.0973  3.5236
  328MPD2    N1 4933   2.640   2.047  17.076  0.3107  0.6569 -0.0801
  328MPD2    H7 4934   2.627   2.029  17.175  3.3142  1.6945  0.5012
  329TMC3    C1 4935   2.472   1.870  17.046  0.8184  0.0360 -1.1485
  329TMC3    C2 4936   2.379   1.953  17.097 -0.7541  0.0501 -0.1149
  329TMC3    C3 4937   2.261   1.952  17.037 -0.6022 -0.6676 -0.1998
  329TMC3    C4 4938   2.446   1.768  16.957 -0.0280  0.5439 -0.5366
  329TMC3    C5 4939   2.318   1.759  16.903  0.4145 -0.1918 -0.3683
  329TMC3    C6 4940   2.228   1.855  16.942 -0.1528  0.1659  0.1046
  329TMC3     C 4941   2.587   1.949  16.992 -0.1015  0.2280 -0.0196
  329TMC3     O 4942   2.607   1.930  16.873  0.2148 -0.4558 -0.3650
  329TMC3     H 4943   2.412   2.037  17.156  1.6880 -0.3078 -0.9927
  329TMC3    H1 4944   2.528   1.701  16.930  2.0480  2.7141  0.3938
  329TMC3    H2 4945   2.127   1.854  16.901  0.3320  2.4318 -1.1272
  329TMC3    C7 4946   2.273   1.661  16.802 -0.5316  0.6665 -0.1666
  329TMC3    C8 4947   2.178   2.070  17.034  0.7133  0.0039 -1.0459
  329TMC3    O1 4948   2.171   1.690  16.733  0.0382 -0.6013  0.2670
  329TMC3    O2 4949   2.077   2.071  16.968  0.0642 -0.4961 -0.6126
  330TMC3    C1 4950   0.303   2.291   9.374 -0.3322 -0.2300 -0.0747
  330TMC3    C2 4951   0.297   2.190   9.281  0.2358 -0.4460 -0.0699
  330TMC3    C3 4952   0.411   2.146   9.232 -0.8164 -0.2715  0.1766
  330TMC3    C4 4953   0.418   2.363   9.397 -0.3735 -0.1372 -0.2312
  330TMC3    C5 4954   0.530   2.322   9.339 -0.6468 -0.2678  0.4353
  330TMC3    C6 4955   0.529   2.211   9.249  0.6242  0.2561 -0.0394
  330TMC3     C 4956   0.182   2.364   9.396 -0.7267 -0.1204  0.1435
  330TMC3     O 4957   0.177   2.485   9.365 -0.1695  0.3248 -0.3248
  330TMC3     H 4958   0.198   2.147   9.273  0.1642 -0.2789 -0.0771
  330TMC3    H1 4959   0.425   2.446   9.467  1.6819 -0.5504  0.0575
  330TMC3    H2 4960   0.618   2.181   9.196  1.4247  2.7533 -0.1394
  330TMC3    C7 4961   0.654   2.363   9.403 -0.2988 -0.4933 -0.6827
  330TMC3    C8 4962   0.398   2.050   9.128 -0.0200  0.4691 -0.2340
  330TMC3    O1 4963   0.649   2.459   9.469  0.3526  0.0732 -0.0905
  330TMC3    O2 4964   0.497   2.039   9.059 -0.0523  0.1953 -0.7653
  331MPD2     C 4965   2.983   0.598  12.530  0.3044 -0.5700 -0.0036
  331MPD2    C1 4966   3.108   0.640  12.494  0.2921 -0.2269  0.7590
  331MPD2    C2 4967   3.183   0.546  12.437  0.4375 -0.1733  0.0851
  331MPD2    C3 4968   3.145   0.414  12.411  0.8508  0.3099  0.7524
  331MPD2    C4 4969   3.029   0.369  12.459 -0.3143 -0.3071  0.2632
  331MPD2    C5 4970   2.942   0.467  12.514  0.9272 -0.1632  0.2290
  331MPD2     H 4971   3.279   0.576  12.397 -0.4459  0.9772 -1.1686
  331MPD2    H1 4972   2.983   0.275  12.431 -0.6124 -0.9900  3.0448
  331MPD2    H2 4973   2.921   0.660  12.594  2.0846  2.5472 -1.2643
  331MPD2    H3 4974   2.850   0.434  12.561  1.3446  2.1622  2.6664
  331MPD2     N 4975   3.233   0.333  12.332  0.2573 -0.4436  0.3432
  331MPD2    H5 4976   3.319   0.375  12.298 -0.5919  0.2437 -0.9209
  331MPD2    N1 4977   3.143   0.778  12.516  0.7312 -0.0052  0.5081
  331MPD2    H7 4978   3.071   0.839  12.553  0.3195  0.5458 -1.1838
  332TMC3    C1 4979   3.339   0.151  12.269  0.2796 -0.2203  0.2493
  332TMC3    C2 4980   3.393   0.209  12.157  0.2113 -0.3195 -0.4275
  332TMC3    C3 4981   3.530   0.227  12.133 -0.3544 -1.1877  0.2345
  332TMC3    C4 4982   3.429   0.134  12.368  0.3355  0.0798  0.8550
  332TMC3    C5 4983   3.562   0.152  12.347 -0.2075 -0.0340 -0.2074
  332TMC3    C6 4984   3.619   0.201  12.232 -1.0336 -0.6437  0.8475
  332TMC3     C 4985   3.218   0.197  12.325  0.0513 -0.2082  0.5504
  332TMC3     O 4986   3.145   0.120  12.388  0.5961  0.3871 -0.5824
  332TMC3     H 4987   3.326   0.258  12.087 -2.0704 -1.7368  0.7646
  332TMC3    H1 4988   3.392   0.091  12.460 -1.2878 -1.7082 -0.6327
  332TMC3    H2 4989   3.725   0.217  12.217 -1.4575  0.2153 -1.1871
  332TMC3    C7 4990   3.650   0.111  12.460  0.1257  0.5998  0.4139
  332TMC3    C8 4991   3.584   0.308  12.022 -0.0599 -0.4808  0.2069
  332TMC3    O1 4992   3.598   0.043  12.545 -0.5724 -0.0305 -0.4954
  332TMC3    O2 4993   3.690   0.371  12.037 -0.6972  0.2036  0.5321
  333MPD2     C 4994   3.713   0.516  11.179  0.1020 -1.0128 -0.1867
  333MPD2    C1 4995   3.659   0.549  11.051  0.1684  0.1212  0.5855
  333MPD2    C2 4996   3.549   0.474  11.010 -0.6422 -0.0252  0.5295
  333MPD2    C3 4997   3.493   0.375  11.089 -0.1841 -0.3210 -0.4028
  333MPD2    C4 4998   3.551   0.357  11.211  0.0527  0.8410 -0.6348
  333MPD2    C5 4999   3.659   0.423  11.258  0.0002  0.2730 -0.2307
  333MPD2     H 5000   3.500   0.480  10.913 -0.3900 -1.2990  0.3231
  333MPD2    H1 5001   3.527   0.269  11.270  0.0855  0.2684 -1.4781
  333MPD2    H2 5002   3.800   0.566  11.220 -0.0511 -2.2207  1.5765
  333MPD2    H3 5003   3.705   0.400  11.354 -2.6158 -0.8038  0.7589
  333MPD2     N 5004   3.369   0.314  11.033 -0.4459 -0.0738 -0.3952
  333MPD2    H5 5005   3.346   0.333  10.936 -2.2099 -0.6003 -0.0937
  333MPD2    N1 5006   3.724   0.652  10.981  0.6823  0.3126  0.5432
  333MPD2    H7 5007   3.817   0.677  11.013  1.5395 -0.9732 -0.9202
  334TMC3    C1 5008   3.791   0.784  10.798 -0.4271  0.2946 -0.2281
  334TMC3    C2 5009   3.921   0.757  10.821  0.6145  0.4524  0.8795
  334TMC3    C3 5010   4.015   0.832  10.759 -0.4458  0.0779 -0.6773
  334TMC3    C4 5011   3.749   0.888  10.716 -0.0458 -0.3235 -0.6298
  334TMC3    C5 5012   3.845   0.962  10.662 -0.5004  0.2812  0.1751
  334TMC3    C6 5013   3.977   0.939  10.678 -0.1684 -0.0941 -0.6730
  334TMC3     C 5014   3.683   0.720  10.871  0.3492  0.3577 -0.2427
  334TMC3     O 5015   3.572   0.742  10.831  0.2176 -0.0992 -0.0703
  334TMC3     H 5016   3.944   0.665  10.875  0.5974 -0.6398 -0.9868
  334TMC3    H1 5017   3.644   0.912  10.705  0.0256 -1.0523 -2.9860
  334TMC3    H2 5018   4.046   1.008  10.630 -0.7712  0.1635 -1.1780
  334TMC3    C7 5019   3.805   1.087  10.607  0.1718  0.2872 -0.5339
  334TMC3    C8 5020   4.145   0.777  10.720  0.1024 -0.1143  0.3912
  334TMC3    O1 5021   3.880   1.182  10.619  0.6472 -0.4369  0.3755
  334TMC3    O2 5022   4.189   0.816  10.615 -0.3671  0.1639 -0.0974
  335TMC3    C1 5023   3.473   2.074  17.295 -0.8220  0.3041  0.4302
  335TMC3    C2 5024   3.383   2.043  17.202 -0.5944 -0.0038  0.3908
  335TMC3    C3 5025   3.437   2.020  17.075 -0.5685  0.4045 -0.3900
  335TMC3    C4 5026   3.609   2.084  17.281  0.1505 -0.2818 -0.0618
  335TMC3    C5 5027   3.651   2.060  17.151  0.0033  0.3069 -0.5784
  335TMC3    C6 5028   3.566   2.024  17.053  0.1873 -0.3559  0.3374
  335TMC3     C 5029   3.421   2.065  17.434 -0.1606  0.7739  0.1269
  335TMC3     O 5030   3.307   2.030  17.458 -0.0970  0.1205  0.6140
  335TMC3     H 5031   3.282   2.066  17.231 -0.8063 -1.2878  0.6500
  335TMC3    H1 5032   3.681   2.124  17.352 -0.0216  1.6250 -0.9608
  335TMC3    H2 5033   3.605   2.015  16.952  2.8003 -2.2319  1.5266
  335TMC3    C7 5034   3.789   2.041  17.109 -0.0127 -0.3768 -0.5935
  335TMC3    C8 5035   3.346   1.981  16.967 -1.3664 -0.2994 -0.2133
  335TMC3    O1 5036   3.819   1.962  17.023  0.4320  0.2328  0.3800
  335TMC3    O2 5037   3.383   1.996  16.851 -0.0403 -0.1758 -0.2819
  336MPD2     C 5038   3.226   4.208  15.366  0.0457 -0.0200  0.4800
  336MPD2    C1 5039   3.196   4.208  15.505 -0.2197  0.3616 -0.0427
  336MPD2    C2 5040   3.158   4.087  15.564 -0.3733  0.2300 -0.2203
  336MPD2    C3 5041   3.148   3.965  15.500 -0.5042 -0.1771 -0.7504
  336MPD2    C4 5042   3.180   3.975  15.364 -0.0061  0.4772 -0.4094
  336MPD2    C5 5043   3.221   4.087  15.301 -0.6214  0.3890 -0.3027
  336MPD2     H 5044   3.125   4.086  15.667  2.2783  0.6672  0.6236
  336MPD2    H1 5045   3.181   3.883  15.306 -0.6335  0.0184  0.2964
  336MPD2    H2 5046   3.240   4.297  15.306  0.7413  0.5476  1.4890
  336MPD2    H3 5047   3.228   4.077  15.193 -0.3553  0.5995 -0.3080
  336MPD2     N 5048   3.121   3.846  15.566  0.6192  0.0417  0.6452
  336MPD2    H5 5049   3.115   3.770  15.499  1.4677  1.5719 -1.1510
  336MPD2    N1 5050   3.187   4.330  15.583  0.4902  0.3373  0.3199
  336MPD2    H7 5051   3.167   4.326  15.682  1.0997 -1.6391  0.3596
  337TMC3    C1 5052   3.186   4.561  15.638 -0.4945  0.4816  0.5318
  337TMC3    C2 5053   3.114   4.673  15.625  0.3714  0.0266 -0.2519
  337TMC3    C3 5054   3.081   0.029  15.733  0.4977 -0.1649 -0.5507
  337TMC3    C4 5055   3.220   4.521  15.767  0.4045  0.3807  0.4728
  337TMC3    C5 5056   3.191   4.606  15.869 -0.1662 -0.0268 -0.7717
  337TMC3    C6 5057   3.114   4.719  15.858 -0.0749 -0.6798  0.1117
  337TMC3     C 5058   3.172   4.459  15.533  0.2549 -0.2775 -0.1560
  337TMC3     O 5059   3.142   4.485  15.417  0.0540  0.0635 -0.4688
  337TMC3     H 5060   3.088   4.709  15.526 -1.5245 -0.3888  0.0928
  337TMC3    H1 5061   3.297   4.448  15.791  0.3787 -0.5296 -2.2275
  337TMC3    H2 5062   3.058   0.042  15.937  0.0980 -0.2589 -0.0166
  337TMC3    C7 5063   3.235   4.567  16.005  0.0948  0.4471  0.5833
  337TMC3    C8 5064   2.968   0.122  15.715 -0.2160 -0.8787  0.1078
  337TMC3    O1 5065   3.299   4.463  16.018  0.2578 -0.0504 -0.6613
  337TMC3    O2 5066   2.949   0.193  15.816  0.4005  0.2010  0.3371
  338MPD2     C 5067   4.366   3.687   0.406 -0.0127 -0.1635  0.1460
  338MPD2    C1 5068   4.227   3.672   0.386 -0.3687  0.2643  0.3590
  338MPD2    C2 5069   4.153   3.598   0.472  0.6018  0.0151  0.4041
  338MPD2    C3 5070   4.220   3.521   0.570  0.0047  0.3075 -0.7300
  338MPD2    C4 5071   4.356   3.524   0.579 -0.9337 -0.3182  0.1287
  338MPD2    C5 5072   4.428   3.618   0.508  0.9500 -0.0496  1.2774
  338MPD2     H 5073   4.046   3.606   0.454  0.7540  1.1165  0.0022
  338MPD2    H1 5074   4.415   3.456   0.641  1.4491  2.2745  0.7110
  338MPD2    H2 5075   4.420   3.764   0.354  1.9296 -0.7904  1.2270
  338MPD2    H3 5076   4.531   3.641   0.531  0.3381  2.3199  1.6109
  338MPD2     N 5077   4.132   3.443   0.648  0.2318 -0.2421 -0.4277
  338MPD2    H5 5078   4.033   3.441   0.625  1.0288 -1.3332 -3.8000
  338MPD2    N1 5079   4.149   3.726   0.276 -0.1608  0.7965 -0.3707
  338MPD2    H7 5080   4.050   3.709   0.268  0.5712 -3.4208 -0.4957
  339TMC3    C1 5081   4.068   3.294   0.817  0.2238 -0.6695 -0.5741
  339TMC3    C2 5082   4.085   3.162   0.856 -0.3833 -0.4802  0.7876
  339TMC3    C3 5083   3.973   3.110   0.911  0.0660 -0.3694  0.5556
  339TMC3    C4 5084   3.958   3.373   0.832 -0.4876 -0.3047 -0.3596
  339TMC3    C5 5085   3.853   3.314   0.892  0.4001  0.1541 -0.1562
  339TMC3    C6 5086   3.855   3.176   0.925 -0.1118  0.1004 -0.2378
  339TMC3     C 5087   4.178   3.355   0.740  0.3739  0.3417  0.5352
  339TMC3     O 5088   4.289   3.306   0.755  0.1480  0.0833  0.6020
  339TMC3     H 5089   4.182   3.115   0.843 -0.7621 -0.7814 -0.9659
  339TMC3    H1 5090   3.953   3.478   0.804  0.1095 -0.4288 -0.9426
  339TMC3    H2 5091   3.769   3.125   0.967 -0.6040  1.4644  0.4253
  339TMC3    C7 5092   3.727   3.391   0.902 -0.9710 -0.0869  0.0612
  339TMC3    C8 5093   3.989   2.971   0.959  0.2096  1.0021 -0.8483
  339TMC3    O1 5094   3.718   3.492   0.834  0.0707  0.2386 -0.0563
  339TMC3    O2 5095   4.097   2.917   0.940  0.5296 -0.2022  0.6164
  340MPD2     C 5096   2.719   2.253   9.491  0.7818  0.0021 -0.7296
  340MPD2    C1 5097   2.783   2.194   9.591 -0.1198 -0.7280  0.5830
  340MPD2    C2 5098   2.841   2.278   9.683  0.2504 -0.0813 -0.2181
  340MPD2    C3 5099   2.822   2.416   9.687  0.8015 -0.0306  0.1917
  340MPD2    C4 5100   2.748   2.473   9.583  0.2859  0.3884  0.6507
  340MPD2    C5 5101   2.699   2.388   9.484  0.0058 -0.5546  0.2121
  340MPD2     H 5102   2.892   2.235   9.767  0.7065  1.3326  0.2253
  340MPD2    H1 5103   2.730   2.578   9.567 -1.1944  0.0330  0.0122
  340MPD2    H2 5104   2.684   2.179   9.419 -1.5184  1.3018 -0.9249
  340MPD2    H3 5105   2.648   2.424   9.395  0.5735 -0.1200  0.0562
  340MPD2     N 5106   2.864   2.510   9.785  0.7089  0.8261 -0.0387
  340MPD2    H5 5107   2.819   2.602   9.786 -2.2246 -0.6270  0.7387
  340MPD2    N1 5108   2.811   2.055   9.577 -0.3341 -0.0656 -0.1661
  340MPD2    H7 5109   2.781   2.025   9.484 -0.0030 -1.7004  0.2491
  341TMC3    C1 5110   2.898   1.852   9.587  0.1673 -0.1909 -0.4491
  341TMC3    C2 5111   2.802   1.797   9.497 -0.0233 -0.1636 -0.4335
  341TMC3    C3 5112   2.829   1.671   9.442  0.0501  0.1179 -0.2004
  341TMC3    C4 5113   2.999   1.768   9.635  0.9337  0.3553 -0.6238
  341TMC3    C5 5114   2.999   1.634   9.596 -0.1613 -0.3285 -0.3849
  341TMC3    C6 5115   2.922   1.584   9.494  0.6496  0.0087  0.1547
  341TMC3     C 5116   2.890   1.978   9.652 -0.2459  0.0707 -0.2314
  341TMC3     O 5117   2.952   1.998   9.755  0.4659  0.1394  0.4010
  341TMC3     H 5118   2.721   1.855   9.455 -0.4796 -0.9252 -0.6015
  341TMC3    H1 5119   3.062   1.810   9.713 -1.4607 -1.0862  2.1044
  341TMC3    H2 5120   2.938   1.490   9.444  0.2924  0.0680 -0.0674
  341TMC3    C7 5121   3.091   1.540   9.659  0.2261  0.3214 -0.3967
  341TMC3    C8 5122   2.747   1.608   9.338  0.5820  0.2178  0.4730
  341TMC3    O1 5123   3.197   1.579   9.704 -0.3861  0.1048 -0.2795
  341TMC3    O2 5124   2.751   1.488   9.325 -0.3133  0.8989 -0.5640
  342MPD2     C 5125   1.164   0.131  17.129  0.4774  0.3969 -0.2003
  342MPD2    C1 5126   1.270   0.158  17.054 -0.2170  0.1633 -0.3287
  342MPD2    C2 5127   1.301   0.290  17.032  0.3607 -0.8227  0.0063
  342MPD2    C3 5128   1.221   0.391  17.089  0.3591 -0.1943 -0.9035
  342MPD2    C4 5129   1.112   0.360  17.161 -0.9660 -0.1828  0.2702
  342MPD2    C5 5130   1.086   0.229  17.179 -0.5128 -0.0619 -0.2576
  342MPD2     H 5131   1.383   0.315  16.966 -1.2423  1.4683 -1.1042
  342MPD2    H1 5132   1.039   0.433  17.195  1.6520  2.5013  0.0781
  342MPD2    H2 5133   1.127   0.032  17.154 -0.3183  0.7501  0.0462
  342MPD2    H3 5134   1.010   0.199  17.250  0.2286 -0.8166  0.2135
  342MPD2     N 5135   1.238   0.524  17.066  0.1063  0.1761 -0.1231
  342MPD2    H5 5136   1.171   0.580  17.118  0.4581  0.0652  0.4513
  342MPD2    N1 5137   1.350   0.051  17.007  0.5801  0.3848 -0.3595
  342MPD2    H7 5138   1.336   4.682  17.043  0.4206 -0.4720 -2.6363
  343TMC3    C1 5139   1.521   4.636  16.913 -0.1192  0.3059  1.1051
  343TMC3    C2 5140   1.659   4.632  16.921  0.2673  0.7221  0.6040
  343TMC3    C3 5141   1.722   4.515  16.914 -0.3757  0.4875  0.2146
  343TMC3    C4 5142   1.445   4.516  16.909 -0.4309  0.4724 -0.3593
  343TMC3    C5 5143   1.511   4.398  16.919  0.0603  0.1365 -0.5180
  343TMC3    C6 5144   1.647   4.398  16.917  0.5463  0.1521  0.0586
  343TMC3     C 5145   1.459   0.049  16.925 -0.9144 -0.0766 -0.2733
  343TMC3     O 5146   1.509   0.146  16.871  0.0007 -0.0159 -0.3057
  343TMC3     H 5147   1.710   0.002  16.935  2.9474 -1.1242  3.4476
  343TMC3    H1 5148   1.337   4.523  16.911 -0.5263 -0.7235 -1.5260
  343TMC3    H2 5149   1.701   4.304  16.912 -1.2390 -0.9710  1.5655
  343TMC3    C7 5150   1.434   4.278  16.950 -0.1264  0.7542 -0.9359
  343TMC3    C8 5151   1.864   4.515  16.895  0.3863  0.0233  0.4962
  343TMC3    O1 5152   1.318   4.276  16.915  0.5364  0.4974  0.3560
  343TMC3    O2 5153   1.922   4.583  16.979  0.2225  0.9670 -0.1821
  344MPD2     C 5154   2.150   4.454  10.416 -0.6057 -0.1015 -0.6233
  344MPD2    C1 5155   2.049   4.403  10.330  0.7855 -0.2712  0.5546
  344MPD2    C2 5156   2.060   4.441  10.197  0.1444 -0.0178 -0.4176
  344MPD2    C3 5157   2.160   4.537  10.157  0.5017 -0.0613  0.0626
  344MPD2    C4 5158   2.256   4.574  10.244  0.6328 -0.3703  0.3759
  344MPD2    C5 5159   2.259   4.520  10.370 -0.2370 -0.3856 -0.2484
  344MPD2     H 5160   1.984   4.403  10.130  0.1915  0.6341 -0.8365
  344MPD2    H1 5161   2.338   4.639  10.214  0.7183 -0.9899 -0.7067
  344MPD2    H2 5162   2.154   4.427  10.521 -0.3738 -1.2058 -0.9074
  344MPD2    H3 5163   2.337   4.557  10.435 -0.9250  2.4037 -1.0385
  344MPD2     N 5164   2.155   4.601  10.031  0.2677 -0.9723 -0.1504
  344MPD2    H5 5165   2.233   4.664  10.020  0.6872 -1.3252  0.7675
  344MPD2    N1 5166   1.935   4.332  10.379 -0.1390 -0.1503  0.1376
  344MPD2    H7 5167   1.858   4.325  10.312  2.0406 -3.2240 -2.0471
  345TMC3    C1 5168   2.100   4.648   9.805  0.4182  0.7334  0.6819
  345TMC3    C2 5169   2.235   4.636   9.774 -0.8583  0.0505 -0.3644
  345TMC3    C3 5170   2.296   0.020   9.709  0.0085 -0.2798  0.1204
  345TMC3    C4 5171   2.028   0.041   9.773  0.0374 -0.1323  0.3717
  345TMC3    C5 5172   2.090   0.141   9.701  0.1932 -0.0260 -1.0090
  345TMC3    C6 5173   2.226   0.138   9.680 -0.1507  0.2145 -0.1520
  345TMC3     C 5174   2.061   4.580   9.925  0.3869  0.3684  0.2687
  345TMC3     O 5175   1.946   4.531   9.923  0.1969  0.2457  0.1318
  345TMC3     H 5176   2.293   4.547   9.798  1.2119  1.2458 -0.9050
  345TMC3    H1 5177   1.924   0.045   9.805  0.0481 -0.2961  0.4251
  345TMC3    H2 5178   2.267   0.215   9.616 -0.8380 -1.4414 -2.5684
  345TMC3    C7 5179   2.023   0.261   9.682 -0.0718 -0.7417  0.1551
  345TMC3    C8 5180   2.437   0.017   9.684 -0.1022 -0.1044  0.2550
  345TMC3    O1 5181   2.097   0.359   9.688  0.1034  0.0566  0.4590
  345TMC3    O2 5182   2.491   0.127   9.675  0.2654 -0.3923 -0.2377
  346MPD2     C 5183   2.305   1.597  14.450  0.0357  0.0986 -0.0436
  346MPD2    C1 5184   2.401   1.559  14.350  0.6170 -0.9588 -0.2708
  346MPD2    C2 5185   2.539   1.581  14.383 -0.7788 -0.0737  0.1195
  346MPD2    C3 5186   2.568   1.629  14.514 -0.3694  0.2584  0.2723
  346MPD2    C4 5187   2.477   1.675  14.601 -0.3763 -0.7155 -0.4196
  346MPD2    C5 5188   2.347   1.653  14.565 -0.0926 -0.6671 -0.0502
  346MPD2     H 5189   2.620   1.551  14.317 -1.0343  0.2420 -0.3422
  346MPD2    H1 5190   2.492   1.727  14.695  0.5958  0.6601 -1.3448
  346MPD2    H2 5191   2.199   1.578  14.434 -0.0553 -0.0548  0.7359
  346MPD2    H3 5192   2.276   1.681  14.642  1.3399 -0.1990  1.1176
  346MPD2     N 5193   2.704   1.659  14.539  0.2097  0.9222  0.1578
  346MPD2    H5 5194   2.753   1.660  14.450 -3.4226 -1.0162 -1.8542
  346MPD2    N1 5195   2.360   1.524  14.220 -0.0239 -0.3791 -0.1303
  346MPD2    H7 5196   2.432   1.496  14.154  0.8253  1.0760  0.1880
  347TMC3    C1 5197   2.895   1.732  14.665 -1.2681 -0.0555  0.8244
  347TMC3    C2 5198   2.939   1.786  14.544 -0.2371 -0.0947  0.1241
  347TMC3    C3 5199   3.074   1.786  14.520 -0.2908  0.0248 -0.2523
  347TMC3    C4 5200   2.986   1.695  14.761 -0.4851  0.0888  0.1116
  347TMC3    C5 5201   3.121   1.696  14.731 -0.0388  0.2624 -0.3352
  347TMC3    C6 5202   3.165   1.749  14.615 -0.4621 -0.5814 -0.4078
  347TMC3     C 5203   2.755   1.688  14.663  0.1832 -0.3862 -0.3315
  347TMC3     O 5204   2.715   1.675  14.775  0.6331  0.4966 -0.1414
  347TMC3     H 5205   2.866   1.827  14.476  1.3015  0.5069 -1.1623
  347TMC3    H1 5206   2.950   1.654  14.855  0.5063  0.6738  0.7482
  347TMC3    H2 5207   3.269   1.774  14.596 -0.8945 -0.7971 -3.0812
  347TMC3    C7 5208   3.207   1.733  14.839 -0.0304 -0.8251  0.6168
  347TMC3    C8 5209   3.120   1.879  14.419  0.6955 -0.1402 -0.2118
  347TMC3    O1 5210   3.293   1.653  14.866 -0.4743  0.0586  0.3145
  347TMC3    O2 5211   3.214   1.950  14.454 -0.8111  0.4936  0.3544
  348MPD2     C 5212   0.747   0.808  11.938 -0.3335  0.2483 -0.3891
  348MPD2    C1 5213   0.828   0.914  11.951  0.2989  0.5212 -0.6463
  348MPD2    C2 5214   0.803   1.027  11.871  0.0750  0.7730  0.2310
  348MPD2    C3 5215   0.696   1.034  11.782 -0.3723 -0.0544  0.1762
  348MPD2    C4 5216   0.611   0.926  11.774 -0.1178 -0.4240 -0.1301
  348MPD2    C5 5217   0.638   0.812  11.852 -0.3470 -0.0740  0.3718
  348MPD2     H 5218   0.876   1.108  11.871 -0.2341  1.0536 -2.0391
  348MPD2    H1 5219   0.530   0.920  11.702  0.3548  1.2596 -0.8000
  348MPD2    H2 5220   0.783   0.710  11.968  0.9458  0.8531  0.0463
  348MPD2    H3 5221   0.586   0.722  11.823  0.6738 -1.6548  3.4658
  348MPD2     N 5222   0.683   1.148  11.695  0.4870 -0.4174 -0.2593
  348MPD2    H5 5223   0.734   1.234  11.713 -3.0810  1.2071  2.0129
  348MPD2    N1 5224   0.948   0.924  12.031  0.1005  0.0197  0.3279
  348MPD2    H7 5225   0.989   1.017  12.025 -0.6647  0.4206  1.3869
  349TMC3    C1 5226   1.126   0.865  12.175 -0.7844 -0.4711 -0.2246
  349TMC3    C2 5227   1.207   0.759  12.170  0.1847 -0.2019  0.7687
  349TMC3    C3 5228   1.339   0.778  12.145 -0.0020  0.0458  0.5436
  349TMC3    C4 5229   1.172   0.993  12.163 -0.4685  0.4545 -0.2210
  349TMC3    C5 5230   1.305   1.010  12.129 -0.5614  0.2828 -0.0061
  349TMC3    C6 5231   1.393   0.906  12.122  0.0497  0.5895  0.9133
  349TMC3     C 5232   0.999   0.833  12.112  0.1031  0.3571 -0.4330
  349TMC3     O 5233   0.959   0.718  12.134 -0.0480  0.4489 -0.1389
  349TMC3     H 5234   1.167   0.658  12.170  0.8939 -0.4842 -1.2989
  349TMC3    H1 5235   1.107   1.079  12.172 -0.1461  0.5947  0.7897
  349TMC3    H2 5236   1.496   0.932  12.101 -0.5750  0.7898 -1.8557
  349TMC3    C7 5237   1.320   1.111  12.025 -0.1790  0.8770  0.1939
  349TMC3    C8 5238   1.427   0.657  12.154  0.1992  0.0300 -0.0348
  349TMC3    O1 5239   1.362   1.058  11.924  0.0781 -0.1998  0.4479
  349TMC3    O2 5240   1.398   0.559  12.221  0.6324  1.0629 -0.7592
  350MPD2     C 5241   4.520   4.612   9.968  0.0575  0.2442 -0.5792
  350MPD2    C1 5242   4.569   4.520  10.064 -0.0145  0.4231  0.2437
  350MPD2    C2 5243   4.690   4.546  10.120  0.4067 -0.7537  0.5086
  350MPD2    C3 5244   0.035   4.666  10.096 -0.0153  0.2051  0.1548
  350MPD2    C4 5245   4.700   0.042  10.016 -0.4020 -0.0651 -0.4988
  350MPD2    C5 5246   4.582   0.009   9.958  1.0557 -0.8206 -0.1261
  350MPD2     H 5247   0.003   4.476  10.194 -0.4554  0.2950  1.9295
  350MPD2    H1 5248   0.011   0.144  10.007  3.3737 -1.4656 -1.1045
  350MPD2    H2 5249   4.427   4.596   9.915  0.3142  3.0682 -1.8559
  350MPD2    H3 5250   4.535   0.085   9.896 -1.5937 -2.0017  0.4647
  350MPD2     N 5251   0.159   4.684  10.163 -0.2765  0.3872  0.4368
  350MPD2    H5 5252   0.199   4.597  10.195 -0.4254 -0.6335 -2.1810
  350MPD2    N1 5253   4.507   4.394  10.096  0.5807 -0.6967 -0.3182
  350MPD2    H7 5254   4.540   4.331  10.169 -3.3975 -1.0010  1.1983
  351TMC3    C1 5255   4.332   4.233  10.109 -0.2237  0.2341 -0.4158
  351TMC3    C2 5256   4.415   4.124  10.118 -0.0788  0.4008 -0.7391
  351TMC3    C3 5257   4.364   4.001  10.155  0.1232  0.1615 -0.0690
  351TMC3    C4 5258   4.199   4.218  10.128 -0.4644  0.6287  0.0787
  351TMC3    C5 5259   4.148   4.093  10.144 -0.7568 -0.6301  1.0039
  351TMC3    C6 5260   4.227   3.980  10.158  0.2438 -0.5756  0.1533
  351TMC3     C 5261   4.380   4.363  10.049 -0.1491  0.3025 -0.2359
  351TMC3     O 5262   4.301   4.431   9.989  0.6010 -0.0078 -0.3028
  351TMC3     H 5263   4.516   4.135  10.081 -0.7892 -1.0083 -3.0608
  351TMC3    H1 5264   4.134   4.303  10.116  0.2668  1.2234  0.3066
  351TMC3    H2 5265   4.183   3.880  10.157  0.8761 -0.8361 -1.0624
  351TMC3    C7 5266   4.013   4.083  10.091  0.7026  0.2863  0.4328
  351TMC3    C8 5267   4.453   3.888  10.161  0.4540 -0.1541  0.6253
  351TMC3    O1 5268   3.957   4.181  10.061  0.3717 -0.4527  0.1706
  351TMC3    O2 5269   4.568   3.917  10.122  0.0433 -0.0547 -0.4557
  352MPD2     C 5270   4.097   1.138   0.661 -0.5119 -0.5354 -0.0639
  352MPD2    C1 5271   3.994   1.064   0.706 -0.2210  0.0421 -0.2063
  352MPD2    C2 5272   4.015   0.934   0.748 -0.0090 -0.4316 -0.3278
  352MPD2    C3 5273   4.138   0.874   0.746  0.2738  0.4074 -0.2053
  352MPD2    C4 5274   4.246   0.951   0.700  0.1893 -0.0766 -0.0596
  352MPD2    C5 5275   4.220   1.081   0.653 -0.0605 -0.3693 -0.4236
  352MPD2     H 5276   3.927   0.887   0.791  0.6768  0.2796  1.8765
  352MPD2    H1 5277   4.348   0.914   0.703 -0.1290 -1.1388 -2.5848
  352MPD2    H2 5278   4.092   1.242   0.630 -0.9734 -0.5411 -0.0071
  352MPD2    H3 5279   4.295   1.143   0.606 -1.3326  0.5544 -1.2088
  352MPD2     N 5280   4.155   0.738   0.780  0.4544 -0.0169  0.1613
  352MPD2    H5 5281   4.248   0.700   0.768  0.1698  0.2076 -2.7959
  352MPD2    N1 5282   3.865   1.113   0.682 -0.5479 -0.8585 -0.4180
  352MPD2    H7 5283   3.864   1.199   0.628 -1.1719 -0.8700 -0.4253
  353TMC3    C1 5284   4.110   0.533   0.879 -0.0984  0.2628 -0.0465
  353TMC3    C2 5285   4.195   0.471   0.788 -0.2801  0.2514 -0.3685
  353TMC3    C3 5286   4.175   0.333   0.781 -0.1978 -0.0088  0.0332
  353TMC3    C4 5287   4.004   0.464   0.941  0.0395  0.1157  0.5797
  353TMC3    C5 5288   3.981   0.337   0.919 -1.1737 -0.2854 -0.1990
  353TMC3    C6 5289   4.071   0.269   0.840 -0.0473  0.7147 -0.2812
  353TMC3     C 5290   4.064   0.659   0.841  0.3980  0.2722  0.5966
  353TMC3     O 5291   3.957   0.694   0.888  0.1125  1.0040  0.4182
  353TMC3     H 5292   4.280   0.510   0.734 -0.9524 -0.1577 -1.7239
  353TMC3    H1 5293   3.961   0.512   1.028  2.6100  1.3525  1.1708
  353TMC3    H2 5294   4.060   0.161   0.838  2.3884  0.4275  0.9070
  353TMC3    C7 5295   3.846   0.311   0.873 -0.1435  0.2411  0.3592
  353TMC3    C8 5296   4.293   0.257   0.734 -0.8599 -0.1323  0.4347
  353TMC3    O1 5297   3.810   0.194   0.853 -0.2122  0.1328  0.1858
  353TMC3    O2 5298   4.401   0.314   0.754 -0.0868 -0.3568  0.1167
  354TMC3    C1 5299   0.140   2.269  13.240 -0.0452  0.4775 -0.3405
  354TMC3    C2 5300   0.158   2.399  13.269 -0.1733 -0.1600 -0.7364
  354TMC3    C3 5301   0.186   2.480  13.164  0.4071 -0.5343  1.2664
  354TMC3    C4 5302   0.163   2.214  13.117 -0.2891 -0.3614 -0.1361
  354TMC3    C5 5303   0.231   2.295  13.028 -0.1581  0.8484  0.4136
  354TMC3    C6 5304   0.232   2.435  13.046 -0.1898 -0.1036  0.1604
  354TMC3     C 5305   0.134   2.181  13.351 -0.5209  0.3225  0.4359
  354TMC3     O 5306   0.106   2.062  13.342 -0.1788  0.6926  0.1712
  354TMC3     H 5307   0.129   2.448  13.361 -1.3663 -0.3695 -1.0063
  354TMC3    H1 5308   0.178   2.107  13.113 -0.9802 -0.4528 -0.2515
  354TMC3    H2 5309   0.258   2.507  12.970  0.9437 -0.1943  0.4679
  354TMC3    C7 5310   0.339   2.247  12.954  0.1341  0.8659 -0.0589
  354TMC3    C8 5311   0.161   2.623  13.190 -0.3741  0.2468  0.1362
  354TMC3    O1 5312   0.340   2.129  12.930  0.6118  0.1323 -0.0382
  354TMC3    O2 5313   0.109   2.656  13.293 -0.1930  0.2217  0.7953
  355MPD2     C 5314   0.050   3.135  11.515  0.0959 -0.2719  0.1754
  355MPD2    C1 5315   0.110   3.192  11.399 -0.0128  0.2376 -0.5681
  355MPD2    C2 5316   0.241   3.212  11.403 -0.1317 -0.2446 -0.9062
  355MPD2    C3 5317   0.325   3.177  11.508 -0.2118  0.0725 -0.5310
  355MPD2    C4 5318   0.267   3.132  11.622  0.0761 -0.0337  0.4224
  355MPD2    C5 5319   0.133   3.111  11.629 -0.5849  0.1189 -0.0348
  355MPD2     H 5320   0.280   3.268  11.319  1.3313 -1.2389 -0.8905
  355MPD2    H1 5321   0.334   3.111  11.705 -2.8119 -0.0085  2.7944
  355MPD2    H2 5322   4.667   3.121  11.523 -0.1310  1.0428 -0.5884
  355MPD2    H3 5323   0.094   3.062  11.718  2.8286  0.6423  1.7308
  355MPD2     N 5324   0.456   3.226  11.515  0.4127  0.2250 -0.8125
  355MPD2    H5 5325   0.492   3.226  11.609  0.1423  0.3814 -0.7095
  355MPD2    N1 5326   0.020   3.230  11.293  0.3297 -1.0013  0.2875
  355MPD2    H7 5327   4.649   3.197  11.301 -0.8114  1.7493 -1.9882
  356TMC3    C1 5328   0.592   3.425  11.467 -0.1031 -1.0562  0.3335
  356TMC3    C2 5329   0.637   3.514  11.369  0.6174 -0.0525 -0.0888
  356TMC3    C3 5330   0.685   3.637  11.406 -0.0477 -0.4144  0.2957
  356TMC3    C4 5331   0.562   3.483  11.590  0.2899  0.0798 -0.6106
  356TMC3    C5 5332   0.624   3.598  11.627  0.3445 -0.7096 -0.5308
  356TMC3    C6 5333   0.683   3.681  11.537  0.4056 -0.1308 -0.3559
  356TMC3     C 5334   0.516   3.308  11.413  0.1738  0.1311  0.0434
  356TMC3     O 5335   0.510   3.299  11.290 -0.1502  0.1156 -0.1504
  356TMC3     H 5336   0.662   3.484  11.268 -1.1603 -1.2528 -0.1667
  356TMC3    H1 5337   0.489   3.435  11.653  3.0563 -0.6591  2.0259
  356TMC3    H2 5338   0.705   3.784  11.559 -1.0489  0.0270  0.3729
  356TMC3    C7 5339   0.585   3.657  11.747 -0.1438  0.3578 -0.2705
  356TMC3    C8 5340   0.713   3.733  11.301 -1.5756  0.8067  0.1996
  356TMC3    O1 5341   0.500   3.597  11.812 -0.1630 -0.2880  0.1329
  356TMC3    O2 5342   0.676   3.694  11.190  0.1154 -0.8303  0.6194
  357MPD2     C 5343   0.406   2.834   0.663  0.0239 -0.0795  0.6828
  357MPD2    C1 5344   0.422   2.724   0.745 -0.5121  0.2372 -0.8586
  357MPD2    C2 5345   0.345   2.718   0.864  0.1595 -0.2869 -0.9029
  357MPD2    C3 5346   0.257   2.815   0.902 -0.8176  0.4351 -0.2618
  357MPD2    C4 5347   0.232   2.921   0.808 -0.7181  0.9629 -0.0624
  357MPD2    C5 5348   0.311   2.925   0.696  0.2696  0.3009  0.1043
  357MPD2     H 5349   0.357   2.626   0.920  0.3838 -0.3193 -1.0032
  357MPD2    H1 5350   0.177   3.012   0.826 -0.2725  1.0028  1.0783
  357MPD2    H2 5351   0.467   2.840   0.573 -4.4513  0.5265 -2.3291
  357MPD2    H3 5352   0.304   3.014   0.635 -0.9495  0.8917  1.1118
  357MPD2     N 5353   0.204   2.815   1.035  0.4272 -0.2579  0.1053
  357MPD2    H5 5354   0.145   2.895   1.057 -0.8462 -0.7290 -1.6212
  357MPD2    N1 5355   0.507   2.614   0.709  0.2064  0.0548 -0.7937
  357MPD2    H7 5356   0.528   2.620   0.610  3.3410  1.0443 -0.0713
  358TMC3    C1 5357   0.641   2.442   0.732  0.2983  0.1739 -0.8428
  358TMC3    C2 5358   0.593   2.371   0.629 -0.0511  0.1141 -0.8502
  358TMC3    C3 5359   0.632   2.241   0.618 -0.0480 -0.8892  0.2590
  358TMC3    C4 5360   0.734   2.389   0.815 -0.3318  0.4960 -0.0300
  358TMC3    C5 5361   0.786   2.262   0.790  0.6543  0.8358  0.5942
  358TMC3    C6 5362   0.724   2.180   0.698 -0.7396  0.0261 -0.4167
  358TMC3     C 5363   0.560   2.532   0.799  0.2454  0.3596 -0.1657
  358TMC3     O 5364   0.555   2.528   0.923  1.0536 -0.2190  0.1404
  358TMC3     H 5365   0.513   2.408   0.565 -0.7233  1.7966  0.9552
  358TMC3    H1 5366   0.772   2.449   0.897  0.1273 -1.8520  1.4827
  358TMC3    H2 5367   0.747   2.076   0.677 -1.5767 -0.2350 -0.0079
  358TMC3    C7 5368   0.902   2.204   0.863 -0.5600 -0.6116  0.3315
  358TMC3    C8 5369   0.592   2.174   0.501  0.6139  0.1625 -0.6035
  358TMC3    O1 5370   0.949   2.105   0.808 -0.5843 -0.4393 -0.4380
  358TMC3    O2 5371   0.594   2.234   0.393 -0.2952  0.5568 -0.2406
  359MPD2     C 5372   0.080   2.231  12.158 -0.2569  0.5974 -0.2262
  359MPD2    C1 5373   0.153   2.160  12.062  0.0235  1.3858 -0.3764
  359MPD2    C2 5374   0.162   2.022  12.072 -0.0487  0.3381  0.9488
  359MPD2    C3 5375   0.114   1.957  12.180  0.1945 -0.1886  0.3522
  359MPD2    C4 5376   0.049   2.029  12.282  0.5064  0.2300 -0.2628
  359MPD2    C5 5377   0.025   2.162  12.263 -0.0748  0.3079  0.5692
  359MPD2     H 5378   0.235   1.971  12.011 -0.3818  3.0083 -1.6467
  359MPD2    H1 5379   0.009   1.983  12.372  0.7206 -1.4186 -1.0345
  359MPD2    H2 5380   0.074   2.338  12.174 -0.6104  0.4478  0.6228
  359MPD2    H3 5381   4.704   2.221  12.342 -0.9316 -1.1994  1.2012
  359MPD2     N 5382   0.137   1.818  12.214  0.0411 -0.0986 -0.1852
  359MPD2    H5 5383   0.112   1.790  12.308 -0.7498  0.0973 -0.3345
  359MPD2    N1 5384   0.220   2.218  11.949 -0.6932  0.3185  0.2026
  359MPD2    H7 5385   0.274   2.154  11.891  1.3781  2.1745  0.0812
  360TMC3    C1 5386   0.279   2.376  11.779  0.8195  0.1505  0.4082
  360TMC3    C2 5387   0.405   2.433  11.782  0.2254  0.1109 -0.5356
  360TMC3    C3 5388   0.500   2.380  11.698 -0.0671  0.4144 -0.2939
  360TMC3    C4 5389   0.249   2.289  11.675 -0.0344  0.5502  0.1708
  360TMC3    C5 5390   0.351   2.246  11.590 -0.9895  0.6746  0.4172
  360TMC3    C6 5391   0.482   2.290  11.602  0.2555 -0.0150 -0.2152
  360TMC3     C 5392   0.212   2.349  11.906 -0.1950  0.1661  0.1760
  360TMC3     O 5393   0.164   2.441  11.970  0.4617 -0.3328  0.7268
  360TMC3     H 5394   0.434   2.490  11.870  0.2305 -0.5879 -0.0764
  360TMC3    H1 5395   0.157   2.232  11.683  2.6682 -3.6737  0.7779
  360TMC3    H2 5396   0.560   2.278  11.528  0.7888 -1.2604  0.5483
  360TMC3    C7 5397   0.328   2.158  11.480  0.1406 -0.1731  0.0588
  360TMC3    C8 5398   0.619   2.457  11.705  0.3153 -0.2619  0.4684
  360TMC3    O1 5399   0.430   2.122  11.424  0.2801  0.6420  0.1904
  360TMC3    O2 5400   0.608   2.580  11.709  0.0433 -0.4637 -0.1636
  361MPD2     C 5401   1.997   0.366  16.405  0.4891  0.0098  0.9220
  361MPD2    C1 5402   2.074   0.473  16.437 -0.3328 -0.2075  0.8296
  361MPD2    C2 5403   2.212   0.460  16.467  0.3074  0.2013 -0.2380
  361MPD2    C3 5404   2.267   0.328  16.472 -0.0009 -0.3778  0.5312
  361MPD2    C4 5405   2.182   0.225  16.429 -0.1934  0.3724 -0.6589
  361MPD2    C5 5406   2.056   0.237  16.396 -0.6675  0.2847 -0.1702
  361MPD2     H 5407   2.268   0.548  16.496  1.1829 -0.2803 -0.4632
  361MPD2    H1 5408   2.229   0.128  16.426  0.2298  0.5699 -0.4429
  361MPD2    H2 5409   1.895   0.372  16.367  0.6315 -1.2983  0.3097
  361MPD2    H3 5410   2.016   0.143  16.361 -1.3772  0.9228 -1.0620
  361MPD2     N 5411   2.405   0.297  16.506 -0.5201  0.0170  0.1263
  361MPD2    H5 5412   2.432   0.201  16.487  2.2672  0.7996  0.0793
  361MPD2    N1 5413   2.007   0.599  16.445  0.0238 -0.3800 -0.3744
  361MPD2    H7 5414   1.907   0.586  16.433 -0.5197  1.3616  2.3087
  362TMC3    C1 5415   1.955   0.826  16.488 -0.3182 -0.2562  0.0633
  362TMC3    C2 5416   1.830   0.789  16.523 -0.2005  0.5242  0.1756
  362TMC3    C3 5417   1.733   0.888  16.514 -0.0480 -0.7048 -0.5807
  362TMC3    C4 5418   1.987   0.944  16.435 -0.7747  0.3119 -0.4030
  362TMC3    C5 5419   1.882   1.035  16.417 -0.2571  0.2509  0.7381
  362TMC3    C6 5420   1.752   1.006  16.450 -0.1297  0.2047 -0.0738
  362TMC3     C 5421   2.055   0.724  16.451  0.2755 -0.3365  0.0166
  362TMC3     O 5422   2.169   0.763  16.429  0.0053 -0.2535  0.4866
  362TMC3     H 5423   1.806   0.701  16.581 -0.7351  1.1286  0.8653
  362TMC3    H1 5424   2.079   0.955  16.378  0.9173 -0.5782  2.1395
  362TMC3    H2 5425   1.670   1.076  16.438 -0.6478 -0.5834 -1.0194
  362TMC3    C7 5426   1.891   1.119  16.303 -0.4666 -0.0065 -0.1621
  362TMC3    C8 5427   1.613   0.858  16.585  0.6918  0.5522  0.3536
  362TMC3    O1 5428   1.999   1.174  16.288 -0.0358  0.3231  0.0640
  362TMC3    O2 5429   1.579   0.742  16.574  0.3924  0.5934 -0.0240
  363TMC3    C1 5430   1.130   3.824   9.645  0.2442  0.1110 -0.0878
  363TMC3    C2 5431   1.054   3.708   9.674 -0.1427 -0.1230  0.3685
  363TMC3    C3 5432   0.924   3.722   9.657  0.3252  0.5945  0.2793
  363TMC3    C4 5433   1.070   3.940   9.602  0.5217  0.1051  0.5120
  363TMC3    C5 5434   0.934   3.938   9.584  0.2119 -0.1585 -0.0299
  363TMC3    C6 5435   0.854   3.825   9.608  0.5680 -0.6213 -0.0414
  363TMC3     C 5436   1.278   3.820   9.648  0.6202 -0.3464 -0.0273
  363TMC3     O 5437   1.329   3.923   9.611 -0.0089  0.2900  0.4117
  363TMC3     H 5438   1.108   3.617   9.698  1.4614  1.1335  1.5536
  363TMC3    H1 5439   1.133   4.029   9.596 -0.0349  0.4142 -0.6871
  363TMC3    H2 5440   0.746   3.825   9.604  0.5999 -2.2462 -1.4425
  363TMC3    C7 5441   0.861   4.066   9.573  0.0961 -0.3415  0.7741
  363TMC3    C8 5442   0.845   3.604   9.706  0.4436 -0.3529  0.1631
  363TMC3    O1 5443   0.921   4.170   9.570  0.3995 -0.0242 -0.7009
  363TMC3    O2 5444   0.723   3.616   9.701  0.0523 -0.3077  0.5195
  364MPD2     C 5445   3.883   2.952  10.426 -0.0450  0.8294  0.7299
  364MPD2    C1 5446   4.014   2.970  10.384 -0.0716  0.7921 -0.2249
  364MPD2    C2 5447   4.100   2.858  10.390 -0.1938 -0.1132 -0.0753
  364MPD2    C3 5448   4.061   2.736  10.449 -0.4038 -0.5185  0.0747
  364MPD2    C4 5449   3.933   2.735  10.491  0.8547 -0.3380 -1.1828
  364MPD2    C5 5450   3.845   2.838  10.486 -0.5646 -0.2329 -0.2700
  364MPD2     H 5451   4.206   2.870  10.370 -0.7676  2.6806 -1.4106
  364MPD2    H1 5452   3.900   2.648  10.546  0.9502 -0.3983 -1.2212
  364MPD2    H2 5453   3.804   3.026  10.423 -1.5940 -0.8037  1.1564
  364MPD2    H3 5454   3.750   2.841  10.538 -0.2994 -0.1690  0.2116
  364MPD2     N 5455   4.153   2.623  10.466  0.1989 -0.2815  0.1340
  364MPD2    H5 5456   4.124   2.531  10.497 -2.6545  0.4377 -0.4544
  364MPD2    N1 5457   4.056   3.103  10.339  0.0997 -0.2132  0.2794
  364MPD2    H7 5458   3.987   3.177  10.335  1.0850  0.8236  2.4911
  365TMC3    C1 5459   4.192   3.260  10.221  0.3136  0.3287 -0.7602
  365TMC3    C2 5460   4.268   3.269  10.107  0.4376 -0.5868 -0.4379
  365TMC3    C3 5461   4.272   3.389  10.040  0.3642  0.4536  0.0941
  365TMC3    C4 5462   4.123   3.369  10.270  0.0039  0.6011 -0.0853
  365TMC3    C5 5463   4.145   3.487  10.212  0.1005  0.3145  0.4410
  365TMC3    C6 5464   4.210   3.501  10.090  0.1590 -0.0215 -0.4249
  365TMC3     C 5465   4.178   3.121  10.270 -0.9062 -1.2213 -0.7068
  365TMC3     O 5466   4.255   3.038  10.218  0.4889  0.2794  0.0599
  365TMC3     H 5467   4.301   3.178  10.059  0.2911 -1.0880  0.4038
  365TMC3    H1 5468   4.079   3.364  10.369 -0.4110 -2.2921 -0.4098
  365TMC3    H2 5469   4.202   3.592  10.032 -1.4798  0.0441 -0.0930
  365TMC3    C7 5470   4.082   3.603  10.270 -1.1186  0.2919 -0.1490
  365TMC3    C8 5471   4.325   3.396   9.903 -0.4291  0.0996 -0.5126
  365TMC3    O1 5472   4.070   3.697  10.191 -0.1258  0.0060 -0.1562
  365TMC3    O2 5473   4.266   3.466   9.820  0.1223 -0.0344  0.0548
  366MPD2     C 5474   2.512   3.251  14.953 -0.2073  0.4516 -1.0039
  366MPD2    C1 5475   2.631   3.279  15.016  0.2977 -0.2948  0.4573
  366MPD2    C2 5476   2.738   3.198  14.999  0.3229 -0.5044  0.0892
  366MPD2    C3 5477   2.735   3.092  14.915  0.4862  0.3454 -0.7166
  366MPD2    C4 5478   2.622   3.066  14.839 -0.1981  0.0634  0.2670
  366MPD2    C5 5479   2.506   3.141  14.868  0.5844  0.3908  0.2038
  366MPD2     H 5480   2.835   3.215  15.044 -1.2128  1.5886  2.6216
  366MPD2    H1 5481   2.602   2.976  14.781  3.6799 -0.7345  0.1781
  366MPD2    H2 5482   2.421   3.307  14.972  0.6528  2.1361 -1.8048
  366MPD2    H3 5483   2.415   3.126  14.810  1.4336  2.1605 -1.5743
  366MPD2     N 5484   2.860   3.023  14.904  0.0036  0.3257  0.1781
  366MPD2    H5 5485   2.929   3.053  14.972  0.0997 -0.6131  0.4902
  366MPD2    N1 5486   2.661   3.392  15.086 -0.0743  0.3588  0.3496
  366MPD2    H7 5487   2.748   3.378  15.137 -1.5280 -1.6153  2.2523
  367TMC3    C1 5488   2.633   3.620  15.145 -0.2812  0.5914  0.4874
  367TMC3    C2 5489   2.756   3.598  15.208 -0.1723  0.5879  0.6094
  367TMC3    C3 5490   2.838   3.705  15.233 -0.1196  0.2775  1.0944
  367TMC3    C4 5491   2.593   3.747  15.103 -1.0906  0.1099  0.1793
  367TMC3    C5 5492   2.689   3.850  15.117  0.1463 -0.0452  0.5777
  367TMC3    C6 5493   2.810   3.829  15.179  0.3569  0.2309  0.1200
  367TMC3     C 5494   2.581   3.508  15.075  0.3599 -0.2188 -0.9536
  367TMC3     O 5495   2.480   3.527  15.015 -0.5470  0.8166 -0.0513
  367TMC3     H 5496   2.790   3.504  15.250 -0.6432 -0.1267 -0.6151
  367TMC3    H1 5497   2.498   3.771  15.055 -0.9769 -0.3611 -0.2789
  367TMC3    H2 5498   2.881   3.910  15.192  1.1090 -0.6469  1.5693
  367TMC3    C7 5499   2.674   3.970  15.034 -0.1165  0.0393 -0.2644
  367TMC3    C8 5500   2.975   3.678  15.254 -0.4020  0.0922 -0.5991
  367TMC3    O1 5501   2.724   4.078  15.067  0.1596 -0.3316 -0.0417
  367TMC3    O2 5502   3.012   3.666  15.370 -0.2726  0.0803 -0.0108
  368MPD2     C 5503   3.838   0.880  13.229  0.0639 -0.7290 -0.7750
  368MPD2    C1 5504   3.862   1.006  13.165 -0.2287  0.2865 -0.7321
  368MPD2    C2 5505   3.992   1.028  13.107 -0.2446  0.3034 -0.6111
  368MPD2    C3 5506   4.087   0.928  13.099 -0.6763  0.2199 -0.3782
  368MPD2    C4 5507   4.059   0.812  13.167  0.1630  0.2350  0.6155
  368MPD2    C5 5508   3.940   0.788  13.228 -0.8375  0.2031  0.4676
  368MPD2     H 5509   4.020   1.127  13.075 -0.5435  0.2641 -0.9840
  368MPD2    H1 5510   4.137   0.737  13.167 -0.6577 -0.6065 -0.1580
  368MPD2    H2 5511   3.744   0.860  13.279  0.3698  1.2810  0.5930
  368MPD2    H3 5512   3.934   0.690  13.274 -0.4085  0.1549  0.4245
  368MPD2     N 5513   4.213   0.942  13.028 -0.5322  0.3602 -0.2217
  368MPD2    H5 5514   4.281   0.867  13.025  1.2005  1.8584  1.9617
  368MPD2    N1 5515   3.752   1.095  13.168  0.0918  0.1828  0.3055
  368MPD2    H7 5516   3.673   1.064  13.224  0.8360 -1.3734  0.5014
  369TMC3    C1 5517   3.611   1.264  13.082  0.3403 -0.1944 -0.1450
  369TMC3    C2 5518   3.618   1.391  13.021 -0.0532 -0.1523 -0.4361
  369TMC3    C3 5519   3.493   1.457  13.003 -0.0028  0.5523 -0.4538
  369TMC3    C4 5520   3.492   1.204  13.127  0.3261  0.0724 -0.2779
  369TMC3    C5 5521   3.380   1.274  13.110  0.1225  1.2699 -0.1087
  369TMC3    C6 5522   3.371   1.397  13.050  0.2854 -0.6075 -0.3352
  369TMC3     C 5523   3.744   1.211  13.100  0.2815 -0.1470 -0.2744
  369TMC3     O 5524   3.836   1.250  13.030 -0.1666 -0.1534 -0.2543
  369TMC3     H 5525   3.705   1.417  12.962  0.6964  0.3904  0.9159
  369TMC3    H1 5526   3.491   1.101  13.162 -0.8678  0.8480  1.9954
  369TMC3    H2 5527   3.273   1.441  13.036  0.9714  0.6682 -1.1279
  369TMC3    C7 5528   3.258   1.198  13.131 -0.4972 -0.0661 -0.1347
  369TMC3    C8 5529   3.475   1.582  12.937 -0.2968  0.4264  0.9619
  369TMC3    O1 5530   3.274   1.103  13.206 -0.0902  0.2793 -0.2698
  369TMC3    O2 5531   3.362   1.624  12.925  0.1632 -0.3179  0.3127
  370TMC3    C1 5532   3.529   1.548  15.936 -0.4205 -0.6490 -0.2400
  370TMC3    C2 5533   3.446   1.496  16.032  0.1981 -1.0062 -0.0989
  370TMC3    C3 5534   3.387   1.379  16.010  0.7219  0.2088  0.2909
  370TMC3    C4 5535   3.550   1.477  15.821 -0.7407 -0.2616 -0.7691
  370TMC3    C5 5536   3.501   1.348  15.806  0.0414 -0.5705 -0.0229
  370TMC3    C6 5537   3.414   1.297  15.907  0.0928 -1.3001  0.3229
  370TMC3     C 5538   3.636   1.633  15.980  0.3665 -0.2225  0.3903
  370TMC3     O 5539   3.657   1.637  16.098  0.3013 -0.4058  0.5902
  370TMC3     H 5540   3.440   1.540  16.131 -1.6619 -0.6228 -0.3772
  370TMC3    H1 5541   3.622   1.504  15.745  0.2595  0.5580  0.4709
  370TMC3    H2 5542   3.365   1.203  15.886 -0.6966 -0.9255  0.4778
  370TMC3    C7 5543   3.511   1.271  15.687  0.3492  0.8352 -0.1919
  370TMC3    C8 5544   3.297   1.317  16.101 -0.7063 -0.1089 -0.0937
  370TMC3    O1 5545   3.511   1.340  15.587 -0.4172 -0.1224 -0.1990
  370TMC3    O2 5546   3.264   1.202  16.074 -0.1869 -1.0028 -0.4083
  371TMC3    C1 5547   0.067   4.287  15.362  0.3650  0.1150 -1.3132
  371TMC3    C2 5548   4.676   4.294  15.430  0.2977 -0.2669  0.7217
  371TMC3    C3 5549   4.616   4.414  15.458 -0.7465 -0.2812  0.0269
  371TMC3    C4 5550   0.129   4.402  15.319 -0.0572  1.2960  0.4922
  371TMC3    C5 5551   0.063   4.518  15.342  0.3034 -0.2036  0.7355
  371TMC3    C6 5552   4.672   4.529  15.421 -0.8970 -0.2302 -0.1426
  371TMC3     C 5553   0.124   4.161  15.327 -0.1258  0.5819 -0.1070
  371TMC3     O 5554   0.215   4.166  15.247 -0.2232 -0.1123 -0.1525
  371TMC3     H 5555   4.625   4.204  15.462 -0.4172  0.6181  2.0312
  371TMC3    H1 5556   0.231   4.395  15.283  0.0371  2.4546  0.5633
  371TMC3    H2 5557   4.620   4.624  15.422  0.6352  0.5922  2.6749
  371TMC3    C7 5558   0.091   4.636  15.264 -0.4346 -0.3002  0.2321
  371TMC3    C8 5559   4.474   4.405  15.488  0.2614  0.2067  0.3174
  371TMC3    O1 5560   0.017   0.007  15.268  0.1724 -0.1972 -0.1791
  371TMC3    O2 5561   4.418   4.304  15.449 -0.1392  0.0814  0.1113
  372MPD2     C 5562   4.581   1.446  13.006  0.6943 -0.0336 -0.2547
  372MPD2    C1 5563   4.660   1.373  13.092 -0.2054  0.0279  0.3075
  372MPD2    C2 5564   4.587   1.295  13.181  0.0326  0.1539 -0.0658
  372MPD2    C3 5565   4.450   1.276  13.175 -0.4790  0.0870  0.4953
  372MPD2    C4 5566   4.382   1.332  13.073  0.1866 -0.5947  0.5730
  372MPD2    C5 5567   4.445   1.424  12.996  0.7225  0.0426 -0.1709
  372MPD2     H 5568   4.643   1.232  13.249  1.5607  2.7901  1.1251
  372MPD2    H1 5569   4.277   1.311  13.057  0.0456  0.2196  0.4357
  372MPD2    H2 5570   4.617   1.525  12.940  0.6145  0.7381  0.6340
  372MPD2    H3 5571   4.379   1.477  12.928  1.0165 -3.0065 -2.8302
  372MPD2     N 5572   4.383   1.198  13.273 -0.0831  0.0625 -0.0028
  372MPD2    H5 5573   4.439   1.143  13.338  0.1589  0.0268 -0.2421
  372MPD2    N1 5574   0.077   1.384  13.101 -0.9129 -0.6483  0.3078
  372MPD2    H7 5575   0.128   1.329  13.170 -0.6112  0.5827  1.0604
  373TMC3    C1 5576   4.207   1.087  13.391  0.4894  0.1005  0.2653
  373TMC3    C2 5577   4.092   1.095  13.472 -0.2404 -0.1983  0.1203
  373TMC3    C3 5578   4.045   0.982  13.521  0.0082 -0.1480 -0.1790
  373TMC3    C4 5579   4.278   0.973  13.384 -0.1436  0.3513 -0.3377
  373TMC3    C5 5580   4.233   0.870  13.457  0.4027 -0.7348  0.5364
  373TMC3    C6 5581   4.114   0.865  13.519 -0.2915 -0.4438 -0.1140
  373TMC3     C 5582   4.250   1.207  13.307 -0.2329 -0.0422 -0.7932
  373TMC3     O 5583   4.164   1.291  13.281  0.2315  0.3110  0.4996
  373TMC3     H 5584   4.044   1.190  13.495 -1.8805 -1.1298  0.5971
  373TMC3    H1 5585   4.370   0.952  13.330 -1.1691 -0.1467 -1.8903
  373TMC3    H2 5586   4.066   0.776  13.559  0.5025 -0.0081  1.7656
  373TMC3    C7 5587   4.310   0.751  13.469  0.1921  1.0080  0.3678
  373TMC3    C8 5588   3.924   0.998  13.590 -0.2363 -0.2718 -0.4721
  373TMC3    O1 5589   4.376   0.722  13.371  0.4535 -0.4842 -0.1732
  373TMC3    O2 5590   3.842   1.065  13.529 -0.1028 -0.5946  0.0354
  374TMC3    C1 5591   4.447   1.542   9.684  0.5597  0.2707  0.4067
  374TMC3    C2 5592   4.574   1.568   9.724 -0.7945  0.1534  0.2575
  374TMC3    C3 5593   4.638   1.653   9.639 -0.5983  0.3077  0.6930
  374TMC3    C4 5594   4.387   1.602   9.574 -0.1287 -0.2150 -0.2449
  374TMC3    C5 5595   4.453   1.689   9.499 -0.1677 -0.4432 -0.7403
  374TMC3    C6 5596   4.583   1.721   9.534  0.7435 -0.1684  0.1487
  374TMC3     C 5597   4.390   1.422   9.745  0.2651 -0.0137 -1.0360
  374TMC3     O 5598   4.470   1.338   9.787  0.3126  0.1529 -0.2907
  374TMC3     H 5599   4.630   1.516   9.801 -0.3086  0.2210 -0.0442
  374TMC3    H1 5600   4.289   1.579   9.534  0.3076  0.4680 -1.7009
  374TMC3    H2 5601   4.631   1.795   9.472 -1.0636  1.3958  0.6357
  374TMC3    C7 5602   4.366   1.768   9.412 -0.5928 -0.4465  0.0358
  374TMC3    C8 5603   0.057   1.670   9.649  0.0552  0.4544 -0.2798
  374TMC3    O1 5604   4.245   1.791   9.430  0.1873 -0.0516  0.2885
  374TMC3    O2 5605   0.103   1.740   9.559 -0.8762 -0.6326 -0.4409
  375MPD2     C 5606   0.308   1.498  16.808  0.1787 -0.0138  0.6836
  375MPD2    C1 5607   0.230   1.524  16.696  0.2503  0.6513 -0.9386
  375MPD2    C2 5608   0.277   1.515  16.570 -0.6376 -0.6458 -0.3096
  375MPD2    C3 5609   0.412   1.477  16.558  0.1791 -0.2353 -0.1266
  375MPD2    C4 5610   0.486   1.445  16.668 -0.2059  0.0177  0.3057
  375MPD2    C5 5611   0.434   1.452  16.792 -0.0542 -0.3677 -0.4706
  375MPD2     H 5612   0.218   1.542  16.483  0.8990 -0.6588 -1.3515
  375MPD2    H1 5613   0.593   1.426  16.664 -0.3388 -0.3908 -1.2509
  375MPD2    H2 5614   0.267   1.500  16.908 -0.9141  2.0402  0.2003
  375MPD2    H3 5615   0.494   1.431  16.880  2.0526 -0.0886 -1.8372
  375MPD2     N 5616   0.483   1.465  16.433 -0.1191 -0.6480 -0.1042
  375MPD2    H5 5617   0.584   1.452  16.429  0.1670  1.9437 -0.8929
  375MPD2    N1 5618   0.105   1.586  16.702  0.0571  0.3279 -0.0048
  375MPD2    H7 5619   0.071   1.633  16.618  0.4060  2.8424  1.2691
  376TMC3    C1 5620   0.529   1.540  16.202  0.5599 -0.2120 -0.0145
  376TMC3    C2 5621   0.664   1.530  16.224 -0.5390 -0.0600 -0.6830
  376TMC3    C3 5622   0.750   1.509  16.126  0.5733 -1.0390 -1.2468
  376TMC3    C4 5623   0.477   1.558  16.079  0.5806  0.5661  0.4837
  376TMC3    C5 5624   0.569   1.544  15.973 -0.1031 -0.0487  0.2621
  376TMC3    C6 5625   0.701   1.521  15.994  0.4150  0.4907 -0.3666
  376TMC3     C 5626   0.432   1.491  16.306 -0.3755 -0.2850 -0.5231
  376TMC3     O 5627   0.315   1.488  16.279 -0.0937 -0.4181 -0.2594
  376TMC3     H 5628   0.709   1.532  16.322 -2.0177  0.4276 -0.0055
  376TMC3    H1 5629   0.372   1.580  16.061  0.1234 -2.6384 -0.6164
  376TMC3    H2 5630   0.777   1.521  15.917  1.1825  0.2739  0.3904
  376TMC3    C7 5631   0.525   1.557  15.835  0.3885 -0.2973  0.6047
  376TMC3    C8 5632   0.894   1.529  16.159  0.1711 -0.5797 -0.5053
  376TMC3    O1 5633   0.598   1.540  15.737 -0.5279 -0.1964  0.4441
  376TMC3    O2 5634   0.963   1.575  16.070 -0.7215  0.2769  0.3517
  377MPD2     C 5635   2.487   1.540  12.125 -0.0025 -0.3395 -0.6861
  377MPD2    C1 5636   2.567   1.505  12.236  0.7215 -0.2139 -0.2330
  377MPD2    C2 5637   2.507   1.496  12.360  0.3120 -0.5332 -0.2211
  377MPD2    C3 5638   2.371   1.521  12.380 -0.7852 -0.5358  0.3861
  377MPD2    C4 5639   2.295   1.552  12.272  0.8383 -0.7145 -0.5387
  377MPD2    C5 5640   2.349   1.553  12.143  0.1320  0.5182  0.1692
  377MPD2     H 5641   2.565   1.456  12.442  0.4515  1.4523  0.6448
  377MPD2    H1 5642   2.189   1.573  12.278  0.9060  0.2982 -2.8233
  377MPD2    H2 5643   2.529   1.558  12.027  0.7485 -1.7584 -0.6322
  377MPD2    H3 5644   2.281   1.572  12.060  0.0033  1.0564  0.3909
  377MPD2     N 5645   2.300   1.493  12.502 -0.5375 -0.3334  0.4099
  377MPD2    H5 5646   2.199   1.494  12.497 -0.4926 -0.2087 -0.5233
  377MPD2    N1 5647   2.699   1.483  12.206  0.3620 -0.4459  0.0403
  377MPD2    H7 5648   2.734   1.478  12.111 -4.8641  0.1934 -1.9046
  378TMC3    C1 5649   3.098   1.504  12.092  0.3645 -0.0311 -0.3994
  378TMC3    C2 5650   2.966   1.478  12.123  0.1531  0.9940 -0.3925
  378TMC3    C3 5651   2.936   1.450  12.252  0.4849 -0.1709  0.9093
  378TMC3    C4 5652   3.199   1.511  12.190  0.0559 -0.7006  0.5711
  378TMC3    C5 5653   3.157   1.475  12.317  0.0132  0.2682  0.4283
  378TMC3    C6 5654   3.028   1.444  12.349 -0.5264  0.2902  0.5307
  378TMC3     C 5655   3.126   1.498  11.946 -0.1302 -0.1041  0.5709
  378TMC3     O 5656   3.029   1.500  11.872 -0.1819 -0.5274 -0.0559
  378TMC3     H 5657   2.895   1.455  12.044 -0.0568 -1.3049  0.4839
  378TMC3    H1 5658   3.301   1.535  12.164 -0.3116 -0.0268 -0.2229
  378TMC3    H2 5659   2.995   1.388  12.436 -1.3024  2.2179  1.4817
  378TMC3    C7 5660   3.250   1.462  12.433 -0.4780 -0.5210  0.3840
  378TMC3    C8 5661   2.797   1.452  12.299  0.0232 -0.6669 -0.2055
  378TMC3    O1 5662   3.190   1.424  12.536  1.0092 -0.1152 -0.0814
  378TMC3    O2 5663   2.779   1.448  12.421 -0.0977  0.7497  0.4997
  379MPD2     C 5664   3.550   3.740  15.900 -0.3748 -0.3439  0.0965
  379MPD2    C1 5665   3.651   3.658  15.870  0.2942 -0.3863 -0.5144
  379MPD2    C2 5666   3.758   3.650  15.948 -0.4725  0.1023  0.2016
  379MPD2    C3 5667   3.758   3.713  16.074 -0.7274 -0.2825  0.2188
  379MPD2    C4 5668   3.651   3.790  16.111  0.2800  0.3169  0.0482
  379MPD2    C5 5669   3.551   3.798  16.024 -0.9423  0.5046  0.2167
  379MPD2     H 5670   3.841   3.589  15.913  0.3588  0.0904  2.1611
  379MPD2    H1 5671   3.637   3.841  16.205  0.1881  2.4774 -1.1128
  379MPD2    H2 5672   3.463   3.761  15.838 -1.4786 -0.8223  1.4973
  379MPD2    H3 5673   3.459   3.850  16.050 -0.0173  2.1348  0.2352
  379MPD2     N 5674   3.862   3.692  16.162  0.1275  0.4217  0.1298
  379MPD2    H5 5675   3.852   3.723  16.258 -0.3246 -1.1727  0.6095
  379MPD2    N1 5676   3.658   3.602  15.736 -0.6769  0.0287 -0.0044
  379MPD2    H7 5677   3.580   3.635  15.679 -0.8520 -0.6393 -0.1500
  380TMC3    C1 5678   3.789   3.588  15.551  0.3144 -0.3639 -0.3212
  380TMC3    C2 5679   3.921   3.583  15.517 -0.6698  0.5828 -0.1766
  380TMC3    C3 5680   3.950   3.589  15.386 -0.4845  0.5475  0.5568
  380TMC3    C4 5681   3.693   3.564  15.458 -0.1395 -0.1681 -0.1093
  380TMC3    C5 5682   3.729   3.563  15.326 -0.2686 -0.0503 -0.4756
  380TMC3    C6 5683   3.859   3.579  15.289 -1.0005 -0.1963 -0.1839
  380TMC3     C 5684   3.767   3.545  15.677  0.4463 -0.2170  0.6242
  380TMC3     O 5685   3.858   3.483  15.727  0.1891 -0.3437  0.0043
  380TMC3     H 5686   3.994   3.582  15.598 -0.7756  1.4218 -0.0726
  380TMC3    H1 5687   3.590   3.542  15.484 -1.0095  1.2234 -2.4586
  380TMC3    H2 5688   3.889   3.577  15.185  1.9692 -1.3130  0.6883
  380TMC3    C7 5689   3.633   3.562  15.212  0.5903  0.0067  0.1562
  380TMC3    C8 5690   4.068   3.657  15.347 -0.0505 -0.0132  0.1877
  380TMC3    O1 5691   3.669   3.526  15.100 -0.2557  1.0502 -0.0237
  380TMC3    O2 5692   4.065   3.694  15.230  0.3364 -0.3999 -0.4415
  381TMC3    C1 5693   3.090   0.926  16.013  0.1959  0.6098 -0.0754
  381TMC3    C2 5694   3.223   0.921  15.978 -0.0231  0.2794 -0.1024
  381TMC3    C3 5695   3.308   0.852  16.055  0.1358  0.6593  0.0193
  381TMC3    C4 5696   3.051   0.869  16.127  0.2251  0.3074 -0.0671
  381TMC3    C5 5697   3.141   0.815  16.205 -0.4138 -0.3547 -0.5437
  381TMC3    C6 5698   3.275   0.804  16.171  0.1741  0.1045 -0.1844
  381TMC3     C 5699   2.986   0.959  15.915 -0.2010  0.4865  0.7552
  381TMC3     O 5700   3.011   0.940  15.796 -0.3045  0.8492 -0.1795
  381TMC3     H 5701   3.256   0.966  15.885 -2.4830 -1.9066 -2.0409
  381TMC3    H1 5702   2.945   0.861  16.147  0.0367 -1.0913 -1.6758
  381TMC3    H2 5703   3.350   0.764  16.238  1.3035  1.1037 -0.8536
  381TMC3    C7 5704   3.104   0.764  16.341  0.5257  0.2840  0.3636
  381TMC3    C8 5705   3.449   0.894  16.040  0.0245  0.6098  0.1480
  381TMC3    O1 5706   3.175   0.676  16.389 -0.0475  0.6418 -0.1429
  381TMC3    O2 5707   3.499   0.873  15.930  0.0426  0.8198 -0.4457
  382MPD2     C 5708   2.732   3.424  16.733 -0.2995  0.2741  0.5533
  382MPD2    C1 5709   2.697   3.409  16.867  0.1661  0.4102 -0.0929
  382MPD2    C2 5710   2.678   3.286  16.922 -0.3165 -0.3367  0.2270
  382MPD2    C3 5711   2.691   3.173  16.849 -0.2074  0.6908 -0.1746
  382MPD2    C4 5712   2.722   3.184  16.716  0.7551  0.4779 -0.2477
  382MPD2    C5 5713   2.747   3.304  16.658  0.8500  0.2054  0.7231
  382MPD2     H 5714   2.649   3.265  17.025 -3.5304 -1.4519 -0.8910
  382MPD2    H1 5715   2.734   3.097  16.653 -0.2590  0.4081 -0.3425
  382MPD2    H2 5716   2.725   3.518  16.679 -2.4266  0.3521  0.9535
  382MPD2    H3 5717   2.755   3.303  16.550 -0.5536  0.9191  0.6075
  382MPD2     N 5718   2.656   3.046  16.882  0.5340 -0.7086  1.1655
  382MPD2    H5 5719   2.638   2.986  16.803  0.2198 -0.1547  0.8199
  382MPD2    N1 5720   2.657   3.521  16.949 -0.0851 -0.1571  0.2978
  382MPD2    H7 5721   2.614   3.504  17.039  1.6785 -2.7546  0.6330
  383TMC3    C1 5722   2.592   2.856  17.026  0.2975 -0.0375 -0.0357
  383TMC3    C2 5723   2.511   2.803  16.932  0.4082  0.3951 -0.3019
  383TMC3    C3 5724   2.458   2.685  16.966  0.1847  0.2728  0.0380
  383TMC3    C4 5725   2.611   2.805  17.152  0.4874  0.0279  0.0964
  383TMC3    C5 5726   2.564   2.678  17.174 -0.3793 -0.3881  0.2809
  383TMC3    C6 5727   2.487   2.614  17.080 -0.2076 -0.1587 -0.6503
  383TMC3     C 5728   2.641   2.997  17.011 -0.3298 -0.3310  0.0021
  383TMC3     O 5729   2.655   3.063  17.110  0.3191  0.8253 -0.1073
  383TMC3     H 5730   2.461   2.860  16.854  0.3031  0.1296 -0.4294
  383TMC3    H1 5731   2.680   2.855  17.219  0.1978  0.6260 -0.0464
  383TMC3    H2 5732   2.434   2.522  17.102  0.3356 -0.4705 -0.6585
  383TMC3    C7 5733   2.594   2.605  17.291 -0.5707  0.0027  0.0018
  383TMC3    C8 5734   2.367   2.627  16.865  0.3490  0.4087  0.4935
  383TMC3    O1 5735   2.527   2.506  17.319  0.4894 -0.2987  1.0178
  383TMC3    O2 5736   2.329   2.695  16.769  0.0518  0.1917 -0.1279
  384MPD2     C 5737   4.226   0.299  11.953 -0.3506  0.0404 -0.4035
  384MPD2    C1 5738   4.290   0.203  12.026 -0.2741  0.2453 -0.4052
  384MPD2    C2 5739   4.404   0.152  11.976  0.1334  0.7627  0.4603
  384MPD2    C3 5740   4.473   0.200  11.868  0.6774  0.1779  0.6568
  384MPD2    C4 5741   4.414   0.304  11.802 -0.4172 -0.0027  0.1926
  384MPD2    C5 5742   4.286   0.342  11.840 -0.4010 -0.0282  0.1250
  384MPD2     H 5743   4.434   0.056  12.016  2.0279  0.6313 -1.2980
  384MPD2    H1 5744   4.463   0.357  11.722 -2.0371  0.8136 -0.2643
  384MPD2    H2 5745   4.128   0.332  11.985 -0.3730 -0.6579  0.2524
  384MPD2    H3 5746   4.232   0.416  11.782  2.0210  1.3855 -0.3230
  384MPD2     N 5747   4.588   0.133  11.818 -0.1965  0.4299  0.1199
  384MPD2    H5 5748   4.608   0.164  11.724 -0.4188  1.2965  0.3581
  384MPD2    N1 5749   4.216   0.137  12.137  0.2986  0.0225  0.1445
  384MPD2    H7 5750   4.123   0.171  12.160 -1.7655 -3.1005 -3.6390
  385TMC3    C1 5751   4.716   4.656  11.803 -0.1211 -1.4082  0.4194
  385TMC3    C2 5752   4.661   4.644  11.674 -0.0125 -0.6209 -0.3895
  385TMC3    C3 5753   4.593   4.527  11.640 -0.0583  0.0972  0.0711
  385TMC3    C4 5754   0.005   4.549  11.883 -0.0144 -0.1598  0.0750
  385TMC3    C5 5755   4.652   4.438  11.847 -0.0979  1.0184  0.5255
  385TMC3    C6 5756   4.588   4.424  11.726 -0.7674 -0.3651 -0.1207
  385TMC3     C 5757   4.661   0.039  11.883 -0.9229 -0.1873  0.7149
  385TMC3     O 5758   4.660   0.033  12.008 -0.0287  0.5225 -0.0819
  385TMC3     H 5759   4.658   0.003  11.605 -0.1557 -1.3453 -1.2501
  385TMC3    H1 5760   0.044   4.546  11.984 -1.1448  0.2395  0.5215
  385TMC3    H2 5761   4.516   4.344  11.714 -2.0600  1.1823 -2.6563
  385TMC3    C7 5762   4.578   4.395  11.965 -0.4259 -0.0947  0.4362
  385TMC3    C8 5763   4.527   4.522  11.514 -0.2010  0.3153  0.0557
  385TMC3    O1 5764   4.576   4.476  12.055 -0.4154 -0.2067  0.3610
  385TMC3    O2 5765   4.541   4.623  11.445 -0.4040  0.3778  0.0506
  386TMC3    C1 5766   3.930   1.858  11.842 -0.0280  0.5255  0.5152
  386TMC3    C2 5767   3.941   1.841  11.701  0.2119 -0.0424  0.9946
  386TMC3    C3 5768   3.817   1.848  11.630  0.9649  0.4298 -0.1589
  386TMC3    C4 5769   3.809   1.880  11.903  0.1440 -0.2370 -0.4587
  386TMC3    C5 5770   3.695   1.885  11.832 -0.1947  0.2841 -0.3524
  386TMC3    C6 5771   3.692   1.872  11.695 -0.5368  0.4851  0.3562
  386TMC3     C 5772   4.051   1.871  11.919  0.7913 -0.1737  0.0418
  386TMC3     O 5773   4.033   1.862  12.041 -0.0439 -0.0942  0.0205
  386TMC3     H 5774   4.035   1.802  11.664  1.7600  3.2016  1.4894
  386TMC3    H1 5775   3.810   1.914  12.007  0.2453  2.1906 -1.2473
  386TMC3    H2 5776   3.600   1.849  11.643  0.1180 -1.3195  0.0020
  386TMC3    C7 5777   3.576   1.895  11.912 -0.1916  0.8579 -0.3794
  386TMC3    C8 5778   3.806   1.808  11.493  0.1448 -0.2405  0.6224
  386TMC3    O1 5779   3.595   1.927  12.028 -0.7978 -0.1532  0.0879
  386TMC3    O2 5780   3.696   1.793  11.444 -0.1598 -0.1474  0.1731
  387MPD2     C 5781   1.758   1.786   9.417 -0.3845  0.9643 -0.3910
  387MPD2    C1 5782   1.813   1.740   9.536  0.5196  0.4229 -0.5201
  387MPD2    C2 5783   1.783   1.611   9.566  0.5287 -0.7873  0.1898
  387MPD2    C3 5784   1.715   1.526   9.474 -0.6226 -0.2305 -0.7402
  387MPD2    C4 5785   1.681   1.562   9.349 -0.2156 -0.6155 -0.0990
  387MPD2    C5 5786   1.694   1.697   9.328 -0.4172  0.3499  0.4933
  387MPD2     H 5787   1.834   1.561   9.649  0.9925 -0.3275  0.1864
  387MPD2    H1 5788   1.625   1.489   9.291 -0.5168  0.2153 -0.8647
  387MPD2    H2 5789   1.748   1.893   9.399 -1.1082  0.9275 -0.2125
  387MPD2    H3 5790   1.653   1.751   9.243 -1.2213  0.3578  0.8908
  387MPD2     N 5791   1.716   1.399   9.520 -0.1971 -0.0149  0.4165
  387MPD2    H5 5792   1.744   1.395   9.618  0.1358  0.5586  0.3506
  387MPD2    N1 5793   1.900   1.815   9.619 -0.7031  0.0327 -0.6609
  387MPD2    H7 5794   1.933   1.772   9.704 -1.1766 -1.9844 -1.4954
  388TMC3    C1 5795   2.017   1.984   9.718  0.4120  0.6561  0.6470
  388TMC3    C2 5796   2.008   2.092   9.800  0.4339 -0.0670 -0.1976
  388TMC3    C3 5797   2.113   2.117   9.886 -0.0417 -0.1288 -0.4249
  388TMC3    C4 5798   2.110   1.894   9.740 -0.1159  0.2615  0.3643
  388TMC3    C5 5799   2.208   1.911   9.834  0.1210 -0.0705 -0.8598
  388TMC3    C6 5800   2.214   2.025   9.911 -0.1954 -0.2434  0.0464
  388TMC3     C 5801   1.932   1.950   9.610 -0.0260 -0.0481  0.5583
  388TMC3     O 5802   1.874   2.039   9.548 -0.8654  0.1753 -0.3062
  388TMC3     H 5803   1.942   2.173   9.770  0.6284  0.5504  1.0494
  388TMC3    H1 5804   2.124   1.820   9.663  3.2642 -1.8005  2.9732
  388TMC3    H2 5805   2.289   2.040   9.987 -0.5816 -0.8107  0.5411
  388TMC3    C7 5806   2.281   1.795   9.868  0.0163 -0.4582 -0.0515
  388TMC3    C8 5807   2.122   2.245   9.954  0.4881  0.8207 -0.1581
  388TMC3    O1 5808   2.403   1.798   9.870  0.3590  0.0647 -0.1210
  388TMC3    O2 5809   2.227   2.276  10.008  0.0232 -0.4621  0.1117
  389MPD2     C 5810   1.083   0.247  10.899  0.1604  0.0810 -0.8861
  389MPD2    C1 5811   1.030   0.149  10.820  0.2267 -0.2416  0.3325
  389MPD2    C2 5812   0.988   0.032  10.882 -0.4044 -0.1513  0.0366
  389MPD2    C3 5813   0.994   0.017  11.017 -0.0829 -0.5979 -0.2691
  389MPD2    C4 5814   1.051   0.113  11.094 -0.1587  0.0202  0.0595
  389MPD2    C5 5815   1.099   0.221  11.034 -0.3303  0.3656  0.8363
  389MPD2     H 5816   0.936   4.683  10.822  0.8208  0.3425 -1.6252
  389MPD2    H1 5817   1.054   0.102  11.202  1.2061  0.9791  0.1243
  389MPD2    H2 5818   1.122   0.342  10.865 -1.3301  0.7065 -0.8539
  389MPD2    H3 5819   1.149   0.297  11.094 -0.6889  3.0508 -2.2992
  389MPD2     N 5820   0.933   4.624  11.068  0.1890  0.0072  0.3677
  389MPD2    H5 5821   0.904   4.558  10.996  1.0122 -0.9031  0.8695
  389MPD2    N1 5822   1.018   0.181  10.684 -0.3048  0.6228  0.2399
  389MPD2    H7 5823   1.049   0.271  10.649 -2.7875  1.8145  1.1472
  390TMC3    C1 5824   0.789   4.502  11.211 -0.1934  0.1280 -0.2027
  390TMC3    C2 5825   0.763   4.465  11.337  0.5569 -0.7852 -0.2487
  390TMC3    C3 5826   0.638   4.415  11.362  0.8897  0.0288 -0.3437
  390TMC3    C4 5827   0.696   4.495  11.112 -0.1368  0.1841  0.7049
  390TMC3    C5 5828   0.569   4.439  11.134  0.1082 -0.2386  0.1057
  390TMC3    C6 5829   0.537   4.417  11.264  0.2260  0.0685  0.2353
  390TMC3     C 5830   0.892   4.600  11.196 -0.0976  0.3454  0.4665
  390TMC3     O 5831   0.948   4.641  11.297 -0.5141  0.2370 -0.3707
  390TMC3     H 5832   0.837   4.466  11.416 -1.5885 -0.4917  1.7777
  390TMC3    H1 5833   0.730   4.499  11.009  2.5443 -1.2729  1.5518
  390TMC3    H2 5834   0.434   4.392  11.290  0.3717  0.4890  1.2160
  390TMC3    C7 5835   0.527   4.347  11.036  0.3223  0.7291 -0.3665
  390TMC3    C8 5836   0.625   4.310  11.463  0.0445  0.0910  0.3064
  390TMC3    O1 5837   0.612   4.309  10.956  0.6978 -0.3148 -0.1302
  390TMC3    O2 5838   0.674   4.324  11.574  0.5980 -0.1339 -0.1302
  391MPD2     C 5839   0.332   1.055  10.972  0.1373  0.3919 -0.2689
  391MPD2    C1 5840   0.421   1.159  10.987  0.3348  0.1315  0.3388
  391MPD2    C2 5841   0.466   1.218  10.869  0.7553  0.0049 -0.0777
  391MPD2    C3 5842   0.430   1.172  10.745  0.4163  0.1082 -0.1079
  391MPD2    C4 5843   0.337   1.075  10.736  0.5572 -0.0731 -0.2160
  391MPD2    C5 5844   0.295   1.014  10.850 -0.7866 -0.2689  0.6091
  391MPD2     H 5845   0.543   1.294  10.869  2.0170 -1.2542 -1.4669
  391MPD2    H1 5846   0.292   1.056  10.639  1.0571  1.0828 -0.6628
  391MPD2    H2 5847   0.299   1.007  11.064  0.4710 -0.8697 -0.8069
  391MPD2    H3 5848   0.223   0.934  10.847 -1.3943  0.3008  0.0331
  391MPD2     N 5849   0.494   1.222  10.634 -0.1165 -0.2619  0.3228
  391MPD2    H5 5850   0.567   1.290  10.653  1.3325 -1.8914  0.6199
  391MPD2    N1 5851   0.458   1.199  11.123  0.0098 -1.0763 -0.1982
  391MPD2    H7 5852   0.429   1.138  11.199 -0.2906  1.7185  1.9261
  392TMC3    C1 5853   0.560   1.268  10.409  0.0913 -0.3228  0.4001
  392TMC3    C2 5854   0.512   1.270  10.286 -0.5752 -0.2855 -0.1265
  392TMC3    C3 5855   0.563   1.363  10.198  0.4634 -0.8403  0.0242
  392TMC3    C4 5856   0.668   1.346  10.448 -0.5591  0.5499  0.5545
  392TMC3    C5 5857   0.719   1.434  10.356  0.0604 -0.6384 -0.1253
  392TMC3    C6 5858   0.675   1.445  10.224 -0.0222 -0.0822  0.0137
  392TMC3     C 5859   0.461   1.199  10.501 -0.1515  0.3216  1.0677
  392TMC3     O 5860   0.358   1.149  10.453  0.0027  0.1761  0.5450
  392TMC3     H 5861   0.428   1.206  10.264 -0.6086 -0.8312  1.5818
  392TMC3    H1 5862   0.715   1.331  10.544 -0.2196 -1.5118  0.0607
  392TMC3    H2 5863   0.690   1.533  10.162  1.4559 -1.3454 -1.4215
  392TMC3    C7 5864   0.817   1.531  10.402 -0.2141 -0.3351  0.1269
  392TMC3    C8 5865   0.472   1.398  10.083 -0.1635 -0.2734  0.3714
  392TMC3    O1 5866   0.832   1.551  10.521  0.1957  0.4660 -0.2977
  392TMC3    O2 5867   0.386   1.316  10.054  0.1377  0.0818 -1.1513
  393TMC3    C1 5868   4.060   4.564  10.251  0.0449  0.5275  0.6559
  393TMC3    C2 5869   3.942   4.522  10.296 -0.3878 -0.0478 -0.2367
  393TMC3    C3 5870   3.938   4.443  10.406  0.0465 -0.7553  0.0047
  393TMC3    C4 5871   4.179   4.525  10.311  0.1227  0.1700 -0.6619
  393TMC3    C5 5872   4.172   4.435  10.412  0.3488 -0.3745 -0.1394
  393TMC3    C6 5873   4.050   4.389  10.460 -0.3041 -1.0312  0.6420
  393TMC3     C 5874   4.056   4.675  10.158  0.8882  0.4442 -0.0589
  393TMC3     O 5875   3.947   4.702  10.108 -0.1131 -0.2939  0.1958
  393TMC3     H 5876   3.850   4.557  10.252 -0.5958  0.2781  0.4591
  393TMC3    H1 5877   4.278   4.543  10.270 -0.2903  1.2109 -1.2182
  393TMC3    H2 5878   4.049   4.310  10.534 -3.2428 -0.2836  1.3738
  393TMC3    C7 5879   4.284   4.352  10.452 -0.4650 -0.2546  0.0642
  393TMC3    C8 5880   3.813   4.426  10.468 -0.0139  0.4873  0.1552
  393TMC3    O1 5881   4.265   4.235  10.469 -0.1641 -0.0169  0.5287
  393TMC3    O2 5882   3.720   4.407  10.391  0.3218  0.6165 -0.1634
  394TMC3    C1 5883   0.972   0.160  10.466  0.3347 -1.1939  0.3432
  394TMC3    C2 5884   0.874   0.110  10.384 -0.4677 -0.5785 -1.0864
  394TMC3    C3 5885   0.899   0.083  10.252  0.0136 -0.4036 -0.5546
  394TMC3    C4 5886   1.104   0.160  10.420  0.3465 -0.2263  0.3826
  394TMC3    C5 5887   1.122   0.134  10.284  0.3550 -0.1019 -0.4321
  394TMC3    C6 5888   1.026   0.090  10.201  0.2686  0.4684 -0.2219
  394TMC3     C 5889   0.961   0.099  10.594  0.0268  0.0998  0.2440
  394TMC3     O 5890   0.922   4.705  10.604  0.3832  0.1251  0.3268
  394TMC3     H 5891   0.776   0.111  10.429  0.5933  1.0455  1.2019
  394TMC3    H1 5892   1.182   0.200  10.483  0.3577  0.2069  0.0956
  394TMC3    H2 5893   1.050   0.074  10.096  0.1237 -0.5446 -0.0940
  394TMC3    C7 5894   1.262   0.132  10.241 -0.8171 -0.1747  0.0636
  394TMC3    C8 5895   0.794   0.021  10.181 -0.2011 -0.2838  0.1006
  394TMC3    O1 5896   1.335   0.209  10.304 -0.6778  0.6063 -0.7360
  394TMC3    O2 5897   0.678   0.048  10.214 -0.0746  0.0776  0.2325
  395TMC3    C1 5898   1.045   1.576  14.342 -0.8749  0.4857  0.3642
  395TMC3    C2 5899   0.912   1.554  14.365  0.5164 -0.8682  0.0832
  395TMC3    C3 5900   0.841   1.641  14.443 -0.3661  0.6139  0.0741
  395TMC3    C4 5901   1.104   1.700  14.370  0.4456 -0.4610  0.1438
  395TMC3    C5 5902   1.026   1.780  14.452 -0.1240  0.3196 -0.8341
  395TMC3    C6 5903   0.901   1.747  14.491 -0.5190 -0.1198 -0.5676
  395TMC3     C 5904   1.124   1.480  14.271 -0.4391  0.4008  0.0816
  395TMC3     O 5905   1.206   1.536  14.198 -0.3689  0.3373  0.0544
  395TMC3     H 5906   0.885   1.452  14.340  0.8870 -1.0074  0.2467
  395TMC3    H1 5907   1.208   1.723  14.351  0.3655  0.4030  0.7360
  395TMC3    H2 5908   0.855   1.802  14.573 -1.7704 -1.9419 -0.0390
  395TMC3    C7 5909   1.096   1.894  14.509 -0.1169  0.1094 -0.3134
  395TMC3    C8 5910   0.730   1.585  14.529  0.0556 -0.4597 -0.0135
  395TMC3    O1 5911   1.211   1.876  14.541  0.3912 -0.3441 -0.0108
  395TMC3    O2 5912   0.709   1.645  14.634 -0.0938  0.9957 -0.2099
  396MPD2     C 5913   0.859   2.512  16.992 -0.0334 -0.5578 -0.5479
  396MPD2    C1 5914   0.983   2.554  16.971  0.2531  0.1552 -0.2055
  396MPD2    C2 5915   1.006   2.642  16.866 -0.4752  0.0952  0.0010
  396MPD2    C3 5916   0.904   2.684  16.783 -0.1707  0.1147 -0.2624
  396MPD2    C4 5917   0.775   2.634  16.808 -0.5416 -0.4109  0.2687
  396MPD2    C5 5918   0.763   2.550  16.916  0.4725 -0.0390 -0.0776
  396MPD2     H 5919   1.106   2.682  16.852 -0.5255 -0.4710 -1.9152
  396MPD2    H1 5920   0.683   2.676  16.768  0.1131  1.5543  0.7988
  396MPD2    H2 5921   0.838   2.446  17.075 -0.4321  1.3314  0.8255
  396MPD2    H3 5922   0.660   2.530  16.944  0.2729  0.1957 -0.6374
  396MPD2     N 5923   0.936   2.778  16.682 -0.7570  0.0441  0.3354
  396MPD2    H5 5924   1.032   2.806  16.666 -0.8826 -0.8155 -1.8481
  396MPD2    N1 5925   1.090   2.505  17.057 -0.5752  0.2256  0.5075
  396MPD2    H7 5926   1.064   2.430  17.120  0.5178 -0.4232  0.1880
  397TMC3    C1 5927   1.308   2.442  17.064 -0.1971  0.4303 -0.3880
  397TMC3    C2 5928   1.376   2.451  16.952  0.0961  0.1283  0.2832
  397TMC3    C3 5929   1.350   2.371  16.842  0.2138 -0.4788 -0.0540
  397TMC3    C4 5930   1.238   2.323  17.077  0.6242 -0.5638 -0.0167
  397TMC3    C5 5931   1.219   2.237  16.978 -0.8098  0.2564  0.2845
  397TMC3    C6 5932   1.263   2.264  16.853 -0.4820  0.4589 -0.4706
  397TMC3     C 5933   1.222   2.555  17.062 -1.0394  0.0136  0.4239
  397TMC3     O 5934   1.272   2.665  17.026  0.3999  0.4479  0.2828
  397TMC3     H 5935   1.427   2.545  16.938 -2.5288  1.4924 -0.1179
  397TMC3    H1 5936   1.194   2.302  17.174 -1.6285  0.7087 -0.7574
  397TMC3    H2 5937   1.238   2.197  16.772  2.2787 -0.3566 -0.6502
  397TMC3    C7 5938   1.139   2.126  16.998  0.2323  0.4277 -0.2373
  397TMC3    C8 5939   1.343   2.443  16.718  0.0817 -0.2160  0.1204
  397TMC3    O1 5940   1.079   2.085  16.901  0.7475 -0.7010 -0.0395
  397TMC3    O2 5941   1.235   2.442  16.656 -0.2096  0.1255 -0.3798
  398MPD2     C 5942   0.268   3.061  17.357  0.6104  0.7782  0.5030
  398MPD2    C1 5943   0.219   2.998  17.467 -0.3886  0.7703 -0.1392
  398MPD2    C2 5944   0.303   2.908  17.529  0.1338 -0.0691 -0.6167
  398MPD2    C3 5945   0.429   2.869  17.489 -0.3638  0.0488  0.1948
  398MPD2    C4 5946   0.480   2.931  17.379  0.4220 -0.0645  0.0520
  398MPD2    C5 5947   0.398   3.023  17.317  0.0398 -0.3484  0.1033
  398MPD2     H 5948   0.269   2.858  17.619  1.3785  0.2882  0.0549
  398MPD2    H1 5949   0.580   2.906  17.344  0.3385  0.2497 -0.4115
  398MPD2    H2 5950   0.209   3.140  17.312 -1.3667 -0.5460  0.8036
  398MPD2    H3 5951   0.439   3.080  17.235 -0.5574  0.7182  0.5435
  398MPD2     N 5952   0.488   2.763  17.565  0.6327  0.4712 -0.5947
  398MPD2    H5 5953   0.423   2.721  17.631  0.0980 -1.3866 -2.3220
  398MPD2    N1 5954   0.095   3.018  17.529  0.7378  0.1349 -0.2019
  398MPD2    H7 5955   0.072   2.970  17.616  0.1146 -0.2207 -0.5587
  399TMC3    C1 5956   4.595   3.076  17.551  0.2391  0.0105  0.5191
  399TMC3    C2 5957   4.568   2.969  17.622  0.8278 -0.0633  0.2368
  399TMC3    C3 5958   4.454   2.975  17.695 -0.2942 -1.3954  0.4413
  399TMC3    C4 5959   4.512   3.176  17.544 -0.1569 -0.5258 -0.1110
  399TMC3    C5 5960   4.395   3.180  17.616 -0.0555 -0.1620 -0.7768
  399TMC3    C6 5961   4.364   3.078   0.002 -0.1789  0.5405 -0.0954
  399TMC3     C 5962   4.718   3.088  17.473  0.3548 -0.2900 -1.0118
  399TMC3     O 5963   4.710   3.152  17.372 -0.9033 -0.2969 -0.1174
  399TMC3     H 5964   4.643   2.891  17.628  0.0620 -0.9563 -1.7567
  399TMC3    H1 5965   4.530   3.252  17.468 -2.6164  1.5398  1.3506
  399TMC3    H2 5966   4.273   3.084   0.061  0.5490 -3.0719  1.3364
  399TMC3    C7 5967   4.275   3.250  17.564 -0.4049  0.0842 -0.0658
  399TMC3    C8 5968   4.449   2.877   0.097  0.2134  0.1545 -0.4086
  399TMC3    O1 5969   4.173   3.182  17.569  0.6201  0.4886  0.7084
  399TMC3    O2 5970   4.554   2.831   0.135 -0.1183 -0.0202  0.4023
  400TMC3    C1 5971   2.605   2.451  16.565  0.4046 -0.5695  0.2668
  400TMC3    C2 5972   2.504   2.401  16.487 -0.2956  0.1354 -0.0392
  400TMC3    C3 5973   2.433   2.487  16.406  0.0176  0.0325  0.0272
  400TMC3    C4 5974   2.635   2.581  16.568  0.7626 -0.4906 -0.5271
  400TMC3    C5 5975   2.561   2.669  16.495  0.4035 -0.5354  0.0851
  400TMC3    C6 5976   2.454   2.622  16.416  0.5462  0.5386 -0.0611
  400TMC3     C 5977   2.666   2.357  16.659 -0.3194  0.3372  0.1399
  400TMC3     O 5978   2.658   2.241  16.618  0.3944 -0.4980  0.0544
  400TMC3     H 5979   2.491   2.295  16.469 -2.6516  0.2964  0.6793
  400TMC3    H1 5980   2.707   2.629  16.632 -0.6360  0.4252  0.3557
  400TMC3    H2 5981   2.382   2.692  16.376 -0.0802 -0.4415 -0.6454
  400TMC3    C7 5982   2.567   2.809  16.522 -0.4274 -0.1968  0.1954
  400TMC3    C8 5983   2.298   2.449  16.368 -0.6176  0.3911  0.1765
  400TMC3    O1 5984   2.616   2.845  16.634 -0.4576  0.2527  0.0982
  400TMC3    O2 5985   2.211   2.537  16.371  0.2053 -0.6463  0.1620
  401MPD2     C 5986   0.650   0.871   0.282  0.3035  0.9487 -0.7427
  401MPD2    C1 5987   0.738   0.768   0.262 -0.0669 -0.0672  0.2466
  401MPD2    C2 5988   0.697   0.638   0.273 -0.4572  0.0034 -0.5061
  401MPD2    C3 5989   0.560   0.612   0.284 -0.7320  0.0313  0.1036
  401MPD2    C4 5990   0.464   0.716   0.292  0.4610 -0.5793  0.1379
  401MPD2    C5 5991   0.514   0.844   0.300  0.0019 -0.1353 -0.2623
  401MPD2     H 5992   0.770   0.559   0.270 -2.7287 -2.1026 -0.4588
  401MPD2    H1 5993   0.356   0.707   0.301  0.1927 -0.6103 -2.9652
  401MPD2    H2 5994   0.678   0.976   0.278  1.5880  0.6081 -0.5501
  401MPD2    H3 5995   0.447   0.928   0.316  2.6659  2.4172 -2.4632
  401MPD2     N 5996   0.524   0.473   0.281  0.0379 -0.0308 -0.2070
  401MPD2    H5 5997   0.601   0.406   0.281  0.0591 -0.0070 -0.6157
  401MPD2    N1 5998   0.872   0.785   0.240  0.4781  0.5063  0.6278
  401MPD2    H7 5999   0.921   0.697   0.236  1.0423  0.8247  0.6207
  402TMC3    C1 6000   0.416   0.279   0.340  0.4529  0.6811  0.0723
  402TMC3    C2 6001   0.334   0.223   0.431  0.6184  0.9128  0.6262
  402TMC3    C3 6002   0.349   0.086   0.455  0.0743 -0.1649  0.5126
  402TMC3    C4 6003   0.513   0.206   0.275 -0.4515  0.2937 -0.2522
  402TMC3    C5 6004   0.537   0.076   0.304  0.4839 -0.0097  0.4729
  402TMC3    C6 6005   0.453   0.013   0.394 -0.2011  0.1503  0.3898
  402TMC3     C 6006   0.402   0.421   0.305  0.2732 -0.0117  0.6036
  402TMC3     O 6007   0.298   0.467   0.349  0.2835 -0.7631  0.5823
  402TMC3     H 6008   0.250   0.278   0.472  0.3669  1.8043 -1.0729
  402TMC3    H1 6009   0.563   0.253   0.190  2.0619 -3.0345 -0.6228
  402TMC3    H2 6010   0.467   4.632   0.414  1.7302  0.6607  1.7174
  402TMC3    C7 6011   0.625   4.713   0.226 -0.4987  0.2400  0.1230
  402TMC3    C8 6012   0.318   0.025   0.586  0.9542 -0.9412 -0.5238
  402TMC3    O1 6013   0.618   4.589   0.244 -0.0201 -0.4432 -0.5158
  402TMC3    O2 6014   0.392   4.661   0.624 -0.6364 -0.0746 -0.2779
  403MPD2     C 6015   3.875   4.348  12.929  0.3585 -0.2605 -0.3833
  403MPD2    C1 6016   3.945   4.229  12.964  0.0162  0.2360 -0.1919
  403MPD2    C2 6017   4.047   4.249  13.052 -0.6461  0.0983  0.1771
  403MPD2    C3 6018   4.075   4.369  13.122 -0.2765 -0.2406 -0.3510
  403MPD2    C4 6019   3.987   4.472  13.090 -0.3754  0.1715  0.2772
  403MPD2    C5 6020   3.890   4.468  12.990  0.0422  0.2307  0.1921
  403MPD2     H 6021   4.109   4.164  13.080  0.8590 -0.2559 -4.3237
  403MPD2    H1 6022   3.990   4.571  13.136 -2.8882  0.3368  0.0726
  403MPD2    H2 6023   3.791   4.352  12.859 -0.1427  2.0788  0.3543
  403MPD2    H3 6024   3.854   4.563  12.953  0.1498  0.1005 -0.2494
  403MPD2     N 6025   4.177   4.375  13.217  0.4000 -0.1134 -0.2181
  403MPD2    H5 6026   4.237   4.293  13.222  1.5096  0.8091  1.9168
  403MPD2    N1 6027   3.912   4.113  12.897  0.4286 -0.6266 -0.0303
  403MPD2    H7 6028   3.840   4.125  12.827  2.5218  1.1525 -1.8825
  404TMC3    C1 6029   3.926   3.888  12.824  0.0121 -0.2064  0.0530
  404TMC3    C2 6030   3.937   3.763  12.868  0.3217 -0.5532  0.0473
  404TMC3    C3 6031   3.883   3.667  12.775  0.6503 -0.2210 -0.0372
  404TMC3    C4 6032   3.882   3.924  12.703 -0.4807  0.1524  0.4970
  404TMC3    C5 6033   3.833   3.830  12.615 -0.0175 -0.1862  0.0256
  404TMC3    C6 6034   3.834   3.698  12.650 -0.1342 -0.0776 -0.9963
  404TMC3     C 6035   3.960   3.989  12.924 -0.0144 -0.2160  0.6782
  404TMC3     O 6036   4.017   3.956  13.030 -0.2211 -0.3243 -0.3037
  404TMC3     H 6037   3.954   3.746  12.974  0.6295 -1.5664 -0.1587
  404TMC3    H1 6038   3.883   4.026  12.668 -2.2782 -0.5824 -1.6947
  404TMC3    H2 6039   3.807   3.614  12.587 -1.6120 -0.3486 -0.0111
  404TMC3    C7 6040   3.762   3.879  12.492 -0.3149  0.1747 -0.1008
  404TMC3    C8 6041   3.886   3.529  12.821 -0.0163 -0.1387  0.4141
  404TMC3    O1 6042   3.797   3.988  12.465 -0.1479 -0.2527 -0.3054
  404TMC3    O2 6043   3.873   3.436  12.740  0.4544 -0.2256  0.2339
  405MPD2     C 6044   4.308   4.319  14.556 -0.0344 -0.3837 -0.0143
  405MPD2    C1 6045   4.237   4.241  14.473  0.0043 -0.1943  0.0106
  405MPD2    C2 6046   4.194   4.288  14.354 -0.2075 -0.3475  0.3339
  405MPD2    C3 6047   4.211   4.422  14.325  0.0458  0.1354 -0.4311
  405MPD2    C4 6048   4.282   4.505  14.409  0.1234  0.3113  0.1270
  405MPD2    C5 6049   4.332   4.451  14.526  0.4725 -0.3395 -0.0587
  405MPD2     H 6050   4.132   4.228  14.287  6.1210 -4.4910 -1.7708
  405MPD2    H1 6051   4.289   4.611  14.386 -1.6563  0.5875  0.8518
  405MPD2    H2 6052   4.360   4.272  14.639 -0.6435  1.2035  1.2673
  405MPD2    H3 6053   4.393   4.516  14.587 -2.4595  1.8249  0.5379
  405MPD2     N 6054   4.148   4.456  14.207  0.2800  0.5341 -0.2670
  405MPD2    H5 6055   4.101   4.382  14.156  0.9170  1.4031 -2.1328
  405MPD2    N1 6056   4.195   4.111  14.502  0.1778  0.4544 -0.2662
  405MPD2    H7 6057   4.125   4.074  14.437 -0.0388 -0.4845  0.4946
  406TMC3    C1 6058   3.865   4.700  13.945 -0.9261 -0.5361 -1.0619
  406TMC3    C2 6059   3.818   4.591  13.892  0.0141  0.7471  0.4492
  406TMC3    C3 6060   3.884   4.481  13.921  0.4041  0.0623 -0.2490
  406TMC3    C4 6061   3.984   4.700  14.022  0.0418  0.6658 -0.6350
  406TMC3    C5 6062   4.059   4.589  14.037 -0.0102  0.0004 -0.2584
  406TMC3    C6 6063   4.007   4.470  13.982  0.5463  0.3059  0.1234
  406TMC3     C 6064   3.764   0.075  13.985 -0.5238  0.0764  0.0290
  406TMC3     O 6065   3.818   0.186  13.999  0.1070  0.0117  0.1850
  406TMC3     H 6066   3.727   4.601  13.834  0.9454 -1.3590 -1.3849
  406TMC3    H1 6067   4.012   0.066  14.075  1.0950  0.2009 -0.4001
  406TMC3    H2 6068   4.053   4.373  13.999  1.3668  0.6802  0.0673
  406TMC3    C7 6069   4.130   4.580  14.158  0.6715  0.7575  0.4993
  406TMC3    C8 6070   3.806   4.360  13.884  0.3440 -0.1708  0.3460
  406TMC3    O1 6071   4.165   4.684  14.207  0.1888 -0.3502 -0.4270
  406TMC3    O2 6072   3.702   4.366  13.818  1.1427 -0.0631 -0.1171
  407MPD2     C 6073   1.261   1.544   9.172 -0.5559 -0.5584  0.1832
  407MPD2    C1 6074   1.315   1.466   9.269 -0.3294  0.2839 -0.0180
  407MPD2    C2 6075   1.360   1.514   9.391 -0.9838  0.9551  0.2088
  407MPD2    C3 6076   1.328   1.650   9.428 -0.1716 -0.7286 -0.0724
  407MPD2    C4 6077   1.257   1.721   9.331 -0.4477  0.9695  0.3792
  407MPD2    C5 6078   1.230   1.671   9.207  1.0611 -0.1940 -0.3049
  407MPD2     H 6079   1.407   1.443   9.458 -0.4758  1.2331  0.1427
  407MPD2    H1 6080   1.214   1.820   9.339  0.5764  1.1599  3.2393
  407MPD2    H2 6081   1.234   1.509   9.073  0.5215  2.3223 -1.1211
  407MPD2    H3 6082   1.189   1.730   9.125  0.9191  0.2648  0.0943
  407MPD2     N 6083   1.361   1.706   9.553 -0.1418  0.1178 -0.6778
  407MPD2    H5 6084   1.366   1.807   9.565  2.2391 -0.2415  1.2359
  407MPD2    N1 6085   1.328   1.328   9.249  0.3481 -0.0125 -0.1091
  407MPD2    H7 6086   1.361   1.277   9.331  2.4422 -1.2493 -1.7060
  408TMC3    C1 6087   1.319   1.109   9.172  0.2809  0.2980  0.2783
  408TMC3    C2 6088   1.449   1.072   9.186 -0.0383  0.1805  0.2720
  408TMC3    C3 6089   1.491   0.944   9.201  0.1180  0.5334  0.1685
  408TMC3    C4 6090   1.225   1.008   9.161  0.1343  0.2955 -0.0359
  408TMC3    C5 6091   1.261   0.883   9.192 -0.5676 -0.7718  0.9054
  408TMC3    C6 6092   1.393   0.849   9.214  0.7072  0.2282 -0.3774
  408TMC3     C 6093   1.290   1.249   9.144  0.6057 -0.5043  0.2574
  408TMC3     O 6094   1.196   1.274   9.070  0.2396  0.7126 -0.5701
  408TMC3     H 6095   1.522   1.150   9.168  0.7244  0.1087  3.0638
  408TMC3    H1 6096   1.128   1.045   9.129 -0.4676  0.3531  1.8457
  408TMC3    H2 6097   1.429   0.748   9.226  1.3634  0.2593 -1.9632
  408TMC3    C7 6098   1.148   0.790   9.187 -0.9652 -0.4966 -0.5129
  408TMC3    C8 6099   1.630   0.902   9.189 -0.2971 -0.5271  0.0444
  408TMC3    O1 6100   1.051   0.839   9.136 -0.9938 -0.0362  0.4817
  408TMC3    O2 6101   1.645   0.780   9.180 -0.3192  0.0338  0.3659
  409MPD2     C 6102   1.068   1.981  16.564  0.0658  0.4330  0.5182
  409MPD2    C1 6103   1.186   1.929  16.619  0.6926  0.1558 -0.5952
  409MPD2    C2 6104   1.295   2.001  16.593 -0.3896 -0.3001 -0.6516
  409MPD2    C3 6105   1.297   2.110  16.511 -0.0081  0.2231 -0.7555
  409MPD2    C4 6106   1.177   2.156  16.464  0.2075  0.0083 -0.3750
  409MPD2    C5 6107   1.061   2.089  16.489  0.0024  0.1758  0.3033
  409MPD2     H 6108   1.391   1.988  16.643 -0.6494 -0.1987 -0.1286
  409MPD2    H1 6109   1.168   2.247  16.405 -0.5951 -1.5130 -2.6116
  409MPD2    H2 6110   0.974   1.930  16.582  0.3459 -0.1793  0.2182
  409MPD2    H3 6111   0.967   2.127  16.452 -0.0015 -0.0569  0.0741
  409MPD2     N 6112   1.409   2.192  16.477 -0.7186 -0.0733  0.3768
  409MPD2    H5 6113   1.386   2.272  16.420  0.3110  0.2674  0.4317
  409MPD2    N1 6114   1.208   1.825  16.713 -0.2277 -0.1723 -0.0190
  409MPD2    H7 6115   1.305   1.803  16.731 -0.2822 -0.0791  0.3899
  410TMC3    C1 6116   1.630   2.268  16.463 -0.1231 -0.5018 -0.4677
  410TMC3    C2 6117   1.736   2.297  16.544  0.1072 -0.7212  0.4210
  410TMC3    C3 6118   1.792   2.417  16.515 -0.4658  0.2822  0.0182
  410TMC3    C4 6119   1.585   2.340  16.355  0.0806 -0.4165  0.0320
  410TMC3    C5 6120   1.650   2.466  16.338 -0.1512  0.2434  0.2287
  410TMC3    C6 6121   1.752   2.506  16.423  0.3806 -0.3080  0.2132
  410TMC3     C 6122   1.539   2.167  16.512  1.0294 -0.5406  0.3672
  410TMC3     O 6123   1.585   2.076  16.572  0.4474 -0.2972 -0.3752
  410TMC3     H 6124   1.761   2.236  16.630 -1.7266 -0.6537  0.9905
  410TMC3    H1 6125   1.518   2.302  16.279  0.6128 -0.8636 -0.2143
  410TMC3    H2 6126   1.815   2.592  16.408  0.1097  0.0064  0.8706
  410TMC3    C7 6127   1.616   2.539  16.225  0.1105  0.6130 -0.3807
  410TMC3    C8 6128   1.922   2.442  16.574  0.2266 -0.1585 -0.4199
  410TMC3    O1 6129   1.515   2.504  16.166  0.1695 -0.1525  0.0156
  410TMC3    O2 6130   1.970   2.557  16.556  0.1836  0.0110 -0.6403
  411MPD2     C 6131   1.738   2.559  14.542 -0.5121  0.4967 -0.8085
  411MPD2    C1 6132   1.634   2.593  14.468  0.4967  0.3420 -0.3778
  411MPD2    C2 6133   1.540   2.492  14.436 -0.0122  0.0679  0.3054
  411MPD2    C3 6134   1.564   2.363  14.471  0.1927 -0.1115  0.2269
  411MPD2    C4 6135   1.685   2.332  14.532  0.2390  0.2951 -0.6889
  411MPD2    C5 6136   1.765   2.429  14.578  0.1678  0.3359 -1.1678
  411MPD2     H 6137   1.446   2.527  14.395  0.7741  1.1178 -0.6064
  411MPD2    H1 6138   1.710   2.230  14.559  0.0308  0.7082  1.0930
  411MPD2    H2 6139   1.804   2.642  14.565  0.7540 -0.2034 -1.8977
  411MPD2    H3 6140   1.851   2.400  14.637 -0.2374 -0.0685 -0.7760
  411MPD2     N 6141   1.480   2.258  14.433  0.5299  0.2146 -0.1694
  411MPD2    H5 6142   1.511   2.166  14.462  1.8343  0.9370  0.7333
  411MPD2    N1 6143   1.617   2.729  14.442 -0.0753 -0.2704  0.2250
  411MPD2    H7 6144   1.679   2.797  14.485  1.3367 -0.0321 -2.1599
  412TMC3    C1 6145   1.327   2.135  14.298 -0.6508 -0.1445  0.6363
  412TMC3    C2 6146   1.204   2.136  14.230  0.4762 -0.1124  0.0146
  412TMC3    C3 6147   1.176   2.041  14.135  0.4223  0.1690 -0.5622
  412TMC3    C4 6148   1.414   2.035  14.259  0.2342 -0.8027 -0.0375
  412TMC3    C5 6149   1.393   1.949  14.153  0.2218  0.0764  0.5485
  412TMC3    C6 6150   1.271   1.951  14.088 -0.1539 -0.2700 -0.3701
  412TMC3     C 6151   1.374   2.265  14.346  0.1554 -0.2691  0.4566
  412TMC3     O 6152   1.310   2.360  14.310 -0.2971 -0.2560  0.2420
  412TMC3     H 6153   1.130   2.211  14.255 -1.2435 -1.9113  0.3155
  412TMC3    H1 6154   1.510   2.021  14.307  0.1138 -1.8359 -0.1043
  412TMC3    H2 6155   1.247   1.892  14.001  0.3263 -1.3978  0.2523
  412TMC3    C7 6156   1.516   1.946  14.069  0.3003  0.3118 -0.0831
  412TMC3    C8 6157   1.088   2.091  14.034  0.7933 -0.2530  0.9712
  412TMC3    O1 6158   1.618   1.910  14.128  0.0835 -0.7497 -0.3060
  412TMC3    O2 6159   1.008   2.009  13.987 -0.9308 -0.0145  0.4909
  413MPD2     C 6160   3.300   1.066  15.046 -0.0313  0.2626  0.1665
  413MPD2    C1 6161   3.221   0.989  14.966 -0.6004 -0.0764 -0.7993
  413MPD2    C2 6162   3.280   0.872  14.919 -0.4148 -0.5586  0.1278
  413MPD2    C3 6163   3.414   0.839  14.944 -0.0432  0.0607 -0.1387
  413MPD2    C4 6164   3.495   0.926  15.022  0.8720 -0.3055  0.2032
  413MPD2    C5 6165   3.435   1.041  15.068 -0.1749  0.7488 -0.0883
  413MPD2     H 6166   3.231   0.808  14.846  1.4990  0.3583 -1.9792
  413MPD2    H1 6167   3.603   0.919  15.029  1.1044  2.0580 -0.9658
  413MPD2    H2 6168   3.261   1.157  15.091 -2.0567 -0.2904 -0.4725
  413MPD2    H3 6169   3.501   1.102  15.128 -0.3529  1.7075 -0.8506
  413MPD2     N 6170   3.472   0.723  14.892 -0.0675  0.7498 -0.3312
  413MPD2    H5 6171   3.414   0.682  14.820 -2.7839  2.9292  0.6116
  413MPD2    N1 6172   3.095   1.033  14.931  0.0140  0.4218  0.1521
  413MPD2    H7 6173   3.061   1.122  14.966  2.7814  0.9843  1.4033
  414TMC3    C1 6174   3.614   0.541  14.862  0.3935  0.1289 -0.0786
  414TMC3    C2 6175   3.686   0.445  14.928  0.1930 -1.4189  0.5328
  414TMC3    C3 6176   3.697   0.322  14.873  0.1246 -0.2315 -0.4281
  414TMC3    C4 6177   3.569   0.523  14.735  0.2752  0.0256  0.1925
  414TMC3    C5 6178   3.590   0.401  14.682  0.3345  0.2232  0.0113
  414TMC3    C6 6179   3.649   0.291  14.748 -0.2689 -0.0356  0.1709
  414TMC3     C 6180   3.590   0.666  14.935  0.4468 -0.0663  0.7266
  414TMC3     O 6181   3.656   0.685  15.034 -0.1321 -0.2615 -0.6947
  414TMC3     H 6182   3.737   0.474  15.019 -2.1329  0.3445  1.2697
  414TMC3    H1 6183   3.516   0.592  14.671 -0.3657  0.4779  1.1989
  414TMC3    H2 6184   3.675   0.200  14.694  2.0282  1.1518 -0.7249
  414TMC3    C7 6185   3.532   0.384  14.551  0.0640  0.1054 -0.2056
  414TMC3    C8 6186   3.776   0.212  14.937  0.4090  0.0783  0.3103
  414TMC3    O1 6187   3.430   0.448  14.533 -0.4353 -0.3315 -0.3445
  414TMC3    O2 6188   3.785   0.103  14.877 -0.0248 -0.1850  0.1771
  415TMC3    C1 6189   3.485   3.735  10.339 -0.2034  0.6070  1.1715
  415TMC3    C2 6190   3.474   3.855  10.280  0.2205 -0.3645 -0.9377
  415TMC3    C3 6191   3.390   3.862  10.174 -0.4985 -0.2538  0.3049
  415TMC3    C4 6192   3.422   3.629  10.286 -0.1460 -0.5743  0.2010
  415TMC3    C5 6193   3.347   3.635  10.173  0.1015 -0.6864 -0.2166
  415TMC3    C6 6194   3.328   3.760  10.115 -0.1206  0.4020 -0.5026
  415TMC3     C 6195   3.566   3.713  10.451 -0.7326  0.3586 -0.2914
  415TMC3     O 6196   3.594   3.600  10.491  0.5605  0.2230 -0.5881
  415TMC3     H 6197   3.524   3.943  10.318 -2.8711 -0.2188  2.6821
  415TMC3    H1 6198   3.434   3.537  10.343 -0.2712 -0.3798  0.5440
  415TMC3    H2 6199   3.271   3.771  10.023 -0.5131 -1.4400 -0.4777
  415TMC3    C7 6200   3.274   3.525  10.121 -0.3139  0.0397 -0.4658
  415TMC3    C8 6201   3.375   3.991  10.106 -0.1059 -0.0722 -0.1730
  415TMC3    O1 6202   3.228   3.526  10.005 -0.9426 -0.3210  0.0049
  415TMC3    O2 6203   3.268   4.022  10.061 -0.5441 -0.0822 -0.1539
  416MPD2     C 6204   0.739   2.542  11.324  0.5687 -0.4739 -0.6346
  416MPD2    C1 6205   0.609   2.493  11.315 -0.0903 -0.0915  0.1048
  416MPD2    C2 6206   0.585   2.375  11.245 -0.1303  0.0595  0.2055
  416MPD2    C3 6207   0.692   2.318  11.166 -0.3375  0.3461 -0.3324
  416MPD2    C4 6208   0.814   2.374  11.163  0.2472  0.6726 -0.8578
  416MPD2    C5 6209   0.837   2.475  11.250  0.0149 -0.3723 -0.1206
  416MPD2     H 6210   0.485   2.333  11.236  0.2279 -1.2213  2.3813
  416MPD2    H1 6211   0.901   2.327  11.120 -0.2043 -1.5923  0.6884
  416MPD2    H2 6212   0.766   2.629  11.384 -2.0246 -0.6772  0.8475
  416MPD2    H3 6213   0.940   2.508  11.261  0.0176 -0.3639 -0.1720
  416MPD2     N 6214   0.660   2.202  11.087  0.5219 -0.1424 -0.2406
  416MPD2    H5 6215   0.572   2.160  11.115  0.6777 -0.5668 -0.3875
  416MPD2    N1 6216   0.507   2.570  11.381  0.3824 -0.2235  0.0641
  416MPD2    H7 6217   0.534   2.662  11.417 -0.2818 -0.7572  1.9264
  417TMC3    C1 6218   0.300   2.647  11.425 -0.2285 -0.6581 -0.0791
  417TMC3    C2 6219   0.324   2.691  11.549 -0.6182  0.6243  0.4123
  417TMC3    C3 6220   0.216   2.753  11.618 -0.0765 -0.4717  0.4319
  417TMC3    C4 6221   0.178   2.666  11.370 -0.2063 -0.2063  0.2670
  417TMC3    C5 6222   0.074   2.729  11.437 -0.0530 -0.3875  0.2488
  417TMC3    C6 6223   0.092   2.775  11.564  0.1564  0.4844 -0.1546
  417TMC3     C 6224   0.378   2.536  11.377  0.8196 -1.0390  0.2868
  417TMC3     O 6225   0.314   2.459  11.301  0.1483 -0.1645  0.2096
  417TMC3     H 6226   0.415   2.672  11.605 -0.0045 -0.0713 -0.8010
  417TMC3    H1 6227   0.167   2.627  11.270  0.4809 -0.9601  0.4818
  417TMC3    H2 6228   0.021   2.840  11.614 -1.2243 -1.2657  0.1340
  417TMC3    C7 6229   0.007   2.837  11.361  0.2796  0.1645  0.8906
  417TMC3    C8 6230   0.233   2.809  11.753 -0.2608  0.3228 -0.4187
  417TMC3    O1 6231   0.079   2.879  11.274 -0.0446 -0.0445 -0.2809
  417TMC3    O2 6232   0.136   2.861  11.809  0.6089  0.0521 -0.3640
  418TMC3    C1 6233   0.581   2.390   0.032  0.2532  0.5996  0.7574
  418TMC3    C2 6234   0.612   2.472  17.620 -0.9564 -0.1273  0.6722
  418TMC3    C3 6235   0.634   2.600  17.640  0.8340 -0.2419  0.4259
  418TMC3    C4 6236   0.587   2.438   0.161  0.4511 -0.0928 -0.3779
  418TMC3    C5 6237   0.596   2.576   0.170  0.0444  0.6230 -0.6819
  418TMC3    C6 6238   0.626   2.660   0.061 -0.9443 -0.1874 -0.0527
  418TMC3     C 6239   0.487   2.282  17.697 -0.2194 -0.0913 -0.2147
  418TMC3     O 6240   0.481   2.243  17.580  0.1316  0.2227  0.2425
  418TMC3     H 6241   0.617   2.427  17.522 -2.5720  0.2429  0.4176
  418TMC3    H1 6242   0.548   2.389   0.249 -1.5755  0.7109 -0.8120
  418TMC3    H2 6243   0.634   2.767   0.048 -1.1841 -0.3393 -1.5141
  418TMC3    C7 6244   0.489   2.629   0.250  0.0672 -0.5127  0.1957
  418TMC3    C8 6245   0.600   2.697  17.534 -0.0360  0.2412  0.6742
  418TMC3    O1 6246   0.406   2.563   0.311 -0.2253 -0.2456  0.0638
  418TMC3    O2 6247   0.675   2.710  17.439  0.6062  0.5551 -0.2779
  419MPD2     C 6248   2.322   2.237  11.823 -0.8014  0.6612  1.1278
  419MPD2    C1 6249   2.438   2.289  11.878  0.0044  0.1999 -0.8116
  419MPD2    C2 6250   2.440   2.295  12.018  0.7877 -0.2174  0.2730
  419MPD2    C3 6251   2.325   2.271  12.097  0.0620 -0.1089  0.1370
  419MPD2    C4 6252   2.211   2.233  12.032  0.2913 -0.7552 -0.6461
  419MPD2    C5 6253   2.216   2.205  11.897 -0.2831  0.4732  0.1165
  419MPD2     H 6254   2.520   2.352  12.064 -1.6868  3.1745  0.3727
  419MPD2    H1 6255   2.125   2.200  12.090 -0.0119  2.0028  0.4647
  419MPD2    H2 6256   2.318   2.221  11.716 -1.0113  1.8339  0.9576
  419MPD2    H3 6257   2.123   2.184  11.844 -0.2419  0.2089  0.1505
  419MPD2     N 6258   2.328   2.303  12.231  0.2790 -0.2494  0.1042
  419MPD2    H5 6259   2.413   2.316  12.285  0.8452 -1.2282 -0.5675
  419MPD2    N1 6260   2.541   2.339  11.809 -0.7096  0.3083  0.0914
  419MPD2    H7 6261   2.624   2.370  11.860  1.3762 -2.6274 -1.4932
  420TMC3    C1 6262   2.245   2.359  12.447 -0.4577 -1.0051 -0.3481
  420TMC3    C2 6263   2.167   2.459  12.494  0.0091 -0.5848  0.7248
  420TMC3    C3 6264   2.208   2.530  12.610 -0.1324  0.0818 -0.0201
  420TMC3    C4 6265   2.366   2.329  12.503  0.2315  0.3153 -0.0690
  420TMC3    C5 6266   2.403   2.399  12.621  0.2278 -0.4563  0.7609
  420TMC3    C6 6267   2.331   2.503  12.668 -0.1799 -0.6793 -0.1425
  420TMC3     C 6268   2.213   2.316  12.311 -0.5141  0.1290 -0.7345
  420TMC3     O 6269   2.100   2.327  12.268 -0.2106 -0.0297 -0.0491
  420TMC3     H 6270   2.071   2.479  12.447  0.2401  1.0832  0.9682
  420TMC3    H1 6271   2.427   2.248  12.465  0.3793  0.1589  0.4982
  420TMC3    H2 6272   2.378   2.568  12.740 -0.5961 -0.8879  0.3225
  420TMC3    C7 6273   2.528   2.359  12.677  0.1673  0.3658 -0.1900
  420TMC3    C8 6274   2.137   2.651  12.653  0.4656  0.6945  0.4077
  420TMC3    O1 6275   2.617   2.320  12.602  0.1798 -0.1484  0.2908
  420TMC3    O2 6276   2.059   2.699  12.573  0.5297  0.0192 -0.6061
  421TMC3    C1 6277   4.322   4.478  13.380 -0.6723 -0.9255  0.6586
  421TMC3    C2 6278   4.379   4.585  13.429 -0.3693 -0.1572  0.3312
  421TMC3    C3 6279   4.485   4.566  13.507 -0.4946 -0.8598 -0.4308
  421TMC3    C4 6280   4.361   4.351  13.411 -0.5215  0.1711  0.5621
  421TMC3    C5 6281   4.469   4.338  13.489  0.4886  0.4261 -0.1084
  421TMC3    C6 6282   4.541   4.446  13.532  0.1887 -0.2558  0.3067
  421TMC3     C 6283   4.211   4.491  13.288 -0.0300  0.3862 -1.1072
  421TMC3     O 6284   4.160   4.604  13.280 -0.2869 -0.2564 -0.4535
  421TMC3     H 6285   4.334   4.683  13.430 -0.4000 -0.1681  0.0419
  421TMC3    H1 6286   4.288   4.271  13.404  0.5552 -0.6453 -1.4083
  421TMC3    H2 6287   4.625   4.424  13.597 -0.3792  0.4427  1.2712
  421TMC3    C7 6288   4.485   4.215  13.568  0.1169  0.2506 -0.2206
  421TMC3    C8 6289   4.489   4.650  13.626 -0.0247 -0.1124  0.0313
  421TMC3    O1 6290   4.532   4.219  13.681 -0.0400  0.2678  0.1220
  421TMC3    O2 6291   4.563   0.020  13.614 -0.5121 -0.5972  0.0812
  422TMC3    C1 6292   1.878   0.751  12.277 -0.2412  1.5470 -0.1676
  422TMC3    C2 6293   1.801   0.865  12.283  0.2670  0.0948 -0.5225
  422TMC3    C3 6294   1.684   0.860  12.354  0.4051 -0.0657  0.3015
  422TMC3    C4 6295   1.839   0.633  12.340 -0.1299 -0.4236  0.0921
  422TMC3    C5 6296   1.727   0.637  12.425 -0.6304 -0.0174  0.1875
  422TMC3    C6 6297   1.644   0.750  12.418 -0.1950 -0.2532  0.9028
  422TMC3     C 6298   2.010   0.771  12.216 -0.4305  0.5661  0.4184
  422TMC3     O 6299   2.032   0.888  12.181 -0.5221  0.4368  0.0688
  422TMC3     H 6300   1.842   0.960  12.251 -0.1817  0.5365  0.2045
  422TMC3    H1 6301   1.898   0.543  12.329 -2.9602 -1.9753 -2.1576
  422TMC3    H2 6302   1.544   0.738  12.459 -0.8256  1.8948  0.0130
  422TMC3    C7 6303   1.683   0.519  12.498 -0.0976  0.8483 -0.1497
  422TMC3    C8 6304   1.618   0.985  12.385  0.3715 -0.2625  0.1086
  422TMC3    O1 6305   1.726   0.411  12.462  0.3228 -0.0595 -0.8279
  422TMC3    O2 6306   1.679   1.087  12.362  0.2794  0.0111 -0.1985
  423MPD2     C 6307   3.536   1.310   0.046 -0.8350 -0.0715 -0.6291
  423MPD2    C1 6308   3.424   1.296   0.123 -0.3953  0.9434  0.5552
  423MPD2    C2 6309   3.306   1.284   0.065 -0.4902 -0.3312  0.4562
  423MPD2    C3 6310   3.302   1.312  17.626  0.1621 -0.9476 -1.0197
  423MPD2    C4 6311   3.410   1.316  17.549  0.5556  0.4048  0.2838
  423MPD2    C5 6312   3.523   1.327  17.610  0.0965  0.0388  0.5711
  423MPD2     H 6313   3.217   1.271   0.125 -1.1198  1.5543 -0.0528
  423MPD2    H1 6314   3.411   1.341  17.444 -0.8573 -0.6512  0.0180
  423MPD2    H2 6315   3.635   1.324   0.088 -1.0375 -0.3391 -0.0731
  423MPD2    H3 6316   3.615   1.348  17.556 -1.7112  1.6268 -1.8832
  423MPD2     N 6317   3.180   1.304  17.543 -0.3229  0.6287  0.0478
  423MPD2    H5 6318   3.196   1.331  17.446  0.9901  1.2147  0.4250
  423MPD2    N1 6319   3.442   1.270   0.263  0.4832  0.0605  0.3245
  423MPD2    H7 6320   3.357   1.277   0.317  0.9138 -1.2354  1.1822
  424TMC3    C1 6321   3.536   1.202   0.470 -0.8287 -0.1556  0.0095
  424TMC3    C2 6322   3.645   1.187   0.547  0.0279 -0.2839 -0.0663
  424TMC3    C3 6323   3.627   1.123   0.664 -0.1822  0.4661  0.4997
  424TMC3    C4 6324   3.414   1.150   0.512 -0.1813  0.4561  0.5209
  424TMC3    C5 6325   3.404   1.090   0.630 -0.7108 -0.0943 -0.2269
  424TMC3    C6 6326   3.511   1.077   0.717 -0.1393  0.3365  0.2020
  424TMC3     C 6327   3.561   1.232   0.332  0.4212 -0.7047  0.3131
  424TMC3     O 6328   3.679   1.220   0.297  0.5116  0.5057 -0.6089
  424TMC3     H 6329   3.739   1.225   0.511  0.6132 -0.9119  0.7849
  424TMC3    H1 6330   3.348   1.114   0.434  0.4089 -2.3116  1.3189
  424TMC3    H2 6331   3.502   1.040   0.818  1.0799 -0.8909 -0.1487
  424TMC3    C7 6332   3.273   1.030   0.665 -0.5367 -0.6792 -0.2940
  424TMC3    C8 6333   3.746   1.073   0.740  0.2116  0.3417  0.1071
  424TMC3    O1 6334   3.286   0.963   0.766 -0.2020 -0.1481  0.2025
  424TMC3    O2 6335   3.735   1.000   0.835  0.3919  0.4259 -0.5968
  425MPD2     C 6336   2.126   0.812  16.797 -0.6058  0.4367  0.4072
  425MPD2    C1 6337   2.056   0.694  16.820 -0.4704 -0.0431 -0.2727
  425MPD2    C2 6338   1.933   0.698  16.880  0.5306 -0.1648  0.2501
  425MPD2    C3 6339   1.862   0.821  16.888 -0.1516 -0.7848 -0.2513
  425MPD2    C4 6340   1.934   0.936  16.857  0.3115 -0.2700 -0.4149
  425MPD2    C5 6341   2.063   0.933  16.817 -0.1249  0.5296 -0.1417
  425MPD2     H 6342   1.870   0.611  16.896 -0.4805  0.9116  2.0036
  425MPD2    H1 6343   1.886   1.032  16.870  3.5071  1.2401  0.2163
  425MPD2    H2 6344   2.230   0.798  16.770 -0.5081  2.6075 -0.3265
  425MPD2    H3 6345   2.114   1.028  16.821 -0.0571  0.4297  1.1864
  425MPD2     N 6346   1.728   0.823  16.932 -0.5664  0.0673  0.2826
  425MPD2    H5 6347   1.693   0.735  16.969 -0.6686  0.5233  1.2657
  425MPD2    N1 6348   2.135   0.577  16.814  0.2379 -0.3846 -0.5171
  425MPD2    H7 6349   2.235   0.591  16.800  0.4139 -1.1212  0.0479
  426TMC3    C1 6350   2.196   0.351  16.818  0.4884  0.0957 -0.5301
  426TMC3    C2 6351   2.156   0.221  16.790 -0.7887 -0.2300 -0.2112
  426TMC3    C3 6352   2.247   0.126  16.803 -0.2328 -0.4035 -0.1169
  426TMC3    C4 6353   2.316   0.373  16.885  0.5879  0.5268  0.2670
  426TMC3    C5 6354   2.399   0.274  16.900  0.3234 -0.7304  0.1481
  426TMC3    C6 6355   2.367   0.145  16.860  0.6985 -0.1266  0.6062
  426TMC3     C 6356   2.092   0.444  16.817 -0.0687  0.0061 -0.3659
  426TMC3     O 6357   1.977   0.404  16.812  0.3246 -0.6231  0.2294
  426TMC3     H 6358   2.065   0.209  16.733 -1.9407  0.4167  1.4733
  426TMC3    H1 6359   2.356   0.470  16.912 -0.0268  1.3756 -1.8097
  426TMC3    H2 6360   2.442   0.066  16.861  0.6847 -0.0989  2.7251
  426TMC3    C7 6361   2.503   0.288  17.002 -0.2093  0.6803 -0.2447
  426TMC3    C8 6362   2.243   0.013  16.711  0.4019  0.3485  0.0234
  426TMC3    O1 6363   2.481   0.383  17.081  0.0825 -0.3667  0.1681
  426TMC3    O2 6364   2.346   4.678  16.698 -0.1310  0.9100  0.1716
  427MPD2     C 6365   0.816   2.907  14.521 -0.1647  0.1586  0.0954
  427MPD2    C1 6366   0.770   2.851  14.637 -0.7347 -0.5238  0.0874
  427MPD2    C2 6367   0.636   2.866  14.663 -0.0316 -0.4367 -0.1326
  427MPD2    C3 6368   0.548   2.945  14.585 -0.0971 -0.5228 -0.1848
  427MPD2    C4 6369   0.601   3.006  14.478 -0.0400  0.2021  0.8421
  427MPD2    C5 6370   0.731   2.977  14.436 -0.0016 -0.6235 -0.0263
  427MPD2     H 6371   0.596   2.815  14.749  0.8300  0.1316  0.6090
  427MPD2    H1 6372   0.542   3.077  14.420  1.0295  0.4324  0.0383
  427MPD2    H2 6373   0.915   2.886  14.482 -0.2571  0.0888 -0.0975
  427MPD2    H3 6374   0.776   3.011  14.344 -0.7791  1.7198  0.4631
  427MPD2     N 6375   0.407   2.966  14.618  0.1889 -0.3361  0.4590
  427MPD2    H5 6376   0.348   3.006  14.546  1.3629  1.6754  0.6070
  427MPD2    N1 6377   0.852   2.765  14.709  0.0994  0.3515  0.2593
  427MPD2    H7 6378   0.810   2.707  14.781 -0.3343  1.5460  0.9771
  428TMC3    C1 6379   1.040   2.673  14.791 -0.5638  0.2045  0.5772
  428TMC3    C2 6380   0.967   2.558  14.816  0.7608  0.4484 -0.4017
  428TMC3    C3 6381   1.014   2.471  14.915  0.1696 -0.4545 -0.2175
  428TMC3    C4 6382   1.152   2.699  14.861  0.5955  0.9475  0.2446
  428TMC3    C5 6383   1.190   2.619  14.969 -0.0420  0.3021  0.1432
  428TMC3    C6 6384   1.124   2.501  14.988 -0.4858  0.4331  0.2405
  428TMC3     C 6385   0.984   2.770  14.716  0.4770 -0.5707  0.3124
  428TMC3     O 6386   1.060   2.846  14.658 -0.4948 -0.5126  0.7175
  428TMC3     H 6387   0.873   2.539  14.766  1.5847  0.1905 -1.8633
  428TMC3    H1 6388   1.201   2.792  14.834  2.4294 -0.0084  0.2693
  428TMC3    H2 6389   1.160   2.428  15.059 -0.3618 -0.6606 -0.9474
  428TMC3    C7 6390   1.328   2.627  15.020 -0.6993  0.3646  0.0958
  428TMC3    C8 6391   0.974   2.329  14.914 -0.9246 -0.9740  0.5888
  428TMC3    O1 6392   1.357   2.561  15.118  0.4005 -0.1992  0.4889
  428TMC3    O2 6393   1.041   2.245  14.977 -0.6578 -0.0308 -0.5543
  429MPD2     C 6394   1.756   2.907  17.403 -0.1561 -0.5669  0.1365
  429MPD2    C1 6395   1.790   2.853  17.280  0.2304 -0.2368 -0.1614
  429MPD2    C2 6396   1.861   2.926  17.186 -0.2978 -0.3561 -0.5656
  429MPD2    C3 6397   1.888   3.059  17.212  0.0882 -0.4467  0.1164
  429MPD2    C4 6398   1.848   3.111  17.334  0.0224 -0.3241 -1.0176
  429MPD2    C5 6399   1.785   3.037  17.428  0.3211  0.7806 -0.4631
  429MPD2     H 6400   1.902   2.871  17.102 -0.1819  0.7044 -1.2049
  429MPD2    H1 6401   1.867   3.213  17.366 -1.8750 -0.2290 -0.1884
  429MPD2    H2 6402   1.693   2.852  17.472  1.7450  0.0573  2.3738
  429MPD2    H3 6403   1.764   3.080  17.525 -0.2787 -0.1776 -0.1642
  429MPD2     N 6404   1.958   3.132  17.114 -0.2303  0.3156 -0.7389
  429MPD2    H5 6405   1.997   3.091  17.029 -1.3099  0.2656 -1.2087
  429MPD2    N1 6406   1.759   2.719  17.242  0.6938 -0.2259  0.4410
  429MPD2    H7 6407   1.755   2.701  17.143 -0.2403  0.3954  0.3642
  430TMC3    C1 6408   2.088   3.315  17.034  0.3043  0.1394 -0.6691
  430TMC3    C2 6409   2.085   3.448  17.005  0.6579 -0.1773  0.6438
  430TMC3    C3 6410   2.177   3.495  16.917  0.6482  0.3004  0.2037
  430TMC3    C4 6411   2.185   3.228  16.987  0.5625  0.0076 -0.4274
  430TMC3    C5 6412   2.284   3.284  16.914 -0.1219 -0.3867  0.0019
  430TMC3    C6 6413   2.292   3.418  16.892 -0.0567  0.1474 -0.2274
  430TMC3     C 6414   1.979   3.273  17.118  0.5802  0.0847  0.0577
  430TMC3     O 6415   1.918   3.361  17.181 -0.2013  0.6168  0.0260
  430TMC3     H 6416   1.994   3.503  17.026  0.5061  0.2214 -1.1203
  430TMC3    H1 6417   2.177   3.120  16.992  0.5517  0.1660  2.9903
  430TMC3    H2 6418   2.382   3.462  16.848 -0.7869  1.5409 -0.3327
  430TMC3    C7 6419   2.346   3.198  16.822  0.0080 -0.0919 -0.2485
  430TMC3    C8 6420   2.138   3.559  16.796  0.1718  0.0533  0.0112
  430TMC3    O1 6421   2.326   3.079  16.837 -0.2515  0.0350 -0.2267
  430TMC3    O2 6422   2.216   3.528  16.709  0.2633  0.0696 -0.1470
  431MPD2     C 6423   2.811   2.960  12.240 -0.2319 -0.8816 -0.1064
  431MPD2    C1 6424   2.857   3.005  12.122  0.2716 -0.0085 -0.0012
  431MPD2    C2 6425   2.851   2.922  12.014  0.2279  0.0049  0.7369
  431MPD2    C3 6426   2.787   2.795  12.019 -0.4543  0.0352  0.4835
  431MPD2    C4 6427   2.741   2.749  12.143  0.6274 -0.4033 -0.0354
  431MPD2    C5 6428   2.754   2.833  12.251 -0.6634  0.5147  0.1255
  431MPD2     H 6429   2.896   2.954  11.921  2.0200  0.0453  1.6222
  431MPD2    H1 6430   2.696   2.650  12.153  0.1941 -0.1243  0.7848
  431MPD2    H2 6431   2.815   3.023  12.329 -1.1123 -1.6467  0.4694
  431MPD2    H3 6432   2.731   2.809  12.354  2.3570  1.0562  0.9424
  431MPD2     N 6433   2.763   2.709  11.908  0.0667  0.4077 -1.1223
  431MPD2    H5 6434   2.719   2.619  11.918  0.9728 -0.0557 -1.3411
  431MPD2    N1 6435   2.915   3.136  12.101  0.2978 -0.2395  0.1990
  431MPD2    H7 6436   2.947   3.160  12.008 -1.7920  1.0049 -0.1848
  432TMC3    C1 6437   2.768   2.627  11.683 -0.6822  0.0980  0.1844
  432TMC3    C2 6438   2.865   2.612  11.586  0.1477 -0.7721  0.1640
  432TMC3    C3 6439   2.863   2.479  11.533  0.4057 -0.0705 -0.8749
  432TMC3    C4 6440   2.671   2.539  11.710  0.0091 -0.3187 -0.8299
  432TMC3    C5 6441   2.665   2.426  11.637 -0.2060  0.1100  0.3893
  432TMC3    C6 6442   2.763   2.386  11.559  0.5373  0.2000 -0.5003
  432TMC3     C 6443   2.799   2.737  11.781 -0.1763  0.1856 -0.2082
  432TMC3     O 6444   2.864   2.826  11.734 -0.2773 -0.1364  0.5779
  432TMC3     H 6445   2.936   2.688  11.554 -0.0258 -0.4794  0.4729
  432TMC3    H1 6446   2.588   2.563  11.776  1.6433  0.6318  0.8752
  432TMC3    H2 6447   2.778   2.289  11.513  0.6080 -0.4228  0.8475
  432TMC3    C7 6448   2.548   2.346  11.671 -0.1303  0.1301  0.3130
  432TMC3    C8 6449   2.992   2.424  11.482 -0.0044  0.1051 -0.1130
  432TMC3    O1 6450   2.475   2.298  11.583 -0.3844 -0.8557  0.1103
  432TMC3    O2 6451   2.993   2.318  11.418 -0.9729 -0.2672  0.3456
  433MPD2     C 6452   1.589   1.986  10.795 -0.4055  0.1840 -0.2798
  433MPD2    C1 6453   1.488   1.921  10.853  1.1570  0.8949  0.0188
  433MPD2    C2 6454   1.453   1.951  10.981  0.2206  0.0609 -0.2861
  433MPD2    C3 6455   1.527   2.043  11.053  0.1184 -0.2448 -0.2957
  433MPD2    C4 6456   1.637   2.100  11.001  0.3804 -0.3397  0.3097
  433MPD2    C5 6457   1.667   2.068  10.873  0.3005 -0.2349 -0.1470
  433MPD2     H 6458   1.368   1.907  11.032  0.2399  1.9183  1.3206
  433MPD2    H1 6459   1.693   2.182  11.045  0.4791 -1.8638  2.9682
  433MPD2    H2 6460   1.615   1.967  10.691  0.5735 -2.1779  0.3868
  433MPD2    H3 6461   1.752   2.114  10.824 -0.0590  0.8461  0.2330
  433MPD2     N 6462   1.486   2.059  11.187 -0.4564  0.1090  0.5175
  433MPD2    H5 6463   1.418   1.993  11.224 -0.3185 -2.4916 -3.8746
  433MPD2    N1 6464   1.425   1.828  10.763 -0.0667  0.2649 -0.0263
  433MPD2    H7 6465   1.478   1.807  10.679 -0.9381  0.2220 -0.5565
  434TMC3    C1 6466   1.297   1.653  10.692 -0.6781  0.4501  0.2013
  434TMC3    C2 6467   1.310   1.537  10.763  0.3455 -0.3935  0.3549
  434TMC3    C3 6468   1.391   1.444  10.707  1.0443  0.1052  0.3998
  434TMC3    C4 6469   1.350   1.666  10.566 -0.0117 -0.8865 -0.1944
  434TMC3    C5 6470   1.415   1.562  10.510  0.5115  0.5740  0.6490
  434TMC3    C6 6471   1.440   1.447  10.581  0.1655  0.4231 -0.5964
  434TMC3     C 6472   1.317   1.760  10.784  0.1598  0.6224 -0.3490
  434TMC3     O 6473   1.247   1.754  10.885 -0.1149  0.1280 -0.2283
  434TMC3     H 6474   1.289   1.521  10.868 -0.1002 -0.1047  0.3091
  434TMC3    H1 6475   1.371   1.762  10.521  0.0906 -0.0314  1.6458
  434TMC3    H2 6476   1.492   1.366  10.531  0.5633  1.2124 -1.4396
  434TMC3    C7 6477   1.401   1.558  10.367 -0.2843  0.4852  0.3238
  434TMC3    C8 6478   1.468   1.363  10.801  0.1015  0.3718  0.1504
  434TMC3    O1 6479   1.414   1.656  10.299 -0.5544  0.4223  0.1316
  434TMC3    O2 6480   1.528   1.416  10.892 -0.2356 -0.7488 -0.1642
  435MPD2     C 6481   3.686   1.275  15.117 -0.7318  0.3920 -0.3404
  435MPD2    C1 6482   3.680   1.334  15.240  0.0877 -0.6343 -0.0627
  435MPD2    C2 6483   3.778   1.313  15.339 -0.0664 -0.3644  0.2944
  435MPD2    C3 6484   3.880   1.229  15.313 -0.4021 -0.0010  0.1857
  435MPD2    C4 6485   3.900   1.185  15.185  0.0106  0.2283 -0.4853
  435MPD2    C5 6486   3.810   1.210  15.089  0.0515 -0.1684 -0.3413
  435MPD2     H 6487   3.757   1.344  15.440  0.0252  0.7886 -0.0367
  435MPD2    H1 6488   3.977   1.115  15.156  0.8635  0.4399  1.2557
  435MPD2    H2 6489   3.608   1.279  15.043  0.2667 -1.5160 -1.5062
  435MPD2    H3 6490   3.818   1.162  14.992  0.1026 -2.6880  0.8982
  435MPD2     N 6491   3.961   1.188  15.424 -0.1092 -0.1295 -0.2086
  435MPD2    H5 6492   3.933   1.230  15.512 -0.8884 -2.3092  0.5725
  435MPD2    N1 6493   3.568   1.401  15.289 -0.8456  0.1084 -0.0549
  435MPD2    H7 6494   3.558   1.409  15.390  0.0696  0.4815  0.0139
  436TMC3    C1 6495   3.317   1.645  15.487 -0.4875  0.3222  0.6740
  436TMC3    C2 6496   3.418   1.585  15.417  0.7614  0.7575 -0.3980
  436TMC3    C3 6497   3.387   1.553  15.283 -1.4200  0.1559  0.2330
  436TMC3    C4 6498   3.200   1.692  15.423  0.2868 -0.5213 -0.3115
  436TMC3    C5 6499   3.186   1.669  15.292  0.6714  0.3750  0.1788
  436TMC3    C6 6500   3.272   1.592  15.219  0.3955  0.0667  0.3589
  436TMC3     C 6501   3.351   1.716  15.608 -0.0476  0.4773  0.3668
  436TMC3     O 6502   3.471   1.739  15.624 -0.3070 -0.1329 -0.3690
  436TMC3     H 6503   3.507   1.566  15.476  0.4130  0.5518  0.0625
  436TMC3    H1 6504   3.123   1.754  15.467  0.7597 -0.6118  0.6577
  436TMC3    H2 6505   3.246   1.569  15.116  0.0788 -0.5872  0.5851
  436TMC3    C7 6506   3.084   1.732  15.224 -0.4246  0.1723 -0.1658
  436TMC3    C8 6507   3.478   1.469  15.215  0.4699 -0.6445  0.8328
  436TMC3    O1 6508   2.997   1.663  15.173 -0.0840  0.0804 -0.6241
  436TMC3    O2 6509   3.472   1.464  15.094  0.1774  0.0733  0.4684
  437TMC3    C1 6510   2.257   3.707  12.462  0.3778 -0.1354  0.2636
  437TMC3    C2 6511   2.120   3.752  12.455  0.1185 -0.3720 -0.2328
  437TMC3    C3 6512   2.084   3.842  12.356 -0.0238 -0.2246  0.0335
  437TMC3    C4 6513   2.346   3.745  12.363  0.7121 -0.9289 -0.8610
  437TMC3    C5 6514   2.302   3.834  12.272 -0.0175 -0.8641 -1.1744
  437TMC3    C6 6515   2.172   3.882  12.268 -0.8359 -0.7204  0.1070
  437TMC3     C 6516   2.285   3.605  12.560 -0.4753  1.1604  0.6980
  437TMC3     O 6517   2.194   3.560  12.627 -0.1818  0.5692 -0.5141
  437TMC3     H 6518   2.049   3.717  12.529 -1.9371 -0.1236 -2.0906
  437TMC3    H1 6519   2.448   3.709  12.366  0.6884 -0.8551  0.9823
  437TMC3    H2 6520   2.135   3.956  12.197 -1.7234 -1.1276  0.1463
  437TMC3    C7 6521   2.402   3.890  12.176  0.0398  0.1217 -0.0411
  437TMC3    C8 6522   1.945   3.884  12.349 -0.6416 -0.0596  0.1570
  437TMC3    O1 6523   2.362   3.931  12.069  0.0651  0.1211 -0.4216
  437TMC3    O2 6524   1.880   3.835  12.439  0.1688 -0.0162 -0.0299
  438MPD2     C 6525   4.409   3.935  16.494 -0.3373 -0.1353 -0.5346
  438MPD2    C1 6526   4.523   3.860  16.494  0.2749 -0.0702  0.3119
  438MPD2    C2 6527   4.544   3.759  16.595  0.4212  0.1209  1.3884
  438MPD2    C3 6528   4.444   3.731  16.689 -0.3343 -0.0396  0.3385
  438MPD2    C4 6529   4.326   3.813  16.688 -0.4022  0.4414  0.2657
  438MPD2    C5 6530   4.319   3.915  16.595 -0.1095  0.7344  0.3984
  438MPD2     H 6531   4.635   3.700  16.595 -0.1481 -0.7817 -1.0343
  438MPD2    H1 6532   4.253   3.813  16.768  1.9737 -0.2875  2.4260
  438MPD2    H2 6533   4.403   4.027  16.435 -1.4918 -0.2870 -0.6661
  438MPD2    H3 6534   4.238   3.984  16.611  1.6518  3.1974 -1.3560
  438MPD2     N 6535   4.451   3.625  16.790 -0.4933  0.0585  0.3834
  438MPD2    H5 6536   4.387   3.624  16.869  0.2164  1.8172  0.9861
  438MPD2    N1 6537   4.639   3.896  16.416 -0.1380  0.4486  0.0924
  438MPD2    H7 6538   0.003   3.863  16.452 -0.4030  2.3364  2.5189
  439TMC3    C1 6539   0.075   4.030  16.306 -0.6723  0.2750  0.2931
  439TMC3    C2 6540   0.106   4.101  16.197  0.6118  0.0772  0.5816
  439TMC3    C3 6541   0.238   4.137  16.175 -0.3119 -0.0634 -0.3847
  439TMC3    C4 6542   0.172   3.984  16.394  0.1135  0.2313 -0.1038
  439TMC3    C5 6543   0.303   4.028  16.375 -0.4054 -0.5735 -0.8169
  439TMC3    C6 6544   0.334   4.116  16.270 -0.2912  0.1183  0.2651
  439TMC3     C 6545   4.653   4.001  16.334 -0.9258 -0.3505  0.1897
  439TMC3     O 6546   4.568   4.052  16.262 -0.3743  0.2540 -0.2517
  439TMC3     H 6547   0.030   4.124  16.122 -0.5751  0.5582  1.9441
  439TMC3    H1 6548   0.155   3.923  16.483  1.4183 -2.3383 -1.6048
  439TMC3    H2 6549   0.437   4.136  16.241 -0.3120 -1.4444 -0.8653
  439TMC3    C7 6550   0.405   3.938  16.415  0.0533  0.7078  0.8509
  439TMC3    C8 6551   0.287   4.085  16.049  0.1596 -0.5272  0.0438
  439TMC3    O1 6552   0.509   3.994  16.451  0.0274 -0.1623 -0.1442
  439TMC3    O2 6553   0.372   3.997  16.046  0.2722 -0.1451  0.3244
  440MPD2     C 6554   3.666   4.401  14.525 -0.1213  0.2793  0.6279
  440MPD2    C1 6555   3.706   4.499  14.611  0.0790  0.1854 -0.4341
  440MPD2    C2 6556   3.831   4.477  14.674 -0.3836 -0.0196  0.4567
  440MPD2    C3 6557   3.907   4.366  14.659  0.2478  0.4825  0.2325
  440MPD2    C4 6558   3.856   4.266  14.577 -0.4323 -0.2446  0.1720
  440MPD2    C5 6559   3.742   4.286  14.508  0.5532 -0.0042 -0.3269
  440MPD2     H 6560   3.868   4.554  14.741  0.5007  0.3694 -0.4798
  440MPD2    H1 6561   3.912   4.175  14.559 -0.6588  0.6242 -4.8112
  440MPD2    H2 6562   3.568   4.414  14.480 -0.3745  2.1718  1.7081
  440MPD2    H3 6563   3.716   4.202  14.444  0.7912 -0.2952 -0.0386
  440MPD2     N 6564   4.030   4.347  14.724 -0.1731 -0.7581  0.4728
  440MPD2    H5 6565   4.074   4.257  14.707 -2.1493 -1.3024 -1.7668
  440MPD2    N1 6566   3.625   4.606  14.653 -0.4154  0.7239  0.3841
  440MPD2    H7 6567   3.659   4.659  14.733 -2.0603  1.5060  0.5688
  441TMC3    C1 6568   4.208   4.378  14.868  0.4846  0.3547  0.2666
  441TMC3    C2 6569   4.281   4.481  14.924  0.0307 -0.1022  0.4470
  441TMC3    C3 6570   4.316   4.464  15.052  0.2630 -0.1421 -0.4822
  441TMC3    C4 6571   4.186   4.260  14.932 -0.5580 -0.0482 -0.0735
  441TMC3    C5 6572   4.240   4.247  15.057  0.1756  0.6556 -0.0080
  441TMC3    C6 6573   4.288   4.355  15.131  0.1986  0.0524  0.0623
  441TMC3     C 6574   4.093   4.432  14.805 -0.2871 -0.3682  0.0446
  441TMC3     O 6575   4.084   4.556  14.810 -0.0242  0.0502  0.5111
  441TMC3     H 6576   4.300   4.573  14.869 -1.6855  0.4673  0.7938
  441TMC3    H1 6577   4.122   4.181  14.897 -1.2324  0.1790  0.6616
  441TMC3    H2 6578   4.304   4.358  15.238  0.3951  0.3366  0.0234
  441TMC3    C7 6579   4.209   4.125  15.133  1.1311  0.5668  0.0735
  441TMC3    C8 6580   4.295   4.577  15.136 -0.1042 -0.4814 -0.3378
  441TMC3    O1 6581   4.153   4.033  15.070  0.1539  0.0918 -0.0397
  441TMC3    O2 6582   4.376   4.613  15.219  0.1616 -0.3971  0.1040
  442MPD2     C 6583   1.805   0.613  16.085 -0.3139  0.3337 -0.6395
  442MPD2    C1 6584   1.692   0.553  16.145 -0.5488  0.9316  0.1134
  442MPD2    C2 6585   1.700   0.409  16.139 -0.0287 -0.3750 -0.1354
  442MPD2    C3 6586   1.813   0.335  16.094 -0.4723 -0.0209  0.2351
  442MPD2    C4 6587   1.922   0.408  16.044  0.0812 -0.4481 -0.0853
  442MPD2    C5 6588   1.907   0.542  16.032  0.6402  0.9780  0.5626
  442MPD2     H 6589   1.617   0.349  16.176  0.1325 -1.0166 -0.8088
  442MPD2    H1 6590   2.005   0.352  16.004 -1.6087 -1.1044 -2.6937
  442MPD2    H2 6591   1.815   0.721  16.076 -1.5942  0.5045  0.0905
  442MPD2    H3 6592   1.994   0.591  15.990  0.8486 -0.6458 -0.8925
  442MPD2     N 6593   1.834   0.195  16.094 -0.4449  0.0742 -0.4386
  442MPD2    H5 6594   1.927   0.163  16.071 -1.1246 -1.3419 -1.2137
  442MPD2    N1 6595   1.587   0.619  16.209  0.4519 -0.0186 -0.2652
  442MPD2    H7 6596   1.505   0.561  16.222  0.2709  0.1138 -0.8280
  443TMC3    C1 6597   1.437   0.788  16.268  0.6913  0.8652 -0.4755
  443TMC3    C2 6598   1.392   0.899  16.207  0.0464  0.5324  0.6121
  443TMC3    C3 6599   1.259   0.907  16.203 -0.4285  0.3577  0.9927
  443TMC3    C4 6600   1.360   0.681  16.308  0.1222  0.0331  0.2330
  443TMC3    C5 6601   1.225   0.708  16.310  0.0539 -0.2321 -0.1022
  443TMC3    C6 6602   1.172   0.823  16.261 -0.3424  0.1890  0.5071
  443TMC3     C 6603   1.572   0.757  16.215 -0.7003  0.1289  0.3761
  443TMC3     O 6604   1.651   0.844  16.194  0.2724  0.2373 -0.0019
  443TMC3     H 6605   1.443   0.965  16.139 -0.3535  0.4665  0.2464
  443TMC3    H1 6606   1.398   0.600  16.370  1.2250  1.5238  1.5031
  443TMC3    H2 6607   1.067   0.850  16.252 -0.0133  1.4637  0.5040
  443TMC3    C7 6608   1.126   0.602  16.332 -0.1159 -0.5422 -0.9162
  443TMC3    C8 6609   1.192   1.008  16.119  1.2003  0.0076  0.3065
  443TMC3    O1 6610   1.033   0.630  16.407  0.0681  0.1942 -0.3660
  443TMC3    O2 6611   1.102   1.068  16.181  0.1406  0.1286  0.6863
  444MPD2     C 6612   2.154   4.441  16.868  0.1405  0.0502  0.6136
  444MPD2    C1 6613   2.050   4.366  16.812 -0.2425  0.2442 -0.1967
  444MPD2    C2 6614   2.079   4.245  16.757  0.0988 -0.5529 -0.6705
  444MPD2    C3 6615   2.213   4.197  16.753  0.2051 -0.4325  0.6404
  444MPD2    C4 6616   2.309   4.272  16.816  0.3949  0.8341  0.7973
  444MPD2    C5 6617   2.279   4.390  16.868 -0.2736 -0.0128  0.2718
  444MPD2     H 6618   2.005   4.171  16.729  0.6972 -2.0195  1.6342
  444MPD2    H1 6619   2.410   4.234  16.813  0.7171  1.7179  0.6817
  444MPD2    H2 6620   2.136   4.532  16.924 -3.3911 -1.9930  2.7620
  444MPD2    H3 6621   2.362   4.454  16.897  0.9203 -0.8159 -1.3795
  444MPD2     N 6622   2.235   4.070  16.696  0.0116 -0.3741 -0.3501
  444MPD2    H5 6623   2.168   4.026  16.635  0.5469 -1.8512  0.1372
  444MPD2    N1 6624   1.908   4.407  16.825  0.1005 -0.5713 -0.2751
  444MPD2    H7 6625   1.836   4.351  16.780 -0.5862 -1.1404  1.5664
  445TMC3    C1 6626   2.348   3.877  16.628  0.3088  0.9392 -0.6645
  445TMC3    C2 6627   2.230   3.847  16.575  0.6563 -0.1452 -0.1680
  445TMC3    C3 6628   2.243   3.784  16.455 -0.2075 -1.0074 -0.2279
  445TMC3    C4 6629   2.470   3.831  16.592  0.1741 -0.4179 -0.1627
  445TMC3    C5 6630   2.473   3.756  16.476  0.2180 -0.3507  0.5385
  445TMC3    C6 6631   2.363   3.742  16.400  0.4709 -0.2163 -0.2934
  445TMC3     C 6632   2.358   4.004  16.701  0.2837  0.5288 -0.9649
  445TMC3     O 6633   2.451   4.032  16.771  0.1962 -0.4397  0.3948
  445TMC3     H 6634   2.131   3.871  16.612  1.2936  0.7432  0.9684
  445TMC3    H1 6635   2.564   3.865  16.634 -0.2005  1.7095 -1.0894
  445TMC3    H2 6636   2.355   3.680  16.311  2.4208 -1.1265  0.1667
  445TMC3    C7 6637   2.594   3.701  16.415  0.6489 -0.3285  0.1766
  445TMC3    C8 6638   2.141   3.837  16.364  0.4330  0.3503 -0.0360
  445TMC3    O1 6639   2.575   3.639  16.312  0.0587  0.2074  0.2244
  445TMC3    O2 6640   2.093   3.941  16.401 -0.3953 -0.2414  0.3891
  446MPD2     C 6641   1.346   1.285  11.394 -0.3768  0.3084  0.9597
  446MPD2    C1 6642   1.350   1.261  11.259  0.1855  0.2337  0.4280
  446MPD2    C2 6643   1.402   1.349  11.171  0.1146  0.2317 -0.2953
  446MPD2    C3 6644   1.465   1.464  11.220  0.8332 -0.8898 -0.3508
  446MPD2    C4 6645   1.457   1.493  11.356 -0.1985 -0.3773  0.4855
  446MPD2    C5 6646   1.404   1.398  11.438 -0.0330 -0.9930 -0.0033
  446MPD2     H 6647   1.391   1.342  11.063 -2.2289  2.1072 -0.1990
  446MPD2    H1 6648   1.495   1.583  11.402  0.8851 -0.9586  0.7254
  446MPD2    H2 6649   1.320   1.214  11.471 -0.0892 -0.4931  0.3343
  446MPD2    H3 6650   1.405   1.414  11.545  0.4929  1.1120 -0.3199
  446MPD2     N 6651   1.531   1.544  11.122 -0.4896 -0.4877 -0.3374
  446MPD2    H5 6652   1.546   1.499  11.032 -0.3926  0.5806 -0.8566
  446MPD2    N1 6653   1.290   1.148  11.201  0.3253 -0.5386  0.5967
  446MPD2    H7 6654   1.272   1.150  11.101 -1.0350  0.2559  0.8503
  447TMC3    C1 6655   1.719   1.661  11.047  0.1548 -0.0348  0.0576
  447TMC3    C2 6656   1.686   1.664  10.916 -0.0763  0.3177  0.6614
  447TMC3    C3 6657   1.786   1.687  10.832 -0.4898 -1.0481  0.5474
  447TMC3    C4 6658   1.842   1.688  11.097  0.2992 -0.0084 -0.1973
  447TMC3    C5 6659   1.945   1.710  11.002 -0.8974 -0.7667 -0.8509
  447TMC3    C6 6660   1.917   1.702  10.867 -1.0078 -0.0723  0.4770
  447TMC3     C 6661   1.617   1.653  11.147  0.5178 -0.8955 -0.2589
  447TMC3     O 6662   1.630   1.718  11.253  0.5558  0.3297  0.4682
  447TMC3     H 6663   1.582   1.667  10.886  0.1840  0.8943 -0.1566
  447TMC3    H1 6664   1.858   1.665  11.202 -1.9751  0.3858  0.2228
  447TMC3    H2 6665   1.997   1.715  10.795 -1.2438  1.7340  0.5444
  447TMC3    C7 6666   2.080   1.667  11.020 -0.3947 -0.6643  0.0277
  447TMC3    C8 6667   1.764   1.676  10.688  0.3318 -0.3241 -0.1096
  447TMC3    O1 6668   2.157   1.644  10.928 -0.3847 -0.0809  0.5148
  447TMC3    O2 6669   1.659   1.714  10.639  0.2578 -0.4304  0.2530
  448TMC3    C1 6670   4.660   1.136  16.731 -0.0891 -0.5006  0.2838
  448TMC3    C2 6671   4.635   1.060  16.620  0.6182 -0.0082 -0.4399
  448TMC3    C3 6672   4.645   0.920  16.642 -0.2487  0.1023  0.4027
  448TMC3    C4 6673   4.693   1.084  16.852 -0.0619 -0.0078 -0.0063
  448TMC3    C5 6674   4.711   0.955  16.863 -0.4660  0.3574  0.1685
  448TMC3    C6 6675   4.683   0.868  16.761  0.6849 -0.1119  1.1309
  448TMC3     C 6676   4.596   1.262  16.729  0.1538 -0.0456  0.1391
  448TMC3     O 6677   4.515   1.287  16.813 -0.7308  0.0959 -0.5738
  448TMC3     H 6678   4.632   1.101  16.520 -0.2907  0.2961 -0.2874
  448TMC3    H1 6679   4.690   1.139  16.945  0.1751 -1.1171  0.6675
  448TMC3    H2 6680   4.692   0.761  16.777 -1.5834 -0.4559  0.0305
  448TMC3    C7 6681   0.027   0.897  16.986  0.0547 -0.0457 -0.2757
  448TMC3    C8 6682   4.649   0.834  16.528 -0.1263 -1.3141  0.4505
  448TMC3    O1 6683   4.720   0.780  17.006  0.0141 -0.0667 -0.1387
  448TMC3    O2 6684   4.704   0.726  16.540  0.0879 -0.8028 -0.6299
  449MPD2     C 6685   1.580   4.366  13.927 -0.4778  0.0617 -0.0988
  449MPD2    C1 6686   1.539   4.243  13.963 -0.5322  0.1680 -0.8048
  449MPD2    C2 6687   1.595   4.190  14.073 -0.0000 -0.8483 -0.3571
  449MPD2    C3 6688   1.697   4.248  14.139  0.1909  0.1141 -0.1607
  449MPD2    C4 6689   1.725   4.376  14.112 -0.2912 -0.3646  0.0269
  449MPD2    C5 6690   1.664   4.441  14.006  0.0726  0.0120  0.7361
  449MPD2     H 6691   1.563   4.088  14.090  0.1276 -0.6951  0.7838
  449MPD2    H1 6692   1.787   4.440  14.173  0.2830 -0.1147 -0.8179
  449MPD2    H2 6693   1.535   4.416  13.842 -1.4003 -1.2647 -0.3767
  449MPD2    H3 6694   1.679   4.549  14.004 -1.9153  0.2943  0.7084
  449MPD2     N 6695   1.752   4.178  14.247 -0.1045  0.0714 -0.2145
  449MPD2    H5 6696   1.728   4.080  14.257 -1.3612  0.3431 -0.5363
  449MPD2    N1 6697   1.437   4.162  13.894  0.0808  0.6585 -0.0593
  449MPD2    H7 6698   1.403   4.080  13.943  1.8336 -0.1311 -0.2042
  450TMC3    C1 6699   1.287   4.058  13.751  0.0667 -0.2090  0.0457
  450TMC3    C2 6700   1.316   3.975  13.644  0.2218  0.4874  0.5114
  450TMC3    C3 6701   1.298   3.840  13.667  0.5471 -0.3369  0.0568
  450TMC3    C4 6702   1.230   4.017  13.866 -0.4614  0.0066 -0.0394
  450TMC3    C5 6703   1.221   3.883  13.894 -0.2182 -0.3847 -0.2185
  450TMC3    C6 6704   1.251   3.793  13.788 -0.1696  0.4807 -0.2779
  450TMC3     C 6705   1.385   4.164  13.764  0.7338 -0.0112  0.4571
  450TMC3     O 6706   1.426   4.228  13.674  0.3329  0.5681  0.0095
  450TMC3     H 6707   1.353   4.011  13.549  3.1517  0.0679  1.4669
  450TMC3    H1 6708   1.222   4.074  13.958  0.8372  1.7164 -0.9738
  450TMC3    H2 6709   1.269   3.691  13.820 -1.5916  1.0940  2.4834
  450TMC3    C7 6710   1.306   3.850  14.006  0.8412  0.5501 -0.0057
  450TMC3    C8 6711   1.337   3.724  13.582 -0.0137  0.6137  0.0081
  450TMC3    O1 6712   1.386   3.936  14.031 -0.0445 -0.2054 -0.7848
  450TMC3    O2 6713   1.332   3.606  13.621 -0.6978  0.0710  0.9458
  451MPD2     C 6714   2.570   3.329   1.120 -0.0879  0.0142 -0.7541
  451MPD2    C1 6715   2.571   3.431   1.024  0.0383 -0.3840  0.4671
  451MPD2    C2 6716   2.671   3.427   0.931  0.4698 -0.3511  0.9878
  451MPD2    C3 6717   2.767   3.331   0.950  0.9126  0.4615 -0.1668
  451MPD2    C4 6718   2.773   3.246   1.057 -0.3137  0.1394  0.4274
  451MPD2    C5 6719   2.664   3.234   1.138 -0.0481 -0.2879 -0.7075
  451MPD2     H 6720   2.675   3.501   0.852  1.2629 -1.2926  0.1456
  451MPD2    H1 6721   2.852   3.171   1.064  0.2062  0.5996 -0.5448
  451MPD2    H2 6722   2.480   3.322   1.180 -0.5125  1.8895 -1.1894
  451MPD2    H3 6723   2.657   3.164   1.221  1.9550  0.6131  0.2282
  451MPD2     N 6724   2.880   3.319   0.871 -0.9297 -0.0421  0.2355
  451MPD2    H5 6725   2.945   3.243   0.892 -0.0963  0.8125  0.7373
  451MPD2    N1 6726   2.464   3.523   1.035 -0.7273 -0.2132 -0.0484
  451MPD2    H7 6727   2.411   3.519   1.122  1.6668  2.4930  1.4967
  452TMC3    C1 6728   3.044   3.364   0.693 -0.1500  0.3402 -0.0890
  452TMC3    C2 6729   3.144   3.280   0.739 -0.3897  0.3437  0.3910
  452TMC3    C3 6730   3.255   3.256   0.667 -0.0462 -0.7165  0.0758
  452TMC3    C4 6731   3.052   3.407   0.555  0.1476 -0.4512 -0.7570
  452TMC3    C5 6732   3.172   3.383   0.485 -0.1138  0.3567  0.4795
  452TMC3    C6 6733   3.276   3.306   0.540 -0.0544  0.1035  0.0423
  452TMC3     C 6734   2.916   3.397   0.761 -0.2291  0.4326 -0.4615
  452TMC3     O 6735   2.862   3.494   0.709 -0.0749 -0.4097 -0.1884
  452TMC3     H 6736   3.145   3.247   0.842  1.0627  1.4924  0.7456
  452TMC3    H1 6737   2.974   3.466   0.508  0.1314 -0.2481 -0.4786
  452TMC3    H2 6738   3.352   3.269   0.472  1.1788 -0.5331  1.7753
  452TMC3    C7 6739   3.192   3.417   0.343 -0.1602 -0.0015 -0.7823
  452TMC3    C8 6740   3.343   3.147   0.718 -0.5733 -0.0781  0.2168
  452TMC3    O1 6741   3.284   3.357   0.288  0.4246 -0.2035  0.7788
  452TMC3    O2 6742   3.290   3.075   0.803 -0.3118  0.0260 -0.1066
  453TMC3    C1 6743   3.914   0.275  10.994  0.3148 -0.9717 -0.5027
  453TMC3    C2 6744   3.813   0.187  11.040  0.0740 -0.4720 -0.5722
  453TMC3    C3 6745   3.733   0.136  10.943  0.2734 -0.8941  0.0170
  453TMC3    C4 6746   3.922   0.323  10.866 -0.0804 -0.2688 -0.3195
  453TMC3    C5 6747   3.829   0.278  10.776 -0.4510 -0.1170 -0.0158
  453TMC3    C6 6748   3.732   0.188  10.818 -0.3986 -0.1174 -0.5757
  453TMC3     C 6749   4.001   0.345  11.087  0.3197 -0.6123 -0.2407
  453TMC3     O 6750   4.084   0.426  11.045  0.2068  0.5484 -0.4728
  453TMC3     H 6751   3.821   0.134  11.134 -1.2629  0.7080  0.2040
  453TMC3    H1 6752   4.001   0.392  10.839  0.1844 -0.8089 -0.9071
  453TMC3    H2 6753   3.673   0.142  10.739  0.1590 -1.5579 -0.1430
  453TMC3    C7 6754   3.777   0.381  10.689  0.5636 -0.1510 -0.5954
  453TMC3    C8 6755   3.633   0.039  10.972 -0.1551  0.4363 -0.0335
  453TMC3    O1 6756   3.832   0.489  10.680  0.1652  0.5474 -0.4406
  453TMC3    O2 6757   3.555   0.024  10.880 -0.1433  0.7729  0.5953
  454MPD2     C 6758   3.003   3.987  16.085  0.6166 -0.2487  0.0644
  454MPD2    C1 6759   2.893   4.064  16.050 -0.2700 -0.1214  0.0513
  454MPD2    C2 6760   2.812   4.110  16.147 -0.2380 -0.1253  0.1858
  454MPD2    C3 6761   2.825   4.069  16.277  0.4343 -0.3357  0.8909
  454MPD2    C4 6762   2.933   3.996  16.309 -0.5333  0.0100 -0.1272
  454MPD2    C5 6763   3.025   3.958  16.220 -0.9340  0.2002 -0.2700
  454MPD2     H 6764   2.728   4.173  16.122 -0.6340 -1.4853 -1.9664
  454MPD2    H1 6765   2.946   3.958  16.410 -0.4519 -1.0145 -0.5222
  454MPD2    H2 6766   3.082   3.962  16.015 -0.6651 -1.0861 -1.0713
  454MPD2    H3 6767   3.099   3.884  16.247 -0.5293  0.9391  0.6424
  454MPD2     N 6768   2.733   4.089  16.377 -0.1721 -0.4034  0.0739
  454MPD2    H5 6769   2.762   4.065  16.471 -1.8522 -0.0745  0.6668
  454MPD2    N1 6770   2.869   4.087  15.914  0.6512 -0.2441 -0.5574
  454MPD2    H7 6771   2.933   4.040  15.852  1.1496  0.4188 -0.5575
  455TMC3    C1 6772   2.519   4.132  16.267  0.0276  0.0711  0.0650
  455TMC3    C2 6773   2.419   4.219  16.292  0.4261  0.0171 -0.1054
  455TMC3    C3 6774   2.310   4.203  16.205 -0.2835 -0.9514 -0.9990
  455TMC3    C4 6775   2.520   4.041  16.170 -0.8373  0.3925 -0.5682
  455TMC3    C5 6776   2.413   4.032  16.082  0.3412 -0.3933  0.3937
  455TMC3    C6 6777   2.301   4.113  16.100  0.2242  0.0419  0.5992
  455TMC3     C 6778   2.600   4.131  16.382 -0.0038  0.0676 -0.5090
  455TMC3     O 6779   2.546   4.175  16.480  0.0751 -0.1068  0.2060
  455TMC3     H 6780   2.422   4.303  16.361  2.3417 -1.5339  1.6787
  455TMC3    H1 6781   2.603   3.971  16.170 -3.7037 -2.9896 -0.8665
  455TMC3    H2 6782   2.202   4.106  16.056  0.2209 -1.0275  0.7918
  455TMC3    C7 6783   2.396   3.899  16.024  0.4836 -0.4171  0.1539
  455TMC3    C8 6784   2.187   4.272  16.238 -0.2125 -0.0540 -0.1791
  455TMC3    O1 6785   2.474   3.811  16.067 -0.7236 -0.0269  0.1182
  455TMC3    O2 6786   2.080   4.227  16.191 -0.3348 -0.3456  0.3624
  456MPD2     C 6787   0.472   4.585  15.500  0.4000 -0.3861 -0.3628
  456MPD2    C1 6788   0.528   4.537  15.627  0.3546 -0.3283 -0.3521
  456MPD2    C2 6789   0.499   4.609  15.741  0.6783 -0.3100 -0.4230
  456MPD2    C3 6790   0.425   0.002  15.738 -0.1466 -0.2974  0.3376
  456MPD2    C4 6791   0.383   0.051  15.617 -0.0953 -0.9652 -0.5987
  456MPD2    C5 6792   0.412   4.708  15.503 -0.2951 -0.7705  0.0285
  456MPD2     H 6793   0.522   4.560  15.834  0.8252 -0.3364 -0.4722
  456MPD2    H1 6794   0.344   0.149  15.596 -2.5505 -1.9556 -0.6232
  456MPD2    H2 6795   0.502   4.539  15.407 -2.2329 -0.2528 -1.2791
  456MPD2    H3 6796   0.390   0.028  15.407 -1.8172  1.3565  1.3553
  456MPD2     N 6797   0.391   0.070  15.861  0.5960  0.1213 -0.4129
  456MPD2    H5 6798   0.426   0.026  15.945  0.9196  2.2914  0.5794
  456MPD2    N1 6799   0.619   4.433  15.622 -0.1470  0.4010  0.2460
  456MPD2    H7 6800   0.622   4.382  15.534 -2.5210  0.2916  0.2140
  457TMC3    C1 6801   0.292   0.228  16.007  0.1687  0.0234  0.9863
  457TMC3    C2 6802   0.218   0.339  16.036  0.7082  0.7411  0.1536
  457TMC3    C3 6803   0.198   0.372  16.163 -0.2791 -0.1662 -0.0944
  457TMC3    C4 6804   0.350   0.153  16.111  0.5932 -0.3911  0.0347
  457TMC3    C5 6805   0.320   0.190  16.242  0.2590  0.4228 -0.3890
  457TMC3    C6 6806   0.252   0.307  16.269 -0.4873 -0.1701 -0.2710
  457TMC3     C 6807   0.312   0.182  15.865 -0.2997  0.2123  0.0742
  457TMC3     O 6808   0.239   0.243  15.787  0.2102  0.4660 -0.2245
  457TMC3     H 6809   0.169   0.399  15.960  0.5656 -1.3937 -1.4321
  457TMC3    H1 6810   0.391   0.053  16.097 -0.3511 -0.6147 -1.0932
  457TMC3    H2 6811   0.202   0.325  16.363 -0.8565  0.5633 -0.6115
  457TMC3    C7 6812   0.374   0.114  16.354  0.0286 -0.1209  0.0236
  457TMC3    C8 6813   0.159   0.509  16.184  0.0705 -0.0826  0.3853
  457TMC3    O1 6814   0.439   0.016  16.333 -0.1206 -0.2989  0.5864
  457TMC3    O2 6815   0.203   0.555  16.291  0.3627 -0.0104  0.4953
  458MPD2     C 6816   2.875   4.071  12.022 -0.6108 -0.0092 -0.7628
  458MPD2    C1 6817   2.882   4.012  12.153  0.0754 -0.0297  0.0551
  458MPD2    C2 6818   2.768   3.961  12.212 -0.0246 -0.3147  0.3542
  458MPD2    C3 6819   2.643   3.965  12.151  0.0317  0.2385  0.0049
  458MPD2    C4 6820   2.633   4.031  12.024 -0.6468  0.9497  0.4607
  458MPD2    C5 6821   2.750   4.079  11.964 -0.4094  0.2447  0.3327
  458MPD2     H 6822   2.769   3.927  12.315 -1.0991  0.2976  0.5640
  458MPD2    H1 6823   2.539   4.040  11.970 -0.2464 -0.0179 -0.4057
  458MPD2    H2 6824   2.952   4.116  11.961  2.2807 -2.4987  1.0273
  458MPD2    H3 6825   2.753   4.109  11.860 -0.4606  0.5431  0.4171
  458MPD2     N 6826   2.535   3.900  12.219 -0.1586  0.2083 -0.4803
  458MPD2    H5 6827   2.556   3.870  12.313 -3.0838  0.1896  0.1811
  458MPD2    N1 6828   3.014   4.008  12.210  0.3800  0.3916  0.0144
  458MPD2    H7 6829   3.085   4.047  12.148 -0.1652 -1.0064 -1.4890
  459TMC3    C1 6830   3.172   3.965  12.380  0.5118 -0.4132 -0.2174
  459TMC3    C2 6831   3.249   4.074  12.342 -0.1702  0.3783  0.3795
  459TMC3    C3 6832   3.366   4.090  12.412 -1.0002  1.0694  1.0385
  459TMC3    C4 6833   3.219   3.887  12.488 -0.0847 -0.0821 -0.3396
  459TMC3    C5 6834   3.330   3.917  12.557 -0.7582 -0.1812  0.5374
  459TMC3    C6 6835   3.412   4.018  12.520 -0.4462  0.0621 -0.3905
  459TMC3     C 6836   3.041   3.951  12.330 -0.4659  0.7220 -0.0912
  459TMC3     O 6837   2.964   3.890  12.403  0.6157 -0.2878 -0.0033
  459TMC3     H 6838   3.214   4.148  12.271 -2.2384  0.7780  1.8171
  459TMC3    H1 6839   3.144   3.821  12.531 -0.0340  1.2523  1.8037
  459TMC3    H2 6840   3.496   4.051  12.580 -0.2051 -0.3295 -0.5172
  459TMC3    C7 6841   3.370   3.829  12.664  0.0750 -0.0050 -0.2738
  459TMC3    C8 6842   3.457   4.201  12.370  0.0576 -0.8637  1.0764
  459TMC3    O1 6843   3.292   3.741  12.696  0.0427  0.5112 -0.2966
  459TMC3    O2 6844   3.553   4.211  12.447 -0.0280  0.3326  0.2095
  460MPD2     C 6845   1.985   1.528  10.428  0.1342  1.0028  0.2163
  460MPD2    C1 6846   1.877   1.589  10.481 -0.8701  0.0269 -0.2347
  460MPD2    C2 6847   1.783   1.637  10.392  0.6652 -0.3787  0.1219
  460MPD2    C3 6848   1.789   1.604  10.258 -0.2898  0.8660 -0.0649
  460MPD2    C4 6849   1.891   1.524  10.214 -0.6245  0.0260 -0.4191
  460MPD2    C5 6850   1.991   1.481  10.303 -1.1276  0.7261 -0.4086
  460MPD2     H 6851   1.708   1.708  10.425  0.6420  0.6790 -2.1377
  460MPD2    H1 6852   1.900   1.476  10.117  1.0848  2.0498 -1.2522
  460MPD2    H2 6853   2.057   1.494  10.501 -0.2007  0.8144  0.4574
  460MPD2    H3 6854   2.069   1.408  10.284 -2.9960 -1.3689  0.0283
  460MPD2     N 6855   1.687   1.653  10.172 -0.2784 -0.1659  0.3079
  460MPD2    H5 6856   1.616   1.712  10.213 -1.6216 -0.1223 -2.0536
  460MPD2    N1 6857   1.866   1.605  10.624 -0.1196 -0.7577  0.4228
  460MPD2    H7 6858   1.933   1.564  10.688 -0.5917  0.9692  2.0244
  461TMC3    C1 6859   1.558   1.696   9.976  0.6091  0.0110  0.4137
  461TMC3    C2 6860   1.513   1.633   9.866 -0.1243  0.2014 -0.3625
  461TMC3    C3 6861   1.431   1.702   9.788  0.0344 -0.2108  0.1382
  461TMC3    C4 6862   1.522   1.825  10.014  0.0368 -0.0094 -0.3697
  461TMC3    C5 6863   1.423   1.881   9.932  0.8917 -0.2622  0.1093
  461TMC3    C6 6864   1.372   1.823   9.820  0.4462  0.1189  0.2877
  461TMC3     C 6865   1.675   1.626  10.037  0.2596  0.8946  0.2561
  461TMC3     O 6866   1.738   1.545   9.973  0.5292  0.3868 -0.1105
  461TMC3     H 6867   1.536   1.528   9.850  0.1929 -0.0285  1.5474
  461TMC3    H1 6868   1.548   1.873  10.107 -0.9561  1.3641 -0.7999
  461TMC3    H2 6869   1.294   1.855   9.752  1.1729 -0.0293 -0.6160
  461TMC3    C7 6870   1.375   2.010   9.985 -0.1487  0.2123 -0.0082
  461TMC3    C8 6871   1.397   1.632   9.668 -0.2313  0.0941 -0.1788
  461TMC3    O1 6872   1.437   2.073  10.065  0.2287  0.2493  0.4196
  461TMC3    O2 6873   1.400   1.515   9.670 -0.0095  0.0690 -0.3468
  462TMC3    C1 6874   1.962   2.817   0.003 -0.5411 -0.3309  0.0951
  462TMC3    C2 6875   2.036   2.817  17.583 -0.4214 -0.3073 -0.4325
  462TMC3    C3 6876   2.089   2.699  17.548  0.1006  0.2285  0.1604
  462TMC3    C4 6877   1.904   2.701   0.059 -0.2318  0.2659  0.2738
  462TMC3    C5 6878   1.959   2.579   0.008  0.0484  0.3858  0.0046
  462TMC3    C6 6879   2.053   2.578  17.611  0.0208 -0.3016  0.2272
  462TMC3     C 6880   1.916   2.943   0.072 -0.3736 -0.0558  0.3168
  462TMC3     O 6881   1.850   2.922   0.172 -0.3422 -0.2516  0.1442
  462TMC3     H 6882   2.052   2.910  17.530 -0.1974  0.3852  0.8515
  462TMC3    H1 6883   1.831   2.693   0.138  0.1932  0.2562  0.6609
  462TMC3    H2 6884   2.066   2.484  17.558  2.3232  0.3807 -0.3871
  462TMC3    C7 6885   1.870   2.459   0.003 -0.0842 -0.4312 -1.0067
  462TMC3    C8 6886   2.130   2.683  17.409  0.2357 -0.0022 -0.1462
  462TMC3    O1 6887   1.921   2.352  17.665  0.4596 -0.1072 -0.4433
  462TMC3    O2 6888   2.115   2.780  17.337  0.0827  0.7147 -0.1310
  463MPD2     C 6889   2.292   1.446   2.198  0.0987  0.2158 -0.5455
  463MPD2    C1 6890   2.319   1.378   2.080 -0.0708 -0.0700 -0.4165
  463MPD2    C2 6891   2.423   1.417   1.998  0.0067 -0.4729 -0.1801
  463MPD2    C3 6892   2.500   1.537   2.036  0.0318 -0.5546  0.2740
  463MPD2    C4 6893   2.466   1.602   2.151 -0.4038  1.1378 -0.5881
  463MPD2    C5 6894   2.366   1.558   2.237  0.9013 -0.7527 -0.1667
  463MPD2     H 6895   2.435   1.357   1.909 -1.3887 -0.3114 -0.4761
  463MPD2    H1 6896   2.524   1.684   2.190  0.8662  0.3299 -0.7966
  463MPD2    H2 6897   2.207   1.423   2.261 -0.2597 -1.8390 -1.7610
  463MPD2    H3 6898   2.341   1.599   2.335 -2.4248  0.3148 -1.4347
  463MPD2     N 6899   2.585   1.598   1.940  0.3390  0.0416  0.5434
  463MPD2    H5 6900   2.618   1.691   1.964  0.0945  0.6064 -1.3512
  463MPD2    N1 6901   2.235   1.268   2.049  0.0138 -0.1442 -0.0152
  463MPD2    H7 6902   2.262   1.227   1.960 -0.4979 -1.3305  0.3758
  464TMC3    C1 6903   2.056   1.112   2.046  0.0511  0.3677 -0.7520
  464TMC3    C2 6904   2.064   1.109   1.905  0.0540  0.3883 -0.3933
  464TMC3    C3 6905   1.974   1.028   1.837 -0.2230 -0.3026  0.0271
  464TMC3    C4 6906   1.976   1.022   2.112  0.9395 -0.5226  0.7319
  464TMC3    C5 6907   1.886   0.952   2.034  0.4220 -0.5922  0.1451
  464TMC3    C6 6908   1.878   0.953   1.896 -0.3630 -0.4959 -0.3449
  464TMC3     C 6909   2.139   1.206   2.127 -0.3873  0.0144  0.5971
  464TMC3     O 6910   2.121   1.217   2.247  0.0225 -0.1780 -0.6339
  464TMC3     H 6911   2.131   1.172   1.848  1.4229 -0.2384  0.5099
  464TMC3    H1 6912   1.962   1.022   2.220  0.3586 -0.9598  0.6546
  464TMC3    H2 6913   1.799   0.903   1.842 -1.4264  0.0323  0.7064
  464TMC3    C7 6914   1.799   0.852   2.104 -0.0759 -0.1956 -0.0092
  464TMC3    C8 6915   1.939   1.070   1.706  0.1679 -0.6587  0.1440
  464TMC3    O1 6916   1.767   0.878   2.220 -0.0427  0.5182  0.0505
  464TMC3    O2 6917   2.015   1.049   1.611 -0.1738 -0.6050  0.1124
  465MPD2     C 6918   4.557   4.383  16.525  0.2686  0.4806  0.4131
  465MPD2    C1 6919   4.475   4.324  16.607 -0.1487  0.2805  0.1194
  465MPD2    C2 6920   4.340   4.346  16.607  0.7269 -0.4708 -0.0960
  465MPD2    C3 6921   4.298   4.429  16.515 -0.2886 -0.0278  0.2381
  465MPD2    C4 6922   4.381   4.486  16.416  0.6015 -0.1082  0.3663
  465MPD2    C5 6923   4.516   4.457  16.421 -0.5630 -0.6767  0.4440
  465MPD2     H 6924   4.276   4.291  16.676 -0.1299  1.6913  0.8555
  465MPD2    H1 6925   4.355   4.561  16.342  2.4955  0.2587  0.0518
  465MPD2    H2 6926   4.664   4.376  16.540  0.3104 -1.8965 -1.0786
  465MPD2    H3 6927   4.578   4.506  16.346 -0.8193  0.3435  0.8914
  465MPD2     N 6928   4.150   4.453  16.515  0.5019 -0.0196  0.3290
  465MPD2    H5 6929   4.103   4.397  16.585  1.4455 -1.1387  0.0833
  465MPD2    N1 6930   4.529   4.234  16.696 -0.4783  0.2633  0.1706
  465MPD2    H7 6931   4.475   4.195  16.772  0.1186 -0.3720  0.2648
  466TMC3    C1 6932   3.749   4.519  16.587  0.2778  0.4691 -0.1435
  466TMC3    C2 6933   3.684   4.610  16.508  0.0267 -0.1096 -1.1479
  466TMC3    C3 6934   3.735   4.632  16.385 -0.3931  1.0432  0.0011
  466TMC3    C4 6935   3.882   4.482  16.554 -0.0462  0.5122  0.1203
  466TMC3    C5 6936   3.936   4.513  16.434  0.3717 -0.3788  0.1417
  466TMC3    C6 6937   3.857   4.580  16.344 -0.1557 -0.1673 -0.2394
  466TMC3     C 6938   3.698   4.515  16.723  0.1317  0.2087  0.0761
  466TMC3     O 6939   3.601   4.585  16.745  0.2791  0.8342  0.0940
  466TMC3     H 6940   3.581   4.638  16.526  0.6338  1.9155 -0.7874
  466TMC3    H1 6941   3.935   4.429  16.632  2.4471  1.6687 -0.7819
  466TMC3    H2 6942   3.898   4.602  16.246 -0.3265  0.4247 -0.1780
  466TMC3    C7 6943   4.081   4.513  16.414  0.2918  0.5981 -0.7816
  466TMC3    C8 6944   3.669   0.007  16.308 -0.3196 -0.2176 -0.5144
  466TMC3    O1 6945   4.120   4.559  16.305  0.0068 -0.0236 -0.1933
  466TMC3    O2 6946   3.683   0.007  16.187  0.1343 -0.2303  0.1697
  467TMC3    C1 6947   0.428   2.892  13.563 -0.3509  0.2276 -0.3984
  467TMC3    C2 6948   0.367   3.012  13.543  0.4819  0.0621 -0.3827
  467TMC3    C3 6949   0.229   3.012  13.574  0.7163 -0.3177  0.2404
  467TMC3    C4 6950   0.359   2.778  13.605  0.0211 -0.9247 -1.1815
  467TMC3    C5 6951   0.225   2.785  13.636  0.4307  0.4040  0.0791
  467TMC3    C6 6952   0.161   2.905  13.625 -0.1843 -0.5068  0.1485
  467TMC3     C 6953   0.567   2.900  13.607  0.3700  0.1030  0.2224
  467TMC3     O 6954   0.632   3.001  13.573  0.5383  0.3122  0.0611
  467TMC3     H 6955   0.426   3.102  13.529  1.0140 -0.0382  1.2368
  467TMC3    H1 6956   0.407   2.681  13.613  0.7921 -0.2443  2.2942
  467TMC3    H2 6957   0.074   2.923  13.687 -0.4144 -1.6925  0.1701
  467TMC3    C7 6958   0.165   2.674  13.717 -0.4784  0.0532 -0.3282
  467TMC3    C8 6959   0.152   3.130  13.555 -0.2829 -0.1502  0.1463
  467TMC3    O1 6960   0.241   2.598  13.775 -0.0667 -0.0128 -0.2871
  467TMC3    O2 6961   0.209   3.234  13.577 -0.3629  0.3699 -0.2035
  468MPD2     C 6962   3.445   1.376  10.370 -0.5764  0.8529 -0.3766
  468MPD2    C1 6963   3.533   1.409  10.468 -0.7991  0.0065  0.7928
  468MPD2    C2 6964   3.619   1.314  10.514 -0.2953  0.0930 -0.5648
  468MPD2    C3 6965   3.617   1.177  10.464  0.2503  0.5766 -0.9301
  468MPD2    C4 6966   3.515   1.149  10.374 -0.2486 -0.3610  0.5324
  468MPD2    C5 6967   3.438   1.247  10.322 -0.1633 -1.0111 -0.1971
  468MPD2     H 6968   3.687   1.349  10.591  1.3783 -1.4075 -1.3494
  468MPD2    H1 6969   3.489   1.049  10.339 -0.5017 -0.6411  1.5182
  468MPD2    H2 6970   3.380   1.448  10.323  1.0325  1.4005 -1.7730
  468MPD2    H3 6971   3.369   1.222  10.243 -1.6413  1.9994  0.1717
  468MPD2     N 6972   3.691   1.072  10.525 -0.3593 -0.2063 -0.4784
  468MPD2    H5 6973   3.667   0.978  10.494  1.2370 -1.5143  2.2291
  468MPD2    N1 6974   3.543   1.532  10.527  0.2411  0.2639  0.8870
  468MPD2    H7 6975   3.598   1.548  10.610  2.9197 -0.6176 -0.7445
  469TMC3    C1 6976   3.492   1.759  10.579  1.1065  0.0739 -0.0519
  469TMC3    C2 6977   3.613   1.741  10.647 -0.5064 -0.8472 -0.5476
  469TMC3    C3 6978   3.622   1.770  10.780  0.5456 -0.0143 -0.3039
  469TMC3    C4 6979   3.377   1.782  10.648 -0.2742  0.1291  0.3421
  469TMC3    C5 6980   3.390   1.786  10.787 -0.4042 -0.0248 -0.2055
  469TMC3    C6 6981   3.505   1.776  10.857  0.1755 -0.0712  0.5291
  469TMC3     C 6982   3.472   1.650  10.488  0.3935  0.1476 -0.2186
  469TMC3     O 6983   3.381   1.666  10.407 -0.2326 -0.0125 -0.1454
  469TMC3     H 6984   3.701   1.722  10.587  0.1227  0.5766 -0.0725
  469TMC3    H1 6985   3.280   1.790  10.600 -0.0700  2.5336  0.3500
  469TMC3    H2 6986   3.496   1.780  10.965 -0.5244 -1.2785  0.5139
  469TMC3    C7 6987   3.265   1.832  10.839 -0.2804  0.2642 -0.9037
  469TMC3    C8 6988   3.749   1.792  10.844 -0.7695 -0.3303 -0.1914
  469TMC3    O1 6989   3.167   1.840  10.769 -0.1099 -0.4279 -0.3144
  469TMC3    O2 6990   3.843   1.806  10.763  0.0246 -0.0653  0.9776
  470TMC3    C1 6991   1.645   2.054   0.663  0.0975  0.6251 -0.4002
  470TMC3    C2 6992   1.673   2.182   0.675 -0.6524 -0.2110 -0.7889
  470TMC3    C3 6993   1.804   2.226   0.697  0.2108 -0.6734 -0.5015
  470TMC3    C4 6994   1.750   1.961   0.659 -0.5624 -0.3214 -0.7174
  470TMC3    C5 6995   1.878   2.007   0.662 -0.6927 -0.1305  0.6472
  470TMC3    C6 6996   1.908   2.146   0.665 -1.0594  0.4464 -0.3576
  470TMC3     C 6997   1.508   2.017   0.686  0.8336 -0.2084  0.3464
  470TMC3     O 6998   1.430   2.084   0.756 -0.0548 -0.2296  0.1913
  470TMC3     H 6999   1.591   2.249   0.694  0.0644  0.3920  0.1769
  470TMC3    H1 7000   1.737   1.854   0.666 -0.0024 -0.3405  0.1522
  470TMC3    H2 7001   2.013   2.168   0.682 -1.6557  0.9814  2.5388
  470TMC3    C7 7002   1.973   1.915   0.719  0.6931  0.1801 -0.0460
  470TMC3    C8 7003   1.813   2.361   0.718 -0.4146  0.5406 -0.0267
  470TMC3    O1 7004   2.033   1.843   0.640  0.4002  0.3386 -0.1408
  470TMC3    O2 7005   1.732   2.440   0.670 -0.1054 -0.1590  0.5222
  471MPD2     C 7006   1.798   3.719  16.442  0.2961  0.1479 -0.5435
  471MPD2    C1 7007   1.886   3.610  16.434  0.3128 -0.4527  0.4881
  471MPD2    C2 7008   1.963   3.587  16.550 -0.6790  0.2494  0.2144
  471MPD2    C3 7009   1.937   3.640  16.672 -0.3336  0.2021  0.4159
  471MPD2    C4 7010   1.835   3.733  16.684  0.1420  0.3529  0.8821
  471MPD2    C5 7011   1.777   3.779  16.564 -0.0942 -0.5662  0.1741
  471MPD2     H 7012   2.038   3.509  16.547  1.4101  2.2906 -0.9383
  471MPD2    H1 7013   1.797   3.776  16.776 -3.9570 -0.0526 -0.6175
  471MPD2    H2 7014   1.751   3.766  16.356 -2.6542  0.2909  1.1445
  471MPD2    H3 7015   1.703   3.858  16.565 -0.1061 -0.5031 -3.2017
  471MPD2     N 7016   2.005   3.600  16.789  0.4422  0.6787 -0.1301
  471MPD2    H5 7017   1.965   3.620  16.880  1.2061  2.4286 -0.1888
  471MPD2    N1 7018   1.911   3.537  16.319 -0.3054  0.2565  0.1227
  471MPD2    H7 7019   1.999   3.487  16.320 -0.9757 -0.8957  1.7174
  472TMC3    C1 7020   1.868   3.437  16.105  0.2949  0.1297  0.1540
  472TMC3    C2 7021   1.832   3.471  15.976 -0.2524  0.5045  0.1901
  472TMC3    C3 7022   1.866   3.392  15.865  0.1869 -0.3146  0.5242
  472TMC3    C4 7023   1.933   3.318  16.130  0.2369 -0.5068 -0.1152
  472TMC3    C5 7024   1.954   3.234  16.020 -0.3045 -0.7736 -0.2858
  472TMC3    C6 7025   1.921   3.267  15.886 -0.0313  0.1721 -0.6202
  472TMC3     C 7026   1.831   3.541  16.203 -0.2412 -1.2497  0.6942
  472TMC3     O 7027   1.727   3.599  16.177 -0.2287 -0.3916 -0.2600
  472TMC3     H 7028   1.772   3.559  15.954  0.0432  1.0920  1.7804
  472TMC3    H1 7029   1.953   3.293  16.234 -1.7212  1.4504  0.7476
  472TMC3    H2 7030   1.927   3.194  15.807  0.4399  1.3152 -1.6373
  472TMC3    C7 7031   1.905   3.104  16.059 -0.7182 -0.2584 -0.0939
  472TMC3    C8 7032   1.780   3.377  15.761  0.4184 -0.1991 -0.1396
  472TMC3    O1 7033   1.908   3.072  16.177  0.1215 -0.4732  0.2477
  472TMC3    O2 7034   1.827   3.330  15.655 -0.4071  0.1493 -0.1747
  473MPD2     C 7035   1.486   0.771  13.872  0.6734 -0.3695  0.0916
  473MPD2    C1 7036   1.601   0.814  13.822 -0.2048  0.8178  0.7323
  473MPD2    C2 7037   1.706   0.841  13.912 -0.0187  0.5891  0.0319
  473MPD2    C3 7038   1.695   0.830  14.044 -0.3329  1.0264  0.4770
  473MPD2    C4 7039   1.575   0.800  14.098  0.4246  0.3990  0.0055
  473MPD2    C5 7040   1.470   0.780  14.010  0.3466  0.1523  0.4950
  473MPD2     H 7041   1.800   0.883  13.877 -0.5520  0.7678 -1.2036
  473MPD2    H1 7042   1.556   0.801  14.204  0.2287  1.4559 -0.0365
  473MPD2    H2 7043   1.396   0.757  13.813  0.3215 -1.6055  0.9294
  473MPD2    H3 7044   1.369   0.768  14.047  0.3237 -0.1850  0.3280
  473MPD2     N 7045   1.789   0.870  14.135  0.0717  0.8197  0.9898
  473MPD2    H5 7046   1.753   0.892  14.227 -2.2954 -0.5280  0.3981
  473MPD2    N1 7047   1.626   0.824  13.687 -0.3332 -0.9435 -0.2962
  473MPD2    H7 7048   1.718   0.858  13.662 -0.8360  1.4458  1.1686
  474TMC3    C1 7049   1.983   1.003  14.202  0.2757 -0.4570  0.0306
  474TMC3    C2 7050   1.899   1.082  14.278 -0.5029  0.9883 -0.1281
  474TMC3    C3 7051   1.970   1.182  14.338  0.4369  0.1093 -0.0153
  474TMC3    C4 7052   2.121   1.006  14.197 -0.4539  0.4909  0.2197
  474TMC3    C5 7053   2.178   1.100  14.273  0.2131 -0.0294 -0.0634
  474TMC3    C6 7054   2.107   1.198  14.336 -0.5776 -0.0332 -0.7515
  474TMC3     C 7055   1.917   0.910  14.109 -0.4093  0.5516 -0.2515
  474TMC3     O 7056   1.989   0.875  14.018 -0.0934  0.1097 -0.0836
  474TMC3     H 7057   1.791   1.076  14.273 -0.5801  2.1355  0.2261
  474TMC3    H1 7058   2.172   0.919  14.156 -0.6193  0.0848  0.8758
  474TMC3    H2 7059   2.149   1.280  14.393 -1.9884 -0.2625  0.6244
  474TMC3    C7 7060   2.318   1.094  14.299 -0.0102 -0.5192  0.3609
  474TMC3    C8 7061   1.887   1.277  14.413 -0.5201 -0.6320 -0.0746
  474TMC3    O1 7062   2.395   1.052  14.210 -0.2322  0.0325  0.1925
  474TMC3    O2 7063   1.792   1.221  14.468  0.6164  0.1674 -0.1488
  475MPD2     C 7064   0.054   4.255  10.366 -0.0113 -0.5355 -0.0881
  475MPD2    C1 7065   0.050   4.381  10.415  0.4432  0.2588 -0.4625
  475MPD2    C2 7066   4.646   4.432  10.428  0.5195 -0.3372 -0.6280
  475MPD2    C3 7067   4.535   4.353  10.417  0.6033  0.2291  0.0522
  475MPD2    C4 7068   4.547   4.218  10.397  0.0570 -0.1144  0.3086
  475MPD2    C5 7069   4.667   4.170  10.356 -0.2198  0.3417 -0.3863
  475MPD2     H 7070   4.621   4.535  10.451  0.5430 -0.6179  0.6437
  475MPD2    H1 7071   4.460   4.155  10.386 -1.7323  2.5348 -0.7956
  475MPD2    H2 7072   0.147   4.207  10.336 -0.0532 -0.6254 -0.0740
  475MPD2    H3 7073   4.673   4.065  10.331 -1.0847 -0.0130  0.9023
  475MPD2     N 7074   4.406   4.415  10.427  0.0424 -0.3032  0.1841
  475MPD2    H5 7075   4.411   4.516  10.423  0.0192 -0.3410 -0.7047
  475MPD2    N1 7076   0.165   4.460  10.443 -0.0954  0.2572 -0.0692
  475MPD2    H7 7077   0.259   4.425  10.427 -0.6049 -1.2783  0.3286
  476TMC3    C1 7078   0.267   4.674  10.480  0.7296 -0.7575 -0.1487
  476TMC3    C2 7079   0.305   4.673  10.351  0.1779  0.4872 -0.1074
  476TMC3    C3 7080   0.331   0.061  10.279  0.6522  0.6381  0.1933
  476TMC3    C4 7081   0.248   0.075  10.541 -0.2502  0.4440 -0.6301
  476TMC3    C5 7082   0.286   0.181  10.472 -0.1420  0.0958  0.9490
  476TMC3    C6 7083   0.335   0.181  10.344  0.2405 -0.0950  0.4293
  476TMC3     C 7084   0.164   4.579  10.513 -0.4043  0.4070  0.2844
  476TMC3     O 7085   0.064   4.626  10.566 -0.5394  0.2987 -0.1325
  476TMC3     H 7086   0.324   4.582  10.295  1.6723  0.6901  0.0780
  476TMC3    H1 7087   0.236   0.060  10.648  0.8867 -0.4236 -0.6256
  476TMC3    H2 7088   0.357   0.276  10.296 -0.8210 -0.5422 -0.9399
  476TMC3    C7 7089   0.356   0.268  10.561  0.7006 -0.5886 -0.0282
  476TMC3    C8 7090   0.236   0.071  10.171 -0.2509 -0.1240  0.2624
  476TMC3    O1 7091   0.308   0.287  10.674  0.0100 -0.0707 -0.0552
  476TMC3    O2 7092   0.211   0.181  10.122 -0.3711  0.3327 -0.6372
  477MPD2     C 7093   2.295   0.864  11.816  0.9140 -0.2655  0.3740
  477MPD2    C1 7094   2.191   0.799  11.758  1.0123  0.5157 -0.1537
  477MPD2    C2 7095   2.184   0.655  11.758  0.4245 -0.6321 -0.3855
  477MPD2    C3 7096   2.290   0.589  11.807 -0.5459  0.6709 -0.8204
  477MPD2    C4 7097   2.393   0.655  11.869 -0.2964  0.6333 -0.0007
  477MPD2    C5 7098   2.400   0.789  11.866  0.5964 -0.1919  0.2929
  477MPD2     H 7099   2.095   0.603  11.725 -0.1031 -0.4476  0.7536
  477MPD2    H1 7100   2.479   0.603  11.911  0.2645  1.4137 -0.1638
  477MPD2    H2 7101   2.291   0.972  11.828  3.5170 -0.0559 -0.6543
  477MPD2    H3 7102   2.484   0.840  11.912  1.2450 -1.6377  0.7306
  477MPD2     N 7103   2.289   0.445  11.798 -0.2413  0.2167 -0.2470
  477MPD2    H5 7104   2.201   0.403  11.770  0.3806 -0.5173 -1.1063
  477MPD2    N1 7105   2.089   0.880  11.705 -0.0239  0.2912  0.1898
  477MPD2    H7 7106   2.092   0.977  11.736  1.0696  0.3769 -0.2122
  478TMC3    C1 7107   1.923   0.948  11.561  0.8446  0.1038 -0.1364
  478TMC3    C2 7108   1.895   1.059  11.637  0.3816  0.6669 -0.2915
  478TMC3    C3 7109   1.819   1.159  11.583 -0.2994  0.0040 -0.5380
  478TMC3    C4 7110   1.875   0.933  11.434  0.2032  0.0924 -0.8347
  478TMC3    C5 7111   1.798   1.030  11.380  0.0666 -0.0288 -0.0643
  478TMC3    C6 7112   1.764   1.137  11.460  0.1648  0.4627  0.3928
  478TMC3     C 7113   2.003   0.844  11.609 -0.6095 -1.0687  0.1680
  478TMC3     O 7114   2.024   0.744  11.543 -0.3181 -0.0095 -0.3928
  478TMC3     H 7115   1.931   1.067  11.739  0.8475  2.5154 -0.5983
  478TMC3    H1 7116   1.898   0.845  11.376  0.1154 -1.5701  1.6492
  478TMC3    H2 7117   1.704   1.219  11.423 -0.9349 -0.3987  0.2757
  478TMC3    C7 7118   1.701   0.983  11.285 -0.1608 -0.1641 -0.0007
  478TMC3    C8 7119   1.723   1.213  11.674  0.0817  0.1515  0.3793
  478TMC3    O1 7120   1.664   0.871  11.304  0.2556 -0.5506 -0.3006
  478TMC3    O2 7121   1.701   1.136  11.765  0.3631 -0.4863 -1.1116
  479MPD2     C 7122   1.607   2.803  14.845  0.3956 -0.6872  0.3296
  479MPD2    C1 7123   1.541   2.742  14.950 -0.6513 -0.3245 -0.0712
  479MPD2    C2 7124   1.607   2.721  15.068 -0.0507 -0.0182  0.4003
  479MPD2    C3 7125   1.727   2.790  15.095  0.6353  0.8200 -0.2044
  479MPD2    C4 7126   1.784   2.858  14.994  0.0405 -0.1524  0.0477
  479MPD2    C5 7127   1.730   2.858  14.868  0.7101  0.0675 -0.2052
  479MPD2     H 7128   1.564   2.659  15.145 -0.9712  1.0048  0.7208
  479MPD2    H1 7129   1.881   2.906  15.005  0.5270 -1.5407  2.0395
  479MPD2    H2 7130   1.563   2.814  14.747  1.8389 -4.2463 -0.7365
  479MPD2    H3 7131   1.781   2.902  14.783 -0.1436  3.7353  1.1726
  479MPD2     N 7132   1.802   2.776  15.216  0.0389  0.5197  0.4397
  479MPD2    H5 7133   1.901   2.798  15.208 -0.4192  2.4890  0.1388
  479MPD2    N1 7134   1.405   2.705  14.935 -0.3465 -0.1828 -0.4057
  479MPD2    H7 7135   1.364   2.734  14.847 -0.0685  0.0670 -0.4537
  480TMC3    C1 7136   1.473   2.636  15.525  0.4656 -0.0362  0.8040
  480TMC3    C2 7137   1.384   2.736  15.496 -0.6464 -0.0692 -0.6003
  480TMC3    C3 7138   1.425   2.835  15.402  0.5156  0.2437 -0.1889
  480TMC3    C4 7139   1.598   2.622  15.468 -0.3338 -0.1461 -0.5044
  480TMC3    C5 7140   1.631   2.717  15.383 -0.2075 -0.0139 -0.8323
  480TMC3    C6 7141   1.551   2.825  15.351  0.3688  0.0475 -0.4546
  480TMC3     C 7142   1.450   2.550  15.639 -0.3266  0.0263 -0.8806
  480TMC3     O 7143   1.541   2.470  15.665 -0.4496  0.5077  0.4031
  480TMC3     H 7144   1.282   2.745  15.532 -0.0631  3.9918  0.0222
  480TMC3    H1 7145   1.665   2.540  15.491 -0.3575 -0.0641 -0.1508
  480TMC3    H2 7146   1.587   2.906  15.288  1.4497 -1.5642 -1.9221
  480TMC3    C7 7147   1.770   2.721  15.344  0.6407  1.2234 -0.1561
  480TMC3    C8 7148   1.319   2.902  15.325  0.6841 -0.3675  0.4003
  480TMC3    O1 7149   1.853   2.690  15.427  0.4858  0.5104  0.5382
  480TMC3    O2 7150   1.212   2.910  15.384  0.3151 -0.4681 -0.1593
  481MPD2     C 7151   3.247   2.372  13.811  0.4399  0.3666  0.2980
  481MPD2    C1 7152   3.128   2.330  13.865 -0.2546 -0.4299 -0.6867
  481MPD2    C2 7153   3.116   2.308  14.007 -0.1666  1.0009  0.9999
  481MPD2    C3 7154   3.212   2.328  14.098 -0.3285 -0.9789  0.6011
  481MPD2    C4 7155   3.328   2.381  14.042 -0.0778  0.0809  0.5055
  481MPD2    C5 7156   3.349   2.398  13.905 -0.2860  0.1249 -0.5127
  481MPD2     H 7157   3.016   2.299  14.048 -0.1716 -1.6944  0.4157
  481MPD2    H1 7158   3.422   2.390  14.096 -0.3186  1.0228  0.7676
  481MPD2    H2 7159   3.267   2.401  13.709 -0.5486 -0.2799 -0.0758
  481MPD2    H3 7160   3.442   2.445  13.875 -1.1798  1.8672 -0.5576
  481MPD2     N 7161   3.200   2.309  14.237  0.0735 -0.0572 -0.8148
  481MPD2    H5 7162   3.281   2.339  14.292 -1.7777  1.2709  1.2017
  481MPD2    N1 7163   3.024   2.334  13.774 -0.2886  0.1063  0.2210
  481MPD2    H7 7164   3.041   2.389  13.690  1.0603 -0.0246  0.4104
  482TMC3    C1 7165   2.795   2.322  13.711  0.0899 -0.1277 -0.5072
  482TMC3    C2 7166   2.693   2.241  13.725  0.3316 -0.2907 -0.0502
  482TMC3    C3 7167   2.599   2.242  13.625 -0.1455  0.1896 -0.0664
  482TMC3    C4 7168   2.819   2.397  13.598  0.2598  0.4247  0.4974
  482TMC3    C5 7169   2.729   2.388  13.494 -0.9155  0.8070 -0.7574
  482TMC3    C6 7170   2.616   2.310  13.504  0.4481 -0.0422 -0.5002
  482TMC3     C 7171   2.897   2.292  13.806  0.2826  0.8840 -0.0783
  482TMC3     O 7172   2.875   2.215  13.899  0.6252 -0.0471  0.3236
  482TMC3     H 7173   2.676   2.180  13.813  2.1952 -0.4799  0.1810
  482TMC3    H1 7174   2.904   2.463  13.584  1.6597 -1.4503  0.1715
  482TMC3    H2 7175   2.546   2.283  13.426 -0.4229  1.1059 -0.1110
  482TMC3    C7 7176   2.774   2.436  13.356  0.5536 -1.0629  0.1595
  482TMC3    C8 7177   2.501   2.139  13.635 -0.0839  0.2553 -0.5583
  482TMC3    O1 7178   2.886   2.483  13.345  0.1985  0.4193  0.1819
  482TMC3    O2 7179   2.510   2.061  13.730 -0.1593 -0.0851 -0.0216
  483TMC3    C1 7180   1.071   0.880   0.167  0.2649  0.1271  0.0132
  483TMC3    C2 7181   1.154   0.987   0.148  0.3688 -0.3941  0.6015
  483TMC3    C3 7182   1.285   0.967   0.139 -0.3738 -0.1732 -0.6054
  483TMC3    C4 7183   1.120   0.750   0.148  0.0834  0.1192 -0.1151
  483TMC3    C5 7184   1.254   0.737   0.119  0.4718 -0.0784  0.1750
  483TMC3    C6 7185   1.344   0.841   0.120  0.2913  0.6840  0.0064
  483TMC3     C 7186   0.935   0.900   0.220 -0.4767 -0.8253  0.0130
  483TMC3     O 7187   0.902   1.018   0.243  0.0166 -0.2596 -0.0656
  483TMC3     H 7188   1.121   1.089   0.164 -3.9908 -1.1955 -3.3702
  483TMC3    H1 7189   1.056   0.664   0.165  1.7607 -0.6850  2.1535
  483TMC3    H2 7190   1.450   0.830   0.101  0.3496  0.3564  0.5422
  483TMC3    C7 7191   1.324   0.611   0.147 -0.3186  0.1536  0.2353
  483TMC3    C8 7192   1.365   1.084   0.132 -0.8914  0.5785  0.0990
  483TMC3    O1 7193   1.443   0.614   0.166 -0.7313 -0.5717 -0.3108
  483TMC3    O2 7194   1.314   1.189   0.097 -0.1108 -0.8132 -0.2220
  484MPD2     C 7195   3.419   4.455  12.099  0.0075  0.5592 -0.2776
  484MPD2    C1 7196   3.477   4.390  12.206 -0.5324  0.3274 -0.8684
  484MPD2    C2 7197   3.591   4.442  12.263 -0.9521  0.6321 -0.1131
  484MPD2    C3 7198   3.658   4.546  12.202  0.4996  0.1081 -0.2927
  484MPD2    C4 7199   3.608   4.599  12.087 -0.2891 -0.1512 -0.5457
  484MPD2    C5 7200   3.488   4.558  12.036  0.3341 -0.3446 -0.6745
  484MPD2     H 7201   3.642   4.384  12.339 -0.4086 -0.3582 -1.2220
  484MPD2    H1 7202   3.657   4.674  12.026 -2.0761  0.5024 -1.1784
  484MPD2    H2 7203   3.324   4.420  12.061 -0.1238  3.2110 -2.3697
  484MPD2    H3 7204   3.450   4.602  11.945  0.8785  0.1790 -0.6417
  484MPD2     N 7205   3.786   4.591  12.236  0.7461  0.1229  0.5806
  484MPD2    H5 7206   3.834   4.637  12.159 -0.7971 -0.5203 -0.7647
  484MPD2    N1 7207   3.416   4.272  12.256  0.0281 -0.2941  0.2475
  484MPD2    H7 7208   3.333   4.244  12.205  0.2275 -3.6902  1.8163
  485TMC3    C1 7209   3.995   4.573  12.349  0.3880  0.1851 -0.3272
  485TMC3    C2 7210   4.068   4.487  12.428  0.0501 -0.7509  0.0780
  485TMC3    C3 7211   4.191   4.522  12.452 -0.4262 -1.1739  0.1741
  485TMC3    C4 7212   4.044   4.676  12.273 -0.0584 -0.2689  1.2742
  485TMC3    C5 7213   4.168   4.713  12.311  0.2480 -0.1102 -0.2195
  485TMC3    C6 7214   4.235   4.641  12.400  0.3747  0.1171 -0.7538
  485TMC3     C 7215   3.853   4.552  12.348  0.1891 -0.4434  0.1682
  485TMC3     O 7216   3.807   4.498  12.446  0.4415  0.1368 -0.0577
  485TMC3     H 7217   4.017   4.403  12.473  1.4819 -2.2488 -1.0954
  485TMC3    H1 7218   3.985   0.012  12.205  0.9119  0.8327  1.4075
  485TMC3    H2 7219   4.324   4.687  12.441 -0.4027  1.4384 -0.5414
  485TMC3    C7 7220   4.258   0.029  12.209  0.4013  0.1604 -0.0040
  485TMC3    C8 7221   4.285   4.424  12.406 -1.2225 -0.0703 -0.4501
  485TMC3    O1 7222   4.360   4.684  12.197  0.2964 -0.0680  0.2757
  485TMC3    O2 7223   4.402   4.460  12.390  0.2469 -0.0162  0.5709
  486MPD2     C 7224   1.117   3.295  12.574 -0.1693 -0.5068  0.1680
  486MPD2    C1 7225   1.001   3.212  12.597 -0.3788  0.0563  0.3080
  486MPD2    C2 7226   0.879   3.275  12.579  0.4542  0.5784 -0.4432
  486MPD2    C3 7227   0.872   3.408  12.571  0.6742 -0.1423  0.0383
  486MPD2    C4 7228   0.987   3.485  12.566  0.3726  0.4460 -0.1370
  486MPD2    C5 7229   1.110   3.430  12.564  0.3513  0.1556 -0.2214
  486MPD2     H 7230   0.790   3.213  12.579  1.4113 -0.7891 -0.0436
  486MPD2    H1 7231   0.989   3.594  12.561 -0.6451  0.5301  1.3105
  486MPD2    H2 7232   1.217   3.255  12.568 -0.4606 -0.8972 -2.2237
  486MPD2    H3 7233   1.196   3.494  12.549  0.9152 -0.4450  0.4755
  486MPD2     N 7234   0.741   3.470  12.565  0.2583  0.6018  0.0624
  486MPD2    H5 7235   0.666   3.402  12.560 -0.0546  0.9277  0.2949
  486MPD2    N1 7236   1.019   3.071  12.609 -0.0170 -0.7704  0.8209
  486MPD2    H7 7237   1.116   3.043  12.614 -0.5978 -2.2699  3.6660
  487TMC3    C1 7238   0.980   2.848  12.621 -0.2697  0.8947 -0.1906
  487TMC3    C2 7239   0.905   2.741  12.578  0.5985  0.6185 -0.4824
  487TMC3    C3 7240   0.968   2.625  12.559 -0.7763 -0.2665 -0.4257
  487TMC3    C4 7241   1.116   2.837  12.651 -0.3652 -0.2971 -0.0827
  487TMC3    C5 7242   1.168   2.710  12.627  0.5153  1.0108  0.3040
  487TMC3    C6 7243   1.098   2.604  12.578  0.7931 -0.0324 -0.4942
  487TMC3     C 7244   0.920   2.974  12.607  0.8476 -0.2542 -0.4050
  487TMC3     O 7245   0.810   2.973  12.556  0.3733 -0.2937  0.0844
  487TMC3     H 7246   0.797   2.746  12.571  0.4376 -2.3140  0.1590
  487TMC3    H1 7247   1.169   2.907  12.714  0.4015 -0.1896 -0.8533
  487TMC3    H2 7248   1.126   2.501  12.599  0.1308 -0.2817 -0.8404
  487TMC3    C7 7249   1.303   2.683  12.679 -0.0265 -0.0407  0.2036
  487TMC3    C8 7250   0.889   2.506  12.548  0.0832  0.3336 -0.7399
  487TMC3    O1 7251   1.349   2.775  12.748  0.2402  0.2597 -0.9730
  487TMC3    O2 7252   0.942   2.411  12.492 -0.0367  0.0717 -0.1014
  488MPD2     C 7253   1.271   4.570  16.288 -0.2915 -0.1440 -0.6862
  488MPD2    C1 7254   1.262   4.709  16.288  0.0065  0.7451  0.5049
  488MPD2    C2 7255   1.196   0.046  16.395 -0.5631 -0.0938  0.5506
  488MPD2    C3 7256   1.154   4.687  16.503  0.3414 -0.3130 -0.4094
  488MPD2    C4 7257   1.187   4.555  16.508 -0.1879 -0.1100  0.3805
  488MPD2    C5 7258   1.248   4.497  16.399 -0.1578 -0.0059  0.5132
  488MPD2     H 7259   1.178   0.153  16.400 -3.3321 -0.6375  2.2318
  488MPD2    H1 7260   1.164   4.490  16.592  0.6299  0.0022  0.6988
  488MPD2    H2 7261   1.311   4.512  16.205 -0.4710 -1.5961  0.2304
  488MPD2    H3 7262   1.257   4.389  16.401  1.2702  0.1262  1.5689
  488MPD2     N 7263   1.064   0.015  16.603 -0.1118  0.2738 -0.1486
  488MPD2    H5 7264   1.028   0.107  16.580 -1.6745 -0.0241  1.1286
  488MPD2    N1 7265   1.287   0.063  16.173 -0.2763 -0.4190  0.2395
  488MPD2    H7 7266   1.277   0.163  16.186 -4.2841 -0.5934 -1.6143
  489TMC3    C1 7267   0.892   0.020  16.741 -0.4477  0.2728 -0.1389
  489TMC3    C2 7268   0.821   0.052  16.628 -0.0788  0.7141 -0.6178
  489TMC3    C3 7269   0.763   0.176  16.618  0.1908 -0.3469 -0.3818
  489TMC3    C4 7270   0.891   0.091  16.856 -0.3806 -0.5430 -0.1023
  489TMC3    C5 7271   0.814   0.207  16.848  0.7506 -0.0078  0.0504
  489TMC3    C6 7272   0.757   0.256  16.733  0.5011  0.7794 -0.7466
  489TMC3     C 7273   1.021   4.684  16.713 -0.4685 -0.0000 -0.3704
  489TMC3     O 7274   1.058   4.589  16.778  0.3654  0.4476 -0.5042
  489TMC3     H 7275   0.833   4.704  16.547  4.1330  2.4709 -1.5801
  489TMC3    H1 7276   0.955   0.055  16.935 -0.9629 -0.7925  0.2572
  489TMC3    H2 7277   0.707   0.352  16.725 -1.4390 -0.0981  0.7071
  489TMC3    C7 7278   0.767   0.268  16.974 -0.7128  0.5626 -0.0640
  489TMC3    C8 7279   0.758   0.255  16.492 -0.0692  0.2378  0.1533
  489TMC3    O1 7280   0.750   0.390  16.985  0.0221 -0.8867  0.1634
  489TMC3    O2 7281   0.736   0.372  16.489 -0.9425 -0.3105 -0.0579
  490MPD2     C 7282   1.986   3.957  17.029 -0.4153 -0.2337 -0.0375
  490MPD2    C1 7283   1.881   3.964  17.123 -0.5190 -0.1390 -0.7098
  490MPD2    C2 7284   1.875   4.069  17.209  0.1422 -0.1191  0.1368
  490MPD2    C3 7285   1.980   4.161  17.202 -1.2631 -0.0590  0.3161
  490MPD2    C4 7286   2.081   4.152  17.113  0.0668 -0.0332 -0.0285
  490MPD2    C5 7287   2.086   4.045  17.033  0.9224  0.0852 -0.0662
  490MPD2     H 7288   1.801   4.080  17.288  1.9850 -1.1286  2.0152
  490MPD2    H1 7289   2.163   4.222  17.101  1.1540 -0.9432  2.1474
  490MPD2    H2 7290   1.991   3.888  16.946  1.7648 -1.3224  1.0252
  490MPD2    H3 7291   2.160   4.048  16.954  1.0107 -1.5627 -0.0504
  490MPD2     N 7292   1.977   4.285  17.272  0.5363  0.4041 -0.5688
  490MPD2    H5 7293   2.069   4.327  17.272  1.4978 -1.6991 -0.4809
  490MPD2    N1 7294   1.770   3.874  17.125 -0.7213 -0.6267 -0.2270
  490MPD2    H7 7295   1.692   3.911  17.177 -0.0599 -1.9797  1.7134
  491TMC3    C1 7296   1.635   3.685  17.103 -0.3606  0.3916 -0.3150
  491TMC3    C2 7297   1.605   3.700  17.236  0.1626  0.4866  0.1144
  491TMC3    C3 7298   1.488   3.637  17.273  0.0969 -0.1276  0.2085
  491TMC3    C4 7299   1.555   3.618  17.005 -0.1255 -0.2293  0.6291
  491TMC3    C5 7300   1.432   3.580  17.048 -0.2085 -0.5731  0.0961
  491TMC3    C6 7301   1.397   3.576  17.184  0.1939  0.6173  0.1919
  491TMC3     C 7302   1.754   3.751  17.068 -0.0571 -0.8410  0.3725
  491TMC3     O 7303   1.836   3.694  16.996 -0.3320 -0.0895  0.2998
  491TMC3     H 7304   1.680   3.713  17.314 -0.3626 -0.4552  0.7752
  491TMC3    H1 7305   1.584   3.604  16.901  0.9454 -1.6336  1.1231
  491TMC3    H2 7306   1.300   3.552  17.226  0.7160 -1.9089 -0.0322
  491TMC3    C7 7307   1.335   3.537  16.948 -0.2633 -0.2037 -0.3460
  491TMC3    C8 7308   1.488   3.604  17.415 -0.1486  0.1615 -0.2228
  491TMC3    O1 7309   1.278   3.435  16.977  0.1971 -0.0812 -0.2577
  491TMC3    O2 7310   1.514   3.693  17.494 -0.1932  0.2203 -1.0354
  492MPD2     C 7311   1.668   4.466  11.120  0.1549  0.6327  0.3645
  492MPD2    C1 7312   1.614   4.361  11.045  0.0531  0.2219 -0.4893
  492MPD2    C2 7313   1.544   4.257  11.111  0.2684 -0.6442  0.0678
  492MPD2    C3 7314   1.524   4.265  11.250 -0.8584  0.4236 -0.3790
  492MPD2    C4 7315   1.578   4.373  11.322 -0.1768  0.7093  0.7248
  492MPD2    C5 7316   1.648   4.472  11.255  0.2352  0.6824  0.1981
  492MPD2     H 7317   1.505   4.171  11.057 -0.7438 -0.0888 -0.0973
  492MPD2    H1 7318   1.557   4.383  11.428  1.2127  1.4712  0.9262
  492MPD2    H2 7319   1.702   4.557  11.071 -0.4198  0.0078 -1.1697
  492MPD2    H3 7320   1.669   4.563  11.309  0.6869  0.8275 -0.2338
  492MPD2     N 7321   1.458   4.169  11.325  0.4823 -0.1707 -0.2044
  492MPD2    H5 7322   1.465   4.180  11.426  2.3405 -0.8741 -0.2525
  492MPD2    N1 7323   1.628   4.371  10.898  0.0916 -0.4990  0.6494
  492MPD2    H7 7324   1.702   4.432  10.865 -1.7959  1.5862  0.2596
  493TMC3    C1 7325   1.603   4.297  10.682 -0.0066  0.5707  0.1687
  493TMC3    C2 7326   1.740   4.298  10.660 -0.7574  1.0840  0.0840
  493TMC3    C3 7327   1.781   4.247  10.539 -0.1993 -1.1604  0.7817
  493TMC3    C4 7328   1.516   4.255  10.580 -0.4263 -0.0137  0.4413
  493TMC3    C5 7329   1.564   4.202  10.464 -0.0404  0.6318  0.2765
  493TMC3    C6 7330   1.698   4.197  10.438  0.2013 -0.5043 -0.0728
  493TMC3     C 7331   1.557   4.289  10.815 -0.4277  0.3755  0.7536
  493TMC3     O 7332   1.451   4.230  10.837  0.4033  0.1385  0.1086
  493TMC3     H 7333   1.809   4.327  10.738  0.6118  0.0291 -0.7414
  493TMC3    H1 7334   1.410   4.258  10.601 -0.7206  2.2746 -1.4161
  493TMC3    H2 7335   1.730   4.165  10.339  1.2707  0.7733 -0.1418
  493TMC3    C7 7336   1.479   4.120  10.386  0.4173 -0.2610 -0.7402
  493TMC3    C8 7337   1.915   4.288  10.508  0.5570  1.3268  1.1071
  493TMC3    O1 7338   1.406   4.176  10.308  0.2997  0.2602 -0.0288
  493TMC3    O2 7339   1.995   4.289  10.605 -0.0746  0.5859  0.1818
  494TMC3    C1 7340   2.629   1.081   0.461  0.1347 -0.0518 -0.5190
  494TMC3    C2 7341   2.695   0.962   0.443 -0.3116 -0.5663 -0.4155
  494TMC3    C3 7342   2.756   0.938   0.322 -0.0019 -0.9820  0.0674
  494TMC3    C4 7343   2.622   1.170   0.354 -0.0241 -0.1047  1.2489
  494TMC3    C5 7344   2.687   1.149   0.238  0.2670 -0.1041 -0.3528
  494TMC3    C6 7345   2.746   1.023   0.218  0.4047 -0.3297  0.0245
  494TMC3     C 7346   2.519   1.094   0.561  0.8683  0.1395 -1.0345
  494TMC3     O 7347   2.461   1.200   0.559  0.1447  0.0390 -0.1532
  494TMC3     H 7348   2.705   0.889   0.522 -0.0260  0.5954  0.6200
  494TMC3    H1 7349   2.559   1.258   0.363  0.0090  0.1134 -0.5959
  494TMC3    H2 7350   2.802   1.015   0.125 -0.4313  1.4316 -0.6452
  494TMC3    C7 7351   2.655   1.217   0.110  0.5970 -0.0175 -0.6185
  494TMC3    C8 7352   2.825   0.809   0.324  0.0521  0.5778  0.5269
  494TMC3    O1 7353   2.651   1.142   0.010  0.4683 -0.1674  0.1593
  494TMC3    O2 7354   2.849   0.755   0.435 -0.1660 -0.5206  0.1611
  495TMC3    C1 7355   1.516   2.925  14.368 -0.3234  0.5789 -0.3630
  495TMC3    C2 7356   1.417   2.976  14.283  0.4011 -0.5621 -0.2246
  495TMC3    C3 7357   1.312   3.061  14.332  0.1810  0.3131 -0.1096
  495TMC3    C4 7358   1.523   2.971  14.501 -0.3532  0.6633  0.3610
  495TMC3    C5 7359   1.420   3.050  14.548  0.0381 -0.6691 -0.2171
  495TMC3    C6 7360   1.314   3.094  14.467  0.2152 -0.0715  0.6106
  495TMC3     C 7361   1.518   2.780  14.362 -0.1392 -0.2177  0.0485
  495TMC3     O 7362   1.441   2.730  14.285  0.6347  0.2583  0.2265
  495TMC3     H 7363   1.423   2.934  14.184 -1.6003  0.1143 -0.6287
  495TMC3    H1 7364   1.600   2.937  14.569  0.2844  0.5461 -0.4134
  495TMC3    H2 7365   1.232   3.154  14.506 -0.1795  0.0217 -0.3670
  495TMC3    C7 7366   1.402   3.052  14.692  0.6934  0.3648 -0.1560
  495TMC3    C8 7367   1.190   3.021  14.276  0.2657 -0.4886 -0.1146
  495TMC3    O1 7368   1.508   3.074  14.753 -0.3154  0.0988 -0.3426
  495TMC3    O2 7369   1.092   3.094  14.280  0.2584  0.2082  0.4060
  496MPD2     C 7370   3.955   3.034  15.535  0.1416  0.0654 -0.3799
  496MPD2    C1 7371   3.898   2.913  15.559 -0.3441 -0.4112  0.3989
  496MPD2    C2 7372   3.837   2.884  15.684 -0.5407 -0.1676  0.2217
  496MPD2    C3 7373   3.831   2.973  15.786 -0.5100  0.4494 -0.0844
  496MPD2    C4 7374   3.892   3.097  15.761 -0.2685  0.2831 -0.1661
  496MPD2    C5 7375   3.945   3.126  15.636  0.6176  0.0108  0.0059
  496MPD2     H 7376   3.797   2.785  15.704 -0.3593  0.1866  2.3187
  496MPD2    H1 7377   3.901   3.170  15.841 -0.1690 -0.0007  0.0862
  496MPD2    H2 7378   4.008   3.066  15.446  1.4250 -0.8060  0.0692
  496MPD2    H3 7379   3.987   3.223  15.611  0.1106 -0.1350 -1.4489
  496MPD2     N 7380   3.764   2.944  15.907 -0.3003 -0.6613 -0.3811
  496MPD2    H5 7381   3.696   2.870  15.910 -0.4043 -0.5204  0.7516
  496MPD2    N1 7382   3.890   2.826  15.445 -0.3368  0.0351  0.0013
  496MPD2    H7 7383   3.941   2.847  15.359 -1.6106  1.6634 -0.3476
  497TMC3    C1 7384   3.658   2.971  16.110 -0.1510 -0.1046 -0.1362
  497TMC3    C2 7385   3.535   2.938  16.062 -0.2291  0.5745  0.0352
  497TMC3    C3 7386   3.442   2.903  16.153 -0.0940 -0.0239 -0.3988
  497TMC3    C4 7387   3.683   2.981  16.246 -0.2220 -0.1293 -0.1087
  497TMC3    C5 7388   3.587   2.943  16.331 -0.8131  0.2121 -0.6867
  497TMC3    C6 7389   3.465   2.906  16.288  0.4605 -0.3107 -0.4480
  497TMC3     C 7390   3.759   3.017  16.025 -0.1177  0.2010 -0.1062
  497TMC3     O 7391   3.830   3.111  16.065 -1.2732  0.1707  0.0994
  497TMC3     H 7392   3.508   2.959  15.959 -0.3946 -1.1157 -0.2557
  497TMC3    H1 7393   3.773   3.031  16.280 -0.4767 -0.9536  1.8144
  497TMC3    H2 7394   3.391   2.865  16.356  1.8549 -1.0892  0.6134
  497TMC3    C7 7395   3.600   2.938  16.470  0.4509 -0.5351 -0.7957
  497TMC3    C8 7396   3.317   2.852  16.100 -0.1413 -0.1704 -0.2850
  497TMC3    O1 7397   3.499   2.937  16.541 -0.0290  0.3653 -0.0079
  497TMC3    O2 7398   3.226   2.855  16.179 -0.3236 -0.3500  0.2665
  498MPD2     C 7399   3.556   4.433   9.915  0.3876 -0.0630  0.7419
  498MPD2    C1 7400   3.656   4.367   9.982  0.4686 -0.1339  0.6488
  498MPD2    C2 7401   3.626   4.251  10.052 -0.3161  0.1947  0.4481
  498MPD2    C3 7402   3.501   4.199  10.045 -0.9963  0.2882  0.0224
  498MPD2    C4 7403   3.397   4.271   9.988  0.0556  0.1542 -0.2563
  498MPD2    C5 7404   3.426   4.393   9.932  0.5132  0.4522  0.3609
  498MPD2     H 7405   3.708   4.206  10.107 -0.5071 -0.4679  0.1836
  498MPD2    H1 7406   3.294   4.238   9.984 -0.1869  1.0746 -1.9754
  498MPD2    H2 7407   3.560   4.532   9.871 -0.1191 -0.9596 -1.3155
  498MPD2    H3 7408   3.345   4.450   9.887  1.8048  2.9081  1.1814
  498MPD2     N 7409   3.487   4.066  10.100 -0.7167 -0.4151 -0.1694
  498MPD2    H5 7410   3.572   4.025  10.137 -0.8516  0.0342  0.6442
  498MPD2    N1 7411   3.788   4.401   9.959  0.2995 -0.1742 -1.0038
  498MPD2    H7 7412   3.858   4.338   9.998 -1.3993 -2.6041 -1.8184
  499TMC3    C1 7413   3.972   4.509   9.850  0.2124  0.6616  0.0462
  499TMC3    C2 7414   4.033   4.386   9.829 -0.6762 -0.3237 -0.4425
  499TMC3    C3 7415   4.151   4.391   9.753 -0.0888 -0.9355  0.4820
  499TMC3    C4 7416   4.014   4.622   9.792  0.2023 -0.1651 -0.3510
  499TMC3    C5 7417   4.133   4.617   9.731 -0.9436 -0.4814  0.3245
  499TMC3    C6 7418   4.209   4.506   9.716  1.3612  0.5370 -0.4867
  499TMC3     C 7419   3.828   4.509   9.879  0.3161 -0.6240 -0.5144
  499TMC3     O 7420   3.764   4.606   9.842 -0.2641  0.2047  0.0766
  499TMC3     H 7421   3.983   4.295   9.862  1.5035 -1.6235 -0.7401
  499TMC3    H1 7422   3.963   4.714   9.817  1.5819 -0.2237  2.6183
  499TMC3    H2 7423   4.307   4.528   9.675  0.9589 -0.2621 -1.8650
  499TMC3    C7 7424   4.141   4.696   9.613 -0.1796 -0.4942  0.5692
  499TMC3    C8 7425   4.235   4.276   9.744 -0.3820  0.2913 -0.3406
  499TMC3    O1 7426   4.250   4.723   9.561 -0.2933  0.5982  0.0947
  499TMC3    O2 7427   4.350   4.299   9.706 -0.5546  0.4861 -0.0222
  500MPD2     C 7428   0.965   0.492   9.659  0.3795 -0.4832  0.2105
  500MPD2    C1 7429   1.043   0.599   9.621  0.2884 -0.2137  0.4245
  500MPD2    C2 7430   0.989   0.702   9.543 -0.6359  1.4672  0.0785
  500MPD2    C3 7431   0.855   0.698   9.500  0.5197  0.9304  0.3339
  500MPD2    C4 7432   0.783   0.584   9.519  0.5120  0.6194 -0.0671
  500MPD2    C5 7433   0.842   0.486   9.601  0.1615 -0.4455  0.6100
  500MPD2     H 7434   1.051   0.790   9.524  0.9673  0.3806  0.2685
  500MPD2    H1 7435   0.687   0.561   9.474  0.7099  4.6821 -2.5511
  500MPD2    H2 7436   0.990   0.402   9.714 -0.2040  0.2828  1.7167
  500MPD2    H3 7437   0.773   0.408   9.629 -0.6930 -0.5850 -1.8272
  500MPD2     N 7438   0.797   0.822   9.454 -0.1335  0.2438 -0.6247
  500MPD2    H5 7439   0.863   0.896   9.475 -0.0859 -0.2809  1.0212
  500MPD2    N1 7440   1.169   0.608   9.686  0.7073  0.8095  0.1175
  500MPD2    H7 7441   1.215   0.696   9.664 -0.5220  1.6711  0.9948
  501TMC3    C1 7442   1.328   0.620   9.846  0.0283 -0.2139 -0.0745
  501TMC3    C2 7443   1.326   0.760   9.843 -0.8515  0.5841  0.3103
  501TMC3    C3 7444   1.386   0.832   9.944  0.2296  0.4156  0.0394
  501TMC3    C4 7445   1.401   0.558   9.949  0.0405 -0.4058  0.3755
  501TMC3    C5 7446   1.465   0.632  10.049  0.2817  0.6177  0.0851
  501TMC3    C6 7447   1.452   0.769  10.050  0.6813 -0.2693 -0.3578
  501TMC3     C 7448   1.226   0.535   9.785 -1.0914 -0.2102  0.2491
  501TMC3     O 7449   1.198   0.422   9.829 -0.4813 -0.0926  0.4887
  501TMC3     H 7450   1.268   0.813   9.769 -0.6909 -0.1459 -0.3350
  501TMC3    H1 7451   1.402   0.450   9.954  2.9779 -0.3449  1.0763
  501TMC3    H2 7452   1.514   0.830  10.115 -1.5025  0.3412  1.1470
  501TMC3    C7 7453   1.546   0.557  10.142 -0.6731 -0.3889 -0.5352
  501TMC3    C8 7454   1.386   0.980   9.928 -0.3378 -0.5054 -0.0805
  501TMC3    O1 7455   1.572   0.440  10.114  0.2724 -0.6833 -0.1606
  501TMC3    O2 7456   1.372   1.028   9.817  0.5124  0.3815 -0.3540
  502TMC3    C1 7457   0.752   3.333  14.656 -0.2047 -0.2930  0.1240
  502TMC3    C2 7458   0.745   3.452  14.590 -0.4534 -0.0447 -0.1413
  502TMC3    C3 7459   0.645   3.540  14.613 -1.0956 -0.4542  0.0004
  502TMC3    C4 7460   0.639   3.288  14.715  0.6014  0.5468 -0.1468
  502TMC3    C5 7461   0.535   3.376  14.727  0.4533 -0.3465  0.2163
  502TMC3    C6 7462   0.534   3.506  14.689 -0.3580  0.5917  1.0673
  502TMC3     C 7463   0.867   3.329  14.743 -0.2930  0.1139 -0.5431
  502TMC3     O 7464   0.971   3.385  14.715 -0.1363 -0.4023 -0.2312
  502TMC3     H 7465   0.834   3.475  14.532 -0.5752  0.5664 -0.0820
  502TMC3    H1 7466   0.635   3.184  14.743  1.6605  0.0125 -1.9569
  502TMC3    H2 7467   0.450   3.572  14.708  0.9958  2.0507  1.9805
  502TMC3    C7 7468   0.437   3.335  14.831  0.3379 -0.6490 -0.8366
  502TMC3    C8 7469   0.695   3.680  14.634 -0.2946  0.0682  0.3271
  502TMC3    O1 7470   0.464   3.219  14.871  0.5629  0.4072 -0.3984
  502TMC3    O2 7471   0.609   3.769  14.644 -0.4990 -0.0603  0.0834
  503MPD2     C 7472   2.883   4.512  16.465 -0.5651  0.1577 -0.2333
  503MPD2    C1 7473   2.959   4.592  16.540  0.2745  0.1792 -0.1872
  503MPD2    C2 7474   3.042   4.535  16.641 -0.0763 -0.2754  1.4980
  503MPD2    C3 7475   3.065   4.396  16.640 -0.2778  0.2250 -0.3709
  503MPD2    C4 7476   2.980   4.324  16.551  0.2980  0.4277 -0.1614
  503MPD2    C5 7477   2.887   4.377  16.465 -1.0030 -0.1147  0.1868
  503MPD2     H 7478   3.103   4.610  16.690 -1.2986  1.6465  0.1092
  503MPD2    H1 7479   2.995   4.217  16.557 -0.8506  0.2730 -0.1928
  503MPD2    H2 7480   2.792   4.538  16.411 -0.8312 -0.5947 -0.1443
  503MPD2    H3 7481   2.826   4.329  16.390  1.4520 -1.4568 -0.9739
  503MPD2     N 7482   3.174   4.351  16.721 -0.0869  0.2220  0.0878
  503MPD2    H5 7483   3.222   4.418  16.779 -0.2683  0.8005 -0.4253
  503MPD2    N1 7484   2.945   0.012  16.547  0.2487 -0.2673  0.3385
  503MPD2    H7 7485   2.975   0.070  16.624 -1.4625  0.3297  0.5575
  504TMC3    C1 7486   3.328   4.196  16.827 -0.2199  0.0034  0.1555
  504TMC3    C2 7487   3.310   4.220  16.960  0.2131  0.3994 -0.1729
  504TMC3    C3 7488   3.408   4.166  17.042  0.2923  0.4345 -0.0685
  504TMC3    C4 7489   3.427   4.116  16.771  0.3856  0.0729  0.6070
  504TMC3    C5 7490   3.522   4.070  16.856 -0.8112 -0.1153  0.8397
  504TMC3    C6 7491   3.513   4.089  16.997  0.6865  0.3319 -0.8273
  504TMC3     C 7492   3.221   4.220  16.732  0.0037  0.2356 -0.0005
  504TMC3     O 7493   3.198   4.131  16.653 -0.2432  0.3089 -0.0316
  504TMC3     H 7494   3.241   4.297  16.992 -0.8978  0.8321 -3.5779
  504TMC3    H1 7495   3.428   4.087  16.666  0.1462 -1.4020  1.0139
  504TMC3    H2 7496   3.597   4.056  17.058 -1.3548 -0.6020  1.4675
  504TMC3    C7 7497   3.626   3.988  16.802 -0.0221 -0.2421 -0.1319
  504TMC3    C8 7498   3.394   4.198  17.187  0.6543  0.5815 -0.0997
  504TMC3    O1 7499   3.675   4.016  16.693  0.2768  0.0278  0.3665
  504TMC3    O2 7500   3.316   4.282  17.225  0.2356 -0.3419 -0.3150
  505MPD2     C 7501   3.025   3.385  10.839  0.0441 -0.0849  0.8831
  505MPD2    C1 7502   3.081   3.265  10.886  0.6042  0.1924 -0.0923
  505MPD2    C2 7503   3.192   3.279  10.969 -0.5412  0.0888  0.3631
  505MPD2    C3 7504   3.245   3.406  11.005  0.1642 -0.1694 -0.8884
  505MPD2    C4 7505   3.189   3.522  10.952  0.2314 -0.4688  0.4435
  505MPD2    C5 7506   3.089   3.506  10.864 -0.1866 -0.0028 -0.5479
  505MPD2     H 7507   3.241   3.194  11.016  0.5101 -1.0965 -2.8810
  505MPD2    H1 7508   3.225   3.619  10.981  1.8579 -0.9636  0.0676
  505MPD2    H2 7509   2.936   3.384  10.778  0.1176  2.8815  0.7154
  505MPD2    H3 7510   3.055   3.590  10.804  0.0165 -0.3244 -1.1149
  505MPD2     N 7511   3.352   3.422  11.099 -0.0784  0.0971  0.2190
  505MPD2    H5 7512   3.386   3.516  11.117 -1.7532  1.0412 -1.5789
  505MPD2    N1 7513   3.013   3.145  10.862 -0.3111 -0.4412 -0.1568
  505MPD2    H7 7514   2.931   3.142  10.802 -1.2678  0.7026  1.1069
  506TMC3    C1 7515   3.012   2.917  10.808 -0.2512 -1.1252 -0.0744
  506TMC3    C2 7516   3.015   2.957  10.674 -0.2624 -0.4532  0.4978
  506TMC3    C3 7517   3.060   2.869  10.582  0.0006  0.7238 -0.6057
  506TMC3    C4 7518   3.066   2.800  10.834 -0.4555 -0.6039 -0.3041
  506TMC3    C5 7519   3.115   2.718  10.730 -0.6399  0.2486 -0.0353
  506TMC3    C6 7520   3.092   2.740  10.603  0.1660  0.2010 -0.6613
  506TMC3     C 7521   3.055   3.021  10.900  0.1192  0.4005  0.0794
  506TMC3     O 7522   3.139   2.989  10.984  0.2394 -0.0169  0.1412
  506TMC3     H 7523   2.996   3.061  10.648 -0.6957 -0.9054 -0.9792
  506TMC3    H1 7524   3.060   2.767  10.937  0.3062 -0.8472 -0.3409
  506TMC3    H2 7525   3.131   2.681  10.522 -1.0113 -0.2226 -0.9270
  506TMC3    C7 7526   3.256   2.684  10.754 -0.5632  1.1735  0.9862
  506TMC3    C8 7527   3.060   2.901  10.440  0.3649 -0.2843 -0.3160
  506TMC3    O1 7528   3.323   2.621  10.672 -0.3160  0.1179  0.3318
  506TMC3    O2 7529   3.066   2.819  10.353  0.3978 -0.0302  0.2974
  507TMC3    C1 7530   3.912   3.920  14.713 -0.0020 -0.7375  0.7192
  507TMC3    C2 7531   3.862   3.887  14.593 -0.5309  0.1570  0.2524
  507TMC3    C3 7532   3.952   3.862  14.491 -0.2308  0.0627 -0.3410
  507TMC3    C4 7533   4.042   3.944  14.733  0.2451 -0.4282 -0.0500
  507TMC3    C5 7534   4.128   3.926  14.629  0.1093  0.1697  0.1325
  507TMC3    C6 7535   4.084   3.868  14.519 -0.5437  0.5692 -0.2970
  507TMC3     C 7536   3.816   3.947  14.823  0.5662  0.4046 -0.5911
  507TMC3     O 7537   3.698   3.949  14.790 -0.1990  0.0505  0.3160
  507TMC3     H 7538   3.756   3.896  14.569  0.0992  0.9501 -2.2048
  507TMC3    H1 7539   4.083   3.987  14.824  1.3610  1.3371 -1.3802
  507TMC3    H2 7540   4.152   3.845  14.438 -0.8567  0.3177 -0.4855
  507TMC3    C7 7541   4.228   4.030  14.610 -0.2936  0.3682  0.5276
  507TMC3    C8 7542   3.921   3.916  14.360  0.8090 -0.0005  0.3336
  507TMC3    O1 7543   4.279   4.058  14.718  0.0800  0.7605  0.8946
  507TMC3    O2 7544   4.019   3.960  14.299 -0.0087 -0.0841 -0.3166
  508MPD2     C 7545   0.171   1.563  15.733  0.0886  1.4639  0.1874
  508MPD2    C1 7546   0.309   1.573  15.707 -0.6188 -0.4519  0.7342
  508MPD2    C2 7547   0.360   1.617  15.589  0.1569  0.1461 -0.1492
  508MPD2    C3 7548   0.269   1.652  15.492 -0.0715  0.6697 -0.0842
  508MPD2    C4 7549   0.133   1.644  15.516  0.1845  0.6592  0.6273
  508MPD2    C5 7550   0.087   1.610  15.637  0.2097  0.0585 -0.4134
  508MPD2     H 7551   0.468   1.622  15.576  0.1856  1.0038  0.4424
  508MPD2    H1 7552   0.066   1.702  15.454 -0.2768 -0.7947 -0.2257
  508MPD2    H2 7553   0.131   1.526  15.828 -0.4590  5.0358  1.3330
  508MPD2    H3 7554   4.708   1.635  15.657  0.4222  0.5787  0.0229
  508MPD2     N 7555   0.315   1.694  15.365  0.2688  0.2041  0.3098
  508MPD2    H5 7556   0.410   1.669  15.342  0.7505  0.3216  2.1684
  508MPD2    N1 7557   0.387   1.559  15.826 -0.2786 -0.0851  0.5175
  508MPD2    H7 7558   0.334   1.537  15.909 -0.3111 -0.9628  0.2682
  509TMC3    C1 7559   0.291   1.913  14.951  0.2159 -0.8065 -0.4190
  509TMC3    C2 7560   0.411   1.975  14.974 -0.2084 -0.3109  0.3880
  509TMC3    C3 7561   0.487   1.931  15.085  0.3838 -0.0946 -0.2667
  509TMC3    C4 7562   0.243   1.823  15.042 -0.7226  0.1132 -0.0503
  509TMC3    C5 7563   0.318   1.787  15.149  1.1570 -0.6789  0.4186
  509TMC3    C6 7564   0.440   1.839  15.173  0.0455  0.4270  0.0802
  509TMC3     C 7565   0.200   1.966  14.854 -0.1563  0.6293  0.2139
  509TMC3     O 7566   0.141   1.872  14.797  0.0275  0.0661  0.0696
  509TMC3     H 7567   0.445   2.045  14.899  1.4469 -1.8928 -0.3433
  509TMC3    H1 7568   0.144   1.782  15.026 -0.2982 -0.8808 -0.0938
  509TMC3    H2 7569   0.488   1.827  15.269  0.7694  0.4272 -0.2877
  509TMC3    C7 7570   0.243   1.740  15.260  0.3761  1.4469 -0.7560
  509TMC3    C8 7571   0.603   2.005  15.134  0.6511  0.4590  0.8433
  509TMC3    O1 7572   0.121   1.764  15.253 -0.3108  0.5043  0.4315
  509TMC3    O2 7573   0.681   1.943  15.202 -0.2123 -0.4053 -0.9393
  510MPD2     C 7574   3.000   3.520  13.968  0.2753 -0.1336  0.3685
  510MPD2    C1 7575   3.072   3.443  14.060 -0.6808 -0.7621  0.2375
  510MPD2    C2 7576   3.202   3.410  14.025  0.3645 -0.0035  0.6887
  510MPD2    C3 7577   3.253   3.442  13.901  0.8064 -0.0174  0.2766
  510MPD2    C4 7578   3.170   3.505  13.813 -0.3190  0.2243 -0.0292
  510MPD2    C5 7579   3.043   3.542  13.840 -0.3725  0.7108 -0.2809
  510MPD2     H 7580   3.278   3.370  14.090  0.6323  0.1300  0.4593
  510MPD2    H1 7581   3.200   3.526  13.711 -0.0682  1.8810  0.3705
  510MPD2    H2 7582   2.896   3.549  13.980  0.2968  0.3579 -0.6207
  510MPD2    H3 7583   2.986   3.591  13.762 -0.0920  0.6056 -0.5535
  510MPD2     N 7584   3.386   3.414  13.864  0.1773 -0.2769  0.2104
  510MPD2    H5 7585   3.440   3.365  13.934 -0.1993  1.6446  1.8563
  510MPD2    N1 7586   3.012   3.411  14.178 -0.2323  0.6861  0.2609
  510MPD2    H7 7587   2.919   3.447  14.197 -0.4812  0.4892 -0.6139
  511TMC3    C1 7588   2.965   3.252  14.352 -0.4064 -0.3105 -0.1889
  511TMC3    C2 7589   2.879   3.336  14.414  0.0405  0.5251  0.5830
  511TMC3    C3 7590   2.778   3.275  14.492  0.4453 -0.4254 -0.1518
  511TMC3    C4 7591   2.949   3.119  14.353 -0.0939  0.0486  0.7360
  511TMC3    C5 7592   2.847   3.060  14.422 -0.4741 -0.1648 -0.1139
  511TMC3    C6 7593   2.759   3.139  14.499  0.2581 -0.8701 -0.4521
  511TMC3     C 7594   3.067   3.312  14.265  0.2357 -0.4621  0.3054
  511TMC3     O 7595   3.177   3.254  14.258  0.2230  0.1558  0.2326
  511TMC3     H 7596   2.888   3.444  14.408 -1.0453  0.6364  1.0556
  511TMC3    H1 7597   3.005   3.060  14.282 -0.8751  0.0307  0.1337
  511TMC3    H2 7598   2.677   3.090  14.551  0.6680  0.4390  1.4331
  511TMC3    C7 7599   2.794   2.932  14.370  0.2889 -0.3500  0.7823
  511TMC3    C8 7600   2.679   3.362  14.553 -0.3257 -0.3377  0.0052
  511TMC3    O1 7601   2.819   2.907  14.253  0.5860 -0.1029 -0.1413
  511TMC3    O2 7602   2.710   3.458  14.626 -0.0814 -0.1368 -0.2708
  512TMC3    C1 7603   1.710   2.831  12.864  0.2951  0.2158 -0.3178
  512TMC3    C2 7604   1.771   2.819  12.988 -0.1678  0.3241  0.3226
  512TMC3    C3 7605   1.836   2.702  13.015  0.4393  1.1129 -0.1283
  512TMC3    C4 7606   1.712   2.733  12.764  0.1554  0.0811 -0.0953
  512TMC3    C5 7607   1.776   2.617  12.805 -0.8519 -1.1250 -0.1892
  512TMC3    C6 7608   1.833   2.595  12.926 -0.0240  0.0952  0.2733
  512TMC3     C 7609   1.678   2.968  12.823 -0.9461  0.3528 -0.3871
  512TMC3     O 7610   1.657   3.046  12.915 -0.0560  0.0339 -0.4583
  512TMC3     H 7611   1.767   2.907  13.051 -0.0038  1.3906 -1.1565
  512TMC3    H1 7612   1.660   2.729  12.669 -0.1730  1.0664  0.0442
  512TMC3    H2 7613   1.898   2.509  12.938 -3.7563 -2.6599  0.8205
  512TMC3    C7 7614   1.782   2.518  12.695 -0.9372  0.5545 -0.3250
  512TMC3    C8 7615   1.903   2.667  13.144  0.3006 -0.5996  0.3118
  512TMC3    O1 7616   1.747   2.549  12.582 -0.3565  0.3325 -0.1184
  512TMC3    O2 7617   1.931   2.545  13.151 -0.5649  0.2892  0.1528
  513MPD2     C 7618   3.452   2.595  13.352 -0.5838  0.2756  0.4046
  513MPD2    C1 7619   3.557   2.624  13.262  0.2624  0.1185 -0.2282
  513MPD2    C2 7620   3.673   2.685  13.301  0.4169  0.2874  0.3605
  513MPD2    C3 7621   3.693   2.705  13.433 -0.5900 -0.1774  1.0463
  513MPD2    C4 7622   3.597   2.674  13.528 -0.1519 -0.0266 -0.0391
  513MPD2    C5 7623   3.481   2.610  13.488 -0.2358  0.6017  0.0825
  513MPD2     H 7624   3.750   2.707  13.228 -1.4877  1.0547 -1.4279
  513MPD2    H1 7625   3.617   2.670  13.635 -0.5609  1.9321  0.1103
  513MPD2    H2 7626   3.359   2.547  13.323 -0.2608  0.0913 -0.3458
  513MPD2    H3 7627   3.403   2.580  13.557  0.8709 -2.8139 -0.1471
  513MPD2     N 7628   3.818   2.762  13.457 -0.4102  0.1104 -0.2795
  513MPD2    H5 7629   3.869   2.799  13.377 -0.0071  0.4854  0.1530
  513MPD2    N1 7630   3.550   2.601  13.127  0.1400 -0.4301 -0.0957
  513MPD2    H7 7631   3.634   2.619  13.072 -0.5767 -0.0951 -1.0868
  514TMC3    C1 7632   3.470   2.543  12.923  0.0729  0.2155 -0.2230
  514TMC3    C2 7633   3.418   2.640  12.849 -0.3791  1.2082  0.8157
  514TMC3    C3 7634   3.478   2.687  12.737 -0.3929 -0.5600 -1.0887
  514TMC3    C4 7635   3.600   2.515  12.899 -0.3692  0.0135 -0.5609
  514TMC3    C5 7636   3.672   2.582  12.803  0.1907 -0.1870  0.6508
  514TMC3    C6 7637   3.611   2.671  12.712 -0.2929  0.1948 -0.1556
  514TMC3     C 7638   3.436   2.558  13.059 -0.4792  0.1568 -0.3495
  514TMC3     O 7639   3.319   2.558  13.092  0.7624  0.2739 -0.4106
  514TMC3     H 7640   3.312   2.655  12.870 -0.3535  1.8744  0.4702
  514TMC3    H1 7641   3.649   2.441  12.962 -0.5794  1.6832  1.5556
  514TMC3    H2 7642   3.656   2.698  12.617  1.3578  0.0277  0.5905
  514TMC3    C7 7643   3.797   2.627  12.860  0.4391 -0.4421 -0.8507
  514TMC3    C8 7644   3.389   2.744  12.637 -0.2221 -0.4660 -0.4982
  514TMC3    O1 7645   3.811   2.615  12.985  0.5288  0.1514  0.1824
  514TMC3    O2 7646   3.269   2.724  12.653  0.3115  0.3141 -0.2630
  515MPD2     C 7647   1.860   4.712  14.433  1.7082 -0.1731  0.3101
  515MPD2    C1 7648   1.809   4.722  14.563 -0.2636 -0.0042  0.0709
  515MPD2    C2 7649   1.894   0.028  14.672  0.0143  0.2919 -0.1763
  515MPD2    C3 7650   2.029   0.043  14.649 -0.1106  0.5633 -0.1023
  515MPD2    C4 7651   2.073   0.042  14.521  0.0191  0.0296 -0.5593
  515MPD2    C5 7652   1.993   0.017  14.416  0.6070  0.1884 -0.0589
  515MPD2     H 7653   1.851   0.017  14.771 -0.2373 -0.5320 -0.3729
  515MPD2    H1 7654   2.177   0.065  14.499 -0.2236  1.1103 -0.6095
  515MPD2    H2 7655   1.802   4.685  14.345  1.7379 -0.3492  0.3442
  515MPD2    H3 7656   2.033   0.009  14.315  0.7798  1.9519 -0.1386
  515MPD2     N 7657   2.127   0.053  14.747  0.7539  0.2186 -0.4662
  515MPD2    H5 7658   2.221   0.067  14.713  0.9069  0.0581 -0.1124
  515MPD2    N1 7659   1.681   4.674  14.600 -0.2083  0.1083  0.1428
  515MPD2    H7 7660   1.661   4.665  14.699 -1.0189  1.0672  0.0714
  516TMC3    C1 7661   1.478   4.570  14.570 -0.4825 -0.3604 -0.4845
  516TMC3    C2 7662   1.380   4.560  14.482 -0.7338  0.3716 -0.1410
  516TMC3    C3 7663   1.316   4.439  14.473 -0.7200  0.3911  0.3032
  516TMC3    C4 7664   1.507   4.467  14.656  0.1177 -0.4524  0.1357
  516TMC3    C5 7665   1.437   4.350  14.651 -0.1308  0.1835 -0.3361
  516TMC3    C6 7666   1.339   4.333  14.559  0.0871  0.4761 -0.1679
  516TMC3     C 7667   1.589   4.634  14.507  0.1672  0.0739  0.2947
  516TMC3     O 7668   1.584   4.646  14.384 -0.0412  0.0704  0.1929
  516TMC3     H 7669   1.363   4.644  14.416 -0.7347 -1.2790 -2.2366
  516TMC3    H1 7670   1.588   4.473  14.728  0.4478 -0.7972 -0.2052
  516TMC3    H2 7671   1.286   4.240  14.540 -1.7187  1.1943  1.3998
  516TMC3    C7 7672   1.475   4.241  14.738 -0.0924 -0.5047  0.1319
  516TMC3    C8 7673   1.254   4.405  14.352  0.3906  0.1510  0.5780
  516TMC3    O1 7674   1.503   4.275  14.853 -0.3442  0.1390  0.2591
  516TMC3    O2 7675   1.171   4.316  14.355 -0.2166 -1.0908  0.5474
  517MPD2     C 7676   1.072   1.269  17.216  0.0511  0.9053  0.2920
  517MPD2    C1 7677   1.204   1.244  17.225 -0.3629 -0.4417 -0.4728
  517MPD2    C2 7678   1.286   1.332  17.287 -0.6837 -0.5876  0.3734
  517MPD2    C3 7679   1.244   1.447  17.330  0.3479  0.0541  0.3270
  517MPD2    C4 7680   1.112   1.476  17.327 -0.6651  0.6100  0.7792
  517MPD2    C5 7681   1.023   1.385  17.265 -0.0445  0.9011  0.0193
  517MPD2     H 7682   1.392   1.308  17.294 -1.1557 -1.2181  4.8043
  517MPD2    H1 7683   1.075   1.575  17.350  0.1530  1.7676 -3.0533
  517MPD2    H2 7684   1.005   1.195  17.174  0.5404 -0.1573  1.3969
  517MPD2    H3 7685   0.919   1.415  17.262 -1.4377 -3.7464  0.7811
  517MPD2     N 7686   1.330   1.538  17.392  0.4499 -0.0390  0.1899
  517MPD2    H5 7687   1.290   1.609  17.453 -0.6091  0.2315 -0.8307
  517MPD2    N1 7688   1.266   1.127  17.178  0.2659  0.2934  0.1066
  517MPD2    H7 7689   1.367   1.120  17.182  0.3697  2.1536  0.8636
  518TMC3    C1 7690   1.301   0.927  17.064 -0.2569  0.6430 -0.4129
  518TMC3    C2 7691   1.255   0.804  17.031  0.0164 -0.7935  0.2422
  518TMC3    C3 7692   1.344   0.718  16.970 -0.5058 -0.9818 -0.1535
  518TMC3    C4 7693   1.428   0.967  17.048  0.4695 -0.6437  0.4954
  518TMC3    C5 7694   1.515   0.879  16.992  0.1568 -0.2549  0.6580
  518TMC3    C6 7695   1.474   0.757  16.942  0.5219 -0.3506 -0.6385
  518TMC3     C 7696   1.201   1.024  17.118 -0.6472  1.2721  0.1624
  518TMC3     O 7697   1.086   0.983  17.127 -0.4606  0.0289  0.1068
  518TMC3     H 7698   1.148   0.785  17.038 -0.6435  2.5134 -0.7194
  518TMC3    H1 7699   1.461   1.069  17.059 -0.1669 -0.0837 -3.0050
  518TMC3    H2 7700   1.538   0.698  16.878  1.1144 -0.6593  0.2353
  518TMC3    C7 7701   1.642   0.929  16.941 -0.1929  0.3345 -0.1329
  518TMC3    C8 7702   1.319   0.580  16.965 -0.3244 -0.8005 -0.4957
  518TMC3    O1 7703   1.653   1.047  16.926 -0.2656 -0.2391  0.2555
  518TMC3    O2 7704   1.388   0.522  16.884  0.1260 -0.1818 -0.3617
  519MPD2     C 7705   2.688   4.432  14.154 -0.0617  0.2819  0.0055
  519MPD2    C1 7706   2.624   4.332  14.097  0.3170  0.1536 -0.4910
  519MPD2    C2 7707   2.689   4.208  14.086 -0.4513  0.4919  0.1592
  519MPD2    C3 7708   2.818   4.186  14.139 -0.2959  0.4088  0.2636
  519MPD2    C4 7709   2.878   4.290  14.206 -0.9770 -0.3791 -0.0066
  519MPD2    C5 7710   2.809   4.411  14.216  0.3481  0.2623  0.2303
  519MPD2     H 7711   2.643   4.133  14.022 -0.6631 -0.6563  1.6558
  519MPD2    H1 7712   2.977   4.287  14.248 -1.2499  0.4277  0.7049
  519MPD2    H2 7713   2.646   4.532  14.160  1.3849  0.8747  0.1273
  519MPD2    H3 7714   2.856   4.499  14.256  0.5136 -0.8121  2.4212
  519MPD2     N 7715   2.898   4.073  14.113  0.3714 -0.2452  0.1424
  519MPD2    H5 7716   2.997   4.088  14.126  0.4222  0.8737 -1.5011
  519MPD2    N1 7717   2.504   4.364  14.028  0.1650  0.1976  0.1124
  519MPD2    H7 7718   2.483   4.462  14.010  3.0995  1.0285  1.2365
  520TMC3    C1 7719   2.950   3.897  13.960 -0.1272 -0.1012 -0.0036
  520TMC3    C2 7720   2.898   3.880  13.831 -0.2010  0.9976  0.1109
  520TMC3    C3 7721   2.987   3.873  13.724  0.2822  0.3279 -0.1373
  520TMC3    C4 7722   3.079   3.895  13.987  0.0374 -0.1848  0.0098
  520TMC3    C5 7723   3.161   3.875  13.878  0.0645 -0.0645  0.2005
  520TMC3    C6 7724   3.121   3.873  13.742 -0.3179 -1.1755 -0.0006
  520TMC3     C 7725   2.851   3.963  14.048 -0.1326 -0.2889 -0.5180
  520TMC3     O 7726   2.739   3.921  14.051 -0.2986  0.1336 -0.3113
  520TMC3     H 7727   2.791   3.893  13.821 -0.7030 -2.0819  1.4893
  520TMC3    H1 7728   3.118   3.898  14.088  0.7880  1.4233 -0.3446
  520TMC3    H2 7729   3.184   3.834  13.663  0.1898 -0.2402 -0.0519
  520TMC3    C7 7730   3.301   3.861  13.907  0.0305 -0.3269  0.9152
  520TMC3    C8 7731   2.948   3.867  13.582  0.2477 -0.4427 -0.1262
  520TMC3    O1 7732   3.323   3.814  14.018  0.2280 -0.0070 -0.1245
  520TMC3    O2 7733   3.037   3.860  13.506  0.6581 -0.8734 -0.5763
  521MPD2     C 7734   4.092   2.144  17.280  0.2282  0.4721 -0.5070
  521MPD2    C1 7735   4.015   2.074  17.188 -0.5165  0.0364  0.2606
  521MPD2    C2 7736   4.085   1.984  17.100  0.7280  0.5706 -0.6120
  521MPD2    C3 7737   4.226   1.963  17.115 -0.1769  0.3293  0.4783
  521MPD2    C4 7738   4.291   2.023  17.217  0.1691  0.6855 -0.0461
  521MPD2    C5 7739   4.223   2.112  17.297  0.2450 -0.2233  0.1476
  521MPD2     H 7740   4.034   1.925  17.024  2.6303 -1.2873 -0.4590
  521MPD2    H1 7741   4.396   2.007  17.236  0.0679  0.4678  0.3364
  521MPD2    H2 7742   4.042   2.207  17.352  1.0561  0.3717  0.1491
  521MPD2    H3 7743   4.274   2.166  17.376 -0.7990  3.3137 -1.5558
  521MPD2     N 7744   4.290   1.880  17.021  0.1320  0.6200 -0.6220
  521MPD2    H5 7745   4.227   1.847  16.948 -0.2319 -0.3229  0.1193
  521MPD2    N1 7746   3.878   2.102  17.189 -0.6143 -0.2863  0.3667
  521MPD2    H7 7747   3.853   2.171  17.259  1.2774  0.5204  0.2461
  522TMC3    C1 7748   4.460   1.787  16.894 -0.4225  0.6059  0.1678
  522TMC3    C2 7749   4.561   1.698  16.897 -0.7199  0.1593 -0.3307
  522TMC3    C3 7750   4.637   1.673  16.794  0.6243  0.7211 -0.2141
  522TMC3    C4 7751   4.443   1.860  16.777  0.1441  0.0132 -0.0261
  522TMC3    C5 7752   4.515   1.832  16.665  0.4616 -0.1668  0.2878
  522TMC3    C6 7753   4.619   1.741  16.671  0.2901 -0.1955 -1.2898
  522TMC3     C 7754   4.428   1.858  17.013  0.7876 -0.8829  0.0691
  522TMC3     O 7755   4.519   1.888  17.093  0.2819  0.2068  0.4022
  522TMC3     H 7756   4.605   1.665  16.990 -0.0900  0.4730 -0.5211
  522TMC3    H1 7757   4.370   1.941  16.781  1.3051  1.0851 -0.8641
  522TMC3    H2 7758   4.682   1.729  16.583  2.4144 -0.0830  0.2223
  522TMC3    C7 7759   4.491   1.896  16.537 -0.3169 -0.4803  0.1402
  522TMC3    C8 7760   0.030   1.589  16.819 -0.7483  0.7594  0.3442
  522TMC3    O1 7761   4.582   1.906  16.453  0.5383 -0.2013 -0.5724
  522TMC3    O2 7762   0.024   1.520  16.921  0.4124 -0.6921  0.2041
  523MPD2     C 7763   1.028   2.122   9.958 -0.5126  0.8281  0.2858
  523MPD2    C1 7764   1.167   2.142   9.965  0.7742 -0.3155 -0.3544
  523MPD2    C2 7765   1.218   2.265  10.000 -0.4072  1.0287  0.0380
  523MPD2    C3 7766   1.129   2.370  10.005  0.4770  0.3057  0.0719
  523MPD2    C4 7767   0.992   2.358   9.975  0.1160  0.0684 -0.0301
  523MPD2    C5 7768   0.940   2.229   9.968  0.4071 -0.0266 -0.2678
  523MPD2     H 7769   1.326   2.264  10.004 -0.5586 -0.0445  3.6422
  523MPD2    H1 7770   0.921   2.440   9.973  0.4543  0.3055 -2.2577
  523MPD2    H2 7771   0.987   2.030   9.917  1.2054  0.0333  0.3103
  523MPD2    H3 7772   0.834   2.210   9.959  0.1882  1.4661 -0.7013
  523MPD2     N 7773   1.165   2.505  10.027  0.3880  0.1417  0.0760
  523MPD2    H5 7774   1.092   2.572  10.003  0.2090 -1.0056 -2.6063
  523MPD2    N1 7775   1.246   2.027   9.946  0.0672  0.3593 -0.0440
  523MPD2    H7 7776   1.193   1.951   9.905 -0.0554  1.0505 -1.1695
  524TMC3    C1 7777   1.283   2.704  10.075 -0.3853 -0.6111 -0.0055
  524TMC3    C2 7778   1.402   2.771  10.081  0.1951 -0.1441  0.4422
  524TMC3    C3 7779   1.401   2.907  10.048  0.4587 -0.0929 -0.4891
  524TMC3    C4 7780   1.166   2.775  10.076  0.6152  0.1720 -0.6389
  524TMC3    C5 7781   1.172   2.910  10.039 -0.7789 -0.3863 -0.0739
  524TMC3    C6 7782   1.285   2.984  10.035  0.3328  0.7792  0.4388
  524TMC3     C 7783   1.287   2.558  10.068  0.7305 -0.8303 -0.4756
  524TMC3     O 7784   1.394   2.502  10.091  0.2580 -0.2590  0.2142
  524TMC3     H 7785   1.490   2.711  10.063 -0.1655 -0.4952 -0.1221
  524TMC3    H1 7786   1.068   2.729  10.075 -0.0850  1.6611  0.7661
  524TMC3    H2 7787   1.287   3.090  10.015 -0.5694  0.8417  0.6827
  524TMC3    C7 7788   1.047   2.969  10.007  0.0230  0.6878 -0.1850
  524TMC3    C8 7789   1.530   2.961  10.021 -0.0902 -0.0092 -0.2079
  524TMC3    O1 7790   0.951   2.916  10.067 -0.3233 -0.0277 -0.0147
  524TMC3    O2 7791   1.545   3.030   9.917  0.2425 -0.6860 -0.2326
  525MPD2     C 7792   4.322   3.706  14.280  0.2622  0.0046 -0.9955
  525MPD2    C1 7793   4.406   3.749  14.378  1.0021 -0.7955  0.1909
  525MPD2    C2 7794   4.492   3.852  14.364 -0.2802 -0.3218  0.1437
  525MPD2    C3 7795   4.499   3.916  14.244  0.8333 -0.1855  0.1782
  525MPD2    C4 7796   4.424   3.870  14.134  0.0641 -0.1372 -0.5083
  525MPD2    C5 7797   4.333   3.765  14.152  0.6386 -0.1424 -0.6610
  525MPD2     H 7798   4.557   3.880  14.445 -1.2871  0.3285  0.7302
  525MPD2    H1 7799   4.428   3.916  14.036  3.2693 -1.8592 -1.1988
  525MPD2    H2 7800   4.246   3.631  14.298  1.3069 -0.9976 -0.7784
  525MPD2    H3 7801   4.265   3.739  14.072  1.8348 -0.3358 -1.6052
  525MPD2     N 7802   4.585   4.023  14.239  0.4722 -0.0336 -0.5349
  525MPD2    H5 7803   4.615   4.057  14.330  0.0839 -0.6357 -0.1810
  525MPD2    N1 7804   4.408   3.688  14.499  0.2035  0.0232 -0.9435
  525MPD2    H7 7805   4.479   3.724  14.562 -0.2021 -0.8253  0.0156
  526TMC3    C1 7806   4.427   3.492  14.627  0.3097 -0.5145 -0.2726
  526TMC3    C2 7807   4.392   3.357  14.653  0.2581  0.0742 -0.1781
  526TMC3    C3 7808   4.481   3.281  14.732  0.4192  0.3040  0.1042
  526TMC3    C4 7809   4.550   3.538  14.657 -0.5739  0.0290  0.1206
  526TMC3    C5 7810   4.638   3.448  14.695 -0.6065 -0.3999  0.0433
  526TMC3    C6 7811   4.610   3.325  14.746 -0.2873  0.4288 -0.3267
  526TMC3     C 7812   4.343   3.573  14.535  0.4095  0.4261  0.2179
  526TMC3     O 7813   4.256   3.507  14.478  0.1386 -0.7634  0.0130
  526TMC3     H 7814   4.291   3.321  14.637  0.1008  0.1433  0.6683
  526TMC3    H1 7815   4.587   3.637  14.633  0.2259  0.2045  2.1231
  526TMC3    H2 7816   4.684   3.268  14.801  1.4709  1.5426 -1.5146
  526TMC3    C7 7817   0.046   3.477  14.645  0.2434 -0.1205 -0.1333
  526TMC3    C8 7818   4.429   3.215  14.844 -0.6343 -0.3687  0.3419
  526TMC3    O1 7819   0.083   3.596  14.641 -0.4024 -0.3006  0.1981
  526TMC3    O2 7820   4.519   3.179  14.924 -0.3261 -0.4913 -0.3823
  527MPD2     C 7821   2.784   1.059   0.780 -0.1525 -0.5619  0.3122
  527MPD2    C1 7822   2.817   1.171   0.710 -0.4110  0.6144 -0.5279
  527MPD2    C2 7823   2.944   1.181   0.656  0.1170  0.1273  0.6512
  527MPD2    C3 7824   3.035   1.076   0.666 -0.5138 -0.1563  0.2703
  527MPD2    C4 7825   2.995   0.962   0.730 -0.2012  0.6787  0.1904
  527MPD2    C5 7826   2.870   0.957   0.786  1.3503 -0.5468  0.2984
  527MPD2     H 7827   2.978   1.272   0.609 -1.4630 -0.1077 -0.9624
  527MPD2    H1 7828   3.063   0.883   0.756 -0.8400  0.3194  0.7561
  527MPD2    H2 7829   2.699   1.050   0.847 -1.8786  1.7936 -1.5357
  527MPD2    H3 7830   2.845   0.857   0.820 -1.0974  0.5287  1.6532
  527MPD2     N 7831   3.168   1.104   0.628 -0.2628  0.4100  0.5548
  527MPD2    H5 7832   3.190   1.192   0.582  1.3302 -1.7776 -2.9160
  527MPD2    N1 7833   2.741   1.290   0.713 -0.2323  0.3749 -0.4896
  527MPD2    H7 7834   2.770   1.369   0.657  0.3808  1.0521  0.7672
  528TMC3    C1 7835   2.610   1.447   0.830  0.2699 -0.1240 -0.1708
  528TMC3    C2 7836   2.702   1.544   0.793 -0.1433 -0.3264  0.3278
  528TMC3    C3 7837   2.692   1.673   0.850  0.6606  0.1703  0.6131
  528TMC3    C4 7838   2.509   1.480   0.911  0.2344 -0.1511  0.3131
  528TMC3    C5 7839   2.509   1.610   0.969 -0.3278 -0.2046 -0.7820
  528TMC3    C6 7840   2.593   1.708   0.931 -0.4606 -0.1624  0.4525
  528TMC3     C 7841   2.641   1.304   0.807 -0.2551 -0.4088  0.3819
  528TMC3     O 7842   2.587   1.231   0.890  0.1287  0.2725  0.6498
  528TMC3     H 7843   2.786   1.532   0.726 -0.2128 -0.1826  0.2158
  528TMC3    H1 7844   2.437   1.406   0.943  1.2190 -0.6522  1.3883
  528TMC3    H2 7845   2.585   1.805   0.980  0.0498 -0.6105  1.4262
  528TMC3    C7 7846   2.447   1.642   1.099 -0.7535  0.2058  0.5430
  528TMC3    C8 7847   2.763   1.785   0.788 -0.1161 -0.2291  0.0480
  528TMC3    O1 7848   2.416   1.758   1.120  0.0434  0.2009 -0.0594
  528TMC3    O2 7849   2.883   1.766   0.770 -0.5139  0.5313 -0.5507
  529MPD2     C 7850   0.330   4.628  17.645  0.3787 -0.4052  0.0088
  529MPD2    C1 7851   0.254   4.636   0.061 -0.1779  0.5344  1.1863
  529MPD2    C2 7852   0.200   0.038   0.089  0.6337 -0.0500  0.1519
  529MPD2    C3 7853   0.236   0.152   0.019  0.4170 -0.4480 -0.2407
  529MPD2    C4 7854   0.312   0.139  17.602 -0.2367 -0.5752  0.3754
  529MPD2    C5 7855   0.357   0.013  17.572  0.6496 -0.4363  0.1116
  529MPD2     H 7856   0.127   0.035   0.170  0.6664  1.4623  0.2365
  529MPD2    H1 7857   0.339   0.215  17.529  1.7184 -1.9098 -0.2793
  529MPD2    H2 7858   0.351   4.534  17.595 -0.7257 -1.0659  0.7738
  529MPD2    H3 7859   0.404   0.006  17.475 -1.9555 -1.8632 -1.0599
  529MPD2     N 7860   0.190   0.280   0.051  0.1551  0.0077  0.6938
  529MPD2    H5 7861   0.221   0.349  17.682  0.9653  0.0833  1.1332
  529MPD2    N1 7862   0.226   4.528   0.148  0.2499  0.5543 -0.1254
  529MPD2    H7 7863   0.194   4.553   0.241 -0.9710  2.8144 -1.1655
  530TMC3    C1 7864   0.230   4.310   0.237 -0.1043  0.2343 -0.0547
  530TMC3    C2 7865   0.232   4.367   0.363  0.6160  0.7199  1.1755
  530TMC3    C3 7866   0.209   4.291   0.471 -0.5604  0.3472  0.5757
  530TMC3    C4 7867   0.190   4.181   0.220 -0.0199 -0.5055  0.2388
  530TMC3    C5 7868   0.147   4.111   0.334 -0.3157 -0.1300 -0.1289
  530TMC3    C6 7869   0.157   4.168   0.455 -0.3807 -0.2726 -0.6236
  530TMC3     C 7870   0.262   4.396   0.128  0.5361  0.2551 -0.2132
  530TMC3     O 7871   0.275   4.348   0.018 -0.4038  0.1063 -0.7391
  530TMC3     H 7872   0.278   4.464   0.375 -2.3471  2.4568 -1.4424
  530TMC3    H1 7873   0.198   4.131   0.124  2.0305  0.2020  0.0546
  530TMC3    H2 7874   0.151   4.113   0.548  2.7022  0.1847 -0.1739
  530TMC3    C7 7875   0.122   3.971   0.312 -0.1549 -0.6435 -0.7056
  530TMC3    C8 7876   0.200   4.353   0.601  0.7109 -0.9388  0.3672
  530TMC3    O1 7877   0.138   3.928   0.195  0.2558  0.3324 -0.2046
  530TMC3    O2 7878   0.155   4.467   0.597 -0.1650  0.0180 -0.4173
  531MPD2     C 7879   4.236   2.877  12.873  0.4233 -1.0129 -0.6243
  531MPD2    C1 7880   4.156   2.844  12.977  0.1941  0.3822 -0.5154
  531MPD2    C2 7881   4.034   2.784  12.940  0.1479  0.2820  0.2649
  531MPD2    C3 7882   4.004   2.751  12.809 -0.3446 -0.1045 -0.6181
  531MPD2    C4 7883   4.096   2.781  12.712 -0.2197  0.9809  0.5651
  531MPD2    C5 7884   4.211   2.843  12.740  0.7678 -1.1505 -0.1111
  531MPD2     H 7885   3.955   2.765  13.012 -0.2329  0.3174 -0.1382
  531MPD2    H1 7886   4.085   2.757  12.607 -1.7692  0.5478  0.8222
  531MPD2    H2 7887   4.330   2.923  12.901  0.6803 -0.1219 -2.9022
  531MPD2    H3 7888   4.272   2.876  12.657  2.4437  0.1821  1.6320
  531MPD2     N 7889   3.880   2.689  12.768  0.0066 -0.1645  0.7183
  531MPD2    H5 7890   3.853   2.682  12.670  2.0446 -0.8681  0.2031
  531MPD2    N1 7891   4.173   2.880  13.114 -0.3893  0.0843 -0.6083
  531MPD2    H7 7892   4.261   2.925  13.135 -1.5645  0.4405  3.5269
  532TMC3    C1 7893   4.126   2.895  13.344  0.4737  0.4468 -0.6041
  532TMC3    C2 7894   4.021   2.901  13.425 -0.2799  0.2030 -0.4200
  532TMC3    C3 7895   4.010   2.825  13.543 -0.1824 -0.3683  0.5794
  532TMC3    C4 7896   4.238   2.826  13.375 -0.4917  0.5523 -0.3706
  532TMC3    C5 7897   4.228   2.749  13.486 -0.3298 -0.0221 -0.1824
  532TMC3    C6 7898   4.116   2.747  13.569 -0.0373 -0.8423  0.7045
  532TMC3     C 7899   4.077   2.852  13.217  0.5509 -0.1256  0.5104
  532TMC3     O 7900   3.958   2.827  13.215  0.3426 -0.3533  0.3060
  532TMC3     H 7901   3.941   2.973  13.412  0.9904  1.5158 -0.8597
  532TMC3    H1 7902   4.325   2.815  13.311  0.9140 -2.5088  2.0333
  532TMC3    H2 7903   4.113   2.692  13.662  1.8525 -1.6029  0.3015
  532TMC3    C7 7904   4.336   2.660  13.513  0.8423  0.3178  0.4173
  532TMC3    C8 7905   3.889   2.756  13.572  0.5604 -0.3218 -0.2802
  532TMC3    O1 7906   4.444   2.686  13.461  0.2371  0.2627  0.3194
  532TMC3    O2 7907   3.862   2.694  13.680 -0.1710 -0.2529  0.5730
  533TMC3    C1 7908   4.681   4.214  14.173 -0.3876  0.5586 -0.1427
  533TMC3    C2 7909   0.095   4.224  14.165 -0.2408 -0.0299 -0.0252
  533TMC3    C3 7910   0.154   4.306  14.257  0.0994 -0.4758 -0.6286
  533TMC3    C4 7911   4.608   4.277  14.278  0.2581 -0.0812 -0.0593
  533TMC3    C5 7912   4.678   4.343  14.374 -0.9158 -0.1781  0.2214
  533TMC3    C6 7913   0.091   4.367  14.363  0.1600  0.9552 -0.5399
  533TMC3     C 7914   4.626   4.092  14.123  0.4164 -0.4457  0.3594
  533TMC3     O 7915   4.587   4.081  14.008 -0.2402  1.2549 -0.6274
  533TMC3     H 7916   0.147   4.152  14.103  1.7440  1.5124 -0.1493
  533TMC3    H1 7917   4.500   4.266  14.285  0.0595  1.7324 -0.2556
  533TMC3    H2 7918   0.144   4.409  14.447 -0.5277 -0.4855  0.6011
  533TMC3    C7 7919   4.636   4.281  14.498 -0.6591  0.8313 -0.2833
  533TMC3    C8 7920   0.299   4.293  14.276 -0.3665  0.0208  0.4010
  533TMC3    O1 7921   4.596   4.166  14.496 -0.0993 -0.2787 -0.7410
  533TMC3    O2 7922   0.353   4.315  14.383 -0.7874  0.2220  0.1428
  534MPD2     C 7923   1.619   0.635   2.158 -0.8629 -0.3307  0.9078
  534MPD2    C1 7924   1.722   0.627   2.060  0.2829 -0.3114 -0.4470
  534MPD2    C2 7925   1.736   0.510   1.993  0.2963 -0.4505 -0.2822
  534MPD2    C3 7926   1.638   0.405   2.008  1.2511  0.1101 -0.4534
  534MPD2    C4 7927   1.538   0.411   2.099  0.2753 -0.9344  0.2418
  534MPD2    C5 7928   1.535   0.526   2.166  0.4458  0.4917  0.3113
  534MPD2     H 7929   1.799   0.511   1.905 -0.1837  0.1674 -0.6117
  534MPD2    H1 7930   1.468   0.329   2.111 -0.5716 -0.3709 -0.8221
  534MPD2    H2 7931   1.595   0.726   2.211  0.3973  0.2337  0.5179
  534MPD2    H3 7932   1.454   0.525   2.238 -2.0300  1.2072 -2.4531
  534MPD2     N 7933   1.660   0.280   1.947  0.1371  0.1317  0.5342
  534MPD2    H5 7934   1.586   0.211   1.951 -1.6239  1.8895 -1.7637
  534MPD2    N1 7935   1.805   0.738   2.031 -0.2852 -0.3349 -0.0730
  534MPD2    H7 7936   1.858   0.736   1.945  2.1699 -1.9314  1.4808
  535TMC3    C1 7937   1.703   0.167   1.743 -0.8001 -0.1873  0.2741
  535TMC3    C2 7938   1.568   0.130   1.734  0.5296 -0.3274  0.3771
  535TMC3    C3 7939   1.519   0.050   1.629  0.0701  0.4086 -0.0662
  535TMC3    C4 7940   1.795   0.126   1.646 -0.5963 -0.1900 -0.5465
  535TMC3    C5 7941   1.747   0.042   1.549  0.2955 -0.2156 -0.2196
  535TMC3    C6 7942   1.609   0.006   1.535 -0.1647  0.0717 -0.5361
  535TMC3     C 7943   1.752   0.257   1.845 -0.4032  0.3663  0.6473
  535TMC3     O 7944   1.862   0.308   1.817 -0.1198  0.3199  0.3727
  535TMC3     H 7945   1.492   0.186   1.787  1.5718  0.6682  0.8087
  535TMC3    H1 7946   1.897   0.163   1.653 -1.2722  1.4606  0.7787
  535TMC3    H2 7947   1.581   4.672   1.448 -1.9836  1.8707 -1.1663
  535TMC3    C7 7948   1.837   4.692   1.467 -0.2056  0.6977 -0.4803
  535TMC3    C8 7949   1.379   0.019   1.612  0.1347 -0.9687 -0.3512
  535TMC3    O1 7950   1.797   4.657   1.355 -0.3142  0.1794 -0.2072
  535TMC3    O2 7951   1.343   4.708   1.499 -0.2618 -0.1901 -0.3511
  536MPD2     C 7952   0.590   2.886  15.981  0.1783 -0.1022 -0.1322
  536MPD2    C1 7953   0.670   2.993  16.022 -0.1507  0.3032  0.3892
  536MPD2    C2 7954   0.672   3.105  15.936 -0.1616 -0.3429 -0.4233
  536MPD2    C3 7955   0.589   3.117  15.826  0.0316 -0.8722 -0.2336
  536MPD2    C4 7956   0.517   3.008  15.783 -0.4106  0.6825  0.4370
  536MPD2    C5 7957   0.522   2.897  15.865 -0.8353  0.2180 -0.5307
  536MPD2     H 7958   0.716   3.198  15.970  1.5701 -1.8533  1.4080
  536MPD2    H1 7959   0.457   3.011  15.693 -0.6693 -1.7340  0.5234
  536MPD2    H2 7960   0.588   2.790  16.032  1.5517 -0.4336 -0.6935
  536MPD2    H3 7961   0.467   2.810  15.830 -0.0843  0.0245 -1.2166
  536MPD2     N 7962   0.576   3.239  15.749 -0.5299 -0.2873  0.1091
  536MPD2    H5 7963   0.512   3.224  15.672 -1.9038  0.9028  1.0187
  536MPD2    N1 7964   0.740   2.983  16.146  0.2659  0.1592 -0.2422
  536MPD2    H7 7965   0.711   2.906  16.206  0.3440 -1.5751 -2.4400
  537TMC3    C1 7966   0.866   3.063  16.332  0.6250  0.3361  0.3698
  537TMC3    C2 7967   0.932   3.168  16.391  0.0117 -0.7544 -0.5361
  537TMC3    C3 7968   0.981   3.150  16.516  0.2883  0.0866 -0.6904
  537TMC3    C4 7969   0.857   2.941  16.389  0.0468 -0.9346  0.1189
  537TMC3    C5 7970   0.918   2.928  16.512 -0.6645  0.4414 -0.6790
  537TMC3    C6 7971   0.985   3.028  16.580  0.0830 -0.2251  0.3310
  537TMC3     C 7972   0.809   3.089  16.201 -0.0061 -0.4337  0.5202
  537TMC3     O 7973   0.854   3.187  16.141  0.0327  0.3393  0.0882
  537TMC3     H 7974   0.942   3.264  16.343  1.0997 -1.3301 -1.4918
  537TMC3    H1 7975   0.798   2.859  16.350 -1.1749 -0.1727  0.3815
  537TMC3    H2 7976   1.021   3.009  16.681 -1.9016 -1.9416  0.7172
  537TMC3    C7 7977   0.848   2.838  16.594 -0.5720  0.1401 -0.2335
  537TMC3    C8 7978   1.036   3.258  16.595 -0.1773 -0.3170  0.2270
  537TMC3    O1 7979   0.733   2.809  16.566 -0.1851  0.5332  0.3398
  537TMC3    O2 7980   1.050   3.237  16.718 -0.1509  0.2185  0.1053
  538TMC3    C1 7981   2.135   2.046  10.854  1.1043  0.1678  0.6742
  538TMC3    C2 7982   2.169   1.954  10.758 -0.2895  0.1667 -0.0774
  538TMC3    C3 7983   2.129   1.982  10.629 -0.8726 -0.8042  0.5531
  538TMC3    C4 7984   2.061   2.155  10.838 -0.6654 -0.4891  0.2017
  538TMC3    C5 7985   2.037   2.179  10.706  1.0336 -0.0831  0.6607
  538TMC3    C6 7986   2.064   2.097  10.593 -0.0789 -0.1116 -0.1112
  538TMC3     C 7987   2.179   2.031  10.987 -1.1653 -0.2917  0.0609
  538TMC3     O 7988   2.105   2.078  11.073  0.0687  0.2137 -0.4393
  538TMC3     H 7989   2.214   1.858  10.780  0.1479  0.7770  1.7155
  538TMC3    H1 7990   2.035   2.223  10.918  1.9997 -0.6633  1.1943
  538TMC3    H2 7991   2.037   2.120  10.491 -1.2743 -2.0187 -0.2198
  538TMC3    C7 7992   1.924   2.266  10.677 -1.0695  0.0079 -0.5706
  538TMC3    C8 7993   2.161   1.874  10.540 -0.3713  0.3918 -0.0883
  538TMC3    O1 7994   1.850   2.201  10.602 -0.2090  0.4238  0.5606
  538TMC3    O2 7995   2.167   1.758  10.583  0.2208 -0.0021 -0.3888
  539MPD2     C 7996   1.573   1.379  11.848  0.1506 -0.5992  0.7107
  539MPD2    C1 7997   1.633   1.426  11.733  0.1700 -0.2842 -0.0358
  539MPD2    C2 7998   1.629   1.560  11.699  0.8794  0.3255 -0.0631
  539MPD2    C3 7999   1.560   1.648  11.775 -0.8166  0.0869 -0.1232
  539MPD2    C4 8000   1.499   1.601  11.887 -0.2640  0.6857 -0.4660
  539MPD2    C5 8001   1.509   1.469  11.922  0.1823  0.3543 -0.1574
  539MPD2     H 8002   1.684   1.592  11.612  2.0317  4.5345  2.2284
  539MPD2    H1 8003   1.450   1.676  11.948  0.9928  2.1213 -1.2319
  539MPD2    H2 8004   1.579   1.279  11.889 -0.2298 -0.3918  1.2891
  539MPD2    H3 8005   1.464   1.452  12.019  2.8758 -1.1940  0.8523
  539MPD2     N 8006   1.538   1.781  11.736  0.0100 -0.6077  0.5114
  539MPD2    H5 8007   1.484   1.836  11.802  0.9078 -1.4434  1.9620
  539MPD2    N1 8008   1.697   1.343  11.645  0.7100  0.0336  0.3515
  539MPD2    H7 8009   1.738   1.375  11.558  1.9833 -1.2538  0.4868
  540TMC3    C1 8010   1.552   1.971  11.602 -0.6420  0.6611 -0.1866
  540TMC3    C2 8011   1.611   2.025  11.499 -0.3449  0.1239  0.1157
  540TMC3    C3 8012   1.531   2.094  11.408 -0.0111  0.6176 -0.1349
  540TMC3    C4 8013   1.424   1.999  11.639 -0.1976 -0.3172 -0.4114
  540TMC3    C5 8014   1.346   2.079  11.558  0.8370 -0.0328 -0.2365
  540TMC3    C6 8015   1.400   2.122  11.439  0.4847 -0.0658 -0.5157
  540TMC3     C 8016   1.602   1.838  11.633 -0.2377  0.0589  0.0648
  540TMC3     O 8017   1.702   1.796  11.576 -0.0537  0.2751  0.2056
  540TMC3     H 8018   1.712   2.004  11.466 -0.2379  0.7438  0.0499
  540TMC3    H1 8019   1.375   1.941  11.716 -1.3346  2.0811  0.6941
  540TMC3    H2 8020   1.355   2.190  11.367  1.0773 -0.4650 -1.2732
  540TMC3    C7 8021   1.225   2.140  11.620  0.7727  0.2782 -0.5459
  540TMC3    C8 8022   1.571   2.122  11.275  0.8789  0.4474 -1.2624
  540TMC3    O1 8023   1.178   2.098  11.728 -0.5338  0.1080 -0.0214
  540TMC3    O2 8024   1.686   2.171  11.273 -0.0866 -0.3669  0.0522
  541MPD2     C 8025   0.164   2.931  13.197  0.3368  0.1337 -0.0122
  541MPD2    C1 8026   0.191   2.848  13.084  0.0563  0.3794  0.0849
  541MPD2    C2 8027   0.218   2.912  12.961 -0.5740  0.1081  0.4020
  541MPD2    C3 8028   0.210   3.048  12.943  0.8077  0.1554  0.3966
  541MPD2    C4 8029   0.206   3.125  13.057  0.3601 -0.0845 -0.3131
  541MPD2    C5 8030   0.180   3.064  13.177 -0.0341 -0.0373 -0.9314
  541MPD2     H 8031   0.232   2.856  12.870  0.7300  2.4799 -0.8590
  541MPD2    H1 8032   0.227   3.231  13.056 -2.8500  0.5771  1.8861
  541MPD2    H2 8033   0.142   2.898  13.298  2.9148  1.3269  0.9331
  541MPD2    H3 8034   0.169   3.126  13.265 -1.9380  1.5971 -2.2912
  541MPD2     N 8035   0.230   3.118  12.824  0.0486  0.0590  0.0391
  541MPD2    H5 8036   0.260   3.215  12.822  1.0387 -0.2484 -0.2438
  541MPD2    N1 8037   0.206   2.705  13.092 -0.8216 -0.4899  0.3776
  541MPD2    H7 8038   0.267   2.664  13.022  0.0305  2.6239 -0.6894
  542TMC3    C1 8039   0.218   3.136  12.584 -0.1926 -0.4760 -0.2358
  542TMC3    C2 8040   0.238   3.069  12.470 -0.0457 -0.2269  0.0870
  542TMC3    C3 8041   0.161   3.116  12.363 -0.3998  0.1829 -0.0186
  542TMC3    C4 8042   0.144   3.248  12.601 -0.3374 -0.5594 -0.0033
  542TMC3    C5 8043   0.085   3.302  12.491 -0.3407 -0.4908  0.3611
  542TMC3    C6 8044   0.093   3.235  12.368  0.4517 -0.7636 -0.1982
  542TMC3     C 8045   0.230   3.050  12.700 -0.4554  0.6930 -0.1572
  542TMC3     O 8046   0.231   2.928  12.674  0.3836 -0.2771  0.1310
  542TMC3     H 8047   0.308   2.986  12.466 -0.0737 -0.2597  0.3083
  542TMC3    H1 8048   0.132   3.296  12.697 -1.7551  0.5046 -0.7255
  542TMC3    H2 8049   0.034   3.261  12.281  1.7650  1.1855 -0.4999
  542TMC3    C7 8050   0.011   3.420  12.501  0.2138  0.3483 -0.2674
  542TMC3    C8 8051   0.205   3.080  12.232  0.1541 -0.9332 -0.6055
  542TMC3    O1 8052   4.712   3.468  12.610 -0.6042 -0.5381  0.4210
  542TMC3    O2 8053   0.115   3.037  12.156 -0.4577 -0.2832  0.3004
  543TMC3    C1 8054   4.536   3.433  16.902  0.2416 -0.2896  0.2144
  543TMC3    C2 8055   4.567   3.298  16.878  0.4451  0.4445  0.4053
  543TMC3    C3 8056   4.648   3.238  16.971 -0.7495  0.2916  0.2921
  543TMC3    C4 8057   4.577   3.498  17.019 -0.1659  0.0335  0.7746
  543TMC3    C5 8058   4.650   3.427  17.112  0.1374  0.1543  0.0758
  543TMC3    C6 8059   4.684   3.294  17.092 -0.1027  0.4531 -0.6155
  543TMC3     C 8060   4.527   3.510  16.778  0.3485  0.7681  0.1794
  543TMC3     O 8061   4.587   3.473  16.681  0.4202 -0.3261 -0.0219
  543TMC3     H 8062   4.546   3.254  16.781  0.6494  2.7801 -0.7123
  543TMC3    H1 8063   4.557   3.604  17.029 -2.3544 -0.1439 -1.7628
  543TMC3    H2 8064   0.050   3.268  17.145 -0.6924 -1.0916 -0.3756
  543TMC3    C7 8065   4.721   3.508  17.218  0.0899  0.2481  0.3007
  543TMC3    C8 8066   4.700   3.105  16.946  0.1494  0.1426  0.6262
  543TMC3    O1 8067   0.022   3.624  17.189  0.3178  0.4339 -0.1341
  543TMC3    O2 8068   4.676   3.061  16.833  0.0725  0.3875 -0.1179
  544MPD2     C 8069   0.209   2.670  17.094  0.7926  0.2690  1.2730
  544MPD2    C1 8070   0.180   2.714  16.968  0.1084  0.8581 -0.2650
  544MPD2    C2 8071   0.121   2.838  16.948  0.3343 -0.8948 -0.3760
  544MPD2    C3 8072   0.074   2.908  17.058 -0.2939 -0.1898  0.7023
  544MPD2    C4 8073   0.110   2.863  17.185  0.2899 -0.1774  0.3625
  544MPD2    C5 8074   0.185   2.753  17.204  0.3425  0.3049  0.0745
  544MPD2     H 8075   0.091   2.874  16.850 -1.7412 -1.2237  0.1338
  544MPD2    H1 8076   0.089   2.920  17.274  2.4288 -0.5721  1.1173
  544MPD2    H2 8077   0.254   2.572  17.109  1.1556  0.1520 -0.6160
  544MPD2    H3 8078   0.225   2.727  17.301 -0.0933 -3.9700 -0.8745
  544MPD2     N 8079   0.009   3.038  17.062  0.1795 -0.0977 -0.4838
  544MPD2    H5 8080   0.003   3.075  17.156 -0.4268  2.1759 -1.4222
  544MPD2    N1 8081   0.213   2.629  16.858 -0.8106  0.2978  0.3434
  544MPD2    H7 8082   0.258   2.541  16.881 -0.1289  0.5732  0.0796
  545TMC3    C1 8083   0.190   2.521  16.660  0.3673  0.3022 -0.0047
  545TMC3    C2 8084   0.213   2.521  16.524 -0.2442 -0.4841  0.1986
  545TMC3    C3 8085   0.205   2.397  16.465  0.5217 -0.2182 -0.5911
  545TMC3    C4 8086   0.148   2.411  16.729  0.5148  0.0945 -0.4573
  545TMC3    C5 8087   0.137   2.296  16.662  0.2663  0.3020 -0.0050
  545TMC3    C6 8088   0.174   2.285  16.533  0.2880 -0.0127  0.2386
  545TMC3     C 8089   0.194   2.647  16.725  0.4087  0.0410  0.2644
  545TMC3     O 8090   0.176   2.748  16.659 -0.7727 -0.1676 -0.0815
  545TMC3     H 8091   0.222   2.616  16.473  2.3028 -1.3875 -1.0259
  545TMC3    H1 8092   0.097   2.420  16.825  0.2813 -0.5733 -0.5161
  545TMC3    H2 8093   0.154   2.189  16.488  1.2443 -0.4773  0.8164
  545TMC3    C7 8094   0.111   2.174  16.734  0.0698  0.6824  0.0044
  545TMC3    C8 8095   0.234   2.383  16.329  0.2494 -0.0067  0.7639
  545TMC3    O1 8096   0.057   2.082  16.672  0.0631  0.0836 -0.0139
  545TMC3    O2 8097   0.163   2.310  16.262  0.0222 -0.6818  0.3640
  546MPD2     C 8098   1.319   3.902  17.282  0.0554  0.0477 -0.2949
  546MPD2    C1 8099   1.268   3.935  17.159 -0.7186  0.2191 -0.9966
  546MPD2    C2 8100   1.304   4.055  17.093  0.6305 -0.5401 -0.3594
  546MPD2    C3 8101   1.414   4.126  17.141 -0.1537 -0.1799 -0.9018
  546MPD2    C4 8102   1.470   4.088  17.261  0.0296 -0.3155 -0.0499
  546MPD2    C5 8103   1.420   3.983  17.333 -0.2647  0.6707 -0.6445
  546MPD2     H 8104   1.264   4.082  16.996 -1.0867 -1.6385  0.0393
  546MPD2    H1 8105   1.550   4.139  17.313  1.2524 -1.4866 -0.7712
  546MPD2    H2 8106   1.273   3.822  17.338  1.8638  0.8309  2.3282
  546MPD2    H3 8107   1.444   3.961  17.436  1.4291 -0.6247 -1.3032
  546MPD2     N 8108   1.477   4.230  17.075  0.0634 -0.0276 -0.5507
  546MPD2    H5 8109   1.549   4.281  17.127  0.6463  0.0513 -1.4237
  546MPD2    N1 8110   1.150   3.863  17.125 -0.7962  0.2939  0.1061
  546MPD2    H7 8111   1.116   3.787  17.183  1.8118 -0.4403  0.6698
  547TMC3    C1 8112   1.008   3.755  16.974  0.0604  0.1094  0.1351
  547TMC3    C2 8113   0.934   3.763  16.869 -0.0614 -0.7414  0.3688
  547TMC3    C3 8114   0.878   3.651  16.823  0.1533 -0.2518 -0.0161
  547TMC3    C4 8115   1.034   3.634  17.036  0.3442 -0.1277 -0.1998
  547TMC3    C5 8116   0.991   3.519  16.977 -0.9128 -0.0552  0.2075
  547TMC3    C6 8117   0.907   3.521  16.868 -0.1118 -0.7249  0.1081
  547TMC3     C 8118   1.087   3.871  17.005 -0.0313  0.4730 -0.0579
  547TMC3     O 8119   1.086   3.952  16.915  0.2568  0.5775 -0.6584
  547TMC3     H 8120   0.905   3.859  16.826 -0.6163 -1.1148 -0.0863
  547TMC3    H1 8121   1.101   3.623  17.120 -0.6024 -0.1244  0.5617
  547TMC3    H2 8122   0.858   3.434  16.826 -0.5038  0.6084 -2.1945
  547TMC3    C7 8123   0.969   3.410  17.069  0.1823 -0.2475 -0.1572
  547TMC3    C8 8124   0.794   3.675  16.705  0.2618  0.6027  0.1681
  547TMC3    O1 8125   0.976   3.440  17.187 -0.2416 -0.4550 -0.3457
  547TMC3    O2 8126   0.800   3.774  16.636 -0.3710 -0.0142 -0.3414
  548MPD2     C 8127   0.807   4.547  11.772  0.2859 -0.2672  0.2262
  548MPD2    C1 8128   0.787   4.517  11.905  0.5824 -0.6405  1.0453
  548MPD2    C2 8129   0.883   4.441  11.972 -0.3916 -0.7864 -0.7607
  548MPD2    C3 8130   0.986   4.377  11.900  0.1378  0.1529 -0.7052
  548MPD2    C4 8131   1.004   4.398  11.765  0.5978 -0.3653 -0.2298
  548MPD2    C5 8132   0.918   4.491  11.703  1.3014 -0.1022  0.2295
  548MPD2     H 8133   0.867   4.431  12.079  1.7514  0.1786 -0.3607
  548MPD2    H1 8134   1.076   4.343  11.706 -0.9410 -0.4566 -2.0251
  548MPD2    H2 8135   0.745   4.614  11.713 -1.4032 -1.0093  1.1415
  548MPD2    H3 8136   0.936   4.519  11.600  0.3725  2.7141  0.8400
  548MPD2     N 8137   1.082   4.308  11.977 -1.0253  0.2034 -0.3932
  548MPD2    H5 8138   1.061   4.307  12.077  0.6876  0.4569 -0.0382
  548MPD2    N1 8139   0.684   4.591  11.977  0.0638  0.2928  0.1472
  548MPD2    H7 8140   0.617   4.651  11.930 -1.8342 -1.2096  0.9233
  549TMC3    C1 8141   0.518   4.653  12.128  0.5512  0.2250  0.2543
  549TMC3    C2 8142   0.487   0.031  12.051  0.2421  0.7069 -0.8039
  549TMC3    C3 8143   0.355   0.068  12.058 -0.5272 -0.5159 -0.6070
  549TMC3    C4 8144   0.425   4.589  12.201  0.7475  0.2693  0.0909
  549TMC3    C5 8145   0.290   4.614  12.190  0.2041  0.3648 -1.0323
  549TMC3    C6 8146   0.254   4.721  12.122 -0.2327  0.3888  0.3025
  549TMC3     C 8147   0.643   4.573  12.107  0.4299  0.0379 -0.4309
  549TMC3     O 8148   0.696   4.501  12.193  0.3087 -0.1896  0.2291
  549TMC3     H 8149   0.562   0.070  11.983  1.4933 -0.1162  0.1095
  549TMC3    H1 8150   0.465   4.499  12.245  1.3247 -1.7146 -4.4260
  549TMC3    H2 8151   0.149   0.021  12.105 -0.0940 -0.3091 -1.4965
  549TMC3    C7 8152   0.184   4.526  12.241  0.2621  0.3367  0.1279
  549TMC3    C8 8153   0.315   0.195  11.992  0.2288 -0.3770  0.1096
  549TMC3    O1 8154   0.072   4.561  12.214  0.7144 -0.2282 -0.1392
  549TMC3    O2 8155   0.199   0.234  12.009  0.4403 -0.0229 -0.3997
  550TMC3    C1 8156   4.468   2.317  12.140 -0.0043 -0.3495 -0.9028
  550TMC3    C2 8157   4.445   2.396  12.247  0.3654 -0.2985 -0.6909
  550TMC3    C3 8158   4.489   2.525  12.249 -0.2867  0.0213 -0.5478
  550TMC3    C4 8159   4.544   2.360  12.033  0.0118 -0.1609 -0.5884
  550TMC3    C5 8160   4.601   2.484  12.037 -0.3368 -0.1274 -0.0650
  550TMC3    C6 8161   4.570   2.569  12.145 -0.0297  0.4173 -0.9564
  550TMC3     C 8162   4.343   2.253  12.104 -0.1126  0.2157 -0.5521
  550TMC3     O 8163   4.282   2.204  12.198 -0.0142 -0.1027  0.2333
  550TMC3     H 8164   4.388   2.361  12.332  0.3206  1.8165  0.1549
  550TMC3    H1 8165   4.553   2.313  11.936 -0.6160 -1.0637 -0.2074
  550TMC3    H2 8166   4.622   2.663  12.160  0.4848  0.0380 -0.3676
  550TMC3    C7 8167   4.553   2.554  11.918  0.5836 -0.1404 -0.4033
  550TMC3    C8 8168   4.389   2.617  12.283  0.0828 -0.7443  0.0915
  550TMC3    O1 8169   4.470   2.488  11.859  0.0169 -0.1204 -0.0719
  550TMC3    O2 8170   4.427   2.730  12.315  0.1541  0.0008  0.3846
  551TMC3    C1 8171   2.317   0.159  13.168 -0.4724 -0.0592 -0.2935
  551TMC3    C2 8172   2.419   0.241  13.129 -0.6724 -0.5651 -0.7744
  551TMC3    C3 8173   2.411   0.373  13.162 -0.8898 -0.4208 -0.1505
  551TMC3    C4 8174   2.218   0.198  13.254 -0.3466 -0.4100 -0.1229
  551TMC3    C5 8175   2.221   0.327  13.292  0.2639 -0.4659  0.0006
  551TMC3    C6 8176   2.322   0.416  13.253  0.1982 -0.1441 -0.2170
  551TMC3     C 8177   2.260   0.076  13.063 -1.1806  0.0241  0.0725
  551TMC3     O 8178   2.142   0.072  13.064 -0.2442  0.3512  0.1676
  551TMC3     H 8179   2.492   0.218  13.053  0.7993 -1.2269  0.8243
  551TMC3    H1 8180   2.137   0.132  13.282 -0.6033  0.5737  1.4652
  551TMC3    H2 8181   2.328   0.518  13.288 -0.0108 -0.1111 -0.2775
  551TMC3    C7 8182   2.133   0.367  13.397 -0.3893 -0.7177  0.6594
  551TMC3    C8 8183   2.492   0.469  13.088  0.5353  0.5178  0.3376
  551TMC3    O1 8184   2.074   0.289  13.467  0.2361  0.4528  0.0231
  551TMC3    O2 8185   2.602   0.423  13.048 -0.0826 -0.1359 -0.1100
  552MPD2     C 8186   3.880   2.270  13.994 -0.5695  0.1217 -0.1080
  552MPD2    C1 8187   3.869   2.135  14.026 -0.3935 -0.7747 -0.3630
  552MPD2    C2 8188   3.987   2.070  14.067  0.1094 -0.7056  0.3425
  552MPD2    C3 8189   4.111   2.130  14.062  0.4116  0.0922 -0.1321
  552MPD2    C4 8190   4.117   2.262  14.027  0.1345  0.4803  0.5213
  552MPD2    C5 8191   4.002   2.334  13.992  0.3730  0.6264 -0.2661
  552MPD2     H 8192   3.981   1.969  14.104 -0.3283 -0.9670 -0.4332
  552MPD2    H1 8193   4.209   2.319  14.026  0.0237  0.6721  1.1523
  552MPD2    H2 8194   3.804   2.332  13.948 -2.6736 -0.0647  3.0660
  552MPD2    H3 8195   4.000   2.437  13.956  0.9228  0.6686 -0.1721
  552MPD2     N 8196   4.230   2.067  14.093 -0.1290 -0.0672 -0.3879
  552MPD2    H5 8197   4.319   2.108  14.067  0.4378  0.6976  2.7484
  552MPD2    N1 8198   3.762   2.054  14.027 -0.4392 -0.5286 -0.1592
  552MPD2    H7 8199   3.768   1.957  14.058  0.9479 -0.0238  1.1355
  553TMC3    C1 8200   3.549   1.992  13.969  0.3662  0.0427 -0.1639
  553TMC3    C2 8201   3.448   1.998  13.878 -0.0693  0.4848  0.1476
  553TMC3    C3 8202   3.393   1.887  13.827  0.1713 -0.0254  0.5975
  553TMC3    C4 8203   3.593   1.873  14.015 -0.2190 -0.2921 -0.5157
  553TMC3    C5 8204   3.528   1.758  13.965  0.3931  0.1415 -0.1017
  553TMC3    C6 8205   3.421   1.767  13.884  0.1063  0.2094  0.3137
  553TMC3     C 8206   3.653   2.088  13.956 -0.2005 -0.1170 -0.0129
  553TMC3     O 8207   3.635   2.181  13.882  0.2037 -0.2778  0.1232
  553TMC3     H 8208   3.415   2.094  13.842 -1.1355  0.5115  1.1956
  553TMC3    H1 8209   3.649   1.864  14.108 -0.1558  0.7784 -0.4457
  553TMC3    H2 8210   3.384   1.673  13.843 -1.7598 -0.0918  2.6543
  553TMC3    C7 8211   3.588   1.638  14.003 -0.9345  0.7619 -0.5126
  553TMC3    C8 8212   3.372   1.898  13.683  0.5466 -0.6803  0.8156
  553TMC3    O1 8213   3.503   1.562  14.058  0.3519  0.1696 -0.0114
  553TMC3    O2 8214   3.422   1.999  13.627 -0.2003 -0.0646  0.6836
  554TMC3    C1 8215   0.600   1.261  11.498 -0.3043 -0.0895  0.4818
  554TMC3    C2 8216   0.546   1.246  11.379 -0.2188  0.1998  0.0982
  554TMC3    C3 8217   0.567   1.343  11.286  0.2145  0.8611 -0.2017
  554TMC3    C4 8218   0.668   1.382  11.531  0.5621  0.6052 -1.0237
  554TMC3    C5 8219   0.682   1.475  11.436  0.1635 -0.1410 -0.0440
  554TMC3    C6 8220   0.638   1.454  11.313  0.2607  0.9157 -0.1106
  554TMC3     C 8221   0.602   1.146  11.582 -0.0498 -0.0995  0.1968
  554TMC3     O 8222   0.559   1.049  11.529 -0.6276  0.7784  0.2278
  554TMC3     H 8223   0.490   1.157  11.352 -0.6430  1.0103 -1.6636
  554TMC3    H1 8224   0.699   1.401  11.633 -1.6412  0.4578 -0.3278
  554TMC3    H2 8225   0.639   1.536  11.243  0.1242  1.8046  0.9363
  554TMC3    C7 8226   0.749   1.602  11.474  0.4063 -0.1218  0.4840
  554TMC3    C8 8227   0.527   1.321  11.145  0.3188  0.5217  0.7921
  554TMC3    O1 8228   0.735   1.653  11.585  0.1619  0.3705  0.2758
  554TMC3    O2 8229   0.555   1.408  11.064 -0.0800 -0.0939  0.2385
  555TMC3    C1 8230   4.648   0.649  14.792 -0.3327 -0.3262  0.2222
  555TMC3    C2 8231   4.562   0.704  14.881 -0.8206 -0.3364  0.3263
  555TMC3    C3 8232   4.560   0.658  15.010  0.3855 -0.6537 -0.5399
  555TMC3    C4 8233   0.031   0.566  14.844  0.1465  0.6011  0.4246
  555TMC3    C5 8234   0.012   0.517  14.970 -0.6835 -0.0233 -0.0102
  555TMC3    C6 8235   4.643   0.565  15.057 -0.3023  0.4972  0.1139
  555TMC3     C 8236   4.686   0.722  14.679  0.1403  0.9071  0.1334
  555TMC3     O 8237   0.070   0.686  14.629 -0.2770 -0.1644 -0.3006
  555TMC3     H 8238   4.481   0.769  14.848 -0.3786 -0.7211 -1.5205
  555TMC3    H1 8239   0.108   0.525  14.779 -2.0145  0.6297 -2.1369
  555TMC3    H2 8240   4.640   0.532  15.160 -1.9156  1.5489  0.3935
  555TMC3    C7 8241   0.083   0.404  15.024  0.2643 -0.4472 -0.0254
  555TMC3    C8 8242   4.487   0.752  15.103  0.2166  0.4234  0.1052
  555TMC3    O1 8243   0.050   0.373  15.134 -0.2408  0.3404  0.3606
  555TMC3    O2 8244   4.393   0.814  15.053 -0.2084 -0.1304  0.1197
  556MPD2     C 8245   2.287   2.607  10.564 -0.0043 -0.1846  0.7710
  556MPD2    C1 8246   2.350   2.489  10.573 -0.0767 -0.2105  0.3339
  556MPD2    C2 8247   2.387   2.433  10.455  0.0902  0.5187 -0.1593
  556MPD2    C3 8248   2.382   2.500  10.334 -0.2812 -0.3995 -0.5036
  556MPD2    C4 8249   2.335   2.633  10.341  0.2697 -0.9976  0.3705
  556MPD2    C5 8250   2.280   2.685  10.453 -0.5043 -0.1133 -0.0124
  556MPD2     H 8251   2.440   2.338  10.456 -2.5030 -0.9205 -0.0352
  556MPD2    H1 8252   2.337   2.694  10.251  0.0712 -0.8952  0.4362
  556MPD2    H2 8253   2.231   2.644  10.649 -2.3085  0.4130 -0.9878
  556MPD2    H3 8254   2.229   2.781  10.451  1.2343  0.7585 -1.9870
  556MPD2     N 8255   2.435   2.439  10.216  0.1934 -0.1368 -0.3738
  556MPD2    H5 8256   2.476   2.346  10.214  1.5319  0.4442 -0.3004
  556MPD2    N1 8257   2.369   2.427  10.700 -0.5037 -0.3138  0.2166
  556MPD2    H7 8258   2.433   2.350  10.713 -0.5053 -0.0618  1.8045
  557TMC3    C1 8259   2.559   2.420  10.012 -0.1996  0.3055 -0.1561
  557TMC3    C2 8260   2.497   2.407   9.890 -0.3493 -0.7827 -0.1704
  557TMC3    C3 8261   2.499   2.277   9.838 -0.1973  0.8348  0.4047
  557TMC3    C4 8262   2.630   2.329  10.080 -0.1822 -0.4113 -0.4446
  557TMC3    C5 8263   2.620   2.202  10.035  0.3679 -0.0654  0.2718
  557TMC3    C6 8264   2.557   2.177   9.910 -0.1296 -0.0456  0.2589
  557TMC3     C 8265   2.466   2.497  10.090  0.4348 -0.0480 -0.1732
  557TMC3     O 8266   2.417   2.598  10.039  0.4210  0.3382 -0.4966
  557TMC3     H 8267   2.446   2.488   9.838 -0.6488  0.9055  2.7723
  557TMC3    H1 8268   2.672   2.359  10.175 -2.3676 -0.3905  0.5207
  557TMC3    H2 8269   2.536   2.074   9.885  1.6377 -0.4589  0.4444
  557TMC3    C7 8270   2.571   2.118  10.145  0.6454  0.1960 -0.4271
  557TMC3    C8 8271   2.433   2.256   9.713  0.9888 -0.5182 -0.2001
  557TMC3    O1 8272   2.535   2.179  10.247 -0.4355 -0.9918 -0.0233
  557TMC3    O2 8273   2.357   2.345   9.672  0.4020  0.0684  0.3173
  558TMC3    C1 8274   0.632   0.976   9.501 -0.0466 -0.1791 -0.2203
  558TMC3    C2 8275   0.707   1.028   9.601 -0.2633  0.2226 -0.0380
  558TMC3    C3 8276   0.662   1.128   9.687  0.2014  0.4208 -0.8512
  558TMC3    C4 8277   0.500   1.007   9.502 -0.6083 -0.9454  0.4281
  558TMC3    C5 8278   0.457   1.115   9.580 -0.3733  0.1097 -0.5711
  558TMC3    C6 8279   0.537   1.177   9.673  0.2075  0.3466 -0.2976
  558TMC3     C 8280   0.663   0.854   9.443  0.5802 -0.9894  0.3952
  558TMC3     O 8281   0.563   0.782   9.423 -0.4294  0.5879  0.1727
  558TMC3     H 8282   0.810   0.993   9.609 -0.2681 -0.1690 -1.7908
  558TMC3    H1 8283   0.435   0.962   9.427  1.7212  0.9875 -2.7440
  558TMC3    H2 8284   0.495   1.255   9.736 -0.4518 -1.0540  1.0179
  558TMC3    C7 8285   0.320   1.093   9.640 -0.3550 -0.5125 -0.4900
  558TMC3    C8 8286   0.743   1.179   9.794  0.3095  0.0241 -0.5313
  558TMC3    O1 8287   0.314   1.122   9.759 -0.8079  0.3887 -0.2011
  558TMC3    O2 8288   0.750   1.303   9.815  0.1973 -0.6309 -0.2170
  559MPD2     C 8289   0.712   0.931  10.397 -0.2650  0.4869 -0.1168
  559MPD2    C1 8290   0.650   0.860  10.501 -0.1666 -0.1486 -0.3195
  559MPD2    C2 8291   0.708   0.849  10.629 -0.0012 -0.1031 -0.4897
  559MPD2    C3 8292   0.828   0.917  10.652  0.2857 -0.8452 -0.1622
  559MPD2    C4 8293   0.883   0.995  10.553  0.0262 -0.3697  0.5082
  559MPD2    C5 8294   0.826   1.001  10.426 -0.4310  0.0416 -0.2096
  559MPD2     H 8295   0.661   0.794  10.709 -0.3894  2.6638  1.1785
  559MPD2    H1 8296   0.969   1.058  10.569  0.9705 -1.5795  0.1548
  559MPD2    H2 8297   0.670   0.931  10.297 -1.1617  1.5349  0.2673
  559MPD2    H3 8298   0.856   1.064  10.343 -0.7615 -0.2429 -0.5481
  559MPD2     N 8299   0.872   0.903  10.788  0.0598 -0.3227  0.1184
  559MPD2    H5 8300   0.814   0.856  10.856  1.9555 -1.7233  0.7527
  559MPD2    N1 8301   0.527   0.801  10.469  0.2302 -0.7199  0.2708
  559MPD2    H7 8302   0.483   0.819  10.380 -0.8708 -1.3131  0.6847
  560TMC3    C1 8303   1.013   0.926  10.983  0.8098 -0.9870  0.0175
  560TMC3    C2 8304   0.970   0.801  11.033 -0.3086  0.5146 -0.0019
  560TMC3    C3 8305   1.032   0.749  11.140  0.5823 -0.0328  0.5536
  560TMC3    C4 8306   1.108   1.002  11.046  0.3228 -0.5829  0.2209
  560TMC3    C5 8307   1.158   0.955  11.168 -0.1524 -0.1222  0.1781
  560TMC3    C6 8308   1.121   0.824  11.211  0.6813  0.1913 -0.2525
  560TMC3     C 8309   0.990   0.955  10.839  0.1005 -0.1260 -1.2204
  560TMC3     O 8310   1.083   1.010  10.777  0.4285  0.3745 -0.3309
  560TMC3     H 8311   0.893   0.740  10.987  0.3557  0.6800 -1.3257
  560TMC3    H1 8312   1.122   1.105  11.016  1.1445 -0.5713  0.6549
  560TMC3    H2 8313   1.153   0.793  11.310 -1.4231  0.8862  0.6393
  560TMC3    C7 8314   1.226   1.045  11.264  0.4645  0.4507 -0.1422
  560TMC3    C8 8315   1.073   0.606  11.127  0.0163 -0.4980 -0.3436
  560TMC3    O1 8316   1.207   1.023  11.383 -0.7669  0.0467 -0.1465
  560TMC3    O2 8317   1.016   0.540  11.042 -0.0769  0.2775  0.6663
  561TMC3    C1 8318   3.197   4.695  10.864 -0.0489  1.3747  0.7767
  561TMC3    C2 8319   3.100   4.639  10.939  0.0283  0.0044  0.6598
  561TMC3    C3 8320   3.064   4.702  11.055 -0.3059  0.0536 -0.1211
  561TMC3    C4 8321   3.256   0.085  10.908  0.6400 -0.8392 -0.5068
  561TMC3    C5 8322   3.206   0.151  11.020 -0.0111  0.1202  0.3570
  561TMC3    C6 8323   3.101   0.098  11.091 -0.5922 -0.5857  0.3104
  561TMC3     C 8324   3.218   4.646  10.727 -0.6671  0.4224  0.1724
  561TMC3     O 8325   3.124   4.598  10.666  0.1718  0.0631 -0.1593
  561TMC3     H 8326   3.066   4.540  10.910  1.1167  0.5453 -2.4395
  561TMC3    H1 8327   3.334   0.141  10.858 -0.0624  1.5050  0.9949
  561TMC3    H2 8328   3.088   0.146  11.187  1.5569  0.1800  0.2383
  561TMC3    C7 8329   3.293   0.222  11.108  0.1005 -0.3705 -0.2114
  561TMC3    C8 8330   2.999   4.621  11.159  0.3857  0.2002  0.6020
  561TMC3    O1 8331   3.285   0.209  11.229  0.6257 -0.2636 -0.4209
  561TMC3    O2 8332   2.982   4.504  11.132 -0.3114 -0.4667  0.5937
  562TMC3    C1 8333   0.112   1.179  16.235  0.0309  0.0700  0.1825
  562TMC3    C2 8334   0.057   1.294  16.181  0.0018  0.0974 -0.4158
  562TMC3    C3 8335   0.013   1.289  16.052 -0.5296 -0.2899  0.6691
  562TMC3    C4 8336   0.104   1.058  16.166  0.0440 -0.1825  0.2157
  562TMC3    C5 8337   0.046   1.052  16.041  0.2848 -0.3508 -0.6089
  562TMC3    C6 8338   0.001   1.170  15.984 -0.4730 -0.2071 -0.7301
  562TMC3     C 8339   0.134   1.168  16.375  0.4245 -0.2820 -0.1684
  562TMC3     O 8340   0.091   1.250  16.456 -0.4504  0.4719  0.0271
  562TMC3     H 8341   0.084   1.388  16.227 -0.3338  0.9320 -1.9335
  562TMC3    H1 8342   0.109   0.963  16.219  0.4320 -0.3308 -0.0864
  562TMC3    H2 8343   4.679   1.174  15.887 -0.0071  0.5152 -0.9284
  562TMC3    C7 8344   0.081   0.943  15.954  0.8566  0.2506  0.3575
  562TMC3    C8 8345   4.656   1.399  16.007  0.4446  0.0247  0.5497
  562TMC3    O1 8346   0.033   0.939  15.845  0.0625  0.5948 -0.0529
  562TMC3    O2 8347   4.646   1.490  16.091 -0.3587  0.0594  0.0077
  563MPD2     C 8348   2.154   2.650  15.397  0.6852  0.4641 -0.7378
  563MPD2    C1 8349   2.177   2.707  15.519  0.3436  0.8570 -0.1717
  563MPD2    C2 8350   2.295   2.666  15.578  0.0700 -0.1283  0.7950
  563MPD2    C3 8351   2.388   2.589  15.517  0.0686 -0.3635 -0.4682
  563MPD2    C4 8352   2.369   2.547  15.385 -0.0390 -0.7899 -0.1036
  563MPD2    C5 8353   2.252   2.581  15.333  0.5744 -0.0352  0.3690
  563MPD2     H 8354   2.308   2.693  15.682 -0.5910 -0.8715  1.0736
  563MPD2    H1 8355   2.423   2.462  15.346  2.0766 -0.0894  1.2804
  563MPD2    H2 8356   2.061   2.655  15.341  0.2388 -0.9918 -0.1220
  563MPD2    H3 8357   2.218   2.534  15.242 -0.9263  1.0778  0.3516
  563MPD2     N 8358   2.507   2.546  15.584  0.1113  0.2546  0.4678
  563MPD2    H5 8359   2.515   2.564  15.683 -0.5938 -0.0046  0.5724
  563MPD2    N1 8360   2.068   2.771  15.590  0.4188 -0.2930  0.3475
  563MPD2    H7 8361   1.983   2.783  15.535  0.0370  1.9468  1.4361
  564TMC3    C1 8362   2.014   2.790  15.813 -0.1128 -0.3934  0.6089
  564TMC3    C2 8363   1.911   2.702  15.787  0.3539  0.5317 -0.5627
  564TMC3    C3 8364   1.889   2.595  15.868 -0.6844  1.2353  0.2940
  564TMC3    C4 8365   2.096   2.769  15.918  0.4111  0.3583  0.5098
  564TMC3    C5 8366   2.078   2.656  16.000 -0.1339 -0.3080  0.3118
  564TMC3    C6 8367   1.967   2.574  15.977  0.3910 -0.6858  0.1483
  564TMC3     C 8368   2.091   2.843  15.700  0.6395 -0.3889  0.1554
  564TMC3     O 8369   2.200   2.901  15.718  0.2139 -0.0092 -0.3716
  564TMC3     H 8370   1.840   2.723  15.707  0.3470 -1.4752 -1.0716
  564TMC3    H1 8371   2.185   2.831  15.923  2.2191 -2.2059 -0.4642
  564TMC3    H2 8372   1.966   2.478  16.027  0.6415  0.1496  1.7440
  564TMC3    C7 8373   2.195   2.571  16.000 -0.3394 -0.2486 -0.2196
  564TMC3    C8 8374   1.857   2.472  15.796  0.5203  0.1218 -0.3951
  564TMC3    O1 8375   2.301   2.609  16.054 -0.1997 -0.4628 -0.4905
  564TMC3    O2 8376   1.844   2.380  15.872  0.1662  0.2478  0.4728
  565TMC3    C1 8377   2.472   3.362  10.567  0.4712 -0.4157  0.2143
  565TMC3    C2 8378   2.431   3.313  10.687 -0.6029 -0.0508  0.5348
  565TMC3    C3 8379   2.401   3.178  10.689  0.2969 -0.3471 -0.8734
  565TMC3    C4 8380   2.463   3.291  10.448  0.5534 -0.3450  0.1719
  565TMC3    C5 8381   2.413   3.167  10.454 -0.1726 -0.0859  0.1796
  565TMC3    C6 8382   2.394   3.100  10.572  0.4573  0.4899 -0.1128
  565TMC3     C 8383   2.499   3.506  10.555  0.3187 -0.0191 -0.4655
  565TMC3     O 8384   2.513   3.562  10.450 -0.5095 -0.0368  0.3422
  565TMC3     H 8385   2.423   3.364  10.783 -4.0874 -2.7641  1.6805
  565TMC3    H1 8386   2.491   3.334  10.352  0.3169  0.4825  0.4739
  565TMC3    H2 8387   2.358   2.998  10.574  0.2795  0.5337 -1.0292
  565TMC3    C7 8388   2.386   3.090  10.333 -0.2785 -0.3424 -0.4049
  565TMC3    C8 8389   2.397   3.118  10.820 -0.1273  0.3079  0.7983
  565TMC3    O1 8390   2.352   2.973  10.348 -0.3648 -0.6241  0.0265
  565TMC3    O2 8391   2.460   3.177  10.905 -0.3046 -0.7711 -0.5889
  566MPD2     C 8392   4.141   0.755  14.007 -0.2926  0.1012  0.4519
  566MPD2    C1 8393   4.202   0.852  13.923 -0.0060  0.5214 -0.2085
  566MPD2    C2 8394   4.122   0.915  13.820  0.1375 -0.8146 -0.6457
  566MPD2    C3 8395   3.994   0.871  13.795  1.1977  0.9674 -0.7302
  566MPD2    C4 8396   3.938   0.787  13.886 -0.5549  0.7557 -0.1248
  566MPD2    C5 8397   4.011   0.724  13.981  1.0733 -0.7397 -0.8412
  566MPD2     H 8398   4.174   0.991  13.763 -2.3596 -0.0305 -1.8533
  566MPD2    H1 8399   3.836   0.752  13.879 -0.7264  0.9474  1.4434
  566MPD2    H2 8400   4.211   0.709  14.077 -0.6907 -3.1933 -1.3349
  566MPD2    H3 8401   3.972   0.642  14.041  1.1490 -1.8458 -2.3223
  566MPD2     N 8402   3.902   0.920  13.702  0.1938 -0.2937 -0.6866
  566MPD2    H5 8403   3.805   0.924  13.731 -0.1649 -0.7334 -1.8526
  566MPD2    N1 8404   4.345   0.871  13.941 -0.2690 -0.0161  0.4150
  566MPD2    H7 8405   4.390   0.816  14.013 -0.4808  0.9246  1.2687
  567TMC3    C1 8406   4.568   0.937  13.922 -0.7676  0.2508 -0.1813
  567TMC3    C2 8407   4.662   1.022  13.869  0.2154 -0.5983  0.3724
  567TMC3    C3 8408   0.073   0.981  13.858  0.0866  0.2076 -0.4332
  567TMC3    C4 8409   4.611   0.826  13.992 -0.5349  0.0484  0.1549
  567TMC3    C5 8410   0.024   0.807  14.013  0.1573  0.4206  0.4201
  567TMC3    C6 8411   0.121   0.881  13.942  0.4096 -0.3481 -0.1002
  567TMC3     C 8412   4.433   0.940  13.862 -0.4993 -0.7548  0.4679
  567TMC3     O 8413   4.413   1.010  13.764  0.3351 -0.2066 -0.0374
  567TMC3     H 8414   4.620   1.087  13.793 -0.1038 -1.0155  0.1867
  567TMC3    H1 8415   4.549   0.737  13.995  0.9707 -1.0367 -0.6295
  567TMC3    H2 8416   0.222   0.843  13.939  0.8798  0.9399 -0.5604
  567TMC3    C7 8417   0.072   0.693  14.090 -0.0612  0.2042  0.0196
  567TMC3    C8 8418   0.154   1.042  13.756  0.6039  0.8021  0.2952
  567TMC3    O1 8419   0.190   0.660  14.079  0.0117  0.1683  0.0264
  567TMC3    O2 8420   0.095   1.084  13.655 -0.3330 -0.0685  0.1901
  568MPD2     C 8421   1.705   1.102  15.978 -0.2402  0.7091  0.2445
  568MPD2    C1 8422   1.800   1.145  16.069  0.5261 -0.5337  0.4298
  568MPD2    C2 8423   1.884   1.248  16.024  0.2196  0.1934  0.6520
  568MPD2    C3 8424   1.869   1.306  15.905 -0.0067 -0.2748 -0.5372
  568MPD2    C4 8425   1.767   1.265  15.817 -0.1588 -0.3691 -0.3533
  568MPD2    C5 8426   1.690   1.160  15.853  0.3151 -0.2399  0.9484
  568MPD2     H 8427   1.962   1.285  16.089  0.1917  0.1481  0.7118
  568MPD2    H1 8428   1.736   1.312  15.724  0.5285  0.0279 -0.3809
  568MPD2    H2 8429   1.648   1.018  16.016  2.1113 -1.7632 -1.6264
  568MPD2    H3 8430   1.604   1.130  15.794  0.1201 -3.5100  2.8707
  568MPD2     N 8431   1.942   1.420  15.878 -0.1146 -0.1205 -0.0474
  568MPD2    H5 8432   2.003   1.447  15.954 -0.7995  0.1120  0.4243
  568MPD2    N1 8433   1.806   1.081  16.199 -0.2518 -0.3169  0.6252
  568MPD2    H7 8434   1.737   1.012  16.226 -0.7251 -0.5318 -1.1303
  569TMC3    C1 8435   2.012   1.613  15.785  0.3539  0.3766  0.3137
  569TMC3    C2 8436   1.997   1.670  15.904  1.0955 -0.7789  0.9022
  569TMC3    C3 8437   2.055   1.789  15.922  0.6364  0.4469  0.1379
  569TMC3    C4 8438   2.066   1.672  15.679  1.2729 -0.4754 -0.2087
  569TMC3    C5 8439   2.112   1.798  15.697  0.5730  0.6013 -0.5002
  569TMC3    C6 8440   2.118   1.856  15.822  0.5342  0.0204 -0.6781
  569TMC3     C 8441   1.945   1.490  15.762 -0.4178  0.1822  0.6355
  569TMC3     O 8442   1.918   1.459  15.645 -0.6939 -0.4266  0.5922
  569TMC3     H 8443   1.936   1.632  15.985 -1.2525  1.2213  0.0742
  569TMC3    H1 8444   2.068   1.630  15.580  0.1310  0.7362 -0.7515
  569TMC3    H2 8445   2.156   1.956  15.841  1.9252 -0.2769 -1.8911
  569TMC3    C7 8446   2.088   1.895  15.590  0.3464 -0.0863 -0.4965
  569TMC3    C8 8447   2.021   1.854  16.044 -0.4161  0.0450  0.0001
  569TMC3    O1 8448   2.099   1.858  15.472 -0.3246  0.2469 -0.1156
  569TMC3    O2 8449   1.904   1.845  16.081  0.0636 -0.2763  0.2603
  570TMC3    C1 8450   1.391   0.124  15.971  0.1740 -0.7461  0.6174
  570TMC3    C2 8451   1.478   0.091  15.872 -0.1408 -0.3237 -0.2965
  570TMC3    C3 8452   1.535   0.191  15.802 -0.1859  0.4957 -0.0459
  570TMC3    C4 8453   1.362   0.257  16.003  0.6499 -0.0936  0.1427
  570TMC3    C5 8454   1.414   0.351  15.920 -0.4266 -0.4829  0.5280
  570TMC3    C6 8455   1.497   0.318  15.821  0.0208 -0.3247  0.4168
  570TMC3     C 8456   1.368   0.022  16.065  0.4189 -0.6283  0.1018
  570TMC3     O 8457   1.416   4.634  16.037  0.1306  0.2457  0.4471
  570TMC3     H 8458   1.509   4.713  15.852  3.1921  0.8195 -0.8320
  570TMC3    H1 8459   1.304   0.290  16.089  0.2538 -1.1465  0.2887
  570TMC3    H2 8460   1.548   0.400  15.771 -1.1815  0.9744  1.3184
  570TMC3    C7 8461   1.367   0.491  15.934 -0.6106 -0.3232  0.4567
  570TMC3    C8 8462   1.671   0.178  15.737 -0.2973 -0.1723  0.1815
  570TMC3    O1 8463   1.331   0.527  16.046 -0.3860  0.3317  0.1400
  570TMC3    O2 8464   1.720   0.288  15.705  0.6497  0.5120 -0.2427
  571MPD2     C 8465   4.383   1.449  17.080 -0.1112 -0.2791 -0.6996
  571MPD2    C1 8466   4.261   1.443  17.022 -0.2368 -0.5214  0.0330
  571MPD2    C2 8467   4.151   1.509  17.071 -0.4555 -0.0103 -0.3383
  571MPD2    C3 8468   4.172   1.585  17.184 -0.2014 -0.5067  0.3672
  571MPD2    C4 8469   4.300   1.597  17.241 -0.2670  1.0292  0.2373
  571MPD2    C5 8470   4.399   1.519  17.189 -0.7713 -0.4470  0.4681
  571MPD2     H 8471   4.055   1.497  17.022 -0.1749 -0.8444 -0.6902
  571MPD2    H1 8472   4.322   1.656  17.329  2.2097 -1.0382  1.0076
  571MPD2    H2 8473   4.467   1.393  17.040 -0.0242 -0.7722  0.1811
  571MPD2    H3 8474   4.499   1.517  17.231 -0.4197  1.0132 -0.3102
  571MPD2     N 8475   4.069   1.647  17.253  0.5695 -0.4785 -0.1140
  571MPD2    H5 8476   4.103   1.699  17.333 -0.5310  2.0138 -1.2302
  571MPD2    N1 8477   4.257   1.349  16.918  0.5588  0.1384 -0.0300
  571MPD2    H7 8478   4.342   1.296  16.904  0.7604  0.2593  0.7646
  572TMC3    C1 8479   3.860   1.726  17.306  0.2643  0.3051 -0.0693
  572TMC3    C2 8480   3.732   1.690  17.322  0.8538  0.1156 -0.2965
  572TMC3    C3 8481   3.684   1.739  17.441  0.1160  0.2593  0.7299
  572TMC3    C4 8482   3.926   1.827  17.373 -0.4931 -0.4094  1.1862
  572TMC3    C5 8483   3.859   1.885  17.477  0.3643 -0.2320  0.8500
  572TMC3    C6 8484   3.737   1.844  17.515 -0.5935 -0.2602 -0.4436
  572TMC3     C 8485   3.937   1.653  17.212 -0.1055 -0.9893 -0.1428
  572TMC3     O 8486   3.881   1.593  17.123  0.6775  0.8193 -0.3747
  572TMC3     H 8487   3.701   1.593  17.284  2.5831 -0.2200 -0.8518
  572TMC3    H1 8488   4.022   1.871  17.349 -0.3699 -0.9193  0.7697
  572TMC3    H2 8489   3.697   1.877  17.610  2.4482  1.9456  0.0731
  572TMC3    C7 8490   3.922   1.998  17.538 -0.5101  0.4253  0.4481
  572TMC3    C8 8491   3.560   1.672  17.478 -0.5027  0.0319  1.0553
  572TMC3    O1 8492   3.853   2.102  17.526 -0.2023 -0.3128 -0.6897
  572TMC3    O2 8493   3.493   1.620  17.387 -0.0008 -0.6746  0.5933
  573MPD2     C 8494   0.492   1.816   0.476  0.0369  0.2342  0.2555
  573MPD2    C1 8495   0.544   1.945   0.435  0.0498 -0.1695  0.0111
  573MPD2    C2 8496   0.604   1.952   0.313  0.0982  0.5196 -0.1160
  573MPD2    C3 8497   0.594   1.853   0.220 -0.0423  0.0703 -0.0962
  573MPD2    C4 8498   0.533   1.737   0.260 -0.8416 -0.2751 -0.0661
  573MPD2    C5 8499   0.493   1.709   0.390 -0.1953  0.4996  0.0818
  573MPD2     H 8500   0.659   2.042   0.283  0.8687  0.1033  0.0493
  573MPD2    H1 8501   0.517   1.651   0.195  3.0598 -0.9027 -0.2243
  573MPD2    H2 8502   0.440   1.815   0.571 -0.2512 -0.9834  0.0835
  573MPD2    H3 8503   0.439   1.621   0.422  1.9412  0.3473  3.2330
  573MPD2     N 8504   0.632   1.872   0.083 -0.3250 -0.4631  0.0654
  573MPD2    H5 8505   0.600   1.792   0.028 -2.6983  2.3779 -2.6600
  573MPD2    N1 8506   0.539   2.049   0.526  0.2951  0.2282 -0.2675
  573MPD2    H7 8507   0.508   2.033   0.622 -1.3133 -0.2916 -0.8761
  574TMC3    C1 8508   0.707   1.983  17.587 -0.1722 -0.1107  0.4305
  574TMC3    C2 8509   0.606   1.922  17.518  0.6428  0.5675 -0.5311
  574TMC3    C3 8510   0.586   1.967  17.385  0.2044  0.1139 -0.2491
  574TMC3    C4 8511   0.791   2.082  17.542 -0.6211 -1.0970  0.0589
  574TMC3    C5 8512   0.758   2.125  17.413 -0.3878  0.2588 -0.7643
  574TMC3    C6 8513   0.657   2.067  17.333 -0.6543 -0.0240 -0.3652
  574TMC3     C 8514   0.708   1.972   0.034  0.0655  0.0951 -0.2594
  574TMC3     O 8515   0.770   2.053   0.102  0.2135 -0.2491 -0.2110
  574TMC3     H 8516   0.539   1.847  17.558  0.3420  0.9893 -0.2439
  574TMC3    H1 8517   0.865   2.133  17.604 -1.7584 -0.4974  0.9195
  574TMC3    H2 8518   0.639   2.104  17.233  0.7736 -0.8701 -0.9402
  574TMC3    C7 8519   0.820   2.253  17.365 -0.5989 -1.0376 -0.8217
  574TMC3    C8 8520   0.459   1.918  17.321 -0.1913 -0.0568 -0.0401
  574TMC3    O1 8521   0.759   2.312  17.279 -0.2053  0.2462 -0.7577
  574TMC3    O2 8522   0.390   1.833  17.374  0.1957 -0.3273 -0.2758
  575TMC3    C1 8523   2.601   3.127  11.675 -0.1295  0.5680 -0.3012
  575TMC3    C2 8524   2.561   3.027  11.753 -0.4547  0.9098  0.2962
  575TMC3    C3 8525   2.511   2.914  11.696 -0.1858 -0.6346 -0.0861
  575TMC3    C4 8526   2.582   3.117  11.542  0.2722  0.4889 -0.2045
  575TMC3    C5 8527   2.511   3.013  11.488 -0.2429 -0.2908 -0.1321
  575TMC3    C6 8528   2.479   2.901  11.565 -0.8897  0.3891 -1.0462
  575TMC3     C 8529   2.642   3.254  11.738  1.0002  0.3517 -0.0487
  575TMC3     O 8530   2.698   3.245  11.846 -0.0038 -0.8077 -0.4136
  575TMC3     H 8531   2.565   3.035  11.861  0.2134  1.0218  0.2615
  575TMC3    H1 8532   2.627   3.195  11.482  1.6411  0.2703  0.5570
  575TMC3    H2 8533   2.434   2.812  11.522  0.3360 -0.5451 -0.4017
  575TMC3    C7 8534   2.488   3.005  11.344 -0.0860  0.1217  0.1918
  575TMC3    C8 8535   2.425   2.823  11.777 -0.3072  0.1282 -0.2354
  575TMC3    O1 8536   2.537   3.095  11.278 -0.3277 -0.1467 -0.3518
  575TMC3    O2 8537   2.410   2.706  11.736  0.7405  0.6904 -0.2872
  576MPD2     C 8538   2.419   0.053  12.413  0.3049  0.2400 -0.1205
  576MPD2    C1 8539   2.342   0.145  12.347 -0.9851  0.4075 -0.2598
  576MPD2    C2 8540   2.274   0.244  12.420 -0.3035 -0.4561  0.0639
  576MPD2    C3 8541   2.309   0.263  12.554 -0.1967  0.6149 -0.1480
  576MPD2    C4 8542   2.394   0.177  12.611 -0.4929  0.5159 -0.7334
  576MPD2    C5 8543   2.455   0.074  12.546 -0.7124 -0.2382  0.5080
  576MPD2     H 8544   2.211   0.315  12.368 -0.4377 -2.4114 -2.4564
  576MPD2    H1 8545   2.400   0.176  12.720 -0.9616  1.3417 -0.7021
  576MPD2    H2 8546   2.446   4.684  12.365 -0.7652  0.1974 -0.6390
  576MPD2    H3 8547   2.531   0.016  12.597 -3.1350 -1.9734  2.1214
  576MPD2     N 8548   2.241   0.363  12.629  1.1410 -0.3999 -0.4644
  576MPD2    H5 8549   2.159   0.401  12.584  0.5924  0.8789  1.6026
  576MPD2    N1 8550   2.300   0.128  12.210 -0.0634  0.0075 -0.6114
  576MPD2    H7 8551   2.231   0.190  12.169 -0.3587  1.0486  1.4736
  577TMC3    C1 8552   2.326   0.058  11.976 -0.1276 -0.7281  1.2131
  577TMC3    C2 8553   2.401   4.694  11.910 -0.0112  0.6522 -0.0405
  577TMC3    C3 8554   2.463   0.014  11.795  0.6314  0.1480  0.1796
  577TMC3    C4 8555   2.308   0.188  11.939  0.2003  0.8282 -0.2282
  577TMC3    C5 8556   2.378   0.230  11.830 -0.3248 -0.3746  0.1723
  577TMC3    C6 8557   2.445   0.140  11.753 -0.1103  0.3295  0.1639
  577TMC3     C 8558   2.362   0.043  12.120  0.1749 -0.9173 -0.0622
  577TMC3     O 8559   2.461   4.698  12.136 -0.2089 -0.5352 -0.6128
  577TMC3     H 8560   2.405   4.593  11.951  0.6594  1.0219  0.7999
  577TMC3    H1 8561   2.269   0.256  12.014  2.2874  2.3195 -0.4836
  577TMC3    H2 8562   2.487   0.181  11.662  0.9867 -0.5827  0.2607
  577TMC3    C7 8563   2.406   0.372  11.816  0.3801 -0.2297 -0.2980
  577TMC3    C8 8564   2.570   4.647  11.748  0.3423 -0.3443 -0.5401
  577TMC3    O1 8565   2.519   0.409  11.796  0.5161  0.1108 -0.0899
  577TMC3    O2 8566   2.570   4.539  11.809  0.3494 -0.5195  0.2257
  578MPD2     C 8567   0.101   0.175   0.850  0.5852  0.1723  0.4227
  578MPD2    C1 8568   0.217   0.113   0.796  0.9019 -0.5008 -0.2963
  578MPD2    C2 8569   0.305   0.051   0.885  0.1567 -0.1472  0.3769
  578MPD2    C3 8570   0.279   0.030   1.018  0.0874  0.5160  0.1223
  578MPD2    C4 8571   0.160   0.087   1.072 -0.2923  0.2594 -0.0758
  578MPD2    C5 8572   0.072   0.152   0.983  0.3988 -0.2636  0.5959
  578MPD2     H 8573   0.388   4.716   0.847 -0.2765 -1.7654  1.9427
  578MPD2    H1 8574   0.132   0.078   1.177 -0.8203 -0.2217 -0.2600
  578MPD2    H2 8575   0.023   0.216   0.786 -0.0651 -0.8604  0.5463
  578MPD2    H3 8576   4.699   0.187   1.015 -0.0429 -0.9414  0.0003
  578MPD2     N 8577   0.374   4.676   1.084 -0.0844  0.7978 -0.5628
  578MPD2    H5 8578   0.452   4.652   1.023 -1.0157  0.4249 -1.6082
  578MPD2    N1 8579   0.230   0.106   0.658 -0.6237  0.6957 -0.4390
  578MPD2    H7 8580   0.160   0.153   0.601 -0.0492  1.0332 -0.8711
  579TMC3    C1 8581   0.491   4.581   1.270  0.4104 -0.2667 -0.6081
  579TMC3    C2 8582   0.548   4.654   1.374 -0.3704 -0.4170 -0.1147
  579TMC3    C3 8583   0.677   4.617   1.403  0.8040 -0.9370 -0.2771
  579TMC3    C4 8584   0.559   4.496   1.187  0.0075 -0.0420 -0.2066
  579TMC3    C5 8585   0.688   4.473   1.218 -0.1634 -0.2159 -0.1671
  579TMC3    C6 8586   0.750   4.523   1.329  0.1621  0.1833 -0.2419
  579TMC3     C 8587   0.372   4.649   1.223  0.5121 -0.1093 -0.3242
  579TMC3     O 8588   0.296   4.679   1.309  0.1001  0.4635 -0.2248
  579TMC3     H 8589   0.486   4.714   1.440  0.5389 -0.7473  1.0354
  579TMC3    H1 8590   0.505   4.444   1.109  0.0495 -1.4126  0.6643
  579TMC3    H2 8591   0.849   4.493   1.360  0.3021 -1.6081 -2.3947
  579TMC3    C7 8592   0.755   4.354   1.173  0.1815  0.5128  0.0383
  579TMC3    C8 8593   0.727   4.655   1.540 -0.9055  0.5383 -0.1700
  579TMC3    O1 8594   0.852   4.308   1.232 -0.9717  0.3284 -0.0433
  579TMC3    O2 8595   0.646   4.687   1.624  0.5682 -0.3052 -0.2061
  580TMC3    C1 8596   4.682   4.084  11.562  0.3323 -0.4296  0.2926
  580TMC3    C2 8597   4.662   4.039  11.436 -0.5760 -0.1495  0.3910
  580TMC3    C3 8598   4.716   3.916  11.409  1.0141  0.3601 -0.2894
  580TMC3    C4 8599   4.699   3.996  11.666 -0.1350 -0.2657 -1.0765
  580TMC3    C5 8600   0.006   3.867  11.634  0.5847 -0.1552 -0.0669
  580TMC3    C6 8601   0.028   3.824  11.509  0.8020 -0.4422  0.1748
  580TMC3     C 8602   0.046   4.207  11.572  0.4385 -0.1416  0.1488
  580TMC3     O 8603   0.039   4.283  11.475  0.3867 -0.3192  0.0705
  580TMC3     H 8604   4.630   4.111  11.361  1.7127  1.2198  0.7046
  580TMC3    H1 8605   4.717   4.017  11.771 -3.3010 -0.6635 -0.4406
  580TMC3    H2 8606   0.063   3.724  11.486 -0.7303 -1.0788  0.6484
  580TMC3    C7 8607   0.059   3.789  11.745 -0.6620 -0.1991 -0.8022
  580TMC3    C8 8608   0.045   3.888  11.280  0.8290 -0.0458 -0.1687
  580TMC3    O1 8609   0.066   3.848  11.848 -0.1179 -0.7489 -0.0210
  580TMC3    O2 8610   0.067   3.773  11.249  0.2273 -0.4229  0.0153
  581MPD2     C 8611   3.433   3.448  14.671  0.3272 -0.3865 -0.3725
  581MPD2    C1 8612   3.308   3.389  14.653  0.2563 -0.7997  0.6507
  581MPD2    C2 8613   3.206   3.464  14.593 -0.2304 -0.1934  0.2025
  581MPD2    C3 8614   3.218   3.598  14.566  0.1432 -0.3427 -0.5276
  581MPD2    C4 8615   3.342   3.654  14.576 -0.3374 -0.1759 -1.1872
  581MPD2    C5 8616   3.448   3.584  14.633  0.1604 -0.0157 -0.5869
  581MPD2     H 8617   3.112   3.412  14.576 -0.4539  0.7515 -1.4669
  581MPD2    H1 8618   3.373   3.755  14.553  2.0051 -1.0676 -1.9803
  581MPD2    H2 8619   3.519   3.393  14.709  1.3734  1.5968  0.1145
  581MPD2    H3 8620   3.545   3.629  14.650  1.0377 -1.7535 -1.0316
  581MPD2     N 8621   3.100   3.661  14.518  0.0944 -0.1865 -0.2720
  581MPD2    H5 8622   3.015   3.608  14.499 -0.3067  0.3292  0.0834
  581MPD2    N1 8623   3.300   3.263  14.695  0.0764 -0.0843  0.0190
  581MPD2    H7 8624   3.380   3.227  14.746 -0.2067 -2.1301 -0.9534
  582TMC3    C1 8625   3.193   3.058  14.756 -1.1903 -0.3877  0.4380
  582TMC3    C2 8626   3.237   3.073  14.880  0.4047 -0.2755 -0.3612
  582TMC3    C3 8627   3.165   3.018  14.982 -0.5354  0.3908  0.0019
  582TMC3    C4 8628   3.089   2.975  14.734  0.3739  0.2656  0.1908
  582TMC3    C5 8629   3.026   2.906  14.830 -0.1346  0.4342  0.3926
  582TMC3    C6 8630   3.064   2.928  14.958 -0.2240  0.2140  0.0500
  582TMC3     C 8631   3.181   3.184  14.689  0.5397  0.0886 -0.1465
  582TMC3     O 8632   3.065   3.208  14.653 -0.6478 -0.7134 -0.5093
  582TMC3     H 8633   3.309   3.150  14.908 -0.1104 -0.6542  2.0371
  582TMC3    H1 8634   3.044   2.963  14.636 -1.1894  0.9803  0.8218
  582TMC3    H2 8635   3.022   2.866  15.037 -0.9190  0.5561 -0.0568
  582TMC3    C7 8636   2.886   2.927  14.809 -0.0008  0.1942  0.0350
  582TMC3    C8 8637   3.192   3.074  15.115 -0.2525  0.0013 -0.1973
  582TMC3    O1 8638   2.822   2.892  14.712 -0.1944  0.6256  0.0210
  582TMC3    O2 8639   3.097   3.106  15.188 -0.4079  0.2517 -0.2182
  583MPD2     C 8640   3.011   0.760  16.616  0.0082  0.2796 -0.3531
  583MPD2    C1 8641   2.961   0.849  16.525 -0.4060  0.0431 -0.3947
  583MPD2    C2 8642   2.889   0.964  16.570  0.2091  0.3004 -0.4634
  583MPD2    C3 8643   2.872   0.982  16.709  0.2379 -0.0614 -0.3998
  583MPD2    C4 8644   2.924   0.883  16.797  0.0232  0.0318  0.1070
  583MPD2    C5 8645   2.993   0.776  16.748  0.5535  0.7149  0.3986
  583MPD2     H 8646   2.865   1.049  16.507 -1.3454  0.5392  0.4621
  583MPD2    H1 8647   2.925   0.885  16.905  2.2821  1.4029  0.0736
  583MPD2    H2 8648   3.078   0.681  16.581 -1.3658 -1.4594  0.9696
  583MPD2    H3 8649   3.043   0.696  16.803 -2.5809 -0.3881  1.6427
  583MPD2     N 8650   2.796   1.099  16.764 -0.3357 -0.1910  0.0003
  583MPD2    H5 8651   2.756   1.166  16.699  0.0502 -1.5657 -1.6592
  583MPD2    N1 8652   2.999   0.839  16.389  0.1516 -0.9831 -0.6624
  583MPD2    H7 8653   2.965   0.913  16.330 -0.9036 -1.5347 -0.7485
  584TMC3    C1 8654   2.695   1.235  16.942 -0.3113 -0.7697 -0.7302
  584TMC3    C2 8655   2.720   1.355  16.882  0.1648  0.1501 -0.4690
  584TMC3    C3 8656   2.706   1.471  16.954  0.6826 -0.4639  0.0879
  584TMC3    C4 8657   2.674   1.242  17.076 -0.0144 -0.4934  0.4666
  584TMC3    C5 8658   2.658   1.360  17.150 -0.1588 -0.0661 -0.5787
  584TMC3    C6 8659   2.672   1.478  17.088 -0.4720 -0.0642  0.9107
  584TMC3     C 8660   2.766   1.113  16.903  0.5475  0.0239 -1.2006
  584TMC3     O 8661   2.792   1.046  17.000 -0.0442  0.2664 -0.1142
  584TMC3     H 8662   2.764   1.371  16.784 -0.5425  0.7974 -0.6782
  584TMC3    H1 8663   2.643   1.153  17.130  0.7984 -1.0154  0.0649
  584TMC3    H2 8664   2.678   1.572  17.141 -0.6622  1.1805 -1.2509
  584TMC3    C7 8665   2.622   1.354  17.290  0.5846  0.1412 -0.0770
  584TMC3    C8 8666   2.749   1.590  16.885  0.0802 -0.3121 -0.0462
  584TMC3    O1 8667   2.642   1.246  17.343 -0.4328 -0.2516  0.4242
  584TMC3    O2 8668   2.728   1.593  16.763 -0.1636  0.1659 -0.5831
  585MPD2     C 8669   1.768   4.512   0.491  0.2730  0.2907 -0.2509
  585MPD2    C1 8670   1.897   4.519   0.457  0.0472 -0.5110 -0.8576
  585MPD2    C2 8671   1.928   4.539   0.320  0.1588  0.3739  0.8821
  585MPD2    C3 8672   1.824   4.540   0.228  0.1894  0.0695  0.0780
  585MPD2    C4 8673   1.692   4.525   0.269  0.3212  0.3757 -0.8204
  585MPD2    C5 8674   1.666   4.510   0.401  0.7495 -0.2071  0.8598
  585MPD2     H 8675   2.028   4.568   0.290  0.4659 -0.8368  0.7306
  585MPD2    H1 8676   1.608   4.527   0.200 -1.4547 -0.3616  1.3080
  585MPD2    H2 8677   1.734   4.508   0.594 -1.2449 -1.7989 -0.8387
  585MPD2    H3 8678   1.565   4.511   0.442 -0.2465 -0.9565 -1.5560
  585MPD2     N 8679   1.839   4.553   0.088  0.3394 -0.3511  0.7033
  585MPD2    H5 8680   1.760   4.546   0.024 -0.7964 -1.9530  2.2697
  585MPD2    N1 8681   1.999   4.505   0.548  0.1683 -0.0366 -0.0009
  585MPD2    H7 8682   2.092   4.526   0.512 -0.7411  0.8244 -1.8536
  586TMC3    C1 8683   1.957   4.601  17.590  0.1769 -0.7104  0.0525
  586TMC3    C2 8684   2.054   4.666  17.522  0.5115  0.0023 -0.1599
  586TMC3    C3 8685   2.084   4.623  17.395 -0.6234 -0.9339 -0.5657
  586TMC3    C4 8686   1.879   4.508  17.533  0.0208 -0.0230  0.3089
  586TMC3    C5 8687   1.916   4.470  17.403 -0.0315 -0.2054 -1.0618
  586TMC3    C6 8688   2.011   4.531  17.326 -0.4108 -1.0554 -0.3766
  586TMC3     C 8689   1.954   4.612   0.036  0.4033 -0.9887 -0.0902
  586TMC3     O 8690   2.052   4.651   0.091 -0.1959  0.1132 -0.3675
  586TMC3     H 8691   2.089   0.035  17.566 -0.0366 -1.0435  2.5136
  586TMC3    H1 8692   1.827   4.429  17.586  1.6828 -1.8386 -0.7460
  586TMC3    H2 8693   2.032   4.519  17.221 -1.8697 -0.3866 -0.7326
  586TMC3    C7 8694   1.877   4.339  17.353  0.0006  0.2111 -0.2179
  586TMC3    C8 8695   2.216   4.637  17.340  0.2965  0.0955 -0.1800
  586TMC3    O1 8696   1.769   4.294  17.388  0.0854  0.1810 -0.1837
  586TMC3    O2 8697   2.276   0.017  17.331 -0.0542 -0.0405 -0.0109
  587TMC3    C1 8698   0.273   2.968  16.130  0.0389  0.4828 -0.2997
  587TMC3    C2 8699   0.257   3.073  16.049 -0.0027  0.9556  0.0504
  587TMC3    C3 8700   0.317   3.187  16.067 -0.1214  0.1807  0.1893
  587TMC3    C4 8701   0.348   2.987  16.248  0.2358 -0.2182 -0.2543
  587TMC3    C5 8702   0.420   3.101  16.263  0.1269  0.3244  0.3153
  587TMC3    C6 8703   0.410   3.198  16.170  0.9248  0.1304  0.3891
  587TMC3     C 8704   0.175   2.863  16.121 -0.2726  0.1285  0.1725
  587TMC3     O 8705   0.154   2.821  16.010 -0.0606 -0.4054 -0.8457
  587TMC3     H 8706   0.186   3.064  15.967 -0.5557  0.6465  0.5618
  587TMC3    H1 8707   0.361   2.906  16.318  0.7588  0.8816  0.9205
  587TMC3    H2 8708   0.476   3.284  16.176 -0.3351  0.9292  2.5549
  587TMC3    C7 8709   0.499   3.125  16.377 -0.6185  0.3093  0.3420
  587TMC3    C8 8710   0.271   3.319  16.015 -0.2735  0.3341 -0.3269
  587TMC3    O1 8711   0.576   3.220  16.371 -0.0196 -0.3718 -0.7442
  587TMC3    O2 8712   0.353   3.396  15.972  0.2504  0.0800  0.4326
  588TMC3    C1 8713   1.760   1.168   9.512 -0.0459  0.2842 -0.4635
  588TMC3    C2 8714   1.701   1.044   9.523  0.0243 -0.3121  0.0366
  588TMC3    C3 8715   1.759   0.950   9.589 -0.5476  0.1794  0.2414
  588TMC3    C4 8716   1.884   1.194   9.569 -0.1097 -0.3395  0.0162
  588TMC3    C5 8717   1.948   1.092   9.638 -0.3212 -0.0919  0.7860
  588TMC3    C6 8718   1.883   0.971   9.649 -0.5511  0.3618 -0.1492
  588TMC3     C 8719   1.681   1.280   9.455 -0.4055 -0.5806 -0.6541
  588TMC3     O 8720   1.637   1.265   9.343 -0.2747  0.1841  0.0292
  588TMC3     H 8721   1.603   1.022   9.482  1.2345 -2.6720 -1.6124
  588TMC3    H1 8722   1.940   1.283   9.545  1.8322 -1.7147 -0.5299
  588TMC3    H2 8723   1.939   0.899   9.707 -0.8914 -0.3128 -0.6701
  588TMC3    C7 8724   2.078   1.119   9.701  0.7230 -0.6639 -0.0551
  588TMC3    C8 8725   1.688   0.823   9.596 -0.4522  0.5731  0.0550
  588TMC3    O1 8726   2.157   1.031   9.731 -0.0835 -0.5107 -0.3137
  588TMC3    O2 8727   1.570   0.819   9.571  0.0035 -0.0180 -0.2483
  589TMC3    C1 8728   1.335   2.988   1.020 -0.3604 -0.1360  1.0717
  589TMC3    C2 8729   1.377   3.087   1.107 -0.3262  0.2051  0.5773
  589TMC3    C3 8730   1.512   3.108   1.126 -0.6806 -0.3358  0.2345
  589TMC3    C4 8731   1.429   2.918   0.952 -0.1563 -0.5475  0.0972
  589TMC3    C5 8732   1.562   2.935   0.979  0.1572 -0.2294  0.2593
  589TMC3    C6 8733   1.605   3.029   1.061 -1.1938 -0.1696 -0.5385
  589TMC3     C 8734   1.209   3.011   0.946  0.3458  0.0174 -0.6645
  589TMC3     O 8735   1.205   2.977   0.829 -0.2615  0.0918  0.7320
  589TMC3     H 8736   1.305   3.140   1.168 -1.9517  1.0472 -2.0749
  589TMC3    H1 8737   1.386   2.849   0.880  0.7262 -0.9597 -0.0263
  589TMC3    H2 8738   1.707   3.064   1.065 -1.8874  1.8065 -0.0174
  589TMC3    C7 8739   1.645   2.840   0.908 -0.2841 -0.5364  0.4271
  589TMC3    C8 8740   1.556   3.212   1.214  0.9031 -0.2486 -0.9853
  589TMC3    O1 8741   1.590   2.756   0.831  0.5516  0.2256  0.3098
  589TMC3    O2 8742   1.505   3.215   1.325  0.7495  0.4290 -0.6024
  590MPD2     C 8743   1.109   1.370  16.409 -0.5173 -0.0361  0.5996
  590MPD2    C1 8744   1.068   1.471  16.324  0.2137 -0.2756 -0.1213
  590MPD2    C2 8745   1.149   1.578  16.300 -0.5772  0.0450 -0.8473
  590MPD2    C3 8746   1.272   1.584  16.355  0.6893  0.1295  0.2302
  590MPD2    C4 8747   1.311   1.490  16.447  0.1173  0.1175  1.3806
  590MPD2    C5 8748   1.234   1.384  16.472  0.2270 -0.4444 -0.5257
  590MPD2     H 8749   1.114   1.658  16.235 -1.6937  0.1248 -0.1414
  590MPD2    H1 8750   1.402   1.493  16.505  0.3949  0.9510  0.9069
  590MPD2    H2 8751   1.045   1.283  16.412  0.3857 -0.7739 -1.4419
  590MPD2    H3 8752   1.258   1.308  16.546 -0.3038 -0.2940 -0.2000
  590MPD2     N 8753   1.342   1.698  16.313  0.5261  0.2254  0.0763
  590MPD2    H5 8754   1.306   1.759  16.241 -1.1370  0.1110  0.8140
  590MPD2    N1 8755   0.934   1.469  16.275 -0.3788  0.1184 -0.0112
  590MPD2    H7 8756   0.868   1.401  16.313 -0.7529  1.3995  1.6031
  591TMC3    C1 8757   1.517   1.835  16.263  0.2371  0.1484 -0.7337
  591TMC3    C2 8758   1.617   1.801  16.172  0.5114 -0.7139  0.4697
  591TMC3    C3 8759   1.604   1.855  16.052  0.7299  0.4245 -0.2893
  591TMC3    C4 8760   1.425   1.926  16.235  0.6165 -0.6715 -0.9823
  591TMC3    C5 8761   1.432   1.987  16.115  0.2323  0.2484 -0.1644
  591TMC3    C6 8762   1.520   1.954  16.020 -0.2160 -1.0873 -0.7149
  591TMC3     C 8763   1.475   1.726  16.348 -0.1797  0.4172 -0.4009
  591TMC3     O 8764   1.559   1.688  16.428 -0.0274  0.7050 -0.3381
  591TMC3     H 8765   1.689   1.720  16.178  0.1241 -1.2074 -1.5082
  591TMC3    H1 8766   1.357   1.960  16.313  1.1175 -0.0631 -0.8041
  591TMC3    H2 8767   1.509   1.988  15.918 -3.0712 -1.8179 -0.6449
  591TMC3    C7 8768   1.347   2.100  16.096  0.6375  0.2780 -0.3296
  591TMC3    C8 8769   1.660   1.782  15.936 -0.4837  0.5960  0.0135
  591TMC3    O1 8770   1.246   2.105  16.168 -0.0354  0.1952 -0.5346
  591TMC3    O2 8771   1.673   1.658  15.954  0.1739 -0.5043 -0.2769
  592MPD2     C 8772   0.857   4.156  11.057  0.4018 -0.0938 -1.0833
  592MPD2    C1 8773   0.927   4.155  11.179 -0.6301  0.4820  0.0354
  592MPD2    C2 8774   0.905   4.060  11.280  0.2359 -0.5421 -0.3787
  592MPD2    C3 8775   0.819   3.954  11.253 -0.4199  0.6265  0.0138
  592MPD2    C4 8776   0.750   3.957  11.131  0.1143 -0.8292 -0.2831
  592MPD2    C5 8777   0.769   4.056  11.039  0.1300  0.1735  0.4323
  592MPD2     H 8778   0.968   4.056  11.368  0.9631  0.5217 -0.8470
  592MPD2    H1 8779   0.667   3.894  11.102  0.0794  0.2887 -2.6613
  592MPD2    H2 8780   0.861   4.241  10.990  0.0658 -0.9716 -2.2123
  592MPD2    H3 8781   0.709   4.049  10.949  0.8471  2.0319 -0.1874
  592MPD2     N 8782   0.792   3.843  11.343 -0.3133  0.4830 -0.3203
  592MPD2    H5 8783   0.827   3.838  11.438 -1.4783 -0.2318  0.0618
  592MPD2    N1 8784   1.020   4.263  11.198 -0.2092  0.2700  0.6092
  592MPD2    H7 8785   1.042   4.321  11.118  0.3627 -1.6191 -0.5944
  593TMC3    C1 8786   1.177   4.397  11.302 -0.5087  0.6611  0.3417
  593TMC3    C2 8787   1.222   4.436  11.424 -0.1546  0.6494 -0.1921
  593TMC3    C3 8788   1.315   4.542  11.423 -0.5109 -0.0490 -0.2409
  593TMC3    C4 8789   1.201   4.467  11.184 -0.2500 -0.3661  0.4300
  593TMC3    C5 8790   1.299   4.560  11.191 -0.3012  0.0532 -0.4742
  593TMC3    C6 8791   1.360   4.606  11.307 -0.1105  0.1261 -0.0712
  593TMC3     C 8792   1.088   4.292  11.313  0.1660  0.2664  0.0434
  593TMC3     O 8793   1.060   4.243  11.423 -0.2618 -0.2090  0.4294
  593TMC3     H 8794   1.200   4.380  11.514 -0.5688  1.3445  0.1399
  593TMC3    H1 8795   1.137   4.457  11.097  0.0941 -3.1146  0.4699
  593TMC3    H2 8796   1.423   4.695  11.311 -0.1885  0.1046  1.8576
  593TMC3    C7 8797   1.361   4.612  11.073 -0.2156 -0.1506  0.6879
  593TMC3    C8 8798   1.376   4.589  11.544 -0.6347  0.1110  0.7256
  593TMC3    O1 8799   1.463   4.680  11.090 -0.4677 -0.1303 -0.1569
  593TMC3    O2 8800   1.496   4.611  11.545  0.7024 -0.7990 -0.1366
  594MPD2     C 8801   0.329   2.100  14.262  0.4631  0.4224 -0.5702
  594MPD2    C1 8802   0.212   2.155  14.219 -0.4831  0.1560 -1.2872
  594MPD2    C2 8803   0.204   2.290  14.186  0.0332  0.0270  0.3748
  594MPD2    C3 8804   0.324   2.365  14.188  0.4662 -0.1533  0.0978
  594MPD2    C4 8805   0.435   2.301  14.231  0.2512  0.7155  0.9261
  594MPD2    C5 8806   0.438   2.169  14.282  0.4234 -0.0087 -0.3318
  594MPD2     H 8807   0.112   2.345  14.169  0.6248  0.6417 -0.7484
  594MPD2    H1 8808   0.526   2.360  14.228  0.2541  0.5245 -2.6263
  594MPD2    H2 8809   0.325   1.996  14.294 -1.2037  0.8579  0.6093
  594MPD2    H3 8810   0.525   2.126  14.330  0.3958  0.1264 -0.1592
  594MPD2     N 8811   0.321   2.503  14.168  0.0519  0.2568 -0.3834
  594MPD2    H5 8812   0.230   2.543  14.148  0.1251 -0.1815 -1.6508
  594MPD2    N1 8813   0.100   2.071  14.228 -0.1925  0.1842 -0.4671
  594MPD2    H7 8814   0.113   1.972  14.243 -0.7923  0.1856  0.0350
  595TMC3    C1 8815   0.558   2.887  14.031 -0.2801 -0.0802  0.7159
  595TMC3    C2 8816   0.518   2.756  14.026 -1.1012 -0.3633  0.0178
  595TMC3    C3 8817   0.405   2.712  14.088  0.3359  0.1907  0.0088
  595TMC3    C4 8818   0.478   2.984  14.073 -0.4201 -0.4123  0.5188
  595TMC3    C5 8819   0.368   2.947  14.145  0.4799 -0.3058 -0.8211
  595TMC3    C6 8820   0.331   2.813  14.157  0.2251  0.2937  0.5214
  595TMC3     C 8821   0.691   2.904  14.073 -0.4470 -0.8375  0.1335
  595TMC3     O 8822   0.735   3.013  14.096 -0.1531  0.5888 -0.2615
  595TMC3     H 8823   0.564   2.683  13.961  0.0675  1.2026 -0.8989
  595TMC3    H1 8824   0.526   3.082  14.074 -0.4950 -0.3858  1.2331
  595TMC3    H2 8825   0.248   2.790  14.222 -0.2719 -1.1431 -0.6215
  595TMC3    C7 8826   0.319   3.030  14.247 -0.2086 -0.0614  0.8375
  595TMC3    C8 8827   0.432   2.584  14.148 -0.2860  0.0860  0.4176
  595TMC3    O1 8828   0.266   2.985  14.344  0.1548 -0.3985  0.1784
  595TMC3    O2 8829   0.552   2.566  14.152 -0.2278 -0.3355  0.6022
  596MPD2     C 8830   3.831   0.538  16.500 -0.4547 -0.6375 -0.5352
  596MPD2    C1 8831   3.870   0.646  16.415  0.0423  0.3082 -0.2027
  596MPD2    C2 8832   3.918   0.611  16.294 -0.1632 -0.8923 -0.3625
  596MPD2    C3 8833   3.930   0.480  16.251  0.2073  0.1214  0.0527
  596MPD2    C4 8834   3.888   0.376  16.330 -1.1004  0.4197  0.4133
  596MPD2    C5 8835   3.843   0.407  16.456 -0.9660  0.3827  0.4255
  596MPD2     H 8836   3.948   0.696  16.234 -2.6148 -0.2118 -0.5900
  596MPD2    H1 8837   3.895   0.271  16.305  0.9275  0.9880 -1.3410
  596MPD2    H2 8838   3.789   0.553  16.599 -0.3238  0.5377 -0.6568
  596MPD2    H3 8839   3.816   0.320  16.517  0.1235  0.5089  1.0906
  596MPD2     N 8840   3.955   0.442  16.113 -0.2847  0.2913 -0.2891
  596MPD2    H5 8841   3.921   0.352  16.083 -0.0013 -0.0412  0.3963
  596MPD2    N1 8842   3.844   0.781  16.450  0.0030  0.4480  0.1649
  596MPD2    H7 8843   3.879   0.843  16.377  0.0107 -0.1900 -0.3772
  597TMC3    C1 8844   3.778   0.978  16.583  0.3347 -0.0720  0.0655
  597TMC3    C2 8845   3.831   1.068  16.498 -0.1324 -0.5836  0.3680
  597TMC3    C3 8846   3.777   1.198  16.485  0.0870 -0.1869  0.4912
  597TMC3    C4 8847   3.679   1.017  16.669 -0.5007  0.4218 -0.2883
  597TMC3    C5 8848   3.636   1.149  16.666  0.2139  0.0348 -0.3716
  597TMC3    C6 8849   3.674   1.236  16.569 -0.4401 -0.5324 -0.4518
  597TMC3     C 8850   3.779   0.830  16.562  0.1349 -0.5720  0.2221
  597TMC3     O 8851   3.715   0.768  16.647  0.1550  0.5375 -0.5021
  597TMC3     H 8852   3.921   1.050  16.441 -0.3779 -0.2642 -0.1277
  597TMC3    H1 8853   3.636   0.945  16.738  1.7841  0.0845  0.8061
  597TMC3    H2 8854   3.647   1.341  16.573 -0.0288 -0.5005  1.3018
  597TMC3    C7 8855   3.532   1.183  16.760 -0.6895 -0.8527 -0.4180
  597TMC3    C8 8856   3.864   1.298  16.435  0.1659  0.5075  0.3166
  597TMC3    O1 8857   3.512   1.109  16.856 -0.6544 -0.9312  0.4878
  597TMC3    O2 8858   3.963   1.257  16.374 -0.5741 -0.1033 -0.1675
  598TMC3    C1 8859   2.299   2.308  14.976  0.6344  0.5865 -0.4289
  598TMC3    C2 8860   2.174   2.244  14.974 -0.0341 -0.3954 -0.2151
  598TMC3    C3 8861   2.094   2.267  14.865  0.1608  0.0073  0.3474
  598TMC3    C4 8862   2.341   2.398  14.876  0.2310  0.9479  0.5080
  598TMC3    C5 8863   2.256   2.417  14.774 -0.0281 -0.1395 -0.9293
  598TMC3    C6 8864   2.141   2.344  14.759  0.4471  0.4969 -0.1481
  598TMC3     C 8865   2.393   2.274  15.077 -0.1595 -0.6176  0.3054
  598TMC3     O 8866   2.498   2.335  15.081  0.3558  0.3012  0.1880
  598TMC3     H 8867   2.129   2.197  15.060 -0.0204  0.3932  0.2299
  598TMC3    H1 8868   2.440   2.442  14.867 -0.7364  2.6799 -1.5907
  598TMC3    H2 8869   2.075   2.370  14.678  0.9846  3.8348  0.5143
  598TMC3    C7 8870   2.322   2.444  14.651 -0.2834 -0.1695 -0.5952
  598TMC3    C8 8871   1.976   2.178  14.833 -0.0032  0.2061 -0.3577
  598TMC3    O1 8872   2.287   2.382  14.552  0.2177 -0.1722 -0.1206
  598TMC3    O2 8873   1.923   2.196  14.723  0.1576 -0.3710  0.1260
  599MPD2     C 8874   2.519   4.665  15.742 -0.0227 -0.0390  0.5467
  599MPD2    C1 8875   2.450   4.549  15.726 -0.3070  0.6574  0.2900
  599MPD2    C2 8876   2.324   4.533  15.775  0.1090 -0.3920  0.0782
  599MPD2    C3 8877   2.277   4.628  15.863 -0.3132  1.0441 -0.0558
  599MPD2    C4 8878   2.350   0.011  15.890 -0.5427 -0.0629 -0.0661
  599MPD2    C5 8879   2.471   0.029  15.831  0.5804 -0.3795 -0.7981
  599MPD2     H 8880   2.258   4.456  15.736  1.9907 -1.4146 -1.1048
  599MPD2    H1 8881   2.319   0.094  15.952  0.0874 -1.1653  1.7036
  599MPD2    H2 8882   2.616   4.678  15.696 -1.5710 -0.2801 -2.8110
  599MPD2    H3 8883   2.531   0.114  15.863 -1.7612  0.4751  1.3748
  599MPD2     N 8884   2.149   4.624  15.923 -0.1699 -1.3391  0.2686
  599MPD2    H5 8885   2.112   4.710  15.963  0.6080  0.4707 -2.8311
  599MPD2    N1 8886   2.522   4.452  15.657 -0.5757  0.6129  0.3327
  599MPD2    H7 8887   2.620   4.476  15.642 -0.5740  0.8596  0.7623
  600TMC3    C1 8888   1.938   4.542  15.981 -0.2541 -0.4121 -0.4769
  600TMC3    C2 8889   1.863   4.438  16.029 -0.8034 -0.2357  0.3254
  600TMC3    C3 8890   1.745   4.460  16.098  0.9698 -0.4737  0.0946
  600TMC3    C4 8891   1.896   4.669  16.014 -0.3675 -0.6829 -0.8278
  600TMC3    C5 8892   1.782   4.688  16.095  0.7351  0.9761  0.1133
  600TMC3    C6 8893   1.706   4.586  16.138  0.1135 -0.2113 -0.2824
  600TMC3     C 8894   2.065   4.517  15.915 -0.3479 -0.1978 -0.4629
  600TMC3     O 8895   2.076   4.410  15.858 -0.4587  0.3773 -0.2238
  600TMC3     H 8896   1.890   4.334  16.010 -1.3651 -0.1486 -0.9132
  600TMC3    H1 8897   1.933   0.028  15.956 -0.1716  0.2988  0.6984
  600TMC3    H2 8898   1.625   4.599  16.210  0.2285 -1.6057  0.1043
  600TMC3    C7 8899   1.748   0.098  16.134  0.1463 -0.0412 -0.3255
  600TMC3    C8 8900   1.658   4.355  16.127 -0.0568 -0.3893  0.6202
  600TMC3    O1 8901   1.636   0.117  16.179 -0.1479 -0.0521 -0.1507
  600TMC3    O2 8902   1.719   4.273  16.199 -0.0681 -0.1406  0.3316
  601MPD2     C 8903   4.333   2.263  17.684  0.4252 -0.7932  0.0097
  601MPD2    C1 8904   4.210   2.300  17.646  0.3915  0.0168  0.6431
  601MPD2    C2 8905   4.109   2.205  17.636  0.1280  0.4936  0.1428
  601MPD2    C3 8906   4.134   2.068  17.644  0.0371  0.3408  0.8624
  601MPD2    C4 8907   4.259   2.029  17.683  0.7631  0.6576  0.0743
  601MPD2    C5 8908   4.354   2.126   0.013 -0.4670 -0.2876  0.6651
  601MPD2     H 8909   4.012   2.245  17.609  0.0527  0.7142  0.7450
  601MPD2    H1 8910   4.280   1.925   0.009 -2.6513  0.9408  4.0164
  601MPD2    H2 8911   4.417   2.331  17.694 -0.0482  0.2498 -3.0756
  601MPD2    H3 8912   4.452   2.100   0.051 -1.0910 -2.2372  0.9439
  601MPD2     N 8913   4.042   1.973  17.601 -0.6300  0.0683 -0.0884
  601MPD2    H5 8914   4.083   1.882  17.587 -0.5885 -0.5062  3.6792
  601MPD2    N1 8915   4.184   2.435  17.613 -0.1851 -0.2533  0.0145
  601MPD2    H7 8916   4.092   2.453  17.575 -0.5310  1.3844  1.6422
  602TMC3    C1 8917   4.216   2.663  17.544  0.3279 -0.7212  0.4224
  602TMC3    C2 8918   4.303   2.736  17.463 -0.1358  0.4812  0.6991
  602TMC3    C3 8919   4.241   2.818  17.370  0.2991  0.7318  0.6144
  602TMC3    C4 8920   4.082   2.678  17.541  0.3811 -0.3769  0.7272
  602TMC3    C5 8921   4.029   2.757  17.446  0.6452  0.3036  0.7420
  602TMC3    C6 8922   4.103   2.829  17.356  0.1319 -0.4121  0.3387
  602TMC3     C 8923   4.274   2.540  17.602  0.5270  0.0882  0.4619
  602TMC3     O 8924   4.393   2.555  17.631  0.2146 -0.2656 -0.4765
  602TMC3     H 8925   4.409   2.712  17.459 -0.5278 -1.3390  0.9673
  602TMC3    H1 8926   4.016   2.624  17.608  0.7780 -1.5134  0.2015
  602TMC3    H2 8927   4.065   2.861  17.260  2.9165 -1.7671 -1.2219
  602TMC3    C7 8928   3.883   2.744  17.421  0.9358  0.1132  0.0585
  602TMC3    C8 8929   4.316   2.876  17.258  0.1246  0.7100  0.2125
  602TMC3    O1 8930   3.826   2.640  17.452  0.7491 -0.7510 -0.4482
  602TMC3    O2 8931   4.421   2.827  17.221  0.0582  0.2022 -0.5107
  603TMC3    C1 8932   1.997   3.058  10.828  0.4359 -0.1228 -0.2406
  603TMC3    C2 8933   2.011   3.028  10.960 -0.5744  0.0718  0.0308
  603TMC3    C3 8934   2.075   3.110  11.050  0.0158 -0.5380 -0.8925
  603TMC3    C4 8935   2.034   3.185  10.778  0.0982  0.7763 -0.3463
  603TMC3    C5 8936   2.098   3.263  10.876  0.5078 -0.4421  0.1227
  603TMC3    C6 8937   2.120   3.227  11.004 -0.0218  0.1741 -0.2605
  603TMC3     C 8938   2.004   2.950  10.728  0.4918 -0.1490 -0.1294
  603TMC3     O 8939   2.100   2.953  10.653 -0.1970  0.0916  0.0516
  603TMC3     H 8940   1.990   2.925  10.988 -1.7024  0.2000 -0.3618
  603TMC3    H1 8941   2.027   3.200  10.670 -2.0404  3.3380  0.1623
  603TMC3    H2 8942   2.143   3.311  11.070  2.8159 -1.7435  1.1706
  603TMC3    C7 8943   2.131   3.398  10.840 -0.0671  0.5172 -0.2383
  603TMC3    C8 8944   2.081   3.075  11.190  0.0706  0.5178  0.5349
  603TMC3    O1 8945   2.210   3.461  10.908 -0.2700  0.0121 -0.2303
  603TMC3    O2 8946   2.037   2.968  11.236  0.1506 -0.0816  0.0875
  604MPD2     C 8947   3.233   1.889  16.090  0.4493 -0.1570  0.2049
  604MPD2    C1 8948   3.125   1.832  16.033  0.0274  0.2373  0.4435
  604MPD2    C2 8949   3.138   1.775  15.907  0.0525  0.7135 -0.4435
  604MPD2    C3 8950   3.256   1.781  15.833  0.2551 -0.7090 -0.4076
  604MPD2    C4 8951   3.365   1.842  15.893  0.2003  0.1903 -0.3958
  604MPD2    C5 8952   3.353   1.896  16.014 -0.2435 -0.4489  0.7066
  604MPD2     H 8953   3.056   1.732  15.850 -0.1183 -1.2836  1.3087
  604MPD2    H1 8954   3.452   1.868  15.835  0.4568  0.5643  0.1529
  604MPD2    H2 8955   3.240   1.936  16.187  1.2411 -1.0459  0.5828
  604MPD2    H3 8956   3.440   1.952  16.047  1.4062 -1.8032 -1.4344
  604MPD2     N 8957   3.249   1.729  15.696  0.1162 -0.1324 -1.0567
  604MPD2    H5 8958   3.157   1.710  15.658  0.4473  1.5099 -2.6452
  604MPD2    N1 8959   3.008   1.846  16.111  0.0082  0.1263 -0.2127
  604MPD2    H7 8960   3.020   1.884  16.204  0.5296  0.2466 -0.3259
  605TMC3    C1 8961   2.781   1.858  16.152  0.0653  0.9016 -0.1278
  605TMC3    C2 8962   2.843   1.884  16.270  0.4503 -0.2138 -0.1121
  605TMC3    C3 8963   2.836   2.005  16.321 -0.7857 -0.4970 -0.1559
  605TMC3    C4 8964   2.691   1.943  16.097 -0.3436  0.4028 -0.6006
  605TMC3    C5 8965   2.680   2.063  16.161 -0.3845  0.6098 -0.0138
  605TMC3    C6 8966   2.746   2.097  16.273  0.0115 -0.4241 -0.3451
  605TMC3     C 8967   2.884   1.827  16.052 -0.4041 -0.5724  0.4488
  605TMC3     O 8968   2.852   1.807  15.938  0.2984  0.2995  0.2600
  605TMC3     H 8969   2.906   1.805  16.308  1.1304 -0.0611 -0.9279
  605TMC3    H1 8970   2.634   1.929  16.006 -1.7534  1.2442  0.1538
  605TMC3    H2 8971   2.737   2.199  16.309  0.1321 -0.6368  0.2950
  605TMC3    C7 8972   2.585   2.153  16.107  0.2408  0.2424 -0.4642
  605TMC3    C8 8973   2.947   2.044  16.401  0.2821  0.1402 -0.6443
  605TMC3    O1 8974   2.540   2.233  16.188 -0.4681 -0.0497  0.2821
  605TMC3    O2 8975   3.044   1.970  16.392 -0.0066  0.1445  0.0365
  606TMC3    C1 8976   3.692   0.813   0.470  0.0541  0.6502 -0.0544
  606TMC3    C2 8977   3.827   0.853   0.449  0.6681  0.8689  0.6887
  606TMC3    C3 8978   3.929   0.765   0.480  0.6554  0.1024 -0.7475
  606TMC3    C4 8979   3.668   0.683   0.499 -0.3326 -0.8482  0.6464
  606TMC3    C5 8980   3.766   0.596   0.529  0.0265  0.0320  1.0132
  606TMC3    C6 8981   3.897   0.635   0.527 -0.0313 -0.4625 -0.3074
  606TMC3     C 8982   3.601   0.868   0.376  0.3485  0.1121  0.0783
  606TMC3     O 8983   3.480   0.839   0.387 -0.4017 -0.1525  0.0734
  606TMC3     H 8984   3.844   0.956   0.418  2.1657  0.9559  1.8119
  606TMC3    H1 8985   3.566   0.648   0.492 -1.7712  3.4693 -0.1476
  606TMC3    H2 8986   3.975   0.570   0.563 -0.5112  0.3677  2.2234
  606TMC3    C7 8987   3.741   0.454   0.517  0.0422 -0.4971 -0.0452
  606TMC3    C8 8988   4.063   0.793   0.431 -0.0168  0.6890 -0.4625
  606TMC3    O1 8989   3.827   0.382   0.570  0.7355  0.1767 -0.4596
  606TMC3    O2 8990   4.147   0.702   0.431 -0.2050 -0.0599  0.2807
  607MPD2     C 8991   0.954   3.442  11.456  0.7562 -0.1460 -0.4519
  607MPD2    C1 8992   1.011   3.532  11.544  0.6859 -0.4576  0.3226
  607MPD2    C2 8993   0.991   3.520  11.676  0.1603 -1.1941 -0.4590
  607MPD2    C3 8994   0.913   3.416  11.725 -0.4403 -0.0668  0.1390
  607MPD2    C4 8995   0.866   3.318  11.635 -0.7383 -0.0405  0.2044
  607MPD2    C5 8996   0.882   3.334  11.494 -0.0048 -0.6435  0.0072
  607MPD2     H 8997   1.036   3.593  11.742 -1.5400  0.0634 -0.6668
  607MPD2    H1 8998   0.818   3.226  11.663  2.4562 -1.4101  1.1689
  607MPD2    H2 8999   0.965   3.453  11.349 -0.8933 -2.0148 -0.8212
  607MPD2    H3 9000   0.838   3.267  11.421 -2.1147 -0.6482  1.2775
  607MPD2     N 9001   0.897   3.398  11.861  0.1532 -0.7902  0.4982
  607MPD2    H5 9002   0.925   3.478  11.918 -1.1290 -0.6653  0.9430
  607MPD2    N1 9003   1.109   3.634  11.512 -0.0551 -0.4821 -0.0227
  607MPD2    H7 9004   1.152   3.690  11.585 -0.7692  0.2741 -0.1887
  608TMC3    C1 9005   1.276   3.749  11.408 -0.0362 -0.1174 -0.0482
  608TMC3    C2 9006   1.347   3.740  11.531  0.3098  0.2311 -0.3334
  608TMC3    C3 9007   1.447   3.827  11.551 -0.0469  0.5471 -0.9862
  608TMC3    C4 9008   1.282   3.850  11.327  0.3918 -0.3462 -0.0890
  608TMC3    C5 9009   1.369   3.954  11.365 -0.0563 -0.0488 -0.1781
  608TMC3    C6 9010   1.451   3.939  11.477  0.1349  0.0254 -0.6001
  608TMC3     C 9011   1.167   3.659  11.388  0.4490 -0.2383  1.0441
  608TMC3     O 9012   1.122   3.635  11.276  0.0831  0.8773  0.0960
  608TMC3     H 9013   1.344   3.641  11.574 -2.5632  0.5390  0.1575
  608TMC3    H1 9014   1.214   3.849  11.243 -1.2193 -0.3592  1.2228
  608TMC3    H2 9015   1.518   4.022  11.498  0.1788 -0.4244  1.0220
  608TMC3    C7 9016   1.383   4.069  11.276  0.0563  0.0270 -0.1150
  608TMC3    C8 9017   1.509   3.823  11.682  1.1054  0.6745  0.7232
  608TMC3    O1 9018   1.334   4.061  11.166  0.1197  0.5454 -0.2138
  608TMC3    O2 9019   1.619   3.879  11.700  0.0420 -0.7671  0.2717
  609TMC3    C1 9020   0.087   2.621   9.033  0.7619  0.4181  1.0480
  609TMC3    C2 9021   0.038   2.498   8.994  0.1619  0.5512  0.2616
  609TMC3    C3 9022   0.130   2.391   8.998 -0.3741  0.2383 -0.1090
  609TMC3    C4 9023   0.221   2.638   9.064 -0.1790  0.1207 -0.0576
  609TMC3    C5 9024   0.301   2.532   9.053  0.1372 -0.8179 -0.1457
  609TMC3    C6 9025   0.264   2.409   9.031  0.6912  0.8317  0.0801
  609TMC3     C 9026   4.713   2.714   9.079  0.1189 -0.0168 -0.5167
  609TMC3     O 9027   4.599   2.669   9.096  0.4539  0.6975 -0.7583
  609TMC3     H 9028   4.655   2.485   8.981  0.3085  0.6462 -1.0107
  609TMC3    H1 9029   0.249   2.735   9.104  2.3143 -0.5233 -0.2672
  609TMC3    H2 9030   0.326   2.320   9.027  0.1597  0.5685 -2.2270
  609TMC3    C7 9031   0.438   2.560   9.091 -0.3183  0.7438 -0.0898
  609TMC3    C8 9032   0.099   2.263   8.945 -0.1200  0.0315  0.5805
  609TMC3    O1 9033   0.450   2.648   9.177 -0.4355  0.3367  0.1009
  609TMC3    O2 9034   0.179   2.174   8.949  0.7351  0.0605  0.0685
  610TMC3    C1 9035   1.811   3.480  12.577 -0.0907  0.1107  0.3362
  610TMC3    C2 9036   1.843   3.515  12.450 -0.4871  0.2529  0.5093
  610TMC3    C3 9037   1.922   3.440  12.368  0.2388 -0.3780 -0.4684
  610TMC3    C4 9038   1.866   3.359  12.626  0.3598 -0.5395 -0.3102
  610TMC3    C5 9039   1.953   3.285  12.546  0.5165 -0.6306  0.4050
  610TMC3    C6 9040   1.972   3.320  12.411 -0.6791 -0.2221 -0.2488
  610TMC3     C 9041   1.718   3.557  12.657  0.0971 -0.2325  0.1099
  610TMC3     O 9042   1.682   3.499  12.756  0.2179 -0.1029 -0.0729
  610TMC3     H 9043   1.792   3.605  12.417 -1.5089  0.1280  1.7631
  610TMC3    H1 9044   1.831   3.314  12.718 -0.8959  0.8874 -0.1037
  610TMC3    H2 9045   2.026   3.255  12.344 -0.3568 -0.2874  0.0719
  610TMC3    C7 9046   2.017   3.170  12.600  0.9698 -0.2083  0.1473
  610TMC3    C8 9047   1.981   3.497  12.248 -0.5287  0.1450  0.2713
  610TMC3    O1 9048   2.049   3.092  12.516  0.1193  0.7929 -0.3940
  610TMC3    O2 9049   1.931   3.601  12.208 -0.2498 -0.3199  0.3155
  611MPD2     C 9050   1.307   3.152  10.310  0.2215 -0.1605 -0.0213
  611MPD2    C1 9051   1.234   3.256  10.254 -0.2632  0.6460 -0.3520
  611MPD2    C2 9052   1.304   3.368  10.212  0.3232  0.3677 -0.0521
  611MPD2    C3 9053   1.448   3.369  10.222  0.1739 -0.2363  0.0975
  611MPD2    C4 9054   1.515   3.263  10.270  0.1128  0.1512  0.9467
  611MPD2    C5 9055   1.445   3.158  10.321 -0.3401  0.4309  0.6054
  611MPD2     H 9056   1.251   3.454  10.172  0.5120 -0.1524 -1.3990
  611MPD2    H1 9057   1.624   3.262  10.275  0.0840  1.1007  1.6694
  611MPD2    H2 9058   1.256   3.065  10.350 -2.0765  1.2916  0.2058
  611MPD2    H3 9059   1.488   3.072  10.370  1.4144 -0.6598 -2.8262
  611MPD2     N 9060   1.523   3.488  10.202 -0.4707 -0.4803 -0.2375
  611MPD2    H5 9061   1.620   3.482  10.231 -0.2580 -1.6321 -1.1898
  611MPD2    N1 9062   1.090   3.250  10.260 -0.2579 -0.3281  0.6777
  611MPD2    H7 9063   1.051   3.171  10.312 -0.9785 -0.3991  0.0348
  612TMC3    C1 9064   1.559   3.714  10.152  0.0393 -0.7236 -0.0766
  612TMC3    C2 9065   1.659   3.722  10.242  0.0443 -0.3908 -1.0457
  612TMC3    C3 9066   1.746   3.833  10.234 -0.2144  0.1654 -0.0432
  612TMC3    C4 9067   1.526   3.815  10.065  0.0081  0.6179  0.7112
  612TMC3    C5 9068   1.611   3.925  10.068  0.4725  0.2368  0.2082
  612TMC3    C6 9069   1.719   3.937  10.144  0.7041 -0.1075 -0.1811
  612TMC3     C 9070   1.472   3.605  10.147 -0.0403  0.1789 -0.7025
  612TMC3     O 9071   1.369   3.617  10.082  0.2304 -0.2730 -0.6123
  612TMC3     H 9072   1.666   3.651  10.324  2.7376  0.0739 -0.8726
  612TMC3    H1 9073   1.439   3.812  10.001  1.5289  0.6987 -1.3668
  612TMC3    H2 9074   1.791   4.017  10.129  0.3078  0.0869 -1.0307
  612TMC3    C7 9075   1.600   4.022   9.961  0.3043  0.0338 -0.1413
  612TMC3    C8 9076   1.846   3.847  10.332 -0.0597  0.7804  0.3009
  612TMC3    O1 9077   1.685   4.107   9.957 -0.2342  0.2342  0.2703
  612TMC3    O2 9078   1.870   3.963  10.354 -0.1008  0.6832 -0.1413
  613MPD2     C 9079   0.525   1.138  16.174 -0.1962 -0.1763  0.7916
  613MPD2    C1 9080   0.558   1.094  16.050 -0.9400  0.3499  0.4121
  613MPD2    C2 9081   0.654   0.992  16.029 -0.0956 -0.0627 -0.6960
  613MPD2    C3 9082   0.700   0.919  16.139 -1.0380 -0.5041  0.0961
  613MPD2    C4 9083   0.640   0.952  16.259 -0.2406  0.9579  0.9047
  613MPD2    C5 9084   0.559   1.062  16.282  0.5833 -0.1780  0.0678
  613MPD2     H 9085   0.694   0.971  15.930 -2.3004  0.3257 -1.6624
  613MPD2    H1 9086   0.673   0.895  16.345 -0.3240  0.2792  0.4895
  613MPD2    H2 9087   0.448   1.213  16.186  0.2678  0.1971  1.5057
  613MPD2    H3 9088   0.518   1.090  16.379 -1.0837 -0.5145 -0.5443
  613MPD2     N 9089   0.791   0.810  16.133  0.6611  0.0846 -0.0853
  613MPD2    H5 9090   0.796   0.750  16.215  0.3493  2.3596  1.6202
  613MPD2    N1 9091   0.515   1.148  15.928 -0.1910  0.5631 -0.0101
  613MPD2    H7 9092   0.549   1.100  15.845  1.1374  0.4918  0.5758
  614TMC3    C1 9093   0.379   1.251  15.779 -0.3297  0.1807  0.3892
  614TMC3    C2 9094   0.472   1.200  15.698  0.2315 -0.3889  0.5899
  614TMC3    C3 9095   0.432   1.130  15.586 -0.4576 -0.5600 -0.1786
  614TMC3    C4 9096   0.245   1.228  15.754 -0.1669  1.1266  0.1816
  614TMC3    C5 9097   0.206   1.165  15.635 -0.7956 -0.5981 -0.2538
  614TMC3    C6 9098   0.301   1.101  15.563 -0.3378  0.0238  0.0531
  614TMC3     C 9099   0.410   1.235  15.917  0.1922  0.0044  0.8851
  614TMC3     O 9100   0.348   1.298  15.996  0.2119 -0.6684 -0.6079
  614TMC3     H 9101   0.573   1.236  15.708  0.3055 -0.2959 -0.5680
  614TMC3    H1 9102   0.171   1.278  15.816 -0.3862  1.8655 -0.6701
  614TMC3    H2 9103   0.291   1.058  15.464  1.4989 -2.1644  0.8087
  614TMC3    C7 9104   0.069   1.158  15.601  0.2307  0.1274  0.3767
  614TMC3    C8 9105   0.520   1.017  15.581 -0.2118 -0.6691  0.3568
  614TMC3    O1 9106   4.718   1.237  15.657 -0.1846 -0.1615  0.0399
  614TMC3    O2 9107   0.608   1.011  15.667 -0.1167  0.2397 -0.4129
  615MPD2     C 9108   0.004   1.958  15.733 -0.0826 -0.1882 -0.1966
  615MPD2    C1 9109   0.070   1.983  15.614  0.0531 -0.1210 -0.1434
  615MPD2    C2 9110   0.003   1.977  15.491 -0.4054  0.2399 -0.3027
  615MPD2    C3 9111   4.602   1.929  15.489  0.9646  0.4003  0.0400
  615MPD2    C4 9112   4.536   1.896  15.601  0.4186 -0.3239 -0.3538
  615MPD2    C5 9113   4.603   1.908  15.727 -0.2091  0.1385  0.1129
  615MPD2     H 9114   0.058   1.966  15.398 -3.2971  0.8455 -2.0523
  615MPD2    H1 9115   4.431   1.870  15.602 -0.5966  3.8654  0.9540
  615MPD2    H2 9116   0.050   1.957  15.832 -0.6105 -0.3699  0.0432
  615MPD2    H3 9117   4.550   1.866  15.812  0.6527 -0.8628  0.1560
  615MPD2     N 9118   4.543   1.906  15.368 -0.0366  0.2492 -0.6052
  615MPD2    H5 9119   4.600   1.941  15.292  1.5299  0.3089  0.6034
  615MPD2    N1 9120   0.209   2.004  15.610 -0.0035 -0.2385 -0.0002
  615MPD2    H7 9121   0.245   2.016  15.516 -1.8338  0.7472 -0.5771
  616TMC3    C1 9122   0.431   2.019  15.681  0.5168  0.5179 -0.4095
  616TMC3    C2 9123   0.445   2.130  15.603  0.3895 -1.3660  0.6475
  616TMC3    C3 9124   0.581   2.157  15.570 -0.0139 -0.1159 -0.0882
  616TMC3    C4 9125   0.532   1.952  15.740  0.1879  0.8038 -0.2724
  616TMC3    C5 9126   0.661   1.980  15.700  0.2590  0.7191 -0.2399
  616TMC3    C6 9127   0.686   2.088  15.620 -0.3831 -0.0086 -0.5356
  616TMC3     C 9128   0.293   1.989  15.717  0.7717 -0.3453 -0.2276
  616TMC3     O 9129   0.280   1.928  15.825  0.0200  0.0895 -0.0067
  616TMC3     H 9130   0.362   2.177  15.552  1.7558 -0.5134 -0.8070
  616TMC3    H1 9131   0.523   1.863  15.802 -0.8938  0.9314 -0.2412
  616TMC3    H2 9132   0.785   2.107  15.581  0.6510 -1.3541  1.4520
  616TMC3    C7 9133   0.769   1.915  15.769 -0.2414 -0.1520  0.4798
  616TMC3    C8 9134   0.602   2.292  15.523 -0.0957  0.4676 -0.4612
  616TMC3    O1 9135   0.750   1.855  15.878  0.5377  0.5452 -0.1924
  616TMC3    O2 9136   0.514   2.342  15.453 -0.5390  0.2952  0.1660
  617MPD2     C 9137   2.619   0.146  13.541  0.1605 -0.9902  0.3524
  617MPD2    C1 9138   2.646   0.056  13.644  0.2961  0.7132 -0.0167
  617MPD2    C2 9139   2.547   0.005  13.725 -0.8594 -0.9535 -0.1786
  617MPD2    C3 9140   2.420   0.040  13.701 -0.2597 -0.2568  0.6319
  617MPD2    C4 9141   2.392   0.126  13.598  0.1466 -0.1731 -0.2570
  617MPD2    C5 9142   2.489   0.181  13.518 -0.3326  0.4711 -0.6799
  617MPD2     H 9143   2.567   4.666  13.811 -2.3543 -0.4058  0.5610
  617MPD2    H1 9144   2.290   0.162  13.586  0.5732  1.2874  0.5165
  617MPD2    H2 9145   2.700   0.190  13.483 -0.1821 -2.2972 -1.1073
  617MPD2    H3 9146   2.458   0.256  13.446 -0.9664  0.4202 -0.4578
  617MPD2     N 9147   2.307   0.014  13.791  0.2008 -1.0703  0.0296
  617MPD2    H5 9148   2.220   0.059  13.765  0.1064 -1.5913 -0.5304
  617MPD2    N1 9149   2.788   0.045  13.677 -0.5909 -0.0924 -0.3078
  617MPD2    H7 9150   2.850   0.105  13.623 -1.1501  0.3696 -0.4308
  618TMC3    C1 9151   2.993   4.672  13.755  0.2209 -0.2302  0.4960
  618TMC3    C2 9152   3.073   4.578  13.698  0.2771  0.0804 -0.2395
  618TMC3    C3 9153   3.207   4.597  13.697  0.4174  0.0892  1.1902
  618TMC3    C4 9154   3.048   0.057  13.818 -0.1150 -0.0054 -0.8478
  618TMC3    C5 9155   3.182   0.080  13.804  0.0548  0.3111  0.1314
  618TMC3    C6 9156   3.265   4.709  13.753  0.0354  0.4901  0.1722
  618TMC3     C 9157   2.843   4.669  13.759 -0.7262  0.0063 -0.2065
  618TMC3     O 9158   2.787   4.574  13.818  0.1799  0.3982  0.1823
  618TMC3     H 9159   3.027   4.492  13.650 -0.8182  0.9321 -0.7292
  618TMC3    H1 9160   2.980   0.127  13.866  0.0203 -0.6881  0.3527
  618TMC3    H2 9161   3.372   4.718  13.761 -0.2318  2.1530  2.0196
  618TMC3    C7 9162   3.224   0.218  13.830 -0.0869 -0.3826 -0.9058
  618TMC3    C8 9163   3.270   4.530  13.582  0.5798  0.0038 -0.3959
  618TMC3    O1 9164   3.166   0.287  13.916 -0.3858  0.0036 -0.1732
  618TMC3    O2 9165   3.200   4.458  13.511 -0.1365 -0.6359 -0.3297
  619MPD2     C 9166   4.050   1.342  13.738 -0.4719 -0.1057 -0.6814
  619MPD2    C1 9167   3.955   1.427  13.685  0.3485  0.4094  0.5392
  619MPD2    C2 9168   3.817   1.418  13.728  0.1263  0.6036 -0.1246
  619MPD2    C3 9169   3.787   1.314  13.816  0.9453 -0.2862 -0.2949
  619MPD2    C4 9170   3.891   1.239  13.876 -0.3722 -0.5234  0.3393
  619MPD2    C5 9171   4.015   1.248  13.828  0.3752  0.3371 -0.3337
  619MPD2     H 9172   3.747   1.480  13.675 -1.7309 -0.8824  0.6073
  619MPD2    H1 9173   3.869   1.158  13.945 -0.3520 -0.2082  0.7168
  619MPD2    H2 9174   4.155   1.339  13.709 -0.8077 -0.3866 -1.8664
  619MPD2    H3 9175   4.095   1.182  13.861 -0.4977  0.7526  2.6563
  619MPD2     N 9176   3.654   1.292  13.859  0.1060  0.2411  0.4522
  619MPD2    H5 9177   3.644   1.229  13.939 -1.0649  0.2458  0.3023
  619MPD2    N1 9178   3.980   1.514  13.578 -0.2994 -0.2872  0.0590
  619MPD2    H7 9179   3.899   1.572  13.555 -0.1493 -0.3183 -0.5584
  620TMC3    C1 9180   4.087   1.666  13.445 -0.0186 -0.2765  0.1957
  620TMC3    C2 9181   3.968   1.668  13.376 -0.6200 -0.4095  0.2236
  620TMC3    C3 9182   3.924   1.787  13.331  0.9336  0.5273  0.6464
  620TMC3    C4 9183   4.166   1.782  13.463 -0.8489  0.8437 -0.7212
  620TMC3    C5 9184   4.117   1.898  13.415  0.4662 -0.3235  0.8428
  620TMC3    C6 9185   3.995   1.904  13.348  0.2795 -0.6125 -0.4925
  620TMC3     C 9186   4.103   1.557  13.540  0.4426 -0.0958  0.1889
  620TMC3     O 9187   4.207   1.532  13.589  0.0873  0.3397 -0.5245
  620TMC3     H 9188   3.911   1.577  13.356  0.3497 -0.7483 -0.9837
  620TMC3    H1 9189   4.260   1.774  13.517  0.3493  2.6748 -2.5413
  620TMC3    H2 9190   3.945   1.998  13.329  4.2759  2.3038  3.5001
  620TMC3    C7 9191   4.144   2.026  13.481 -0.3627 -0.4280 -0.5741
  620TMC3    C8 9192   3.780   1.802  13.343  0.4765  0.2034  0.0783
  620TMC3    O1 9193   4.054   2.109  13.486 -0.0092  0.1734 -0.8583
  620TMC3    O2 9194   3.751   1.904  13.408  0.0884 -0.1624  0.8874
  621MPD2     C 9195   4.007   2.525   9.669  0.3786  0.6831  0.0521
  621MPD2    C1 9196   4.095   2.471   9.759  0.1005 -0.0505  0.0980
  621MPD2    C2 9197   4.229   2.509   9.751 -0.3336 -0.0492  0.3389
  621MPD2    C3 9198   4.270   2.587   9.646  0.1779 -0.9181  0.4458
  621MPD2    C4 9199   4.180   2.639   9.554  0.2003  0.6673 -0.6545
  621MPD2    C5 9200   4.045   2.609   9.568  0.5654  0.4287 -0.6258
  621MPD2     H 9201   4.305   2.469   9.818 -0.1532  0.4542  0.4354
  621MPD2    H1 9202   4.218   2.695   9.469 -2.9964  1.8713 -1.2942
  621MPD2    H2 9203   3.901   2.506   9.668  0.1375  2.3035 -4.4646
  621MPD2    H3 9204   3.968   2.627   9.494  1.5995 -1.5024 -2.1855
  621MPD2     N 9205   4.414   2.596   9.646  0.1308 -0.4144  0.4455
  621MPD2    H5 9206   4.473   2.559   9.720 -0.7262 -1.6737  0.4849
  621MPD2    N1 9207   4.053   2.382   9.860 -0.2295 -0.4281 -0.0387
  621MPD2    H7 9208   4.128   2.362   9.925  0.3991  0.2006 -0.5704
  622TMC3    C1 9209   3.923   2.246   9.997 -0.4484 -0.2171  0.4196
  622TMC3    C2 9210   3.803   2.225  10.062  0.4169 -0.1952 -0.2807
  622TMC3    C3 9211   3.813   2.130  10.165 -0.3906 -0.0176 -0.0688
  622TMC3    C4 9212   4.023   2.154   9.999 -0.4272  0.1947  0.1306
  622TMC3    C5 9213   4.033   2.069  10.103 -0.4024 -0.4642 -0.3749
  622TMC3    C6 9214   3.922   2.054  10.183 -0.3381  0.2796  0.3267
  622TMC3     C 9215   3.930   2.324   9.875  0.1206  0.3399  0.7186
  622TMC3     O 9216   3.826   2.353   9.812 -0.0836 -0.3898 -0.1367
  622TMC3     H 9217   3.711   2.278  10.040 -2.4032 -3.8055  2.7423
  622TMC3    H1 9218   4.110   2.163   9.935 -1.4720  2.3274 -0.9702
  622TMC3    H2 9219   3.928   1.988  10.269 -0.8591  1.1695  1.0351
  622TMC3    C7 9220   4.126   1.959  10.088  0.0567  0.7141 -0.4300
  622TMC3    C8 9221   3.705   2.100  10.250  0.3590 -0.2740  0.8998
  622TMC3    O1 9222   4.236   1.969  10.041 -0.0960  0.3891  0.3616
  622TMC3    O2 9223   3.691   1.986  10.291  0.5438  0.2286  0.5155
  623MPD2     C 9224   3.354   2.300  15.555 -0.4082  0.3810  0.2446
  623MPD2    C1 9225   3.277   2.273  15.668 -0.4505 -0.3081 -0.3453
  623MPD2    C2 9226   3.345   2.254  15.783 -0.0928  0.7546  0.2135
  623MPD2    C3 9227   3.481   2.256  15.794 -0.2236 -0.3910 -0.6401
  623MPD2    C4 9228   3.560   2.288  15.680 -0.7282  0.3173  0.4159
  623MPD2    C5 9229   3.490   2.297  15.559  0.3256  1.1892 -0.0859
  623MPD2     H 9230   3.292   2.232  15.875 -0.0202 -0.4191 -0.0241
  623MPD2    H1 9231   3.668   2.291  15.679 -0.7520  0.7472 -1.4279
  623MPD2    H2 9232   3.312   2.301  15.455 -0.7737 -1.5771  0.3736
  623MPD2    H3 9233   3.539   2.318  15.465  0.4394  1.4737  0.0386
  623MPD2     N 9234   3.528   2.229  15.924 -0.4375 -0.0898  0.4405
  623MPD2    H5 9235   3.455   2.200  15.989 -0.3304 -0.3721  0.4359
  623MPD2    N1 9236   3.134   2.270  15.674 -0.4749  0.1113  0.1062
  623MPD2    H7 9237   3.097   2.243  15.765 -0.1805 -0.1129  0.1586
  624TMC3    C1 9238   3.791   2.238  16.301 -0.3682 -0.7208  0.2297
  624TMC3    C2 9239   3.686   2.230  16.386 -0.4999 -0.3599  0.3989
  624TMC3    C3 9240   3.565   2.219  16.320  0.5499  0.6121 -0.1195
  624TMC3    C4 9241   3.788   2.228  16.161  0.1572  0.5041 -0.3553
  624TMC3    C5 9242   3.669   2.205  16.106 -0.5575 -0.5355 -0.4842
  624TMC3    C6 9243   3.550   2.202  16.181  0.0615 -0.0289 -0.0583
  624TMC3     C 9244   3.922   2.209  16.366 -0.3598 -0.8004 -0.6371
  624TMC3     O 9245   3.922   2.160  16.480  0.6604 -0.6619 -0.4121
  624TMC3     H 9246   3.689   2.234  16.494 -0.6130 -0.6237  0.4132
  624TMC3    H1 9247   3.877   2.222  16.098 -0.2143  1.8560 -1.0198
  624TMC3    H2 9248   3.456   2.162  16.145  0.9161  0.3215 -2.6739
  624TMC3    C7 9249   3.659   2.241  15.967 -0.7875 -0.1518 -0.4576
  624TMC3    C8 9250   3.447   2.189  16.391 -0.8723  0.0653 -0.0486
  624TMC3    O1 9251   3.751   2.290  15.904  0.3248  0.0678  0.0953
  624TMC3    O2 9252   3.390   2.091  16.350  0.0833 -0.3123  0.1511
  625MPD2     C 9253   3.928   3.240   0.226  0.3533  0.2384 -0.2509
  625MPD2    C1 9254   4.045   3.315   0.220  0.3804 -0.8587 -0.4764
  625MPD2    C2 9255   4.140   3.275   0.319  0.4048  0.2018  0.0371
  625MPD2    C3 9256   4.125   3.168   0.407  0.2307 -0.2430  1.0569
  625MPD2    C4 9257   4.008   3.094   0.394 -0.5218  0.3116  0.1753
  625MPD2    C5 9258   3.905   3.130   0.307 -1.1014 -0.0818 -0.1351
  625MPD2     H 9259   4.233   3.329   0.327  0.3674  0.4008 -0.8581
  625MPD2    H1 9260   3.994   3.006   0.455 -1.5205  0.8713  0.7495
  625MPD2    H2 9261   3.851   3.251   0.151  1.3417  1.6747 -1.0539
  625MPD2    H3 9262   3.813   3.076   0.290  0.0199 -1.8048 -0.7229
  625MPD2     N 9263   4.237   3.119   0.472 -0.2800 -0.0453  0.4312
  625MPD2    H5 9264   4.321   3.175   0.461  0.0166 -0.4438  0.6575
  625MPD2    N1 9265   4.069   3.420   0.132  0.0696  0.1556 -0.1140
  625MPD2    H7 9266   4.151   3.478   0.143  1.4404 -1.6323 -0.9776
  626TMC3    C1 9267   4.014   3.601  17.682 -0.5372  0.0964 -0.2568
  626TMC3    C2 9268   3.901   3.671  17.643 -0.0813 -0.2834  0.8561
  626TMC3    C3 9269   3.898   3.796  17.689 -0.1971 -0.0886 -0.5769
  626TMC3    C4 9270   4.126   3.661   0.024  0.1417  0.0280 -0.7946
  626TMC3    C5 9271   4.122   3.793   0.062  0.0153 -0.5444  0.1691
  626TMC3    C6 9272   4.003   3.861   0.049 -0.4531 -0.3445  0.3661
  626TMC3     C 9273   3.982   3.470   0.038  0.1069 -0.7515  0.0597
  626TMC3     O 9274   3.879   3.414  17.694 -0.8438  0.0116  0.3520
  626TMC3     H 9275   3.810   3.621  17.610 -0.7720  1.2367  0.4833
  626TMC3    H1 9276   4.222   3.612   0.028 -0.3139 -0.8143 -0.1518
  626TMC3    H2 9277   3.997   3.955   0.104  3.5944  0.3591 -0.3855
  626TMC3    C7 9278   4.200   3.805   0.179  0.5667 -0.4478 -0.5976
  626TMC3    C8 9279   3.795   3.866  17.617  0.6023  0.0618  0.3883
  626TMC3    O1 9280   4.295   3.882   0.175 -0.0437 -0.3602 -0.5499
  626TMC3    O2 9281   3.739   3.803  17.528 -0.3960  0.4201 -0.1275
  627MPD2     C 9282   2.543   3.508  14.081 -0.7222  0.5346 -0.3662
  627MPD2    C1 9283   2.487   3.590  14.179 -1.2041 -0.1542 -0.1584
  627MPD2    C2 9284   2.357   3.580  14.201 -1.1549  0.0994  0.5848
  627MPD2    C3 9285   2.279   3.496  14.129 -0.2962  0.2718 -0.0821
  627MPD2    C4 9286   2.336   3.418  14.023 -0.1656 -0.1194  0.2767
  627MPD2    C5 9287   2.468   3.433  13.998 -0.1311 -0.3624 -0.3906
  627MPD2     H 9288   2.311   3.636  14.283 -2.1797  0.2909 -0.1172
  627MPD2    H1 9289   2.281   3.356  13.953 -1.1041  0.0770  0.8400
  627MPD2    H2 9290   2.650   3.493  14.067 -1.4203 -2.3977 -2.3805
  627MPD2    H3 9291   2.511   3.362  13.929  1.0675 -0.4927  0.5022
  627MPD2     N 9292   2.137   3.480  14.150  0.3325  0.2004 -0.1541
  627MPD2    H5 9293   2.102   3.545  14.221  0.3296 -0.2243  0.2314
  627MPD2    N1 9294   2.559   3.674  14.272  0.3438 -0.0915  0.5727
  627MPD2    H7 9295   2.500   3.742  14.319 -1.8503 -2.8387  1.7907
  628TMC3    C1 9296   2.754   3.761  14.369  0.2423 -0.6990  0.6308
  628TMC3    C2 9297   2.882   3.734  14.399 -0.6140 -0.2293 -0.0120
  628TMC3    C3 9298   2.947   3.825  14.473 -0.7010 -0.2731 -0.6826
  628TMC3    C4 9299   2.683   3.869  14.420  0.0611  0.6369  0.2507
  628TMC3    C5 9300   2.752   3.958  14.502 -0.0577  0.1567 -0.0721
  628TMC3    C6 9301   2.885   3.932  14.527  0.0732 -0.0970  0.7077
  628TMC3     C 9302   2.695   3.667  14.276  0.2877 -0.0142 -0.2193
  628TMC3     O 9303   2.772   3.589  14.222 -0.2787 -0.2728  0.0490
  628TMC3     H 9304   2.940   3.665  14.338  0.2042  1.2392 -0.9032
  628TMC3    H1 9305   2.585   3.897  14.382  0.0449  0.8256  0.4304
  628TMC3    H2 9306   2.942   4.003  14.585 -0.5598  2.0295 -1.2839
  628TMC3    C7 9307   2.703   4.086  14.543  0.0066  0.6012  0.1017
  628TMC3    C8 9308   3.072   3.794  14.534  0.2532  0.3443 -0.9975
  628TMC3    O1 9309   2.783   4.145  14.612  0.2681 -0.0027  0.0306
  628TMC3    O2 9310   3.138   3.877  14.594  0.1541  0.0043  0.5713
  629MPD2     C 9311   0.748   2.784  15.591  0.4911 -0.2395 -0.2106
  629MPD2    C1 9312   0.794   2.704  15.697  0.3171  0.4470 -0.4528
  629MPD2    C2 9313   0.780   2.568  15.699 -0.8112 -0.1400  0.2085
  629MPD2    C3 9314   0.703   2.500  15.594 -0.1377 -0.0109 -0.2344
  629MPD2    C4 9315   0.650   2.588  15.497 -0.4134  0.2930  0.3539
  629MPD2    C5 9316   0.676   2.724  15.491  0.0149  0.3264 -0.2741
  629MPD2     H 9317   0.816   2.512  15.784  2.0074  0.8971 -0.2892
  629MPD2    H1 9318   0.590   2.558  15.412 -3.1717  1.8651  1.7724
  629MPD2    H2 9319   0.770   2.890  15.588 -2.4579  0.3700 -0.7192
  629MPD2    H3 9320   0.632   2.783  15.412 -2.0698 -1.3204 -0.3503
  629MPD2     N 9321   0.689   2.361  15.601  0.3879 -0.6990  0.3006
  629MPD2    H5 9322   0.722   2.305  15.679 -2.5603 -2.7768  0.0674
  629MPD2    N1 9323   0.871   2.782  15.795  0.4442  0.1045 -0.0573
  629MPD2    H7 9324   0.899   2.877  15.770 -0.7478  0.4347 -0.1290
  630TMC3    C1 9325   0.995   2.823  15.988 -0.0939 -0.5890  0.0102
  630TMC3    C2 9326   1.045   2.940  15.946  1.2985 -0.1786  0.7122
  630TMC3    C3 9327   1.136   3.010  16.025  0.5552  0.0097 -0.4421
  630TMC3    C4 9328   1.034   2.773  16.111 -0.1342  0.1158 -0.9833
  630TMC3    C5 9329   1.134   2.829  16.183 -0.5635  0.2569 -0.2457
  630TMC3    C6 9330   1.179   2.949  16.145 -0.4392 -0.5508  1.1608
  630TMC3     C 9331   0.910   2.734  15.914  0.3373 -0.0859 -0.6253
  630TMC3     O 9332   0.871   2.634  15.978  0.3655  0.1636  0.2354
  630TMC3     H 9333   1.004   2.997  15.863 -3.0102 -2.4756  1.3044
  630TMC3    H1 9334   1.029   2.666  16.130  3.9320  0.1886  0.6182
  630TMC3    H2 9335   1.238   3.010  16.214  0.7531  1.7091 -1.8398
  630TMC3    C7 9336   1.191   2.758  16.296 -0.3904  0.0787 -0.2092
  630TMC3    C8 9337   1.220   3.105  15.957  0.3499 -0.1947 -0.4655
  630TMC3    O1 9338   1.130   2.657  16.330  0.4025  0.2061 -0.7204
  630TMC3    O2 9339   1.260   3.206  16.021 -0.5230 -0.1921 -0.1553
  631MPD2     C 9340   3.692   2.082  14.911  0.3826 -0.1351 -0.6836
  631MPD2    C1 9341   3.760   2.136  15.010 -0.4863 -0.1414 -0.1314
  631MPD2    C2 9342   3.884   2.081  15.052  0.4731  0.6730  0.5507
  631MPD2    C3 9343   3.938   1.976  14.986  0.3156  0.1522 -0.5801
  631MPD2    C4 9344   3.868   1.920  14.877 -0.4197  0.6394 -0.2790
  631MPD2    C5 9345   3.745   1.972  14.847  0.6622  0.0160 -0.1769
  631MPD2     H 9346   3.937   2.123  15.137  2.7609  1.5470 -1.3146
  631MPD2    H1 9347   3.913   1.836  14.827 -0.4779 -0.9226  2.2718
  631MPD2    H2 9348   3.603   2.127  14.869  0.6749 -0.7498 -1.9491
  631MPD2    H3 9349   3.693   1.929  14.762 -2.5042 -0.1979  1.8869
  631MPD2     N 9350   4.054   1.921  15.040  0.6300 -0.4881 -0.1488
  631MPD2    H5 9351   4.096   1.948  15.128 -1.7101  0.2732  0.7479
  631MPD2    N1 9352   3.717   2.260  15.060  0.1679  0.3228 -0.5883
  631MPD2    H7 9353   3.648   2.313  15.007  0.4423  1.4346  0.1562
  632TMC3    C1 9354   3.724   2.464  15.183  0.7556 -0.8539  0.4277
  632TMC3    C2 9355   3.752   2.524  15.302  0.1747 -0.0648  0.4587
  632TMC3    C3 9356   3.809   2.645  15.311 -0.8233 -0.7516 -0.7001
  632TMC3    C4 9357   3.737   2.536  15.070 -0.1088 -0.3998  0.2978
  632TMC3    C5 9358   3.793   2.660  15.081  0.5442 -0.4682  0.2846
  632TMC3    C6 9359   3.833   2.717  15.196  0.3509  0.3256  0.5629
  632TMC3     C 9360   3.764   2.330  15.167  0.4944 -0.2952  0.7993
  632TMC3     O 9361   3.835   2.284  15.261  0.1736 -0.1674 -0.2023
  632TMC3     H 9362   3.741   2.458  15.387  3.6115  2.1081  2.5629
  632TMC3    H1 9363   3.741   2.489  14.972  3.1700 -0.0678  0.2916
  632TMC3    H2 9364   3.856   2.822  15.185  2.3907 -0.2570 -0.8751
  632TMC3    C7 9365   3.842   2.701  14.953  0.0204  0.4026 -0.3063
  632TMC3    C8 9366   3.823   2.705  15.446 -0.4879 -0.1506  0.3581
  632TMC3    O1 9367   3.760   2.684  14.862  0.4456  0.9550  0.2957
  632TMC3    O2 9368   3.777   2.639  15.541  0.1660 -0.0562 -0.0134
  633MPD2     C 9369   3.249   0.779  17.257  0.0685  0.0669 -0.3809
  633MPD2    C1 9370   3.264   0.682  17.159 -0.0834 -0.6002 -0.1501
  633MPD2    C2 9371   3.281   0.548  17.201 -0.4639 -0.0998  0.3135
  633MPD2    C3 9372   3.267   0.518  17.336  0.4305  0.3713  0.0646
  633MPD2    C4 9373   3.263   0.624  17.431 -0.7625 -0.4198 -0.0831
  633MPD2    C5 9374   3.253   0.750  17.391 -0.1916  0.1244  0.1151
  633MPD2     H 9375   3.309   0.472  17.129  3.3054  0.2667  1.3995
  633MPD2    H1 9376   3.259   0.599  17.536 -1.2783 -0.7572 -0.1838
  633MPD2    H2 9377   3.241   0.884  17.231  0.9546  0.7597  2.1484
  633MPD2    H3 9378   3.253   0.820  17.474 -0.4266 -0.0399  0.2548
  633MPD2     N 9379   3.284   0.389  17.383  0.7165  0.1706  0.8564
  633MPD2    H5 9380   3.325   0.382  17.476  2.4807 -0.8114  0.0125
  633MPD2    N1 9381   3.265   0.696  17.020 -0.1966 -0.2979  0.2696
  633MPD2    H7 9382   3.289   0.611  16.972 -2.5653  0.1944 -1.7683
  634TMC3    C1 9383   3.298   0.807  16.812  0.3742 -0.3467 -0.1222
  634TMC3    C2 9384   3.370   0.696  16.770 -0.5915  0.9567 -0.2136
  634TMC3    C3 9385   3.416   0.693  16.639 -0.6855 -0.0254  0.5091
  634TMC3    C4 9386   3.283   0.918  16.732 -0.2138  0.5526  0.3787
  634TMC3    C5 9387   3.344   0.910  16.605  0.4912 -0.8281 -1.1135
  634TMC3    C6 9388   3.406   0.803  16.557 -0.2156  0.1520 -0.1808
  634TMC3     C 9389   3.261   0.816  16.952  0.2999 -1.0038  0.2561
  634TMC3     O 9390   3.238   0.927  17.000  0.8242 -0.0037  0.1242
  634TMC3     H 9391   3.388   0.601  16.818 -2.4712  0.7181  0.0161
  634TMC3    H1 9392   3.242   1.009  16.774  1.5473  1.2954  0.5083
  634TMC3    H2 9393   3.457   0.806  16.461  0.1535  0.9143  0.0376
  634TMC3    C7 9394   3.306   1.010  16.508  0.1224 -0.0437 -0.6510
  634TMC3    C8 9395   3.460   0.563  16.588 -0.4489 -0.3000 -0.0507
  634TMC3    O1 9396   3.377   1.013  16.407  0.3131 -0.2229  0.1562
  634TMC3    O2 9397   3.497   0.475  16.661 -0.3689 -0.6286  0.1809
  635TMC3    C1 9398   4.196   1.242  16.727 -0.4170  0.4823  0.4311
  635TMC3    C2 9399   4.217   1.132  16.801  0.1697 -0.0194  0.0973
  635TMC3    C3 9400   4.276   1.029  16.735 -0.6870  0.0002  0.0840
  635TMC3    C4 9401   4.199   1.251  16.588  0.4517 -0.3333 -0.1160
  635TMC3    C5 9402   4.256   1.142  16.525 -0.7466  0.3505  0.2505
  635TMC3    C6 9403   4.301   1.034  16.600  0.0571 -0.4099  0.3229
  635TMC3     C 9404   4.174   1.352  16.811 -0.9493 -0.3347 -0.2784
  635TMC3     O 9405   4.084   1.439  16.791  0.1036  0.3654  0.3270
  635TMC3     H 9406   4.187   1.120  16.905  2.4249  1.6055  0.9214
  635TMC3    H1 9407   4.195   1.350  16.542  2.2364 -0.1951  0.0223
  635TMC3    H2 9408   4.350   0.950  16.551 -1.3702 -0.7925 -0.4578
  635TMC3    C7 9409   4.320   1.151  16.394  0.3155  0.4224  0.8769
  635TMC3    C8 9410   4.348   0.924  16.806  0.0641 -0.5109 -0.2168
  635TMC3    O1 9411   4.428   1.097  16.374 -0.3664  0.1754 -0.3734
  635TMC3    O2 9412   4.358   0.940  16.928  0.5537  0.0829  0.2926
  636MPD2     C 9413   0.186   0.695  15.814  0.0907  0.1264  0.2241
  636MPD2    C1 9414   0.248   0.764  15.916 -0.2854 -0.3239 -0.1015
  636MPD2    C2 9415   0.375   0.721  15.951  0.2061 -0.2182 -0.0300
  636MPD2    C3 9416   0.440   0.620  15.880 -0.0816 -0.0754 -0.2389
  636MPD2    C4 9417   0.378   0.548  15.782  0.1995  0.2946  0.3302
  636MPD2    C5 9418   0.248   0.586  15.750 -0.6671  0.0635  0.5832
  636MPD2     H 9419   0.422   0.778  16.030 -0.0693 -0.3826  0.2571
  636MPD2    H1 9420   0.425   0.461  15.736  0.3035 -0.9677  2.8272
  636MPD2    H2 9421   0.080   0.704  15.791  0.3077 -1.6673 -1.4612
  636MPD2    H3 9422   0.200   0.534  15.668 -0.8316  1.3478 -0.1378
  636MPD2     N 9423   0.572   0.590  15.917  0.0694  0.0548  0.0500
  636MPD2    H5 9424   0.624   0.657  15.973 -1.8072  1.1222  0.5251
  636MPD2    N1 9425   0.177   0.856  15.999 -0.4818 -0.5329 -0.6786
  636MPD2    H7 9426   0.221   0.877  16.088 -2.3599 -1.9801  0.6005
  637TMC3    C1 9427   0.781   0.483  15.915  0.1545  0.3756  0.0011
  637TMC3    C2 9428   0.803   0.572  16.012  0.5995 -0.1738 -0.3756
  637TMC3    C3 9429   0.908   0.661  15.990 -0.3674 -1.1725  0.1315
  637TMC3    C4 9430   0.849   0.480  15.798 -0.1964 -0.5097 -0.4795
  637TMC3    C5 9431   0.953   0.569  15.785  0.5070  0.3927  0.0905
  637TMC3    C6 9432   0.984   0.660  15.883  0.6615  0.4915  0.0562
  637TMC3     C 9433   0.640   0.473  15.885 -0.1079  0.3443 -0.5992
  637TMC3     O 9434   0.608   0.373  15.823  0.5064  0.9992  0.5439
  637TMC3     H 9435   0.747   0.571  16.105  0.2701  0.6343 -0.5651
  637TMC3    H1 9436   0.801   0.431  15.714 -2.5182 -1.4898  1.4290
  637TMC3    H2 9437   1.066   0.730  15.875  0.0843  0.9879 -1.4775
  637TMC3    C7 9438   0.928   0.649  15.671  0.6535 -0.9665  0.4245
  637TMC3    C8 9439   0.878   0.799  16.031 -1.0176  0.0519 -0.6198
  637TMC3    O1 9440   0.956   0.768  15.687  1.2737  0.0406  0.5242
  637TMC3    O2 9441   0.912   0.889  15.958  0.2041 -1.0948  0.0024
  638MPD2     C 9442   4.682   4.431  14.830  0.4862  0.0281 -0.2952
  638MPD2    C1 9443   4.648   4.338  14.743 -0.7077 -0.5848  0.1555
  638MPD2    C2 9444   4.593   4.215  14.779  0.1685 -0.4155  0.5708
  638MPD2    C3 9445   4.580   4.188  14.916 -0.5113  0.2841 -0.4041
  638MPD2    C4 9446   4.620   4.291  15.005  0.1035  0.1805  0.6677
  638MPD2    C5 9447   4.663   4.410  14.958 -0.5071  0.2745  0.5906
  638MPD2     H 9448   4.570   4.135  14.710 -0.3182 -0.1528  0.4248
  638MPD2    H1 9449   4.603   4.287  15.112 -1.1744  1.2555  0.4981
  638MPD2    H2 9450   0.004   4.525  14.800 -1.8713  1.6588  1.1273
  638MPD2    H3 9451   4.691   4.486  15.030  0.6219  1.2192 -0.8554
  638MPD2     N 9452   4.524   4.069  14.952 -0.8028 -0.0719 -0.3004
  638MPD2    H5 9453   4.481   4.019  14.875 -0.6030  0.7317 -0.9263
  638MPD2    N1 9454   4.660   4.367  14.600  0.4600  0.3477  0.0446
  638MPD2    H7 9455   4.689   4.463  14.582 -1.6361  0.7401 -1.2157
  639TMC3    C1 9456   4.499   3.870  15.083 -0.1829 -0.3311 -0.1737
  639TMC3    C2 9457   4.390   3.838  15.004  0.2154  0.5617  0.0897
  639TMC3    C3 9458   4.340   3.714  15.019  0.0379 -0.5608 -0.0600
  639TMC3    C4 9459   4.563   3.785  15.165  0.3471 -0.1116 -0.4341
  639TMC3    C5 9460   4.493   3.667  15.184 -0.1924 -0.3600 -0.0017
  639TMC3    C6 9461   4.391   3.623  15.103  0.0725 -0.2506 -0.6642
  639TMC3     C 9462   4.538   4.011  15.077  0.1079 -0.8051  0.6574
  639TMC3     O 9463   4.600   4.055  15.173  0.5429  0.0695 -0.5735
  639TMC3     H 9464   4.352   3.892  14.917 -0.0484  0.4377  0.1289
  639TMC3    H1 9465   4.638   3.811  15.240 -0.7148 -1.0486  0.9517
  639TMC3    H2 9466   4.342   3.526  15.108  0.6426 -0.5022  0.0819
  639TMC3    C7 9467   4.583   3.556  15.204  0.0686  0.5072 -0.2878
  639TMC3    C8 9468   4.260   3.668  14.908 -0.0018 -0.6984 -1.0057
  639TMC3    O1 9469   4.531   3.461  15.261 -0.2784  0.5188  0.5139
  639TMC3    O2 9470   4.305   3.692  14.794  0.0132 -0.1913  0.1744
  640MPD2     C 9471   4.572   3.392  10.215 -0.2225  0.1092  0.1867
  640MPD2    C1 9472   4.623   3.494  10.137 -0.1943  0.8950  0.4182
  640MPD2    C2 9473   4.564   3.618  10.150  0.0630  0.0298  0.0028
  640MPD2    C3 9474   4.473   3.651  10.243  0.2915  0.2569 -0.7780
  640MPD2    C4 9475   4.442   3.552  10.335 -0.3295  0.0179  0.0400
  640MPD2    C5 9476   4.489   3.422  10.315  0.0459 -0.4353 -0.4036
  640MPD2     H 9477   4.591   3.698  10.082  0.6033  2.4392  3.0337
  640MPD2    H1 9478   4.389   3.566  10.428 -0.1309  1.3551 -0.0419
  640MPD2    H2 9479   4.601   3.293  10.182  0.2932  0.3648 -0.1259
  640MPD2    H3 9480   4.448   3.342  10.374 -2.2569  1.4903  0.5725
  640MPD2     N 9481   4.411   3.779  10.240  0.3005 -0.1124  0.4325
  640MPD2    H5 9482   4.330   3.790  10.299 -0.0655  0.8014 -0.2360
  640MPD2    N1 9483   4.717   3.467  10.036 -0.2312  0.0645 -0.1484
  640MPD2    H7 9484   0.018   3.369  10.029 -0.3306  0.0585 -0.3954
  641TMC3    C1 9485   0.108   3.483   9.834 -0.3729  0.3122 -0.4791
  641TMC3    C2 9486   0.199   3.382   9.849  0.2816  0.6445 -0.1459
  641TMC3    C3 9487   0.256   3.335   9.734  0.1414  0.1573  0.2147
  641TMC3    C4 9488   0.086   3.535   9.710 -0.2315  0.1726 -0.8750
  641TMC3    C5 9489   0.148   3.484   9.601 -0.4075  0.1908 -0.1568
  641TMC3    C6 9490   0.243   3.395   9.608  1.0490 -0.2565  0.5829
  641TMC3     C 9491   0.049   3.551   9.944  0.5255 -0.3189 -0.0774
  641TMC3     O 9492   0.007   3.665   9.915  0.0927  0.5277 -0.0928
  641TMC3     H 9493   0.222   3.351   9.951 -1.4247 -1.6271 -0.4398
  641TMC3    H1 9494   0.014   3.615   9.692  0.1042 -0.0848 -3.3293
  641TMC3    H2 9495   0.299   3.345   9.529  3.1337 -0.2258  2.0616
  641TMC3    C7 9496   0.118   3.530   9.464 -0.5848  0.0491  0.7012
  641TMC3    C8 9497   0.359   3.226   9.741  0.2487 -0.5122 -0.2201
  641TMC3    O1 9498   0.043   3.623   9.452  0.0777 -0.5088 -1.0594
  641TMC3    O2 9499   0.457   3.235   9.665  0.0356  0.3169 -0.1710
  642TMC3    C1 9500   1.261   4.179  12.049  0.3718 -0.2188 -0.4030
  642TMC3    C2 9501   1.228   4.243  12.168 -0.7982  0.1646  0.2164
  642TMC3    C3 9502   1.198   4.165  12.278 -1.0675 -0.4124  0.6329
  642TMC3    C4 9503   1.242   4.047  12.040  0.6172  0.0713  0.5248
  642TMC3    C5 9504   1.178   3.978  12.139  0.2149 -0.0356  0.0200
  642TMC3    C6 9505   1.163   4.035  12.260 -0.3277 -0.3273 -0.3871
  642TMC3     C 9506   1.197   4.250  11.935  0.2262  0.8676  0.5795
  642TMC3     O 9507   1.235   4.221  11.823  0.3752  0.0157  0.5774
  642TMC3     H 9508   1.258   4.346  12.185 -0.3651 -0.1571  1.3981
  642TMC3    H1 9509   1.259   4.015  11.938  0.6597  0.3177  0.4549
  642TMC3    H2 9510   1.111   3.985  12.341 -0.1118 -1.4765 -0.9528
  642TMC3    C7 9511   1.056   3.935  12.077 -0.4118  0.5395 -0.3238
  642TMC3    C8 9512   1.150   4.234  12.401  0.0430 -0.3997  1.1275
  642TMC3    O1 9513   1.051   3.950  11.954 -0.1090 -0.2373 -0.1257
  642TMC3    O2 9514   1.135   4.355  12.391 -0.5926 -0.0839  0.0354
  643TMC3    C1 9515   0.735   3.461  17.557 -0.5576  0.4791  0.0194
  643TMC3    C2 9516   0.633   3.487  17.474 -0.1622  0.7217 -0.4982
  643TMC3    C3 9517   0.617   3.389  17.381 -0.2030  0.7457 -0.1056
  643TMC3    C4 9518   0.814   3.349  17.556 -0.1323  0.1059 -0.5125
  643TMC3    C5 9519   0.784   3.251  17.468  0.4769  0.0214  0.3901
  643TMC3    C6 9520   0.689   3.274  17.380 -0.3471  0.8577 -0.3830
  643TMC3     C 9521   0.765   3.565  17.649  0.4734  0.4608 -0.3319
  643TMC3     O 9522   0.742   3.676  17.613 -0.6767  0.0417  0.1103
  643TMC3     H 9523   0.568   3.573  17.491  0.6505  1.4896 -1.2490
  643TMC3    H1 9524   0.905   3.328  17.610  0.1717 -0.1074 -1.0991
  643TMC3    H2 9525   0.658   3.193  17.315 -2.0642  2.1999 -1.2195
  643TMC3    C7 9526   0.843   3.126  17.506  0.3665 -0.0894  0.3809
  643TMC3    C8 9527   0.600   3.433  17.247  0.4337  0.1325  0.6807
  643TMC3    O1 9528   0.847   3.110  17.626 -0.1578  0.5033  0.5132
  643TMC3    O2 9529   0.556   3.364  17.163  0.4699  0.2639  0.1238
  644MPD2     C 9530   0.498   4.108   9.545  0.3140 -0.3980  0.0816
  644MPD2    C1 9531   0.625   4.150   9.570  0.0646  0.2734 -0.7451
  644MPD2    C2 9532   0.641   4.286   9.597  0.0924  0.2375  0.1891
  644MPD2    C3 9533   0.530   4.367   9.608 -0.6362 -0.4017 -0.2339
  644MPD2    C4 9534   0.402   4.309   9.594  0.0517 -0.1104  0.3960
  644MPD2    C5 9535   0.387   4.175   9.567  0.0897 -0.1847 -0.4392
  644MPD2     H 9536   0.740   4.329   9.608  0.6059 -0.7163 -0.6797
  644MPD2    H1 9537   0.312   4.368   9.592  0.3603  0.3444 -0.0340
  644MPD2    H2 9538   0.485   4.003   9.520  0.2879 -0.4949  0.5001
  644MPD2    H3 9539   0.292   4.128   9.539 -1.2313  2.0673  0.3089
  644MPD2     N 9540   0.551   4.503   9.654  0.4702  0.0091  0.1198
  644MPD2    H5 9541   0.650   4.526   9.660  0.7684 -0.5849 -2.3860
  644MPD2    N1 9542   0.725   4.050   9.564  0.0532 -0.1014 -0.1851
  644MPD2    H7 9543   0.695   3.956   9.542 -1.0407 -0.1255  1.4149
  645TMC3    C1 9544   0.532   4.717   9.727 -0.0489  0.1432 -0.2073
  645TMC3    C2 9545   0.674   0.007   9.715  0.1395  0.3476  0.1159
  645TMC3    C3 9546   0.726   0.124   9.760  0.0909 -0.2412 -0.0066
  645TMC3    C4 9547   0.454   0.084   9.786 -0.4959  0.5992 -0.8187
  645TMC3    C5 9548   0.515   0.203   9.820  0.5162  0.9043  0.0009
  645TMC3    C6 9549   0.652   0.217   9.818  0.0861 -0.7087  0.1892
  645TMC3     C 9550   0.457   4.595   9.696 -0.3880  0.1613 -1.0601
  645TMC3     O 9551   0.335   4.582   9.714  0.3950 -0.0163 -0.6478
  645TMC3     H 9552   0.739   4.646   9.698  0.0355 -0.1615  2.2410
  645TMC3    H1 9553   0.350   0.070   9.811 -0.8628  2.0397 -1.5296
  645TMC3    H2 9554   0.701   0.309   9.845  0.4165 -1.3218  1.6876
  645TMC3    C7 9555   0.439   0.306   9.895 -0.3680 -0.5803 -0.0297
  645TMC3    C8 9556   0.867   0.132   9.777 -0.1219 -0.1149 -0.2404
  645TMC3    O1 9557   0.505   0.393   9.955 -0.1481 -0.9486  0.0404
  645TMC3    O2 9558   0.903   0.200   9.871 -0.0820  0.7376 -0.3501
  646MPD2     C 9559   4.513   2.893  14.206 -0.3473  0.7206  0.3444
  646MPD2    C1 9560   4.521   2.971  14.318 -0.2635  0.7240 -0.1988
  646MPD2    C2 9561   4.444   3.091  14.332  0.0087 -1.0912 -0.0016
  646MPD2    C3 9562   4.375   3.143  14.222 -0.2387  0.0995  0.0541
  646MPD2    C4 9563   4.384   3.068  14.101 -0.1510 -0.1295  0.0758
  646MPD2    C5 9564   4.445   2.941  14.096  0.2778 -0.1921  0.2320
  646MPD2     H 9565   4.444   3.144  14.427 -1.0638  1.1641 -1.2433
  646MPD2    H1 9566   4.342   3.100  14.006  0.9078  0.1838 -0.2836
  646MPD2    H2 9567   4.580   2.808  14.195  0.9212  1.7597 -0.0508
  646MPD2    H3 9568   4.466   2.888  14.004 -2.1429  0.1160 -0.4968
  646MPD2     N 9569   4.306   3.269  14.225 -0.1696  0.4281  0.2262
  646MPD2    H5 9570   4.299   3.320  14.313 -0.9804 -1.9116  1.5218
  646MPD2    N1 9571   4.615   2.928  14.416  0.3268 -0.1707  0.5902
  646MPD2    H7 9572   4.656   2.835  14.412 -1.0413 -0.8789  3.3672
  647TMC3    C1 9573   0.028   2.936  14.615 -0.3963 -0.1605 -0.3979
  647TMC3    C2 9574   4.710   2.815  14.663 -0.7795  0.0308 -0.0198
  647TMC3    C3 9575   0.075   2.756  14.750 -0.4302 -0.1797 -0.2497
  647TMC3    C4 9576   0.141   2.998  14.650  0.3298  0.6506 -0.0919
  647TMC3    C5 9577   0.214   2.937  14.752 -0.2667  0.5611 -0.2974
  647TMC3    C6 9578   0.178   2.817  14.805 -0.1510 -0.3523 -0.0584
  647TMC3     C 9579   4.669   3.010  14.517  0.9215 -0.3380  0.3821
  647TMC3     O 9580   4.662   3.131  14.531  0.0399  0.1766  0.8090
  647TMC3     H 9581   4.630   2.761  14.614  0.2879 -1.3352 -0.2205
  647TMC3    H1 9582   0.179   3.091  14.609 -0.1229  1.0729  0.4418
  647TMC3    H2 9583   0.234   2.785  14.892  1.7643  2.5415 -0.2172
  647TMC3    C7 9584   0.353   2.929  14.738  0.9680  0.3689  0.8791
  647TMC3    C8 9585   0.064   2.613  14.781  0.1446  0.4426 -0.3212
  647TMC3    O1 9586   0.413   2.927  14.844 -0.3457 -0.8422 -0.1980
  647TMC3    O2 9587   0.118   2.586  14.889 -0.1438 -0.1701  0.2011
  648TMC3    C1 9588   3.990   0.479  15.882 -0.4571  0.4442 -0.1968
  648TMC3    C2 9589   4.013   0.352  15.845  1.3486 -0.3813  0.3834
  648TMC3    C3 9590   4.002   0.313  15.712  0.0738 -0.0801 -0.1134
  648TMC3    C4 9591   3.961   0.571  15.791 -0.2441 -0.2804  0.0431
  648TMC3    C5 9592   3.941   0.543  15.660 -0.2288  0.7096  0.1037
  648TMC3    C6 9593   3.956   0.410  15.624 -0.6534 -1.1413  0.2752
  648TMC3     C 9594   4.013   0.523  16.017  0.5583  0.4651 -0.1403
  648TMC3     O 9595   4.075   0.627  16.037  0.4042 -0.3884  0.5789
  648TMC3     H 9596   4.053   0.285  15.921  3.8915  1.2538  0.4703
  648TMC3    H1 9597   3.943   0.671  15.830 -0.5087 -0.3548  0.1142
  648TMC3    H2 9598   3.923   0.381  15.525  2.6067 -0.5325 -0.9968
  648TMC3    C7 9599   3.860   0.626  15.576 -0.1993  0.5237  0.0962
  648TMC3    C8 9600   3.971   0.182  15.680  0.5810  0.1979  0.6582
  648TMC3    O1 9601   3.863   0.595  15.457 -0.5915  0.3209  0.2344
  648TMC3    O2 9602   3.858   0.161  15.639  0.2438  0.5038 -0.0035
  649TMC3    C1 9603   3.036   1.629  13.016 -0.2602  0.3482  0.0422
  649TMC3    C2 9604   3.124   1.728  13.053  0.1408  0.4830  0.9217
  649TMC3    C3 9605   3.116   1.762  13.187 -0.5441 -0.0988  0.3295
  649TMC3    C4 9606   2.970   1.548  13.104  0.3215  0.5963  0.2173
  649TMC3    C5 9607   2.967   1.579  13.237 -0.1909  0.2857 -0.0202
  649TMC3    C6 9608   3.034   1.695  13.275 -0.8709  0.1014  0.1845
  649TMC3     C 9609   2.994   1.617  12.885 -0.0148 -0.3151 -0.0903
  649TMC3     O 9610   2.876   1.586  12.867  0.2476  0.0681 -0.6874
  649TMC3     H 9611   3.150   1.798  12.975  0.0116  0.9255  1.2769
  649TMC3    H1 9612   2.883   1.490  13.076 -1.2419  1.9641  2.3160
  649TMC3    H2 9613   3.030   1.732  13.377 -1.2387  2.3585 -0.6383
  649TMC3    C7 9614   2.873   1.522  13.329 -0.0605 -0.0791  0.1566
  649TMC3    C8 9615   3.207   1.863  13.241  0.2822 -0.0388  0.4424
  649TMC3    O1 9616   2.866   1.594  13.427 -0.7874 -0.3012  0.2094
  649TMC3    O2 9617   3.169   1.912  13.347  0.7319  0.3952 -0.1781
  650TMC3    C1 9618   0.576   3.638  12.527  0.3239 -0.4876 -0.5951
  650TMC3    C2 9619   0.536   3.770  12.543 -0.5725 -0.5605  0.6961
  650TMC3    C3 9620   0.412   3.808  12.498 -0.2823  0.2795  0.4869
  650TMC3    C4 9621   0.508   3.548  12.453  0.0715 -0.2789  1.0753
  650TMC3    C5 9622   0.400   3.599  12.383 -0.5146 -0.3188 -0.7213
  650TMC3    C6 9623   0.349   3.728  12.398 -0.5191 -0.6710  0.0787
  650TMC3     C 9624   0.711   3.604  12.566 -0.0765  0.4725 -0.3682
  650TMC3     O 9625   0.785   3.698  12.586 -0.5810 -0.8429 -0.1459
  650TMC3     H 9626   0.590   3.838  12.607  0.2629  0.8937 -1.5587
  650TMC3    H1 9627   0.532   3.443  12.441 -2.0406 -0.7786  1.1403
  650TMC3    H2 9628   0.252   3.748  12.355 -0.3249 -3.0818 -1.4642
  650TMC3    C7 9629   0.358   3.518  12.272 -0.1469 -0.6391 -0.5595
  650TMC3    C8 9630   0.383   3.952  12.475 -0.4521  0.2481 -0.0441
  650TMC3    O1 9631   0.363   3.395  12.281  0.6137 -0.4253  0.3177
  650TMC3    O2 9632   0.473   4.033  12.475  0.3611 -0.0788  0.2971
  651MPD2     C 9633   4.287   0.458  10.815 -0.2229 -0.5830  0.2834
  651MPD2    C1 9634   4.290   0.580  10.757  0.6166 -0.0806  0.2150
  651MPD2    C2 9635   4.398   0.623  10.680 -0.3042 -0.1632  0.3578
  651MPD2    C3 9636   4.510   0.542  10.662 -0.4759  0.3358  0.0103
  651MPD2    C4 9637   4.509   0.415  10.716  0.5000  0.2384 -0.0811
  651MPD2    C5 9638   4.395   0.382  10.786  0.1808  0.0193 -0.4208
  651MPD2     H 9639   4.393   0.727  10.651 -1.3539 -0.6591 -1.2076
  651MPD2    H1 9640   4.591   0.344  10.710  1.3247  1.2580 -0.9131
  651MPD2    H2 9641   4.202   0.430  10.876 -0.7199  2.4899  1.0368
  651MPD2    H3 9642   4.390   0.288  10.839  3.2604  0.0821 -0.0189
  651MPD2     N 9643   4.628   0.589  10.598  0.1765 -0.3762  0.3061
  651MPD2    H5 9644   4.622   0.682  10.556  1.2843 -0.3741  0.1502
  651MPD2    N1 9645   4.175   0.657  10.780 -0.0313 -0.0242 -1.1388
  651MPD2    H7 9646   4.106   0.622  10.846  1.7641 -1.6946 -0.1368
  652TMC3    C1 9647   0.314   0.707  10.495 -0.2015  0.3799 -0.7294
  652TMC3    C2 9648   0.244   0.611  10.550  0.6149  0.2229  0.3335
  652TMC3    C3 9649   0.118   0.590  10.504  0.1617  0.1475 -0.5524
  652TMC3    C4 9650   0.269   0.792  10.400  0.6436  0.5998  0.0902
  652TMC3    C5 9651   0.143   0.770  10.356 -0.4697  0.2324 -0.0829
  652TMC3    C6 9652   0.068   0.668  10.414 -0.6183 -0.2952 -0.1684
  652TMC3     C 9653   0.447   0.733  10.551 -0.2266  0.7760  0.5544
  652TMC3     O 9654   0.468   0.688  10.664  0.0280 -0.4097 -0.5458
  652TMC3     H 9655   0.282   0.558  10.637 -0.3173 -1.7233 -0.4364
  652TMC3    H1 9656   0.327   0.874  10.359 -1.5004  1.1943 -1.7041
  652TMC3    H2 9657   4.697   0.644  10.369 -0.0251 -0.7825 -1.1571
  652TMC3    C7 9658   0.059   0.871  10.295 -0.3816 -0.2438 -0.0684
  652TMC3    C8 9659   0.028   0.532  10.596 -0.3764 -0.4939  1.0098
  652TMC3    O1 9660   4.705   0.822  10.216 -0.0982  1.3200 -0.0041
  652TMC3    O2 9661   0.075   0.452  10.678 -0.5999 -0.4662  0.0535
  653MPD2     C 9662   2.932   0.634  17.274  0.8628  0.5069 -0.9191
  653MPD2    C1 9663   2.870   0.724  17.187  0.8077  0.0534 -0.3055
  653MPD2    C2 9664   2.822   0.674  17.068 -0.2607 -0.2928  0.1111
  653MPD2    C3 9665   2.846   0.544  17.025  0.1687 -0.2802 -0.1528
  653MPD2    C4 9666   2.898   0.456  17.118  0.1852 -0.5367 -0.6757
  653MPD2    C5 9667   2.935   0.501  17.244 -0.1329  0.7004  0.1098
  653MPD2     H 9668   2.781   0.745  16.998 -3.9119 -1.7409  0.7816
  653MPD2    H1 9669   2.902   0.349  17.105 -2.1460 -0.4030 -2.4175
  653MPD2    H2 9670   2.972   0.665  17.370  0.4514 -0.1896 -0.5250
  653MPD2    H3 9671   2.971   0.434  17.321  1.2292  3.9417  2.2872
  653MPD2     N 9672   2.806   0.497  16.902 -0.6921 -0.1026  0.1348
  653MPD2    H5 9673   2.753   0.563  16.845  0.1551 -0.3834 -0.9618
  653MPD2    N1 9674   2.868   0.862  17.214  0.3016  0.5781  0.6952
  653MPD2    H7 9675   2.845   0.926  17.139  2.3096 -1.2719 -1.4717
  654TMC3    C1 9676   2.815   0.366  16.707  0.1245  0.4873 -0.0435
  654TMC3    C2 9677   2.685   0.400  16.690 -0.1069 -0.9390 -0.7516
  654TMC3    C3 9678   2.620   0.333  16.595  0.8920  0.0185 -0.0032
  654TMC3    C4 9679   2.882   0.271  16.631  0.4716  0.0905  0.2161
  654TMC3    C5 9680   2.810   0.208  16.529 -0.2247  0.5421  0.6181
  654TMC3    C6 9681   2.674   0.239  16.514 -0.0678 -0.8703  0.4061
  654TMC3     C 9682   2.869   0.395  16.837 -0.4751 -0.3239  0.4300
  654TMC3     O 9683   2.967   0.331  16.874  0.4642 -0.0890  0.1953
  654TMC3     H 9684   2.627   0.465  16.754 -1.7663 -1.6153 -1.5559
  654TMC3    H1 9685   2.987   0.251  16.651  0.2662 -0.1384  1.0673
  654TMC3    H2 9686   2.624   0.200  16.426  0.2518  0.4110 -0.3528
  654TMC3    C7 9687   2.849   0.080  16.470 -0.3917  0.8025 -0.3845
  654TMC3    C8 9688   2.481   0.385  16.570  0.3084  0.6112  0.4741
  654TMC3    O1 9689   2.793   0.049  16.364  0.2204  0.8256 -0.5624
  654TMC3    O2 9690   2.448   0.496  16.613 -0.4115  0.4494 -0.2809
  655MPD2     C 9691   4.341   0.448  15.585 -0.2808 -0.2279 -0.2586
  655MPD2    C1 9692   4.301   0.545  15.494  0.5969 -0.4238  0.6965
  655MPD2    C2 9693   4.315   0.521  15.356  0.4144 -0.0415  0.1478
  655MPD2    C3 9694   4.363   0.399  15.314  0.1143 -0.4129  0.2091
  655MPD2    C4 9695   4.413   0.306  15.402  0.3021 -0.2978  0.0905
  655MPD2    C5 9696   4.400   0.330  15.540  0.1845  0.0366  0.4371
  655MPD2     H 9697   4.283   0.596  15.285  0.2744  0.3235  0.5942
  655MPD2    H1 9698   4.447   0.210  15.365  0.1070 -0.2701 -0.1592
  655MPD2    H2 9699   4.326   0.460  15.692 -0.9516 -2.6109 -0.0796
  655MPD2    H3 9700   4.436   0.262  15.616  1.1121  0.9348  0.8021
  655MPD2     N 9701   4.361   0.350  15.180  0.3509 -0.0229 -0.3002
  655MPD2    H5 9702   4.413   0.264  15.166 -0.7511 -0.3885 -2.2877
  655MPD2    N1 9703   4.246   0.673  15.541  0.0514 -0.4173  0.1706
  655MPD2    H7 9704   4.215   0.744  15.476 -0.2098  1.7932  2.7004
  656TMC3    C1 9705   4.187   0.853  15.667 -0.5853 -0.6836  0.3601
  656TMC3    C2 9706   4.131   0.892  15.783 -0.8788  0.8113  0.5324
  656TMC3    C3 9707   4.043   0.999  15.785  0.1074 -0.4042  0.4789
  656TMC3    C4 9708   4.178   0.936  15.563 -0.1616 -0.0516 -0.3872
  656TMC3    C5 9709   4.093   1.040  15.567 -0.0485 -0.1125 -0.1740
  656TMC3    C6 9710   4.013   1.073  15.676 -0.4882  0.6299  0.5967
  656TMC3     C 9711   4.244   0.721  15.666 -0.7332 -0.2003  0.1737
  656TMC3     O 9712   4.267   0.679  15.778 -0.0854 -0.1567  0.1789
  656TMC3     H 9713   4.147   0.832  15.871 -0.0843  0.3964  0.1013
  656TMC3    H1 9714   4.236   0.917  15.473 -1.8462 -1.7328 -1.1256
  656TMC3    H2 9715   3.931   1.144  15.668  0.8632  2.0706 -0.4854
  656TMC3    C7 9716   4.054   1.095  15.428 -0.6800 -0.1852  0.3218
  656TMC3    C8 9717   3.949   0.991  15.896  0.3237 -0.3191 -0.3392
  656TMC3    O1 9718   4.083   1.023  15.335  0.1401 -0.1032 -0.1954
  656TMC3    O2 9719   3.946   0.886  15.958  0.3373 -0.6505 -0.3757
  657TMC3    C1 9720   3.439   0.013  14.678  0.0682  0.2807 -0.2161
  657TMC3    C2 9721   3.469   0.019  14.811 -0.3134 -0.2908  0.3071
  657TMC3    C3 9722   3.400   0.113  14.886  0.3000 -0.0696 -0.2328
  657TMC3    C4 9723   3.336   0.076  14.615  0.4674 -0.7377  0.2139
  657TMC3    C5 9724   3.260   0.148  14.702  0.3926 -0.2156  0.2828
  657TMC3    C6 9725   3.289   0.171  14.836 -0.2766  0.0195  0.2313
  657TMC3     C 9726   3.514   4.649  14.588 -0.1442 -0.3919  0.1749
  657TMC3     O 9727   3.484   4.628  14.472  0.1293 -0.1367 -0.1066
  657TMC3     H 9728   3.543   4.682  14.861 -2.1009 -1.2910  1.7036
  657TMC3    H1 9729   3.315   0.059  14.510  1.2608  0.0539 -0.0632
  657TMC3    H2 9730   3.216   0.213  14.904 -0.9940  1.2430 -1.3208
  657TMC3    C7 9731   3.143   0.197  14.641 -0.9219  0.0609  0.2815
  657TMC3    C8 9732   3.451   0.144  15.019  0.1826 -0.1710 -0.7664
  657TMC3    O1 9733   3.123   0.165  14.525 -0.6471 -0.2824  0.3733
  657TMC3    O2 9734   3.522   0.059  15.067  0.6433 -0.1350  0.6135
  658MPD2     C 9735   0.054   0.376  14.480 -0.6849  0.5595  0.1575
  658MPD2    C1 9736   4.651   0.430  14.464  0.1639  0.1826  0.7261
  658MPD2    C2 9737   4.634   0.513  14.358 -0.0274 -0.1975  0.1260
  658MPD2    C3 9738   0.006   0.535  14.268  0.4237 -0.2517  0.0742
  658MPD2    C4 9739   0.127   0.476  14.281 -0.1609  0.1686  0.3589
  658MPD2    C5 9740   0.149   0.394  14.387  0.8704 -0.0031 -0.1739
  658MPD2     H 9741   4.542   0.571  14.351  1.0165  1.3571 -0.5081
  658MPD2    H1 9742   0.208   0.486  14.210 -0.9671 -1.7990 -0.8316
  658MPD2    H2 9743   0.087   0.331  14.573  0.7617 -0.3255 -0.7711
  658MPD2    H3 9744   0.248   0.351  14.395  0.2666 -1.4621 -0.4708
  658MPD2     N 9745   4.706   0.638  14.172  0.1232 -0.2834  0.1824
  658MPD2    H5 9746   4.612   0.675  14.173 -0.1221 -0.9205  0.7676
  658MPD2    N1 9747   4.543   0.403  14.549  0.1168 -0.3794 -0.8712
  658MPD2    H7 9748   4.464   0.461  14.523  0.4532  0.7707  0.6784
  659TMC3    C1 9749   4.422   0.334  14.744 -0.2659 -1.0889  0.0958
  659TMC3    C2 9750   4.424   0.331  14.884 -0.0408 -0.2751 -0.4098
  659TMC3    C3 9751   4.304   0.337  14.954 -0.4876  0.7325 -0.0082
  659TMC3    C4 9752   4.304   0.346  14.679  0.1814 -0.1495 -0.5697
  659TMC3    C5 9753   4.186   0.352  14.753 -0.1672  0.1712  0.1079
  659TMC3    C6 9754   4.186   0.359  14.888 -0.2700 -0.1174  0.1215
  659TMC3     C 9755   4.540   0.325  14.661  0.1258 -0.4755 -0.8473
  659TMC3     O 9756   4.636   0.278  14.724  0.2222 -0.1654  0.4888
  659TMC3     H 9757   4.518   0.329  14.938  0.5226  1.3056 -1.3466
  659TMC3    H1 9758   4.300   0.348  14.571  1.5798 -1.1884 -0.6440
  659TMC3    H2 9759   4.089   0.362  14.937 -1.0504  0.4624 -1.4570
  659TMC3    C7 9760   4.065   0.350  14.680 -0.2434 -0.2083  0.9781
  659TMC3    C8 9761   4.299   0.413  15.077 -0.0859 -0.0982 -0.2469
  659TMC3    O1 9762   3.983   0.439  14.704  0.3088 -0.4542  0.5331
  659TMC3    O2 9763   4.224   0.507  15.083  0.2781 -0.8235  0.1405
  660MPD2     C 9764   2.387   4.178  12.411 -0.2760  0.5077  0.3899
  660MPD2    C1 9765   2.250   4.187  12.424  0.2876 -0.5101 -0.3435
  660MPD2    C2 9766   2.188   4.120  12.526  0.6931  0.5818  0.9476
  660MPD2    C3 9767   2.263   4.035  12.618 -0.4799  0.6103 -0.4845
  660MPD2    C4 9768   2.400   4.029  12.600 -0.2289  0.4950 -0.3367
  660MPD2    C5 9769   2.458   4.102  12.500 -0.2076  0.3388  0.1614
  660MPD2     H 9770   2.081   4.129  12.539  0.4907  0.8752 -0.9139
  660MPD2    H1 9771   2.460   3.957  12.655 -1.2384  0.2931  0.5130
  660MPD2    H2 9772   2.434   4.225  12.325  1.5404  1.1670  1.7683
  660MPD2    H3 9773   2.563   4.088  12.479 -0.8612  1.2333 -3.6786
  660MPD2     N 9774   2.206   3.959  12.723  0.0722 -0.1781  0.0711
  660MPD2    H5 9775   2.278   3.914  12.778  0.4572  0.7332  0.3286
  660MPD2    N1 9776   2.170   4.255  12.329 -0.0732  0.1937  0.6396
  660MPD2    H7 9777   2.224   4.311  12.264 -0.1104  0.5274  0.8995
  661TMC3    C1 9778   1.975   4.348  12.215  0.0675  0.4790  0.3336
  661TMC3    C2 9779   2.052   4.370  12.105  0.4540 -0.2013  0.2461
  661TMC3    C3 9780   2.009   4.455  12.007  0.5537 -0.6812  0.3069
  661TMC3    C4 9781   1.841   4.380  12.218  0.8852 -0.0001  0.6914
  661TMC3    C5 9782   1.801   4.467  12.117  0.0283  0.2947 -0.1081
  661TMC3    C6 9783   1.880   4.501  12.010  0.8506  0.4214 -0.1401
  661TMC3     C 9784   2.031   4.280  12.335  0.5062 -0.3370 -0.0805
  661TMC3     O 9785   1.948   4.268  12.425  0.7060  0.0337 -0.4150
  661TMC3     H 9786   2.157   4.343  12.094  0.1397 -1.1749 -0.2928
  661TMC3    H1 9787   1.773   4.371  12.302  0.3291  0.7600  0.3176
  661TMC3    H2 9788   1.852   4.570  11.932 -1.7259 -1.7436 -1.1431
  661TMC3    C7 9789   1.664   4.515  12.116  0.0294 -0.1539 -0.1786
  661TMC3    C8 9790   2.101   4.474  11.887 -0.0085  0.2997 -0.1488
  661TMC3    O1 9791   1.612   4.566  12.215 -0.0539 -0.0889  0.1388
  661TMC3    O2 9792   2.200   4.406  11.879 -0.1708  0.6683 -0.6226
  662MPD2     C 9793   2.578   4.398  17.068 -0.3322  0.5296 -0.2467
  662MPD2    C1 9794   2.506   4.311  17.152 -0.0793  0.3878 -0.2400
  662MPD2    C2 9795   2.405   4.358  17.231 -0.6619  0.1600 -0.2277
  662MPD2    C3 9796   2.376   4.490  17.227  0.6472  0.5104 -0.3016
  662MPD2    C4 9797   2.452   4.578  17.147 -0.2579 -0.5377  0.2260
  662MPD2    C5 9798   2.551   4.532  17.073  0.1217 -0.1469 -0.5444
  662MPD2     H 9799   2.350   4.285  17.289  0.3334 -1.6016 -1.4892
  662MPD2    H1 9800   2.431   4.683  17.135 -1.8270 -1.1932 -2.5893
  662MPD2    H2 9801   2.669   4.379  17.012 -0.5916 -0.7251 -0.2332
  662MPD2    H3 9802   2.618   4.591  17.013  1.1279 -1.0458 -0.3133
  662MPD2     N 9803   2.263   4.518  17.304 -0.3157  0.4307  0.4501
  662MPD2    H5 9804   2.214   4.440  17.346  1.6232 -1.8357 -1.5080
  662MPD2    N1 9805   2.517   4.169  17.159  0.2042 -0.0163 -0.2389
  662MPD2    H7 9806   2.457   4.114  17.219  0.6879 -0.4756 -0.1799
  663TMC3    C1 9807   2.545   3.958  17.062 -0.4913  0.3952  0.1258
  663TMC3    C2 9808   2.427   3.919  17.120  0.1644  0.4579  0.4973
  663TMC3    C3 9809   2.383   3.791  17.096  0.2707 -0.2585  0.0675
  663TMC3    C4 9810   2.627   3.871  16.988  0.2631 -0.1105  0.3663
  663TMC3    C5 9811   2.591   3.743  16.999  0.9672  0.0120 -0.0626
  663TMC3    C6 9812   2.470   3.700  17.044  0.1191 -0.1912 -0.3915
  663TMC3     C 9813   2.594   4.095  17.074  0.4834  0.0401 -0.3515
  663TMC3     O 9814   2.673   4.141  16.991  0.7179 -0.4275  0.7631
  663TMC3     H 9815   2.351   3.993  17.140  0.0784  0.6786 -0.6516
  663TMC3    H1 9816   2.726   3.904  16.957 -1.0980  2.8981 -0.7784
  663TMC3    H2 9817   2.443   3.595  17.033  1.7449 -0.5909 -0.6390
  663TMC3    C7 9818   2.669   3.650  16.913 -0.7372 -0.3369  0.1790
  663TMC3    C8 9819   2.290   3.732  17.191 -0.8463 -0.3836 -0.1192
  663TMC3    O1 9820   2.708   3.702  16.812  0.2581 -0.1257 -0.1462
  663TMC3    O2 9821   2.282   3.608  17.188  0.6833 -0.3281 -0.4914
  664MPD2     C 9822   0.967   1.891  17.090  0.0943 -0.1450 -0.3250
  664MPD2    C1 9823   1.048   1.973  17.172  0.2889  0.0988  0.7487
  664MPD2    C2 9824   1.053   1.941  17.313 -0.4179 -0.4218 -0.1573
  664MPD2    C3 9825   0.976   1.836  17.366 -0.2476  0.4022 -0.7371
  664MPD2    C4 9826   0.888   1.765  17.284  0.1800  0.7549  0.5289
  664MPD2    C5 9827   0.878   1.804  17.152  0.3085  0.0346 -0.8017
  664MPD2     H 9828   1.126   1.992  17.374  0.0793  2.9905 -3.5332
  664MPD2    H1 9829   0.835   1.680  17.325  0.6512 -0.2324 -0.8929
  664MPD2    H2 9830   0.968   1.911  16.983 -1.4133  1.6521 -0.0003
  664MPD2    H3 9831   0.805   1.752  17.091 -1.2035  0.6769  0.4482
  664MPD2     N 9832   1.001   1.800  17.499  0.0521 -0.3850 -0.3606
  664MPD2    H5 9833   1.058   1.868  17.549 -2.0564 -1.6129  3.6854
  664MPD2    N1 9834   1.126   2.082  17.125  0.0017 -0.0439  0.0187
  664MPD2    H7 9835   1.182   2.131  17.195  0.6059 -1.5949  0.6120
  665TMC3    C1 9836   0.971   1.714   0.014 -0.3390  0.7557  0.5978
  665TMC3    C2 9837   0.878   1.676   0.106 -0.3793 -1.4113  0.7266
  665TMC3    C3 9838   0.910   1.698   0.237 -0.3965  0.0516 -0.7627
  665TMC3    C4 9839   1.081   1.790   0.049  0.3400 -0.1343  0.3976
  665TMC3    C5 9840   1.101   1.807   0.178  0.4263 -0.0653 -0.7359
  665TMC3    C6 9841   1.018   1.774   0.281  0.2261  0.2980 -0.7141
  665TMC3     C 9842   0.934   1.708  17.574 -0.0017 -0.3393  0.2246
  665TMC3     O 9843   0.840   1.632  17.545  0.0019 -0.1308  0.3278
  665TMC3     H 9844   0.793   1.612   0.086 -3.0482  2.0397  0.9197
  665TMC3    H1 9845   1.158   1.810  17.675 -1.0973  0.1931 -1.0182
  665TMC3    H2 9846   1.043   1.776   0.387 -0.4903 -1.7612 -0.4979
  665TMC3    C7 9847   1.211   1.898   0.206  0.1049  0.0888  0.1704
  665TMC3    C8 9848   0.849   1.608   0.335 -0.1858 -0.5791 -0.2881
  665TMC3    O1 9849   1.308   1.894   0.134  0.2145  0.4380  0.2161
  665TMC3    O2 9850   0.832   1.496   0.291  0.5445 -0.2042 -0.4908
  666TMC3    C1 9851   4.629   2.654   9.576 -0.1461  0.6028  0.5114
  666TMC3    C2 9852   4.690   2.567   9.655 -0.3067 -0.8453  0.0442
  666TMC3    C3 9853   0.081   2.604   9.728 -0.2774 -0.1601 -0.3067
  666TMC3    C4 9854   4.683   2.780   9.558  0.4473 -0.5881  0.1847
  666TMC3    C5 9855   0.064   2.825   9.631 -0.4549 -0.4011 -0.4995
  666TMC3    C6 9856   0.125   2.734   9.716 -0.2966  0.5021  0.0269
  666TMC3     C 9857   4.490   2.649   9.541  0.5459 -0.3650  0.2484
  666TMC3     O 9858   4.447   2.718   9.451 -1.0646  0.5400  0.0060
  666TMC3     H 9859   4.649   2.467   9.663 -2.5510  0.1755  1.2894
  666TMC3    H1 9860   4.628   2.861   9.510  1.1946 -1.6624 -2.4746
  666TMC3    H2 9861   0.197   2.783   9.781  1.6063 -0.4774 -1.3402
  666TMC3    C7 9862   0.038   2.948   9.697  0.4001 -0.3163  0.5155
  666TMC3    C8 9863   0.142   2.515   9.826  0.0061 -0.1511 -0.6123
  666TMC3    O1 9864   0.028   2.943   9.818 -0.4346  0.4630 -0.1620
  666TMC3    O2 9865   0.070   2.427   9.867  0.0571  0.3526 -0.1819
  667MPD2     C 9866   1.177   2.377  14.630 -0.1606  0.4321 -0.3388
  667MPD2    C1 9867   1.235   2.266  14.675 -0.5559  0.4834 -0.2760
  667MPD2    C2 9868   1.172   2.147  14.635  0.5517 -0.7427 -0.5670
  667MPD2    C3 9869   1.074   2.138  14.545 -0.5006  0.5355  0.1543
  667MPD2    C4 9870   1.017   2.246  14.492  0.0049 -0.5570  0.2810
  667MPD2    C5 9871   1.068   2.366  14.543  0.2222  0.0144  0.2159
  667MPD2     H 9872   1.217   2.055  14.670  0.2091 -0.9081 -0.5545
  667MPD2    H1 9873   0.931   2.245  14.426  0.9562 -2.1623 -0.9286
  667MPD2    H2 9874   1.217   2.476  14.650 -1.4363  0.5839  1.4233
  667MPD2    H3 9875   1.034   2.461  14.504  0.9369 -0.7869 -2.3585
  667MPD2     N 9876   1.028   2.013  14.496  0.2871  0.4160  0.2440
  667MPD2    H5 9877   0.947   2.003  14.436 -0.2611 -2.6235  1.4773
  667MPD2    N1 9878   1.329   2.265  14.773 -1.1677  0.3368 -1.1919
  667MPD2    H7 9879   1.338   2.178  14.825  1.7193 -0.7489 -3.5250
  668TMC3    C1 9880   1.496   2.350  14.920  0.0691  0.6108 -0.4217
  668TMC3    C2 9881   1.620   2.408  14.919  0.2323 -0.2878  0.8150
  668TMC3    C3 9882   1.690   2.388  15.031 -0.8020 -0.0673 -0.5574
  668TMC3    C4 9883   1.441   2.288  15.021  0.2541 -0.2889 -0.0352
  668TMC3    C5 9884   1.508   2.269  15.137  0.4263 -0.3065  0.4699
  668TMC3    C6 9885   1.642   2.314  15.142  0.4227  0.0908 -0.0735
  668TMC3     C 9886   1.419   2.363  14.798  0.1468 -0.3270 -0.9344
  668TMC3     O 9887   1.432   2.472  14.738 -0.2209 -0.4679 -0.1192
  668TMC3     H 9888   1.635   2.470  14.831 -3.4844  0.1792  0.5080
  668TMC3    H1 9889   1.341   2.246  15.020  0.3965 -0.6460  0.9507
  668TMC3    H2 9890   1.690   2.305  15.239 -0.2396 -0.9384  0.1646
  668TMC3    C7 9891   1.441   2.249  15.263 -0.0626 -0.5114 -0.2385
  668TMC3    C8 9892   1.825   2.452  15.042  0.3315  0.4209  0.5857
  668TMC3    O1 9893   1.471   2.156  15.334  0.5813  0.0373  0.1845
  668TMC3    O2 9894   1.885   2.441  15.147 -0.0210 -0.6627 -0.1176
  669TMC3    C1 9895   4.539   1.779  14.309  0.9584  0.1814  0.2372
  669TMC3    C2 9896   4.411   1.794  14.252  0.1805 -0.6519 -0.0458
  669TMC3    C3 9897   4.383   1.901  14.170  0.2416  0.3823  0.4221
  669TMC3    C4 9898   4.640   1.870  14.278 -0.3557 -0.2726 -0.7531
  669TMC3    C5 9899   4.609   1.973  14.189  0.8083  0.1990  0.1329
  669TMC3    C6 9900   4.478   1.994  14.143 -0.1914 -0.4211 -0.3824
  669TMC3     C 9901   4.572   1.650  14.358 -0.0634  0.2205  0.4022
  669TMC3     O 9902   4.662   1.593  14.300 -0.2110  0.2678  0.1053
  669TMC3     H 9903   4.342   1.713  14.273  2.4727 -2.7002 -0.3491
  669TMC3    H1 9904   0.014   1.837  14.312  0.2885  0.2706 -2.0830
  669TMC3    H2 9905   4.456   2.086  14.089  0.9093  1.2985  2.0788
  669TMC3    C7 9906   4.695   2.088  14.182  0.6022 -0.8508  0.0151
  669TMC3    C8 9907   4.243   1.938  14.142 -0.1804  0.7766 -0.0669
  669TMC3    O1 9908   4.652   2.191  14.136 -0.1340  0.2034  0.3627
  669TMC3    O2 9909   4.161   1.860  14.186  0.2433  0.0201 -0.9585
  670MPD2     C 9910   2.669   4.316  13.054 -0.2839  0.4981 -0.2459
  670MPD2    C1 9911   2.730   4.376  13.166  0.1024 -0.1160 -0.6049
  670MPD2    C2 9912   2.663   4.374  13.289 -0.4304 -0.1029 -0.2352
  670MPD2    C3 9913   2.543   4.307  13.300  0.0774 -0.1422 -0.4664
  670MPD2    C4 9914   2.483   4.250  13.184  0.4928 -0.6807  0.1524
  670MPD2    C5 9915   2.547   4.259  13.065 -0.7047 -0.0513  0.2260
  670MPD2     H 9916   2.702   4.434  13.370 -0.8991  2.6141 -2.0129
  670MPD2    H1 9917   2.391   4.194  13.198 -0.6078  0.2944 -3.1924
  670MPD2    H2 9918   2.725   4.307  12.962 -0.4672 -2.1836 -0.0937
  670MPD2    H3 9919   2.508   4.215  12.974  2.1861  1.6081 -1.8101
  670MPD2     N 9920   2.465   4.283  13.412  0.3724  0.4302  0.2302
  670MPD2    H5 9921   2.373   4.244  13.395 -0.2450  2.0447 -0.0830
  670MPD2    N1 9922   2.854   4.447  13.162 -0.4249 -0.2004 -0.3901
  670MPD2    H7 9923   2.899   4.460  13.252 -1.9212 -0.6781  0.4208
  671TMC3    C1 9924   2.389   4.302  13.633  0.1573 -0.2282 -0.1250
  671TMC3    C2 9925   2.411   4.348  13.765 -0.3852  0.0383 -0.0090
  671TMC3    C3 9926   2.339   4.285  13.866  0.1126 -0.8394 -0.2055
  671TMC3    C4 9927   2.297   4.205  13.594 -0.1480 -0.4366 -0.6844
  671TMC3    C5 9928   2.222   4.157  13.700 -0.0099  0.8475 -0.4846
  671TMC3    C6 9929   2.244   4.188  13.833  0.4920  0.1544  0.9461
  671TMC3     C 9930   2.501   4.317  13.540  0.3494 -0.9037  0.2072
  671TMC3     O 9931   2.605   4.360  13.592  0.3491  0.3284  0.0768
  671TMC3     H 9932   2.496   4.409  13.792 -2.0642  1.9075  1.0019
  671TMC3    H1 9933   2.282   4.176  13.491  0.6342  0.7979 -1.1533
  671TMC3    H2 9934   2.186   4.148  13.915  0.2463  2.2476  1.7919
  671TMC3    C7 9935   2.143   4.044  13.662 -0.7443  0.4494  0.3394
  671TMC3    C8 9936   2.416   4.263  13.988  0.3832 -0.0436  0.5488
  671TMC3    O1 9937   2.160   3.994  13.552  0.2021 -0.2863 -0.0008
  671TMC3    O2 9938   2.398   4.153  14.042 -0.3085 -0.6089 -0.4111
  672MPD2     C 9939   3.382   0.514   0.741 -0.2365  0.4492  0.6125
  672MPD2    C1 9940   3.438   0.389   0.717 -0.4961  0.1603 -0.0065
  672MPD2    C2 9941   3.566   0.356   0.767 -0.1957 -0.4494 -0.1286
  672MPD2    C3 9942   3.641   0.450   0.841  0.1947 -0.5313  0.1517
  672MPD2    C4 9943   3.579   0.571   0.861 -0.1261  0.4225 -0.3744
  672MPD2    C5 9944   3.453   0.605   0.818 -0.3699 -0.7542 -0.0541
  672MPD2     H 9945   3.619   0.272   0.722 -0.2081  0.8874 -2.6543
  672MPD2    H1 9946   3.639   0.645   0.913  2.1794 -1.3131 -0.5360
  672MPD2    H2 9947   3.285   0.539   0.699  0.2749  0.2525 -0.6984
  672MPD2    H3 9948   3.426   0.709   0.831  1.7022 -0.1262 -0.6941
  672MPD2     N 9949   3.770   0.425   0.883 -0.7014 -0.0697 -0.1832
  672MPD2    H5 9950   3.818   0.509   0.912 -1.1170  0.2907 -0.5357
  672MPD2    N1 9951   3.372   0.310   0.623 -0.1904 -0.3746 -0.1492
  672MPD2    H7 9952   3.291   0.351   0.579 -1.2381  1.2740  3.2688
  673TMC3    C1 9953   3.311   0.116   0.500 -0.6039  0.6675  0.4689
  673TMC3    C2 9954   3.295   4.706   0.492  0.2155  0.3999  0.3988
  673TMC3    C3 9955   3.233   4.664   0.372  0.6290  0.2293  0.2079
  673TMC3    C4 9956   3.279   0.208   0.401  0.6415  0.2436 -0.8467
  673TMC3    C5 9957   3.217   0.162   0.291  0.2096  0.0953 -0.4302
  673TMC3    C6 9958   3.195   0.025   0.275 -0.3980  0.3497  0.4708
  673TMC3     C 9959   3.385   0.173   0.616 -0.0035  0.0864  0.1633
  673TMC3     O 9960   3.452   0.102   0.686 -0.1060 -0.2972 -0.5519
  673TMC3     H 9961   3.326   4.636   0.568  1.0605  0.3157 -0.0321
  673TMC3    H1 9962   3.334   0.302   0.397 -0.1233  0.6187 -2.2200
  673TMC3    H2 9963   3.182   4.712   0.174 -0.5157 -0.1480  0.6723
  673TMC3    C7 9964   3.181   0.249   0.181 -0.4691 -0.0189 -0.3844
  673TMC3    C8 9965   3.278   4.532   0.320 -0.4576  0.6068 -0.2894
  673TMC3    O1 9966   3.173   0.198   0.073 -0.2148 -0.1697  0.0646
  673TMC3    O2 9967   3.203   4.502   0.227 -0.7587  0.0393 -0.3096
  674MPD2     C 9968   2.945   4.378   0.461  0.9101  0.1504  0.6406
  674MPD2    C1 9969   2.892   4.279   0.537 -0.6560  0.6505  0.3101
  674MPD2    C2 9970   2.775   4.297   0.603 -0.1702  0.0203 -0.4326
  674MPD2    C3 9971   2.697   4.406   0.568  0.1073  0.4226  0.8668
  674MPD2    C4 9972   2.746   4.509   0.489  0.6684  0.2782  0.4660
  674MPD2    C5 9973   2.881   4.493   0.440  0.0242 -0.2038  0.2914
  674MPD2     H 9974   2.736   4.232   0.680 -0.4601  0.9210  0.1890
  674MPD2    H1 9975   2.694   4.604   0.476 -1.1232 -0.7031  0.4110
  674MPD2    H2 9976   3.048   4.373   0.426  1.7910 -0.2103  3.2966
  674MPD2    H3 9977   2.914   4.581   0.386 -1.1502 -0.6519 -1.1526
  674MPD2     N 9978   2.581   4.418   0.644  0.2510 -0.4526 -0.6746
  674MPD2    H5 9979   2.580   4.362   0.729 -3.5700 -0.1211 -0.4769
  674MPD2    N1 9980   2.974   4.167   0.545  0.0768  0.0790 -0.4185
  674MPD2    H7 9981   3.074   4.167   0.533  0.0323  1.1958 -0.8168
  675TMC3    C1 9982   3.019   3.944   0.590  0.0865 -1.2413  0.3340
  675TMC3    C2 9983   3.021   3.853   0.696 -0.1344 -0.7378  0.9870
  675TMC3    C3 9984   3.113   3.757   0.686 -0.3188 -0.4658  0.0612
  675TMC3    C4 9985   3.090   3.937   0.475  0.4354 -0.2974  0.3601
  675TMC3    C5 9986   3.187   3.838   0.472  0.3178 -0.3665 -0.2149
  675TMC3    C6 9987   3.197   3.747   0.581  0.0029 -0.1989 -0.4261
  675TMC3     C 9988   2.922   4.049   0.590  0.2561  0.0693  0.0837
  675TMC3     O 9989   2.806   4.017   0.617  0.3201  0.5294 -0.2961
  675TMC3     H 9990   2.953   3.864   0.780  2.6728  2.4604  2.8485
  675TMC3    H1 9991   3.089   4.011   0.396 -1.5145 -0.4883  0.2112
  675TMC3    H2 9992   3.266   3.665   0.571 -0.7737 -1.2875  3.3727
  675TMC3    C7 9993   3.257   3.811   0.340 -0.0007 -0.0420  0.9697
  675TMC3    C8 9994   3.134   3.679   0.805 -0.6436 -0.6004  0.5022
  675TMC3    O1 9995   3.362   3.751   0.345 -0.1653  0.3735 -0.0285
  675TMC3    O2 9996   3.040   3.668   0.884 -0.1022 -0.2577 -0.1930
  676MPD2     C 9997   0.626   3.279  10.821 -0.3832 -0.4647  0.3741
  676MPD2    C1 9998   0.534   3.233  10.905 -0.3640  0.3561  0.1456
  676MPD2    C2 9999   0.533   3.100  10.930 -0.0893 -0.1141 -0.0428
  676MPD2    C310000   0.629   3.019  10.878  0.1586  0.1778 -0.0243
  676MPD2    C410001   0.720   3.067  10.784  0.0102  0.0433  0.2203
  676MPD2    C510002   0.718   3.203  10.759  0.0675 -0.0981 -0.0080
  676MPD2     H10003   0.463   3.072  11.007 -0.3987  0.8557  0.0330
  676MPD2    H110004   0.790   3.005  10.728  0.4537 -0.6695  1.5643
  676MPD2    H210005   0.642   3.385  10.808 -2.5267 -0.3564 -1.3375
  676MPD2    H310006   0.794   3.243  10.693 -0.4133  1.0354  0.1335
  676MPD2     N10007   0.647   2.885  10.909 -0.1256 -0.1800  0.3565
  676MPD2    H510008   0.721   2.831  10.866  0.7675  2.7762 -1.8381
  676MPD2    N110009   0.446   3.313  10.976 -0.4804 -0.5531  0.4602
  676MPD2    H710010   0.366   3.267  11.020 -1.9622  1.5147 -0.0610
  677TMC3    C110011   0.335   3.499  11.063  0.0754  0.0974  0.3994
  677TMC3    C210012   0.232   3.414  11.065  0.2183  0.2563 -0.3049
  677TMC3    C310013   0.150   3.411  11.177  0.2967  0.2839 -0.8805
  677TMC3    C410014   0.361   3.588  11.159  0.3609  0.5537  0.1963
  677TMC3    C510015   0.285   3.581  11.271 -0.4461  0.4695  0.0007
  677TMC3    C610016   0.183   3.495  11.286  0.0818 -0.0440 -0.0202
  677TMC3     C10017   0.453   3.452  10.983  0.2132 -0.7649 -0.2775
  677TMC3     O10018   0.542   3.533  10.969 -0.2461  0.3743  0.0342
  677TMC3     H10019   0.203   3.354  10.979  1.2383 -0.5640 -0.0752
  677TMC3    H110020   0.450   3.649  11.149 -0.1232  1.1028 -0.7152
  677TMC3    H210021   0.120   3.509  11.373 -1.3513 -1.7672 -0.7870
  677TMC3    C710022   0.305   3.668  11.377 -0.3738 -0.9801 -0.1656
  677TMC3    C810023   0.045   3.312  11.186  0.0977 -0.7789 -0.2447
  677TMC3    O110024   0.277   3.625  11.491  0.5915  0.0363 -0.1868
  677TMC3    O210025   4.706   3.305  11.088 -0.4894 -0.2376  0.0695
  678MPD2     C10026   1.844   3.600   1.360  0.0563  0.4337 -0.3469
  678MPD2    C110027   1.892   3.561   1.236 -0.9936 -0.6409  0.4411
  678MPD2    C210028   1.833   3.449   1.170  0.8216 -0.6632 -0.4611
  678MPD2    C310029   1.731   3.381   1.235 -0.6365 -0.3284  0.0420
  678MPD2    C410030   1.693   3.421   1.358 -0.0965  0.0216  0.0561
  678MPD2    C510031   1.742   3.535   1.418  0.7489 -0.2847 -0.6556
  678MPD2     H10032   1.850   3.428   1.065 -2.3957  1.2224 -1.3335
  678MPD2    H110033   1.619   3.379   1.425  1.4357 -3.0257 -0.1766
  678MPD2    H210034   1.894   3.672   1.424 -1.6178 -0.4729  1.9679
  678MPD2    H310035   1.703   3.556   1.516  0.5101  1.3241 -1.0974
  678MPD2     N10036   1.663   3.281   1.165  0.3870 -0.2027 -0.5229
  678MPD2    H510037   1.696   3.259   1.072 -0.5399  2.6275 -1.5391
  678MPD2    N110038   2.002   3.625   1.179  0.7804 -0.3241 -0.9915
  678MPD2    H710039   2.051   3.573   1.107  0.8473 -0.9674 -0.4786
  679TMC3    C110040   2.334   3.720   0.979  0.0836  1.1083  0.1497
  679TMC3    C210041   2.251   3.696   1.083 -0.5865 -0.2410 -0.2612
  679TMC3    C310042   2.149   3.790   1.109  0.4437 -0.3194 -0.0401
  679TMC3    C410043   2.329   3.833   0.904 -0.1810 -0.2358  0.3597
  679TMC3    C510044   2.231   3.926   0.935  0.6987 -0.2359 -0.4845
  679TMC3    C610045   2.137   3.903   1.038  0.3907 -0.0531  0.6806
  679TMC3     C10046   2.437   3.628   0.946 -0.0831  0.4548 -0.0765
  679TMC3     O10047   2.481   3.642   0.836 -0.7675  0.1509 -0.0333
  679TMC3     H10048   2.255   3.605   1.141 -0.1583 -0.3468 -0.4560
  679TMC3    H110049   2.402   3.844   0.824 -1.4117  0.8991 -0.5962
  679TMC3    H210050   2.062   3.978   1.062  0.1991 -0.5093  1.4936
  679TMC3    C710051   2.201   4.031   0.834 -0.4815 -0.1586  0.0120
  679TMC3    C810052   2.046   3.750   1.204 -0.0109 -0.3115 -0.1476
  679TMC3    O110053   2.083   4.068   0.835  0.0153 -0.3130 -0.0152
  679TMC3    O210054   1.994   3.839   1.269 -0.2036 -0.1283  0.0044
  680MPD2     C10055   2.051   1.928  13.603 -0.3525  0.2226 -0.7680
  680MPD2    C110056   2.174   1.872  13.622  0.8022 -0.5376  0.3421
  680MPD2    C210057   2.289   1.938  13.593  0.3558 -1.1794  1.3257
  680MPD2    C310058   2.285   2.068  13.557  0.5367 -0.6056 -0.1337
  680MPD2    C410059   2.160   2.124  13.526 -0.4019  0.3003 -0.2423
  680MPD2    C510060   2.048   2.047  13.542 -0.0762  0.4360  0.2202
  680MPD2     H10061   2.389   1.897  13.603  0.4822 -0.5764  2.5463
  680MPD2    H110062   2.153   2.228  13.495 -2.2426  0.7364  1.6119
  680MPD2    H210063   1.961   1.874  13.632  0.9785 -1.9605 -0.6870
  680MPD2    H310064   1.949   2.086  13.520 -0.1765  0.0434 -0.0264
  680MPD2     N10065   2.400   2.149  13.542 -0.7679  0.5089 -0.2346
  680MPD2    H510066   2.381   2.241  13.505  2.5718  0.9274 -0.9400
  680MPD2    N110067   2.202   1.747  13.687 -0.3362  0.8334 -0.3461
  680MPD2    H710068   2.300   1.721  13.698 -0.2963  1.0324 -0.2439
  681TMC3    C110069   2.167   1.562  13.824  0.3971  0.0405  0.0519
  681TMC3    C210070   2.138   1.538  13.954  0.1485 -0.9070 -0.3243
  681TMC3    C310071   2.227   1.469  14.034  0.0257  0.0540 -0.1781
  681TMC3    C410072   2.288   1.531  13.778  0.0291 -0.8057  0.4029
  681TMC3    C510073   2.371   1.459  13.856 -0.0710 -0.3058  0.5627
  681TMC3    C610074   2.345   1.432  13.987 -0.3430 -0.4486 -0.2689
  681TMC3     C10075   2.112   1.678  13.765  0.7448 -0.7691 -0.5045
  681TMC3     O10076   2.006   1.714  13.813 -0.1394  0.0233 -0.0708
  681TMC3     H10077   2.049   1.581  13.998 -1.5257 -3.4786 -1.1304
  681TMC3    H110078   2.308   1.536  13.671 -1.3151  1.1010  0.2606
  681TMC3    H210079   2.417   1.372  14.041  0.7338  0.4356 -0.7160
  681TMC3    C710080   2.454   1.361  13.786 -0.6656 -0.6212 -0.2416
  681TMC3    C810081   2.232   1.517  14.174  0.3301 -0.0253 -0.9629
  681TMC3    O110082   2.505   1.264  13.843 -0.3734 -0.2773  0.2800
  681TMC3    O210083   2.126   1.557  14.229  0.1340 -0.1171  0.4884
  682MPD2     C10084   4.044   3.838  10.438 -0.0284 -0.2948  0.3929
  682MPD2    C110085   4.061   3.714  10.489  0.1276 -0.7060 -0.1832
  682MPD2    C210086   4.064   3.691  10.624  0.6896  0.7343 -0.0998
  682MPD2    C310087   4.063   3.808  10.705 -0.1475  0.3997  0.8824
  682MPD2    C410088   4.040   3.932  10.652 -0.1083 -0.2442 -0.9376
  682MPD2    C510089   4.038   3.945  10.521 -1.5327  0.4670  0.6630
  682MPD2     H10090   4.062   3.586  10.652  3.1684  0.1604 -2.1122
  682MPD2    H110091   4.019   4.023  10.707  1.0645 -0.3940 -0.2432
  682MPD2    H210092   4.038   3.861  10.333  2.3590  0.0167  0.3050
  682MPD2    H310093   4.030   4.039  10.467  2.7178  0.1123 -0.6495
  682MPD2     N10094   4.070   3.810  10.844 -0.2064 -0.4088 -0.1044
  682MPD2    H510095   4.077   3.901  10.889 -1.4942 -0.8333  0.9576
  682MPD2    N110096   4.079   3.600  10.407  0.9002 -0.3859 -0.0958
  682MPD2    H710097   4.106   3.512  10.451 -0.2382 -0.9118 -0.4472
  683TMC3    C110098   4.075   3.891  11.240  0.0245  0.3297 -0.3517
  683TMC3    C210099   4.016   3.803  11.327 -0.3581  0.1228 -0.2581
  683TMC3    C310100   3.973   3.682  11.282 -0.9195  1.1815 -0.0118
  683TMC3    C410101   4.098   3.860  11.107 -0.1402 -0.2348  0.2441
  683TMC3    C510102   4.063   3.734  11.069  0.6233  0.6767 -0.6971
  683TMC3    C610103   3.990   3.651  11.150  0.0895  0.3850  0.2935
  683TMC3     C10104   4.149   4.006  11.307  0.0817 -0.2906 -0.0175
  683TMC3     O10105   4.180   4.000  11.423 -0.1185  0.1483 -1.0710
  683TMC3     H10106   4.013   3.831  11.432 -2.7485 -0.2509 -0.2281
  683TMC3    H110107   4.156   3.920  11.038  0.1106 -1.0839 -0.2953
  683TMC3    H210108   3.943   3.560  11.114  0.2857  0.1294  0.6827
  683TMC3    C710109   4.072   3.703  10.929  0.0789 -0.0230  0.7316
  683TMC3    C810110   3.895   3.602  11.375 -0.0642  0.2259 -0.1957
  683TMC3    O110111   4.057   3.585  10.908  0.4353 -0.4563 -0.4685
  683TMC3    O210112   3.844   3.674  11.465  0.0554 -0.1380  0.4010
  684MPD2     C10113   2.869   2.469  16.224 -0.1710 -0.4880  0.3511
  684MPD2    C110114   2.780   2.528  16.129 -0.5532  0.1308  0.3083
  684MPD2    C210115   2.737   2.660  16.149 -0.0380 -0.1071  0.3206
  684MPD2    C310116   2.785   2.738  16.253 -0.2217 -0.2714  0.2835
  684MPD2    C410117   2.859   2.676  16.347 -0.0592  0.1546 -0.1418
  684MPD2    C510118   2.897   2.545  16.333  0.2324  0.0538  0.2852
  684MPD2     H10119   2.672   2.706  16.075  0.7710 -1.0769 -0.9895
  684MPD2    H110120   2.885   2.729  16.438 -0.7599 -0.0229  0.1619
  684MPD2    H210121   2.919   2.374  16.211 -1.1474 -0.9109 -0.3681
  684MPD2    H310122   2.969   2.501  16.401 -0.0176 -0.3126  0.3118
  684MPD2     N10123   2.787   2.880  16.256  0.3790  0.4666  0.8726
  684MPD2    H510124   2.831   2.931  16.332 -0.6896  1.5904  0.7336
  684MPD2    N110125   2.745   2.471  16.012 -0.2615  0.0554 -0.2372
  684MPD2    H710126   2.683   2.527  15.954 -1.7053  1.8277  3.0211
  685TMC3    C110127   2.785   2.351  15.820  0.6899  0.1864 -0.9690
  685TMC3    C210128   2.698   2.431  15.749  0.6259  0.4305  0.4180
  685TMC3    C310129   2.725   2.442  15.611  0.4589 -0.3563  0.2839
  685TMC3    C410130   2.891   2.293  15.755  0.2909 -0.4639 -0.7519
  685TMC3    C510131   2.919   2.337  15.631  0.9425  0.0471  0.1675
  685TMC3    C610132   2.836   2.408  15.554  0.6277  0.7133  0.0045
  685TMC3     C10133   2.803   2.355  15.960  0.0750 -0.1537 -0.1392
  685TMC3     O10134   2.877   2.270  16.012 -0.3421 -0.2567  0.2656
  685TMC3     H10135   2.602   2.447  15.796  0.3754 -1.4975  0.5698
  685TMC3    H110136   2.952   2.215  15.799 -0.5057 -1.7718 -1.9355
  685TMC3    H210137   2.863   2.460  15.463 -0.1015  0.7482 -0.1863
  685TMC3    C710138   3.052   2.310  15.577  0.0125 -0.0655  0.8984
  685TMC3    C810139   2.619   2.489  15.521 -0.8118  0.6549 -0.0002
  685TMC3    O110140   3.087   2.341  15.467  0.0253 -0.1598  0.1989
  685TMC3    O210141   2.635   2.485  15.398 -0.4418  0.1330  0.1520
  686MPD2     C10142   4.219   2.375  14.921 -0.1017 -0.1395  0.4537
  686MPD2    C110143   4.247   2.285  15.023 -0.5892  0.5644 -0.1224
  686MPD2    C210144   4.330   2.177  15.011  0.5390  0.1299 -0.0217
  686MPD2    C310145   4.388   2.156  14.888 -0.5339 -0.3904 -0.4187
  686MPD2    C410146   4.364   2.242  14.783  1.3452  0.0415 -0.3720
  686MPD2    C510147   4.283   2.354  14.797 -0.7855  0.3160  0.2558
  686MPD2     H10148   4.353   2.116  15.097  3.3113 -1.2578 -1.7427
  686MPD2    H110149   4.406   2.237  14.684  2.4280  0.0669  0.0895
  686MPD2    H210150   4.151   2.459  14.929 -0.5355 -0.4253 -0.1783
  686MPD2    H310151   4.277   2.416  14.709 -1.7173  0.4989  0.4493
  686MPD2     N10152   4.470   2.042  14.868  0.0866 -0.5133 -0.1627
  686MPD2    H510153   4.458   2.001  14.775 -0.3729  2.9346 -1.6153
  686MPD2    N110154   4.177   2.311  15.146  0.2174  0.0980  0.2632
  686MPD2    H710155   4.128   2.399  15.160  0.5520  0.5574 -1.4503
  687TMC3    C110156   4.485   1.839  14.994  0.1982 -0.3988  0.2781
  687TMC3    C210157   4.361   1.818  14.936  0.4038 -1.0780  0.2903
  687TMC3    C310158   4.256   1.811  15.026  0.0126 -0.3882  0.3482
  687TMC3    C410159   4.514   1.812  15.125 -0.4804  0.4897  0.3908
  687TMC3    C510160   4.408   1.808  15.204 -0.2396  0.3277 -0.5969
  687TMC3    C610161   4.277   1.808  15.165  1.2457 -0.2423  0.0831
  687TMC3     C10162   4.526   1.975  14.977  0.0933  0.0989  0.0625
  687TMC3     O10163   4.584   2.027  15.066 -0.0112 -0.3933 -0.3581
  687TMC3     H10164   4.348   1.807  14.829 -0.4073  0.4517  0.2247
  687TMC3    H110165   4.616   1.809  15.161 -0.2559  1.5794 -0.1362
  687TMC3    H210166   4.201   1.820  15.241  2.6989  1.4247  1.2779
  687TMC3    C710167   4.416   1.849  15.343  0.1615 -0.0294 -0.1718
  687TMC3    C810168   4.124   1.823  14.973 -0.8313  0.1826  0.0052
  687TMC3    O110169   4.325   1.819  15.425  0.2349  0.3508 -0.1976
  687TMC3    O210170   4.117   1.787  14.852  0.7006  0.5516  0.6652
  688MPD2     C10171   3.119   1.481  16.892  0.4247  0.1727  0.1142
  688MPD2    C110172   3.175   1.363  16.945 -0.0737 -0.4094  0.8839
  688MPD2    C210173   3.294   1.301  16.895 -0.0711  0.0487  0.2371
  688MPD2    C310174   3.347   1.353  16.780 -0.6949  0.2034 -0.4008
  688MPD2    C410175   3.294   1.469  16.725 -0.3202  0.0427 -0.9992
  688MPD2    C510176   3.191   1.532  16.787  0.0858 -0.0937  0.1318
  688MPD2     H10177   3.327   1.208  16.940  4.9595  2.9700  2.5156
  688MPD2    H110178   3.342   1.523  16.645  1.2797  0.6902  0.3866
  688MPD2    H210179   3.034   1.530  16.939  0.1740  0.3804 -0.5619
  688MPD2    H310180   3.155   1.629  16.754  2.8108  0.3241 -1.5892
  688MPD2     N10181   3.458   1.298  16.720 -0.4356  0.0683 -0.1331
  688MPD2    H510182   3.490   1.338  16.633  0.9406 -2.0444 -0.6164
  688MPD2    N110183   3.127   1.308  17.061  0.4764  0.8503  0.4645
  688MPD2    H710184   3.173   1.223  17.091 -2.0195 -0.4883  0.4786
  689TMC3    C110185   3.005   1.263  17.246  1.0420  0.0101 -0.8611
  689TMC3    C210186   2.996   1.320  17.369 -0.3196  0.6203 -0.5212
  689TMC3    C310187   2.965   1.243  17.473 -0.0342  0.2373 -0.8604
  689TMC3    C410188   2.981   1.125  17.227 -0.0799 -0.5153  0.0762
  689TMC3    C510189   2.937   1.060  17.338 -0.0487  0.2464  0.3756
  689TMC3    C610190   2.931   1.115  17.462 -0.3678 -0.1019 -0.7183
  689TMC3     C10191   3.028   1.357  17.138 -0.3081 -0.9143  0.3026
  689TMC3     O10192   3.021   1.477  17.157  0.1023  0.1073 -0.0286
  689TMC3     H10193   3.024   1.422  17.393 -2.1646  0.5775  1.8750
  689TMC3    H110194   2.980   1.087  17.125  0.1618 -0.6133  0.1098
  689TMC3    H210195   2.887   1.066  17.548 -1.7642  2.9149  0.3128
  689TMC3    C710196   2.904   0.920  17.336  0.2162 -0.7687 -0.2529
  689TMC3    C810197   3.055   1.272  17.587 -0.8665 -0.3164 -0.3576
  689TMC3    O110198   2.904   0.864  17.445 -0.3956  0.7519  0.2245
  689TMC3    O210199   3.019   1.244  17.699 -0.2534  0.1193  0.2491
  690MPD2     C10200   0.909   3.193  15.619 -0.0863 -0.0911 -0.0583
  690MPD2    C110201   0.964   3.174  15.497  0.0105  0.6916  0.8662
  690MPD2    C210202   1.078   3.243  15.467  0.7032  0.7149  0.3716
  690MPD2    C310203   1.136   3.342  15.544 -0.0404  0.6131 -0.2646
  690MPD2    C410204   1.065   3.367  15.660 -0.3263 -0.1007 -0.1723
  690MPD2    C510205   0.958   3.286  15.701 -0.1017  0.1939 -0.3157
  690MPD2     H10206   1.120   3.220  15.369  0.4744  0.4352  0.3363
  690MPD2    H110207   1.087   3.454  15.720  3.0094 -1.4920  0.5914
  690MPD2    H210208   0.826   3.130  15.649 -0.7926 -0.7240 -3.2641
  690MPD2    H310209   0.909   3.313  15.794  2.4952 -2.2713  1.8001
  690MPD2     N10210   1.239   3.417  15.491  0.1344  0.6770 -0.0761
  690MPD2    H510211   1.274   3.403  15.397 -0.1649 -0.3739 -0.0364
  690MPD2    N110212   0.898   3.102  15.395  0.2207  0.1938 -0.1948
  690MPD2    H710213   0.949   3.089  15.308 -0.9089  2.2780 -1.1863
  691TMC3    C110214   0.725   3.006  15.270  0.0690 -0.6240 -0.5429
  691TMC3    C210215   0.598   3.007  15.223  0.5168  0.0706  0.3042
  691TMC3    C310216   0.557   2.927  15.121  0.5221  0.5585 -0.0441
  691TMC3    C410217   0.820   2.924  15.216 -0.3044  0.0005  0.0216
  691TMC3    C510218   0.776   2.835  15.121  0.1535 -0.2850  0.0678
  691TMC3    C610219   0.651   2.844  15.064  0.5334  0.0635 -0.4329
  691TMC3     C10220   0.765   3.066  15.396 -0.2471  0.0830  0.1023
  691TMC3     O10221   0.673   3.086  15.473  0.0591  0.0890 -0.0179
  691TMC3     H10222   0.526   3.058  15.285  2.0431  1.5243  0.9001
  691TMC3    H110223   0.913   2.908  15.268 -1.0415  3.1926  2.3436
  691TMC3    H210224   0.603   2.776  14.994 -0.4567  0.2601  0.0491
  691TMC3    C710225   0.825   2.699  15.140 -0.5402  0.0774 -0.5974
  691TMC3    C810226   0.431   2.863  15.147  0.1118 -0.5877  0.0337
  691TMC3    O110227   0.935   2.702  15.200 -0.3180  0.3874  0.1420
  691TMC3    O210228   0.434   2.742  15.135  0.0789 -0.0522 -0.4793
  692TMC3    C110229   2.591   4.229  15.615 -0.2362 -0.9728 -0.0516
  692TMC3    C210230   2.716   4.264  15.662  0.1710  0.5171  0.1416
  692TMC3    C310231   2.796   4.165  15.707 -0.1992 -0.2452 -0.2917
  692TMC3    C410232   2.559   4.104  15.577  0.1342 -0.0469  0.5054
  692TMC3    C510233   2.646   4.008  15.599 -0.3379  0.2708 -0.4281
  692TMC3    C610234   2.761   4.036  15.677 -0.0887  0.2539 -0.2919
  692TMC3     C10235   2.479   4.327  15.627 -0.6586 -0.4040 -0.1188
  692TMC3     O10236   2.367   4.287  15.608 -0.1669 -0.0462  0.3775
  692TMC3     H10237   2.735   4.362  15.703  0.1660  1.6712 -2.5930
  692TMC3    H110238   2.458   4.079  15.548  0.3374  1.0681 -1.1378
  692TMC3    H210239   2.844   3.967  15.660 -0.4529 -0.4586  0.8284
  692TMC3    C710240   2.615   3.880  15.555  0.1088 -0.4516 -0.2410
  692TMC3    C810241   2.796   4.187  15.854  0.0789  0.6755  0.0648
  692TMC3    O110242   2.578   3.864  15.436 -0.2007  0.3946 -0.2402
  692TMC3    O210243   2.727   4.272  15.908 -0.6673  0.5290 -0.0791
  693MPD2     C10244   1.568   2.534  10.921  0.1187  0.2584  0.2711
  693MPD2    C110245   1.556   2.427  10.840  1.1217 -0.0425  0.3500
  693MPD2    C210246   1.668   2.379  10.773 -0.6669 -0.0507  0.6416
  693MPD2    C310247   1.791   2.439  10.799 -0.0595 -0.4805  1.0221
  693MPD2    C410248   1.802   2.547  10.884  0.8792  0.9189  0.1842
  693MPD2    C510249   1.687   2.590  10.945 -0.4375 -0.1062 -0.6700
  693MPD2     H10250   1.661   2.286  10.717  0.1234 -0.0384  0.5161
  693MPD2    H110251   1.890   2.606  10.904  0.8966  0.2469  2.1707
  693MPD2    H210252   1.482   2.558  10.983  0.0530 -1.3422  0.7860
  693MPD2    H310253   1.688   2.677  11.009 -0.8861 -0.6662  0.0979
  693MPD2     N10254   1.912   2.385  10.753 -0.3955  0.7435  0.2419
  693MPD2    H510255   1.999   2.436  10.765  0.2084 -0.0880 -0.5959
  693MPD2    N110256   1.431   2.371  10.837 -0.6779  0.0708 -0.9448
  693MPD2    H710257   1.360   2.406  10.900  0.6803 -1.5184  1.4948
  694TMC3    C110258   1.266   2.215  10.770  0.1456  0.1580  0.3529
  694TMC3    C210259   1.190   2.162  10.677  0.0884  0.1909 -0.3865
  694TMC3    C310260   1.081   2.086  10.707 -0.2168  0.0802 -0.2145
  694TMC3    C410261   1.238   2.201  10.900  0.3586  0.3747  0.1247
  694TMC3    C510262   1.129   2.125  10.930 -0.1074 -0.5112 -0.2082
  694TMC3    C610263   1.043   2.073  10.837 -1.4748  0.4538  0.3052
  694TMC3     C10264   1.392   2.282  10.741  0.5181 -0.4253  0.2081
  694TMC3     O10265   1.449   2.235  10.644  0.3288  0.1502 -0.3734
  694TMC3     H10266   1.213   2.186  10.574  1.0039 -1.0624 -0.4725
  694TMC3    H110267   1.310   2.220  10.979  1.1640  0.9139 -0.7445
  694TMC3    H210268   0.947   2.026  10.859 -1.3953 -0.2868 -0.8685
  694TMC3    C710269   1.089   2.119  11.069  0.2720 -0.3830 -0.2337
  694TMC3    C810270   1.041   1.971  10.620  0.2180 -0.6155 -0.9284
  694TMC3    O110271   1.116   2.208  11.150  0.6272 -0.0721 -0.3281
  694TMC3    O210272   0.968   1.888  10.667 -0.4038 -0.1096 -0.1685
  695MPD2     C10273   2.820   3.920  13.317  0.2446  0.1626 -0.0911
  695MPD2    C110274   2.750   3.872  13.424  0.2985  0.2385  0.4607
  695MPD2    C210275   2.614   3.853  13.414  0.3520  0.1836  0.4180
  695MPD2    C310276   2.553   3.863  13.292 -0.0837 -0.5095 -0.6652
  695MPD2    C410277   2.623   3.893  13.177 -0.4365 -0.3667 -0.2151
  695MPD2    C510278   2.753   3.931  13.197 -0.2904  0.6497 -0.0889
  695MPD2     H10279   2.549   3.813  13.491  0.1385 -0.6215 -0.1742
  695MPD2    H110280   2.585   3.906  13.076  0.8951 -4.3321 -1.2303
  695MPD2    H210281   2.926   3.941  13.315  0.9057 -3.1652  1.3337
  695MPD2    H310282   2.807   3.963  13.109 -0.2173 -0.9486 -0.6247
  695MPD2     N10283   2.420   3.825  13.285 -0.4930 -0.2550 -0.7203
  695MPD2    H510284   2.378   3.802  13.374 -0.1502 -0.7347 -0.6774
  695MPD2    N110285   2.813   3.866  13.555 -0.3070  0.3237  0.4883
  695MPD2    H710286   2.745   3.852  13.629  0.1090  0.7562  0.9544
  696TMC3    C110287   2.204   3.849  13.205 -0.3707 -0.1966 -0.0004
  696TMC3    C210288   2.152   3.748  13.277 -0.2054  0.3666  0.6655
  696TMC3    C310289   2.023   3.764  13.323  0.0091  0.0163  0.5066
  696TMC3    C410290   2.135   3.964  13.181  0.2666 -0.8819 -0.2630
  696TMC3    C510291   2.010   3.978  13.231 -0.1119 -0.0642  0.2257
  696TMC3    C610292   1.956   3.882  13.311  0.4337 -0.1574  0.1482
  696TMC3     C10293   2.345   3.866  13.184  0.3229  0.2044 -0.5449
  696TMC3     O10294   2.364   3.930  13.082  0.1663 -0.1183 -0.0368
  696TMC3     H10295   2.206   3.655  13.296 -0.8288 -0.4069 -1.3646
  696TMC3    H110296   2.180   4.040  13.117 -0.3894  0.2900  0.6748
  696TMC3    H210297   1.851   3.896  13.337  0.8260  0.8662  1.1701
  696TMC3    C710298   1.955   4.110  13.240 -0.7388  0.9264  0.6209
  696TMC3    C810299   1.965   3.649  13.387 -0.4730 -0.6149 -0.7229
  696TMC3    O110300   1.946   4.176  13.138 -0.1513 -0.2257  0.2279
  696TMC3    O210301   1.996   3.542  13.341 -0.2642 -0.3581 -0.7230
  697MPD2     C10302   2.164   1.078  15.661  0.3520 -0.1358  0.3291
  697MPD2    C110303   2.224   1.027  15.548 -1.2192 -0.2170 -0.3515
  697MPD2    C210304   2.265   1.117  15.445 -0.6187  0.4534  0.0586
  697MPD2    C310305   2.245   1.247  15.457 -0.1890  0.3676  0.1357
  697MPD2    C410306   2.188   1.300  15.568 -0.6305 -0.8656 -0.9891
  697MPD2    C510307   2.137   1.214  15.669  0.0640  0.1001 -0.5959
  697MPD2     H10308   2.298   1.081  15.349  1.2403 -1.7042  1.5011
  697MPD2    H110309   2.156   1.404  15.574 -2.2056 -1.4736  0.7380
  697MPD2    H210310   2.129   1.016  15.743 -1.5613  0.5461  0.0244
  697MPD2    H310311   2.097   1.260  15.759 -0.0859 -1.5987  0.1949
  697MPD2     N10312   2.294   1.327  15.353  0.1393  0.0934  0.5784
  697MPD2    H510313   2.331   1.277  15.273  1.6868 -1.3527  2.1713
  697MPD2    N110314   2.267   0.894  15.526 -0.0673  0.0730  0.2120
  697MPD2    H710315   2.308   0.867  15.437 -1.1468 -0.0436 -0.2490
  698TMC3    C110316   2.316   1.503  15.194  0.0209 -0.1642 -0.7672
  698TMC3    C210317   2.332   1.635  15.169 -0.0846 -0.3589 -0.0401
  698TMC3    C310318   2.418   1.666  15.062  0.5180 -0.3197 -0.6929
  698TMC3    C410319   2.362   1.410  15.108 -0.4080  0.6617  0.7345
  698TMC3    C510320   2.438   1.451  15.000 -0.3618  1.0177 -0.0727
  698TMC3    C610321   2.466   1.580  14.978 -0.5685  0.6991 -0.5552
  698TMC3     C10322   2.280   1.460  15.329 -0.2049 -0.6601  0.5001
  698TMC3     O10323   2.246   1.552  15.400  0.3773  0.6033 -0.4195
  698TMC3     H10324   2.269   1.710  15.215 -0.2346 -1.5231  1.6469
  698TMC3    H110325   2.323   1.309  15.119  1.7609  0.0632  2.8918
  698TMC3    H210326   2.523   1.609  14.890 -1.5623  3.3890 -0.3237
  698TMC3    C710327   2.440   1.356  14.891  0.2468  0.2430 -0.1868
  698TMC3    C810328   2.400   1.799  15.011 -0.5672  0.2939 -0.3100
  698TMC3    O110329   2.347   1.282  14.882 -0.2931 -0.2502 -0.2720
  698TMC3    O210330   2.289   1.854  15.022  0.1045 -0.0091  0.3555
  699TMC3    C110331   2.033   3.860  12.862  0.1248 -0.2299  0.3522
  699TMC3    C210332   2.101   3.745  12.864  0.4754 -0.3589 -0.0858
  699TMC3    C310333   2.045   3.635  12.925 -0.4357  0.1374 -0.4504
  699TMC3    C410334   1.904   3.870  12.915  0.6893  0.2812 -0.2328
  699TMC3    C510335   1.850   3.758  12.964 -0.2793  0.0763  0.4658
  699TMC3    C610336   1.919   3.639  12.971  0.1250 -0.5223 -0.4904
  699TMC3     C10337   2.072   3.962  12.766  0.4626 -0.2198 -0.0922
  699TMC3     O10338   1.982   4.041  12.740  0.4849  0.4155 -0.4618
  699TMC3     H10339   2.194   3.726  12.812  0.8662 -0.4472  0.6446
  699TMC3    H110340   1.842   3.959  12.916  1.1361  0.6115 -1.3129
  699TMC3    H210341   1.875   3.556  13.024 -2.0405  0.1340 -1.2903
  699TMC3    C710342   1.740   3.776  13.055  0.9504 -0.3334  0.1841
  699TMC3    C810343   2.131   3.533  12.984  0.0033 -0.1384 -0.0715
  699TMC3    O110344   1.715   3.887  13.101  0.0829 -0.4688 -0.2028
  699TMC3    O210345   2.079   3.459  13.067 -0.1957 -0.8856  0.4040
  700TMC3    C110346   1.164   1.667  16.878  0.1642  0.3703  0.4454
  700TMC3    C210347   1.192   1.535  16.845  0.4597  0.6081  0.6440
  700TMC3    C310348   1.280   1.466  16.925  0.1022 -0.2239 -0.0786
  700TMC3    C410349   1.231   1.732  16.978  0.1952 -0.7701  0.5963
  700TMC3    C510350   1.326   1.659  17.042 -0.9027  0.0555  0.3699
  700TMC3    C610351   1.355   1.526  17.020  0.5956 -0.5901  0.1211
  700TMC3     C10352   1.106   1.752  16.770 -0.3050  0.4318 -0.4821
  700TMC3     O10353   0.987   1.754  16.744  0.3719  0.3187  0.1184
  700TMC3     H10354   1.145   1.488  16.760 -0.2102  2.0752  0.2045
  700TMC3    H110355   1.224   1.838  17.004  0.2311 -0.9416  1.3037
  700TMC3    H210356   1.411   1.460  17.085  1.1008 -0.3986 -0.1208
  700TMC3    C710357   1.427   1.742  17.111 -0.2630  0.1153  0.6396
  700TMC3    C810358   1.316   1.328  16.896  0.2198  1.5149 -0.2781
  700TMC3    O110359   1.402   1.851  17.159 -0.4390 -0.3452 -0.2333
  700TMC3    O210360   1.433   1.299  16.917  0.5011  0.3274 -0.0351
  701TMC3    C110361   1.717   0.116  15.298  0.0420  0.0845 -0.1517
  701TMC3    C210362   1.708   0.116  15.167  0.3849  0.0332 -0.0963
  701TMC3    C310363   1.761   0.218  15.095 -0.9691 -0.8197 -0.6782
  701TMC3    C410364   1.788   0.211  15.362  0.6458  0.3394  0.0542
  701TMC3    C510365   1.855   0.305  15.285 -0.2479 -0.5651  0.2934
  701TMC3    C610366   1.841   0.312  15.148  0.3454 -0.0529 -0.3015
  701TMC3     C10367   1.598   0.089  15.379 -0.0672  0.1964 -0.1844
  701TMC3     O10368   1.546   0.186  15.432  0.3722  0.0059  0.6329
  701TMC3     H10369   1.653   0.035  15.120 -0.6740  0.1729  0.9078
  701TMC3    H110370   1.790   0.203  15.470  0.2461  0.7571  0.0934
  701TMC3    H210371   1.876   0.396  15.089 -1.6114  0.8885 -0.1330
  701TMC3    C710372   1.902   0.434  15.354 -0.5771  0.6484  0.5585
  701TMC3    C810373   1.711   0.253  14.962 -0.3163 -0.2904  1.1074
  701TMC3    O110374   1.963   0.503  15.274  0.9541 -0.6495 -0.4618
  701TMC3    O210375   1.752   0.350  14.898 -0.2023  0.0811 -0.2540
  702MPD2     C10376   0.735   2.524  10.378 -0.0961  0.0343 -0.6246
  702MPD2    C110377   0.700   2.623  10.472 -0.1170  0.2162 -0.5135
  702MPD2    C210378   0.695   2.759  10.441 -0.1778  0.3001  0.3101
  702MPD2    C310379   0.726   2.800  10.313 -0.1560 -0.1679 -0.6470
  702MPD2    C410380   0.752   2.700  10.216 -0.4962 -0.4095 -0.0924
  702MPD2    C510381   0.765   2.566  10.249  0.4288 -0.7261 -0.3425
  702MPD2     H10382   0.660   2.820  10.523 -1.5029 -0.2834  0.1785
  702MPD2    H110383   0.795   2.728  10.121  2.9608 -1.6871  1.0730
  702MPD2    H210384   0.738   2.417  10.395  1.7820  0.3800  1.1758
  702MPD2    H310385   0.802   2.491  10.179 -0.8172 -1.1259 -0.5675
  702MPD2     N10386   0.720   2.938  10.272 -0.0201  0.6470  0.0795
  702MPD2    H510387   0.777   2.965  10.192 -0.3852  3.2213  0.6638
  702MPD2    N110388   0.672   2.590  10.609 -0.2701 -0.1125  0.2164
  702MPD2    H710389   0.657   2.665  10.675  1.0888  0.4307 -0.0972
  703TMC3    C110390   0.699   3.170  10.303  0.3694 -1.0362 -0.1102
  703TMC3    C210391   0.620   3.276  10.351 -0.3318  0.1209 -0.0904
  703TMC3    C310392   0.665   3.404  10.343 -0.8209 -1.0789 -0.3568
  703TMC3    C410393   0.820   3.190  10.245 -0.3680  0.4323  0.1046
  703TMC3    C510394   0.865   3.323  10.244  0.3135 -0.2836  0.2406
  703TMC3    C610395   0.787   3.428  10.291  0.0066 -0.9721 -0.6153
  703TMC3     C10396   0.661   3.038  10.345  0.1634 -0.5035 -0.1567
  703TMC3     O10397   0.591   3.035  10.445 -0.2698 -0.7270  0.2019
  703TMC3     H10398   0.524   3.243  10.387 -0.5145  1.1694  0.3669
  703TMC3    H110399   0.886   3.110  10.214  0.7493  0.2553  2.8936
  703TMC3    H210400   0.820   3.531  10.288 -0.5322 -0.7660  0.8673
  703TMC3    C710401   1.004   3.354  10.222 -0.4162  0.0175 -0.7874
  703TMC3    C810402   0.610   3.504  10.434  0.5368 -0.1501  0.3085
  703TMC3    O110403   1.028   3.471  10.178 -0.0859  0.4086  0.1738
  703TMC3    O210404   0.690   3.592  10.473 -0.4867  0.1680  0.1685
  704TMC3    C110405   3.204   1.135  12.324  0.2770 -0.0391 -0.1733
  704TMC3    C210406   3.329   1.178  12.295  0.7460 -0.6660  0.3887
  704TMC3    C310407   3.431   1.118  12.361  0.1638 -0.4121 -0.4167
  704TMC3    C410408   3.178   1.023  12.396 -0.1033  0.6069  0.1816
  704TMC3    C510409   3.276   0.973  12.481 -0.0780  0.4115 -0.0461
  704TMC3    C610410   3.406   1.017  12.451 -0.1805  0.1407  0.2155
  704TMC3     C10411   3.127   1.143  12.199  0.0071 -0.1576 -0.3072
  704TMC3     O10412   3.005   1.125  12.208 -0.2247  0.0644  0.9632
  704TMC3     H10413   3.352   1.272  12.246  0.1998  1.2149  3.7665
  704TMC3    H110414   3.076   0.986  12.396 -0.6208  2.0378  1.0376
  704TMC3    H210415   3.484   0.948  12.482 -0.7026  0.2056  1.6632
  704TMC3    C710416   3.270   0.830  12.485 -0.0339  0.0442 -0.9204
  704TMC3    C810417   3.541   1.094  12.265  0.2912  0.3267  0.2249
  704TMC3    O110418   3.370   0.771  12.451 -0.0769  0.2592 -0.0580
  704TMC3    O210419   3.506   1.100  12.149 -0.5815  0.5096 -0.2785
  705MPD2     C10420   3.104   3.634  16.386  0.2772 -0.4236 -0.1248
  705MPD2    C110421   3.013   3.633  16.281  0.9175 -0.9065 -0.4486
  705MPD2    C210422   2.877   3.653  16.316  0.1648 -0.6754 -0.2499
  705MPD2    C310423   2.843   3.664  16.451 -0.1777 -0.2965  0.8516
  705MPD2    C410424   2.932   3.660  16.552 -0.4235 -0.1093  0.1592
  705MPD2    C510425   3.063   3.644  16.518 -0.0729  0.2921 -0.5004
  705MPD2     H10426   2.798   3.657  16.243  1.9454 -0.5547 -2.1591
  705MPD2    H110427   2.891   3.664  16.652  3.2480 -0.0465  1.6813
  705MPD2    H210428   3.206   3.604  16.365 -0.0824 -1.3815 -0.4586
  705MPD2    H310429   3.135   3.646  16.599  0.0840 -1.3565 -0.5978
  705MPD2     N10430   2.709   3.702  16.490 -0.2279 -0.1834 -0.7965
  705MPD2    H510431   2.699   3.735  16.586 -2.2553  2.3964 -1.8901
  705MPD2    N110432   3.041   3.622  16.141  0.1806 -0.2426 -0.1935
  705MPD2    H710433   2.957   3.627  16.084 -0.1165 -0.7585  0.1982
  706TMC3    C110434   3.214   3.491  15.727 -0.5191 -0.2873 -0.0151
  706TMC3    C210435   3.142   3.592  15.666  0.0849 -0.1597  0.1648
  706TMC3    C310436   3.079   3.689  15.749 -0.4748 -0.1551 -0.2840
  706TMC3    C410437   3.234   3.495  15.863 -0.1907  1.0483  0.2606
  706TMC3    C510438   3.165   3.588  15.942 -0.3157  0.7395  0.4961
  706TMC3    C610439   3.083   3.678  15.883  0.2736 -0.1156 -0.2203
  706TMC3     C10440   3.323   3.429  15.656  0.3085 -0.3654  0.2764
  706TMC3     O10441   3.434   3.451  15.709 -0.3682  0.2710 -0.0620
  706TMC3     H10442   3.131   3.605  15.559 -0.2126 -1.6362  0.0281
  706TMC3    H110443   3.283   3.411  15.913 -2.0262  0.7109  1.4841
  706TMC3    H210444   3.031   3.751  15.943  0.9281  0.3236 -0.1793
  706TMC3    C710445   3.161   3.587  16.087  0.0375  0.2798  0.1253
  706TMC3    C810446   3.075   3.827  15.694 -0.4007  0.6877 -0.2527
  706TMC3    O110447   3.258   3.551  16.144  0.2798  0.0754 -0.3857
  706TMC3    O210448   3.045   3.919  15.770 -0.5772 -0.1949  0.6715
  707TMC3    C110449   0.182   2.766   1.256 -0.1247  0.2456 -0.1136
  707TMC3    C210450   0.273   2.725   1.348  0.1542 -0.7450 -0.2405
  707TMC3    C310451   0.235   2.708   1.477 -0.3266  0.1564  0.2107
  707TMC3    C410452   0.051   2.787   1.287 -0.2321 -0.4819 -0.2215
  707TMC3    C510453   0.014   2.759   1.419 -0.5136 -0.2316 -0.1657
  707TMC3    C610454   0.104   2.721   1.511 -0.1621  0.1665 -0.5969
  707TMC3     C10455   0.218   2.721   1.128 -0.1558 -0.1835  0.3253
  707TMC3     O10456   0.266   2.611   1.126 -0.0778 -0.1853 -0.0114
  707TMC3     H10457   0.370   2.684   1.322 -0.8363 -1.7664 -2.2961
  707TMC3    H110458   4.706   2.818   1.209  0.5455  0.2782 -0.5976
  707TMC3    H210459   0.066   2.693   1.609  1.3547  2.3121  0.5770
  707TMC3    C710460   4.604   2.718   1.436  0.1021 -0.6440 -0.2639
  707TMC3    C810461   0.314   2.623   1.560  0.0479  0.1294  0.2550
  707TMC3    O110462   4.590   2.622   1.510 -0.3132  0.2765  0.4234
  707TMC3    O210463   0.293   2.619   1.684  0.0408 -0.4928 -0.5365
  708MPD2     C10464   1.786   2.176  13.702 -0.5981 -0.1614  0.0788
  708MPD2    C110465   1.655   2.216  13.697  0.2200  0.5473 -0.0725
  708MPD2    C210466   1.566   2.158  13.786 -0.6294  0.0386  0.2779
  708MPD2    C310467   1.608   2.066  13.874 -0.6826 -0.6086  0.3048
  708MPD2    C410468   1.735   2.030  13.882  0.6639  0.2346  0.5910
  708MPD2    C510469   1.825   2.078  13.795 -0.3088 -0.0447  0.2162
  708MPD2     H10470   1.462   2.187  13.794 -0.2054  1.6525 -0.1128
  708MPD2    H110471   1.760   1.958  13.959  1.0170  1.1585  1.3514
  708MPD2    H210472   1.857   2.215  13.631 -1.4428  0.6310 -0.3192
  708MPD2    H310473   1.928   2.043  13.796 -0.4704 -0.4108  3.6427
  708MPD2     N10474   1.503   2.022  13.961 -0.0990 -0.1099 -0.5291
  708MPD2    H510475   1.414   2.072  13.956  1.0629  1.8571 -1.3511
  708MPD2    N110476   1.606   2.325  13.613 -0.2264  0.1973 -0.0591
  708MPD2    H710477   1.508   2.351  13.615 -0.1874  0.3168  0.2910
  709TMC3    C110478   1.602   2.516  13.495  0.2228 -0.6574 -0.0280
  709TMC3    C210479   1.630   2.565  13.368  0.2183 -0.5889  0.8845
  709TMC3    C310480   1.527   2.631  13.306 -0.8012 -0.2833 -0.5722
  709TMC3    C410481   1.480   2.534  13.555 -0.8624  0.5604  0.4119
  709TMC3    C510482   1.383   2.604  13.484 -0.9859  0.1158 -0.0403
  709TMC3    C610483   1.407   2.646  13.361 -0.1877 -0.0794  0.1786
  709TMC3     C10484   1.679   2.402  13.533 -0.0582  0.0021  0.7726
  709TMC3     O10485   1.790   2.378  13.490  0.0955  0.0298  0.4586
  709TMC3     H10486   1.723   2.538  13.321  1.4136  0.3373  2.6927
  709TMC3    H110487   1.470   2.510  13.660  0.1401 -1.1490  0.1174
  709TMC3    H210488   1.326   2.683  13.298 -0.5070  1.2960  1.4055
  709TMC3    C710489   1.259   2.540  13.500  0.4399  0.6270 -0.3511
  709TMC3    C810490   1.528   2.630  13.157  0.3999  0.0228 -0.3695
  709TMC3    O110491   1.194   2.498  13.403  0.2161  0.1418  0.1965
  709TMC3    O210492   1.492   2.728  13.092  0.4496 -0.2173  0.3159
  710TMC3    C110493   1.652   4.145   0.150 -0.0752  0.0474 -0.2794
  710TMC3    C210494   1.721   4.128   0.030 -0.1139 -1.1346 -0.3717
  710TMC3    C310495   1.858   4.122   0.019  0.2660  0.3986 -0.3440
  710TMC3    C410496   1.731   4.156   0.263  0.1454  0.3557  0.2719
  710TMC3    C510497   1.868   4.144   0.247 -0.2506 -0.1616  0.6134
  710TMC3    C610498   1.937   4.127   0.132 -0.6351  0.1748 -0.6812
  710TMC3     C10499   1.537   4.232   0.145  0.0657 -0.5661 -0.7356
  710TMC3     O10500   1.521   4.293   0.041  0.1736 -0.3292  0.5205
  710TMC3     H10501   1.659   4.101  17.644 -1.8098 -0.4500  0.6490
  710TMC3    H110502   1.690   4.177   0.361  2.1996  0.0310  1.1982
  710TMC3    H210503   2.045   4.126   0.133 -0.6096  1.3758 -1.7954
  710TMC3    C710504   1.947   4.151   0.371  0.3136  0.8963 -0.1455
  710TMC3    C810505   1.920   4.077  17.601  0.6835  0.3827  0.1797
  710TMC3    O110506   1.891   4.139   0.478  0.0731 -0.2836 -0.0380
  710TMC3    O210507   2.021   4.129  17.569  0.0140 -0.4940  0.3772
  711TMC3    C110508   2.222   0.027  14.957  0.0832 -0.2152  0.2856
  711TMC3    C210509   2.256   0.093  15.072 -0.0879 -0.3835 -0.4985
  711TMC3    C310510   2.367   0.047  15.133  0.1117 -0.0314 -0.2824
  711TMC3    C410511   2.298   4.654  14.895 -0.5673 -0.1220  0.5494
  711TMC3    C510512   2.409   4.613  14.965  0.1174 -0.1703 -0.3680
  711TMC3    C610513   2.446   4.673  15.082 -0.3464  0.2684  0.8750
  711TMC3     C10514   2.103   0.058  14.882  0.0725  0.7252 -0.4986
  711TMC3     O10515   1.998   0.085  14.941  0.1826  0.0383 -0.0347
  711TMC3     H10516   2.190   0.175  15.098  1.5634  0.7342  0.1113
  711TMC3    H110517   2.275   4.608  14.800  1.0451  0.0452  0.0835
  711TMC3    H210518   2.528   4.634  15.141  1.7412  0.1249 -2.1347
  711TMC3    C710519   2.459   4.477  14.963  0.5963  0.1016  0.0472
  711TMC3    C810520   2.389   0.092  15.271  0.8082  0.2290  0.8596
  711TMC3    O110521   2.567   4.451  15.014  0.7079  0.5362  0.5922
  711TMC3    O210522   2.297   0.137  15.335  0.2676  0.1762 -0.2079
  712MPD2     C10523   3.269   0.548  13.550 -0.1750  0.0438 -1.0713
  712MPD2    C110524   3.160   0.634  13.569 -0.1505  0.1608  0.1421
  712MPD2    C210525   3.179   0.756  13.634  0.2115 -0.6206  0.1329
  712MPD2    C310526   3.306   0.792  13.680  0.0720  0.0916 -0.4678
  712MPD2    C410527   3.413   0.713  13.654  0.0923  0.4124 -0.1328
  712MPD2    C510528   3.391   0.588  13.598 -0.2734 -0.6616 -0.2947
  712MPD2     H10529   3.088   0.811  13.653  1.3535  0.6225  2.0615
  712MPD2    H110530   3.513   0.745  13.683  0.9726  0.2565 -2.9528
  712MPD2    H210531   3.260   0.451  13.502  1.1666  0.1313 -1.4881
  712MPD2    H310532   3.473   0.522  13.572  1.2029  0.7662  0.7102
  712MPD2     N10533   3.325   0.921  13.726 -0.2601 -0.3421 -0.1596
  712MPD2    H510534   3.420   0.958  13.732 -0.2078 -0.8499  2.2910
  712MPD2    N110535   3.030   0.593  13.532  0.1049 -0.0834 -0.0846
  712MPD2    H710536   2.950   0.650  13.555  0.4504  0.1719  0.5029
  713TMC3    C110537   3.263   1.136  13.818 -0.0506  0.0605 -0.5437
  713TMC3    C210538   3.394   1.173  13.820  0.0344  0.2939  0.0560
  713TMC3    C310539   3.417   1.297  13.871 -0.3640 -0.2397 -0.0483
  713TMC3    C410540   3.153   1.214  13.835 -0.2433 -0.3109  0.2945
  713TMC3    C510541   3.179   1.336  13.880 -0.1799 -0.1061  0.4000
  713TMC3    C610542   3.309   1.380  13.900 -0.8768  0.4975  0.3833
  713TMC3     C10543   3.218   0.999  13.781 -0.4208  0.8680 -0.6912
  713TMC3     O10544   3.107   0.962  13.816  0.9972  0.2572  0.2679
  713TMC3     H10545   3.480   1.113  13.793 -0.2593  0.2821 -0.8503
  713TMC3    H110546   3.053   1.177  13.819 -0.9799  2.0791 -0.6812
  713TMC3    H210547   3.338   1.480  13.931  0.2625 -0.1288  1.3504
  713TMC3    C710548   3.088   1.438  13.834 -0.1697  0.0349  0.4710
  713TMC3    C810549   3.540   1.355  13.819 -0.4916  0.0561  0.0423
  713TMC3    O110550   3.015   1.405  13.743 -0.0975 -0.1595 -0.2071
  713TMC3    O210551   3.526   1.452  13.744 -0.1430  0.5984  0.8573
  714MPD2     C10552   0.218   4.364   1.115 -0.1485 -0.5022 -0.3528
  714MPD2    C110553   0.303   4.263   1.068 -0.2758 -0.1339  0.3056
  714MPD2    C210554   0.316   4.240   0.935  0.0459  0.1411  0.3050
  714MPD2    C310555   0.249   4.319   0.842  0.3718 -0.2178  0.0127
  714MPD2    C410556   0.162   4.418   0.889 -0.0709  0.2719  0.3793
  714MPD2    C510557   0.150   4.441   1.028 -0.1939  0.0672  0.2928
  714MPD2     H10558   0.391   4.172   0.896 -0.7498 -0.2277 -0.5871
  714MPD2    H110559   0.099   4.479   0.826  1.0462 -0.7755 -1.7800
  714MPD2    H210560   0.201   4.386   1.220 -0.6622 -0.8323 -0.3650
  714MPD2    H310561   0.082   4.513   1.072 -0.5364 -0.6986  1.0328
  714MPD2     N10562   0.251   4.283   0.704  0.7906  0.2825  0.0683
  714MPD2    H510563   0.298   4.195   0.683 -0.6804 -0.5459  0.1552
  714MPD2    N110564   0.374   4.181   1.160  0.2249 -0.1633 -0.0195
  714MPD2    H710565   0.364   4.206   1.258 -2.4027 -1.5359  0.0359
  715TMC3    C110566   0.541   4.010   1.216 -0.3417  0.1489 -0.2815
  715TMC3    C210567   0.571   3.881   1.203  0.6990  0.0376 -0.2216
  715TMC3    C310568   0.665   3.831   1.281  0.0844  0.0348 -0.9210
  715TMC3    C410569   0.590   4.096   1.311  0.3426  0.3392 -0.0642
  715TMC3    C510570   0.678   4.031   1.392 -0.7771  0.1468  0.5894
  715TMC3    C610571   0.721   3.900   1.385  0.2171 -0.9369  0.3580
  715TMC3     C10572   0.443   4.066   1.119  0.3617 -0.5244  0.0651
  715TMC3     O10573   0.439   4.009   1.011  0.2141  0.3258  0.1215
  715TMC3     H10574   0.525   3.826   1.123  0.2043  1.9688 -1.2763
  715TMC3    H110575   0.572   4.202   1.326  2.0456  0.3731  1.6659
  715TMC3    H210576   0.777   3.854   1.466 -0.7248 -3.2485 -0.2760
  715TMC3    C710577   0.740   4.114   1.491  0.7967  0.9782 -0.8080
  715TMC3    C810578   0.754   3.735   1.217 -0.4665 -0.7356  0.8199
  715TMC3    O110579   0.846   4.063   1.530 -0.3399  0.1054  0.4207
  715TMC3    O210580   0.734   3.706   1.100 -0.0565 -0.4809 -0.4683
  716MPD2     C10581   0.367   2.924   9.950  0.0622  0.4980  0.2510
  716MPD2    C110582   0.410   3.009   9.851 -0.0907 -0.5831  0.1512
  716MPD2    C210583   0.529   2.986   9.789 -0.4241  0.0978  0.9602
  716MPD2    C310584   0.607   2.884   9.829 -0.9353  0.0899  0.1011
  716MPD2    C410585   0.566   2.795   9.925  0.1142  0.1492  0.3153
  716MPD2    C510586   0.442   2.813   9.986 -0.2373  0.3457 -0.0335
  716MPD2     H10587   0.571   3.047   9.709 -1.2749  0.7694  1.0281
  716MPD2    H110588   0.626   2.708   9.953 -0.6897 -0.4300  0.2561
  716MPD2    H210589   0.268   2.927   9.993 -0.1924 -1.6469 -0.2110
  716MPD2    H310590   0.400   2.750  10.064  2.7152 -0.5701  0.7832
  716MPD2     N10591   0.725   2.871   9.752 -0.0453  0.4818 -0.7193
  716MPD2    H510592   0.752   2.938   9.681  1.6494  1.1422  0.5631
  716MPD2    N110593   0.327   3.123   9.827 -0.4245  0.7883  0.8888
  716MPD2    H710594   0.241   3.122   9.880  0.2357  0.1156  1.9499
  717TMC3    C110595   0.923   2.773   9.679  0.3296  0.2450 -0.6783
  717TMC3    C210596   0.891   2.777   9.547  0.2073 -0.1972  0.3778
  717TMC3    C310597   0.966   2.725   9.452 -0.9658  0.2944  0.0608
  717TMC3    C410598   1.035   2.707   9.712  0.2143  0.1945 -0.0835
  717TMC3    C510599   1.103   2.643   9.615  0.6028 -0.1666 -0.1816
  717TMC3    C610600   1.083   2.663   9.480 -0.0783 -0.1939  0.9560
  717TMC3     C10601   0.821   2.771   9.773  0.6320  0.4817 -0.2829
  717TMC3     O10602   0.829   2.685   9.864  0.1375  0.6081 -0.0849
  717TMC3     H10603   0.805   2.835   9.515 -1.5029 -2.8334  0.1709
  717TMC3    H110604   1.060   2.690   9.816 -0.8545 -0.4028  0.0692
  717TMC3    H210605   1.152   2.620   9.407 -0.2923  0.3413  0.4440
  717TMC3    C710606   1.236   2.589   9.661 -0.0497  0.8959  0.2677
  717TMC3    C810607   0.906   2.707   9.323  0.3331 -0.1356 -0.5662
  717TMC3    O110608   1.275   2.637   9.764 -0.1868 -0.1177  0.1409
  717TMC3    O210609   0.804   2.773   9.299  0.3559 -0.4117  0.1085
  718MPD2     C10610   0.441   1.251  12.750  0.1550  0.5924  0.2410
  718MPD2    C110611   0.349   1.303  12.665 -0.6463 -0.6284  0.1451
  718MPD2    C210612   0.220   1.262  12.683 -0.1348  0.1981 -0.8277
  718MPD2    C310613   0.177   1.192  12.790 -0.2981 -0.4131  0.1116
  718MPD2    C410614   0.267   1.153  12.881 -0.4314  0.7513  0.3629
  718MPD2    C510615   0.401   1.180  12.865  0.2788 -1.1041 -0.5188
  718MPD2     H10616   0.156   1.264  12.595 -1.1966  2.9569 -0.0182
  718MPD2    H110617   0.244   1.069  12.946  1.3185  1.3143  1.6902
  718MPD2    H210618   0.544   1.260  12.719  0.5160 -2.6054  0.5585
  718MPD2    H310619   0.475   1.137  12.931  0.9859  2.4760  1.0216
  718MPD2     N10620   0.038   1.152  12.785  0.1252  0.1972 -0.8172
  718MPD2    H510621   4.707   1.205  12.718  0.6094 -0.2562 -1.5840
  718MPD2    N110622   0.390   1.360  12.541 -0.2585  0.0291  0.3736
  718MPD2    H710623   0.488   1.359  12.516  0.2241  0.4923  2.2768
  719TMC3    C110624   0.336   1.483  12.335  0.0000  0.7637  0.2325
  719TMC3    C210625   0.324   1.366  12.265 -0.7829 -0.0735 -0.1921
  719TMC3    C310626   0.244   1.364  12.151 -0.6596 -0.5792 -0.7386
  719TMC3    C410627   0.286   1.600  12.291 -0.4344 -0.0015  0.2753
  719TMC3    C510628   0.218   1.597  12.171  0.3556 -0.3040  0.3066
  719TMC3    C610629   0.195   1.482  12.100 -0.0335 -0.3389  0.2822
  719TMC3     C10630   0.311   1.459  12.478 -0.7407 -0.3541  1.1669
  719TMC3     O10631   0.202   1.503  12.520  0.5449 -0.5214  0.3653
  719TMC3     H10632   0.384   1.277  12.284  1.8110  1.9645  1.0944
  719TMC3    H110633   0.291   1.688  12.354  0.1968  0.8296 -0.9228
  719TMC3    H210634   0.139   1.485  12.007  0.7265 -1.5324 -0.2062
  719TMC3    C710635   0.169   1.726  12.120  0.2836 -0.3097 -0.0925
  719TMC3    C810636   0.149   1.263  12.176  0.2103  0.0039  0.0749
  719TMC3    O110637   0.141   1.728  12.000 -0.1201 -0.4122  0.3427
  719TMC3    O210638   0.169   1.170  12.252  0.3646  0.0675 -0.2343
  720MPD2     C10639   3.444   2.961  13.745 -0.1509 -0.0610  0.1459
  720MPD2    C110640   3.564   2.979  13.683  0.2687  0.1939 -1.3291
  720MPD2    C210641   3.678   2.958  13.761 -0.5741  0.1107 -0.4826
  720MPD2    C310642   3.678   2.899  13.887  0.0520 -0.0873 -0.7028
  720MPD2    C410643   3.552   2.866  13.941  0.2065 -0.1767  0.7010
  720MPD2    C510644   3.439   2.902  13.872 -0.6382  0.3080 -0.1508
  720MPD2     H10645   3.766   3.000  13.713 -1.0879  2.0067  0.2469
  720MPD2    H110646   3.544   2.813  14.035  1.0044  2.2039  2.1091
  720MPD2    H210647   3.351   2.976  13.691  0.8887  1.7216 -1.1502
  720MPD2    H310648   3.342   2.887  13.917 -1.5302 -1.2384 -2.6123
  720MPD2     N10649   3.806   2.892  13.952  0.3674 -0.2896  0.4411
  720MPD2    H510650   3.886   2.924  13.898  0.8411  0.4020  1.5439
  720MPD2    N110651   3.589   3.028  13.552  0.4158  0.1414 -0.9768
  720MPD2    H710652   3.688   3.046  13.538  1.0206 -2.6940 -0.4329
  721TMC3    C110653   3.965   2.813  14.098 -0.0530 -0.0592  0.5451
  721TMC3    C210654   3.999   2.779  14.229  0.1631 -0.2054 -0.5574
  721TMC3    C310655   4.115   2.709  14.254 -0.3349  0.7376 -0.5622
  721TMC3    C410656   4.050   2.787  14.001 -0.0788  0.0649  0.3452
  721TMC3    C510657   4.166   2.718  14.029  0.7760  0.1591  0.0224
  721TMC3    C610658   4.194   2.669  14.149 -0.5541  0.0650 -0.1008
  721TMC3     C10659   3.829   2.842  14.079  0.7145 -0.3484 -0.1684
  721TMC3     O10660   3.747   2.816  14.167 -0.6812  0.3935 -0.2581
  721TMC3     H10661   3.935   2.818  14.308  0.0510 -0.7754 -0.3629
  721TMC3    H110662   4.030   2.803  13.895 -1.6524 -1.0203  0.4623
  721TMC3    H210663   4.298   2.648  14.169 -0.2098  0.3184 -1.6052
  721TMC3    C710664   4.268   2.694  13.929  1.0436 -0.2410 -1.0647
  721TMC3    C810665   4.185   2.737  14.375  0.5268 -0.0098 -0.2284
  721TMC3    O110666   4.281   2.773  13.835 -0.7072  0.2173  0.0393
  721TMC3    O210667   4.304   2.751  14.379 -0.2151 -0.0916 -0.6087
  722MPD2     C10668   2.234   1.476  13.354 -0.3527  0.5630  0.2219
  722MPD2    C110669   2.225   1.594  13.283  0.1576  0.0478  0.7352
  722MPD2    C210670   2.119   1.616  13.192 -0.1522 -0.7449 -0.4312
  722MPD2    C310671   2.016   1.525  13.173  0.4069 -0.4038  0.5915
  722MPD2    C410672   2.028   1.402  13.240 -0.0176 -0.6771 -0.0948
  722MPD2    C510673   2.137   1.380  13.328  1.1375 -0.5721  0.0466
  722MPD2     H10674   2.103   1.711  13.144 -1.7939  0.3024  2.1847
  722MPD2    H110675   1.950   1.327  13.235  0.7270 -1.4607  0.2311
  722MPD2    H210676   2.309   1.448  13.426 -1.5620  1.6082  1.9063
  722MPD2    H310677   2.122   1.292  13.390 -0.5427 -0.7685 -0.6511
  722MPD2     N10678   1.912   1.574  13.087  0.6949 -0.3175 -0.2227
  722MPD2    H510679   1.914   1.672  13.064  1.0114  0.1090  1.6053
  722MPD2    N110680   2.313   1.702  13.301 -0.3786  0.5106  0.0443
  722MPD2    H710681   2.295   1.783  13.242  0.0669 -0.5064 -1.4903
  723TMC3    C110682   1.707   1.578  12.990 -0.9785 -0.4379  0.0640
  723TMC3    C210683   1.638   1.516  12.885 -0.1407  0.0173 -0.0515
  723TMC3    C310684   1.557   1.592  12.803  0.2203  0.2063  0.2509
  723TMC3    C410685   1.710   1.709  13.001  0.1441  0.3902 -0.5145
  723TMC3    C510686   1.641   1.782  12.908 -1.0723 -0.7614 -0.0978
  723TMC3    C610687   1.555   1.729  12.819 -0.2652 -0.3316  0.3266
  723TMC3     C10688   1.802   1.498  13.051  0.7761  0.2163  0.6505
  723TMC3     O10689   1.794   1.374  13.062 -0.6162  0.1090  0.3948
  723TMC3     H10690   1.640   1.408  12.872  0.8386  0.3264 -2.3882
  723TMC3    H110691   1.750   1.761  13.087  0.4153  2.8215 -2.1041
  723TMC3    H210692   1.503   1.792  12.748 -0.9174 -1.4003 -0.1401
  723TMC3    C710693   1.690   1.915  12.877  0.0157  0.3843 -0.7133
  723TMC3    C810694   1.453   1.522  12.733  0.2112  0.2118  0.2371
  723TMC3    O110695   1.727   1.986  12.971  0.1586  0.1592 -0.1943
  723TMC3    O210696   1.349   1.587  12.720  0.2401  0.0872 -0.7462
  724TMC3    C110697   1.244   0.415   8.962  0.3228 -0.6531  0.3782
  724TMC3    C210698   1.261   0.541   8.908  0.2314 -0.1157 -0.4647
  724TMC3    C310699   1.382   0.604   8.924  1.4838  0.1799 -0.1567
  724TMC3    C410700   1.344   0.363   9.037 -0.0160  0.6134  0.0803
  724TMC3    C510701   1.463   0.435   9.053  0.8081  0.4839 -0.1774
  724TMC3    C610702   1.487   0.557   8.998 -0.6337 -0.3189 -0.0553
  724TMC3     C10703   1.130   0.331   8.949 -0.3574 -0.2633  0.2174
  724TMC3     O10704   1.144   0.220   8.994  0.2243 -0.3505  0.0712
  724TMC3     H10705   1.190   0.571   8.832  0.3895  0.9838 -0.1741
  724TMC3    H110706   1.335   0.262   9.075 -2.9551  0.9018  0.1318
  724TMC3    H210707   1.582   0.607   9.006 -1.7568  2.1401 -2.0830
  724TMC3    C710708   1.571   0.371   9.127 -0.6956 -0.3304 -0.2536
  724TMC3    C810709   1.389   0.733   8.863  0.2011 -0.0032 -0.0160
  724TMC3    O110710   1.567   0.247   9.130  0.1141  0.1282  0.0560
  724TMC3    O210711   1.278   0.783   8.841 -0.1652  0.3753  0.0580
  725TMC3    C110712   3.997   3.422  12.347  0.4658 -0.8607  0.6527
  725TMC3    C210713   3.892   3.458  12.258  0.4021 -0.2088 -0.1766
  725TMC3    C310714   3.849   3.357  12.173  0.1849  0.3291  0.0944
  725TMC3    C410715   4.045   3.295  12.353 -0.4496  0.6112 -0.1755
  725TMC3    C510716   3.989   3.200  12.275 -0.2682  0.6276  0.3014
  725TMC3    C610717   3.894   3.225  12.181  0.3005 -0.5066 -0.3742
  725TMC3     C10718   4.041   3.525  12.441 -0.6966  0.9177 -0.4942
  725TMC3     O10719   4.000   3.633  12.414 -0.1857 -0.8109 -0.5148
  725TMC3     H10720   3.839   3.552  12.270 -0.9067 -1.0393  0.4999
  725TMC3    H110721   4.128   3.274  12.419 -1.7401  0.6587  1.4462
  725TMC3    H210722   3.863   3.155  12.105  1.6071 -0.2972 -1.0890
  725TMC3    C710723   4.046   3.067  12.287 -0.2330 -0.4188 -0.6069
  725TMC3    C810724   3.744   3.384  12.079  0.1105 -0.4868  0.3304
  725TMC3    O110725   4.132   3.045  12.371  0.3357  0.4366 -0.0681
  725TMC3    O210726   3.676   3.284  12.041 -0.0344 -0.4238  0.5108
  726MPD2     C10727   1.666   4.713   9.967 -0.1868 -0.3015  0.4939
  726MPD2    C110728   1.628   0.110  10.025 -0.2350 -0.1998 -0.5030
  726MPD2    C210729   1.508   0.125  10.093 -0.6325  0.0503  0.2872
  726MPD2    C310730   1.416   0.024  10.087 -0.6019 -0.9895  0.5965
  726MPD2    C410731   1.445   4.635  10.021 -1.0356  0.7217 -0.5189
  726MPD2    C510732   1.570   4.612   9.966 -0.3823  0.1729  0.1976
  726MPD2     H10733   1.484   0.227  10.122 -1.3169  0.0083 -0.1311
  726MPD2    H110734   1.375   4.553  10.010  2.3437 -2.0296 -1.4295
  726MPD2    H210735   1.756   4.704   9.908  0.7313  1.8336  1.5709
  726MPD2    H310736   1.590   4.522   9.910 -0.7186 -0.0287  0.4098
  726MPD2     N10737   1.288   0.038  10.143  0.0121  0.2708  0.6512
  726MPD2    H510738   1.211   4.699  10.123 -0.9881  1.9613 -0.8826
  726MPD2    N110739   1.708   0.225  10.022 -0.8474 -0.0449  0.4975
  726MPD2    H710740   1.664   0.312  10.050 -1.4391 -0.3038  0.3502
  727TMC3    C110741   1.925   0.363  10.021  0.1467  0.9296 -0.4328
  727TMC3    C210742   2.052   0.359  10.065 -0.3562 -0.0941 -0.0302
  727TMC3    C310743   2.123   0.478  10.076  0.4233  0.4814 -0.1565
  727TMC3    C410744   1.855   0.478   9.998 -0.0822 -0.0834 -0.4020
  727TMC3    C510745   1.921   0.596  10.010  0.1101 -0.0269 -0.0730
  727TMC3    C610746   2.058   0.596  10.042  0.2709 -0.5576 -0.5507
  727TMC3     C10747   1.853   0.224  10.020 -0.3125  0.1901  0.6626
  727TMC3     O10748   1.924   0.129  10.045 -0.2486  0.2069  0.2873
  727TMC3     H10749   2.114   0.270  10.071  1.6892  1.3195 -0.5603
  727TMC3    H110750   1.755   0.479   9.955  0.2241  1.0194 -1.0819
  727TMC3    H210751   2.116   0.687  10.035  0.3965 -0.4138  2.1117
  727TMC3    C710752   1.849   0.720   9.990  0.8670 -0.2971 -0.1026
  727TMC3    C810753   2.259   0.476  10.124 -0.8146  0.2513 -0.0271
  727TMC3    O110754   1.743   0.718   9.930 -0.0259  0.0329  0.2052
  727TMC3    O210755   2.318   0.368  10.116 -0.0457 -0.3970 -0.1521
  728TMC3    C110756   1.397   3.592  15.485 -0.1095 -1.1304 -0.0198
  728TMC3    C210757   1.503   3.653  15.551 -0.1833 -0.2164  0.6981
  728TMC3    C310758   1.571   3.733  15.464  0.2187 -0.3632  0.8793
  728TMC3    C410759   1.358   3.618  15.351  0.2636  1.0662  0.1939
  728TMC3    C510760   1.433   3.705  15.274  0.3238  0.1330 -0.2665
  728TMC3    C610761   1.546   3.758  15.331 -0.2103 -0.6263  0.0620
  728TMC3     C10762   1.309   3.516  15.570  0.2234  0.4792  0.3551
  728TMC3     O10763   1.299   3.546  15.686 -0.3012 -0.2680 -0.1285
  728TMC3     H10764   1.532   3.650  15.655 -0.6070  0.9672  0.8593
  728TMC3    H110765   1.257   3.596  15.322  0.7183  0.7960 -1.1578
  728TMC3    H210766   1.600   3.837  15.281 -1.3920  0.1218 -0.0086
  728TMC3    C710767   1.418   3.694  15.126 -0.2570  0.2598  0.0310
  728TMC3    C810768   1.656   3.831  15.518 -0.4013  0.1240 -0.6822
  728TMC3    O110769   1.389   3.583  15.088  0.7652  0.2692  0.6541
  728TMC3    O210770   1.747   3.882  15.450 -0.8222 -0.0702 -0.0459
  729MPD2     C10771   3.829   4.297  17.002  0.4469  0.1135  0.0368
  729MPD2    C110772   3.746   4.392  16.944  0.4709 -0.3126  0.2663
  729MPD2    C210773   3.659   4.463  17.027 -0.0928 -0.0762  0.4606
  729MPD2    C310774   3.650   4.442  17.164 -0.4418 -1.1815  0.7850
  729MPD2    C410775   3.746   4.350  17.217 -0.3196 -0.4802 -0.2216
  729MPD2    C510776   3.832   4.276  17.137 -0.6889 -0.3404  0.3113
  729MPD2     H10777   3.604   4.545  16.983  3.1813  0.5928 -2.4116
  729MPD2    H110778   3.754   4.324  17.322  0.6919  0.0093 -0.1767
  729MPD2    H210779   3.897   4.237  16.943  0.3083  1.0268 -1.0611
  729MPD2    H310780   3.896   4.196  17.173  0.5554  0.3225 -0.4216
  729MPD2     N10781   3.566   4.514  17.255 -0.3552 -0.0450 -0.3185
  729MPD2    H510782   3.592   4.508  17.353  1.5026 -0.0755 -0.8223
  729MPD2    N110783   3.756   4.418  16.803 -0.0272  0.1243 -0.2564
  729MPD2    H710784   3.819   4.358  16.751  1.6576  0.7403  1.1003
  730TMC3    C110785   3.403   4.674  17.332  0.0385  0.4241  0.3163
  730TMC3    C210786   3.475   4.683  17.449 -0.4064 -0.1960 -0.5095
  730TMC3    C310787   3.446   0.070  17.526  0.3840 -0.5773 -0.1412
  730TMC3    C410788   3.314   0.052  17.297 -0.0902 -0.1991  0.0646
  730TMC3    C510789   3.287   0.157  17.376  0.0679  0.2203 -0.1015
  730TMC3    C610790   3.347   0.169  17.498 -0.0522  0.5764 -0.3406
  730TMC3     C10791   3.460   4.596  17.225  0.0402 -0.1734  0.4400
  730TMC3     O10792   3.415   4.621  17.113 -0.3855  0.0413 -0.4544
  730TMC3     H10793   3.553   4.616  17.483 -1.1696 -0.2461  1.1513
  730TMC3    H110794   3.259   0.033  17.206 -0.0766  0.0091  0.0129
  730TMC3    H210795   3.326   0.250  17.567 -0.6185  0.5147 -0.4430
  730TMC3    C710796   3.256   0.280  17.306  0.7376 -0.6886 -0.7638
  730TMC3    C810797   3.488   0.047  17.665  0.2152 -0.2725 -0.1257
  730TMC3    O110798   3.193   0.269  17.199 -0.3081 -0.1035 -0.2352
  730TMC3    O210799   3.492   4.654  17.696 -0.0920 -0.3176 -0.3039
  731MPD2     C10800   3.267   2.941  12.178 -0.2947  0.3979  0.3112
  731MPD2    C110801   3.406   2.937  12.184 -0.5762  0.0749  0.6993
  731MPD2    C210802   3.462   2.902  12.307 -0.2800 -0.2579 -0.3859
  731MPD2    C310803   3.389   2.866  12.425 -0.3474 -0.8171 -0.3089
  731MPD2    C410804   3.252   2.888  12.412 -0.0134 -0.0266 -0.2366
  731MPD2    C510805   3.193   2.924  12.292 -0.0439  0.0071  0.0844
  731MPD2     H10806   3.568   2.881  12.300 -0.2379 -0.4263  0.7530
  731MPD2    H110807   3.183   2.862  12.492  1.5155 -1.1273  0.7129
  731MPD2    H210808   3.205   2.969  12.094 -0.8193 -0.9308  0.2654
  731MPD2    H310809   3.085   2.927  12.283  0.1509 -0.2585 -2.2984
  731MPD2     N10810   3.452   2.806  12.534 -0.1601 -0.0290  0.1681
  731MPD2    H510811   3.553   2.817  12.529 -0.4386  1.9777 -1.3571
  731MPD2    N110812   3.473   2.933  12.056 -0.1786  0.6722 -0.1650
  731MPD2    H710813   3.416   2.925  11.973 -0.0501 -0.3719 -0.1450
  732TMC3    C110814   3.657   2.938  11.904  0.0539  0.0306  0.0157
  732TMC3    C210815   3.619   2.818  11.852 -0.1294  0.2398 -0.2760
  732TMC3    C310816   3.706   2.740  11.786  0.2587  0.6730  0.6874
  732TMC3    C410817   3.784   2.977  11.901  0.3131 -0.6635 -0.2326
  732TMC3    C510818   3.868   2.896  11.823 -0.2710 -0.1574  0.2259
  732TMC3    C610819   3.838   2.777  11.774 -0.2429  0.2105 -0.3917
  732TMC3     C10820   3.610   2.960  12.040  0.0608 -0.0158 -0.2831
  732TMC3     O10821   3.690   2.984  12.130  0.6535  0.9134 -0.1228
  732TMC3     H10822   3.512   2.796  11.851 -0.5059  2.1505 -1.9459
  732TMC3    H110823   3.810   3.072  11.947  2.1363 -0.7472 -1.0707
  732TMC3    H210824   3.900   2.742  11.691 -1.4306  0.7700 -1.5118
  732TMC3    C710825   4.008   2.946  11.812  0.1771  0.2193  0.0867
  732TMC3    C810826   3.659   2.631  11.698 -0.1953  0.1578 -0.3766
  732TMC3    O110827   4.017   3.061  11.850 -0.3884  0.0992  0.5341
  732TMC3    O210828   3.749   2.574  11.637 -0.4111 -0.2527  0.1207
  733TMC3    C110829   4.343   1.005  12.861 -0.2843 -0.2106  0.2711
  733TMC3    C210830   4.466   1.018  12.910  0.5520  0.0105 -0.3044
  733TMC3    C310831   4.560   1.044  12.814  0.5947  0.4511 -0.3107
  733TMC3    C410832   4.312   1.010  12.726  0.0231 -0.2185  0.3748
  733TMC3    C510833   4.415   1.022  12.642  0.2654  0.3372  0.7710
  733TMC3    C610834   4.543   1.035  12.682  0.3219  0.1545 -0.3703
  733TMC3     C10835   4.233   1.039  12.946 -0.2255  0.7201  0.1376
  733TMC3     O10836   4.155   1.125  12.904 -0.1196 -0.3008  0.6576
  733TMC3     H10837   4.486   1.022  13.016 -2.3600 -0.1853  0.2648
  733TMC3    H110838   4.213   0.999  12.683 -0.5900 -2.5534  2.4206
  733TMC3    H210839   4.631   1.029  12.619  2.0945 -2.0646  2.2763
  733TMC3    C710840   4.385   1.030  12.505  0.1131 -0.0886  0.0368
  733TMC3    C810841   4.700   1.059  12.857  0.1101  0.0592  0.1118
  733TMC3    O110842   4.270   1.025  12.470 -0.6387 -0.1689 -0.0448
  733TMC3    O210843   0.008   1.012  12.965 -0.1594  0.3330  0.6311
  734MPD2     C10844   1.417   3.750  12.178 -0.4927 -0.4179 -0.8682
  734MPD2    C110845   1.319   3.686  12.103 -0.3133 -0.3367  0.0330
  734MPD2    C210846   1.324   3.693  11.964 -0.9641  0.3427 -0.5628
  734MPD2    C310847   1.424   3.774  11.910 -0.2559 -0.1282 -0.5353
  734MPD2    C410848   1.524   3.829  11.978  0.1236 -0.1951 -0.0574
  734MPD2    C510849   1.521   3.807  12.108 -0.5630 -0.2082  0.6240
  734MPD2     H10850   1.253   3.651  11.893 -1.0208  0.0353 -0.3255
  734MPD2    H110851   1.600   3.898  11.941  0.5699 -0.1120  1.0114
  734MPD2    H210852   1.421   3.758  12.286 -0.3895 -1.3880 -0.7960
  734MPD2    H310853   1.599   3.867  12.153 -2.4184  1.5563  1.4806
  734MPD2     N10854   1.411   3.780  11.767 -0.8433 -0.8091 -0.2639
  734MPD2    H510855   1.324   3.751  11.723  0.5272 -1.5331 -2.5028
  734MPD2    N110856   1.205   3.623  12.170 -0.1154  0.1347  0.2387
  734MPD2    H710857   1.211   3.632  12.271 -2.5478 -0.1376  0.3985
  735TMC3    C110858   1.020   3.469  12.187  0.0389 -0.3004  0.6140
  735TMC3    C210859   0.909   3.424  12.122  0.5474  0.3528  0.0553
  735TMC3    C310860   0.913   3.294  12.076  0.6622 -0.2717 -0.0367
  735TMC3    C410861   1.108   3.379  12.246  0.1564  0.3756  0.2067
  735TMC3    C510862   1.106   3.254  12.208  0.2263  0.0969  0.2657
  735TMC3    C610863   1.009   3.207  12.124  0.2771 -0.0983 -0.3249
  735TMC3     C10864   1.098   3.566  12.101  0.5358  0.6836  0.5854
  735TMC3     O10865   1.061   3.582  11.985  0.4635 -0.4535  0.2597
  735TMC3     H10866   0.832   3.493  12.090  0.0748 -0.5813 -0.8263
  735TMC3    H110867   1.194   3.428  12.291  0.5848 -1.9321  1.9063
  735TMC3    H210868   1.015   3.107  12.081 -0.5687  0.0109 -0.6974
  735TMC3    C710869   1.229   3.181  12.201 -0.1710  0.1216  0.2510
  735TMC3    C810870   0.895   3.283  11.928  0.0166 -0.1503  0.6614
  735TMC3    O110871   1.338   3.239  12.190  0.0013  0.1791  0.4648
  735TMC3    O210872   0.920   3.174  11.879 -0.3330  0.2617  0.6758
  736MPD2     C10873   1.218   2.808  12.256  0.2839  0.3374  0.3357
  736MPD2    C110874   1.271   2.933  12.219  0.3123  0.6245  0.9561
  736MPD2    C210875   1.407   2.934  12.202 -0.2819  0.4911  0.4778
  736MPD2    C310876   1.488   2.819  12.214  0.1716  0.0695 -0.0273
  736MPD2    C410877   1.428   2.703  12.245 -0.0427  0.6087  0.1575
  736MPD2    C510878   1.292   2.695  12.253 -0.3365  0.4313  0.6425
  736MPD2     H10879   1.448   3.032  12.180 -0.8707  0.4220 -0.9094
  736MPD2    H110880   1.480   2.608  12.250  0.8601  1.0943 -0.1293
  736MPD2    H210881   1.112   2.800  12.278  0.5262 -0.8690  1.0363
  736MPD2    H310882   1.242   2.602  12.279  2.0119 -0.6794  1.1382
  736MPD2     N10883   1.624   2.826  12.185 -0.2170 -0.0425  0.3768
  736MPD2    H510884   1.673   2.740  12.209  1.4899  0.6505 -0.5915
  736MPD2    N110885   1.190   3.049  12.217  1.2588  0.2336  0.5814
  736MPD2    H710886   1.093   3.050  12.247  1.1949  1.4866  0.3342
  737TMC3    C110887   1.821   2.885  12.070 -0.0759  0.4078  0.5476
  737TMC3    C210888   1.895   2.989  12.019  0.1864  0.2918  0.0817
  737TMC3    C310889   1.969   2.971  11.904  0.7539  0.6420  0.8360
  737TMC3    C410890   1.823   2.764  12.007  0.2393  0.6014 -0.7528
  737TMC3    C510891   1.916   2.738  11.908  0.1505  0.8379 -0.2759
  737TMC3    C610892   1.992   2.843  11.854 -0.0577  0.1634  0.2316
  737TMC3     C10893   1.695   2.928  12.119  0.0585 -0.0012 -0.6072
  737TMC3     O10894   1.664   3.043  12.090 -0.0238 -0.0406  0.6764
  737TMC3     H10895   1.888   3.088  12.061  0.5371 -0.3296  1.6214
  737TMC3    H110896   1.758   2.685  12.044  0.2238  0.4774 -1.0497
  737TMC3    H210897   2.057   2.824  11.769  1.2105  2.9873  0.5786
  737TMC3    C710898   1.922   2.603  11.857 -0.0532  0.2180 -1.5201
  737TMC3    C810899   2.041   3.079  11.851 -0.0012 -0.5662  0.2450
  737TMC3    O110900   1.849   2.520  11.916  0.1017  0.2927  0.1871
  737TMC3    O210901   2.104   3.144  11.934 -0.0523  0.0081  0.1604
  738MPD2     C10902   2.408   2.019  14.807 -0.2749  0.2975 -0.7793
  738MPD2    C110903   2.520   1.954  14.861  0.0164  0.4026 -0.3493
  738MPD2    C210904   2.648   2.002  14.813  0.4077 -0.2963 -0.9017
  738MPD2    C310905   2.662   2.108  14.727 -0.1798  0.7736  0.4655
  738MPD2    C410906   2.545   2.165  14.683 -0.0063 -0.8251  0.2717
  738MPD2    C510907   2.422   2.125  14.727  0.5709  1.1565  0.5128
  738MPD2     H10908   2.734   1.948  14.850  1.0911  1.6987  0.3749
  738MPD2    H110909   2.554   2.247  14.613 -0.5053 -1.3418 -0.3934
  738MPD2    H210910   2.305   1.991  14.829  0.6783 -2.9811 -0.5886
  738MPD2    H310911   2.333   2.180  14.698  0.6384  0.6253 -0.6576
  738MPD2     N10912   2.785   2.157  14.674  0.1048 -0.2528  0.0889
  738MPD2    H510913   2.778   2.239  14.614 -0.4587 -1.3855 -1.4028
  738MPD2    N110914   2.516   1.851  14.953  0.4688  0.5351  0.3248
  738MPD2    H710915   2.602   1.800  14.974  1.0411  0.6429 -1.7312
  739TMC3    C110916   3.014   2.186  14.650 -0.1538 -0.4509  0.7485
  739TMC3    C210917   3.000   2.197  14.515  1.0262  0.2119  0.2628
  739TMC3    C310918   3.101   2.259  14.447  0.9549  0.6477 -0.3602
  739TMC3    C410919   3.100   2.264  14.721  0.5563  0.1120 -0.1476
  739TMC3    C510920   3.169   2.358  14.646 -0.2734 -0.1281  0.0465
  739TMC3    C610921   3.182   2.349  14.508  0.4285  0.2213 -0.3799
  739TMC3     C10922   2.914   2.108  14.717  0.1752 -1.4659  0.4890
  739TMC3     O10923   2.947   2.014  14.788  0.0803  0.2809 -0.6053
  739TMC3     H10924   2.926   2.131  14.472  3.1603 -0.7483 -1.8920
  739TMC3    H110925   3.091   2.262  14.829 -1.6373  1.3231 -0.3031
  739TMC3    H210926   3.222   2.430  14.448 -2.1836  1.8797  0.1371
  739TMC3    C710927   3.226   2.467  14.719 -0.5637  0.2227  0.8988
  739TMC3    C810928   3.089   2.254  14.303  0.4959 -0.0669  0.1752
  739TMC3    O110929   3.316   2.528  14.661 -0.3017  0.1561 -0.1022
  739TMC3    O210930   2.995   2.187  14.256 -0.2773 -0.2012 -0.1463
  740TMC3    C110931   3.599   3.433  13.757  0.8102 -0.3364 -0.1643
  740TMC3    C210932   3.655   3.377  13.866  0.0940 -0.3202 -0.2792
  740TMC3    C310933   3.773   3.309  13.858 -0.0122 -0.8810  0.5754
  740TMC3    C410934   3.668   3.419  13.635 -0.4541 -0.2652  0.6994
  740TMC3    C510935   3.779   3.342  13.628 -0.9094  0.2534  0.0696
  740TMC3    C610936   3.833   3.289  13.736 -0.0864  0.2153 -0.1058
  740TMC3     C10937   3.453   3.466  13.757  0.6720 -0.5997  0.0225
  740TMC3     O10938   3.414   3.545  13.668 -0.7978 -0.2092 -0.2362
  740TMC3     H10939   3.613   3.400  13.963  0.3041 -0.3374 -0.1842
  740TMC3    H110940   3.615   3.445  13.543  2.0665  0.9886 -0.4031
  740TMC3    H210941   3.916   3.221  13.716  0.4895  0.7502  0.4818
  740TMC3    C710942   3.808   3.282  13.500 -0.0650  0.0770  0.7358
  740TMC3    C810943   3.848   3.266  13.971 -0.0039  0.2382 -0.1665
  740TMC3    O110944   3.849   3.166  13.503 -0.2619  0.8431  0.0084
  740TMC3    O210945   3.968   3.244  13.944 -0.0288 -0.4123  0.4465
  741TMC3    C110946   2.864   2.613  13.958  0.7364  0.5622 -0.5239
  741TMC3    C210947   2.763   2.523  13.985  0.2624 -0.7141 -0.1916
  741TMC3    C310948   2.757   2.477  14.111  0.0374  0.4011 -0.1835
  741TMC3    C410949   2.966   2.640  14.046 -0.0085 -0.0323 -0.6709
  741TMC3    C510950   2.958   2.589  14.173 -0.4969 -0.3437 -0.1640
  741TMC3    C610951   2.859   2.501  14.210 -0.1551  0.0742  0.0611
  741TMC3     C10952   2.862   2.690  13.835  0.4053 -0.6730 -0.1304
  741TMC3     O10953   2.966   2.733  13.793  0.4844  0.5459 -0.3181
  741TMC3     H10954   2.686   2.496  13.914  1.2033  0.7133 -1.7654
  741TMC3    H110955   3.038   2.712  14.008  0.0199 -1.1725 -2.7919
  741TMC3    H210956   2.858   2.469  14.313  0.5039  0.9532  0.3426
  741TMC3    C710957   3.050   2.623  14.280 -0.2773  0.2792 -1.0561
  741TMC3    C810958   2.656   2.377  14.133 -0.0435  0.3805 -0.4799
  741TMC3    O110959   3.029   2.573  14.391 -0.3571 -0.0114  0.1084
  741TMC3    O210960   2.560   2.376  14.058 -0.1118  0.1183 -0.3986
  742TMC3    C110961   2.713   1.110  15.004 -0.9817  0.0845 -0.1498
  742TMC3    C210962   2.606   1.056  14.930 -0.6942  0.0603 -0.2517
  742TMC3    C310963   2.649   0.985  14.820 -0.3076 -0.2210 -0.0575
  742TMC3    C410964   2.843   1.090  14.985 -0.5430  0.6953  0.2925
  742TMC3    C510965   2.873   1.029  14.863  1.1416  0.0148 -0.5677
  742TMC3    C610966   2.778   0.975  14.781  0.4190 -0.3099  0.4861
  742TMC3     C10967   2.664   1.148  15.134  0.0168  0.1220 -0.2295
  742TMC3     O10968   2.550   1.190  15.143  0.6421 -0.7845 -0.0903
  742TMC3     H10969   2.508   1.050  14.975 -0.2823 -0.1063  0.6233
  742TMC3    H110970   2.921   1.138  15.043 -2.0690  0.8126  2.2225
  742TMC3    H210971   2.805   0.914  14.696  0.7443  1.0829 -0.3990
  742TMC3    C710972   3.006   0.969  14.846 -0.1929 -0.7123  0.4194
  742TMC3    C810973   2.546   0.909  14.752 -0.5850  0.2469  0.0137
  742TMC3    O110974   3.014   0.863  14.786  0.7090  0.0647 -0.1267
  742TMC3    O210975   2.583   0.804  14.692  0.5918 -0.1287  0.0819
  743MPD2     C10976   1.096   1.796   1.713  1.0252  0.5590 -0.0106
  743MPD2    C110977   1.119   1.764   1.582  0.1814  0.5955  0.3683
  743MPD2    C210978   1.240   1.709   1.548  0.1463  0.2953 -0.2460
  743MPD2    C310979   1.336   1.672   1.647  0.3849  0.9458  0.6095
  743MPD2    C410980   1.304   1.691   1.778 -0.4300 -0.0172  0.1330
  743MPD2    C510981   1.186   1.759   1.807  0.6551 -0.9072  0.4418
  743MPD2     H10982   1.263   1.687   1.444 -1.0711  1.1400 -0.6952
  743MPD2    H110983   1.376   1.671   1.857 -1.7913 -1.5384  0.9746
  743MPD2    H210984   1.001   1.843   1.737  0.3227  0.1777 -2.0264
  743MPD2    H310985   1.178   1.794   1.909  0.5817  0.1097  0.0833
  743MPD2     N10986   1.464   1.615   1.608  0.4101 -0.5036  0.7819
  743MPD2    H510987   1.482   1.618   1.508 -0.3538  0.0067  0.6525
  743MPD2    N110988   1.022   1.799   1.487 -0.2856  0.0982 -0.2572
  743MPD2    H710989   0.942   1.846   1.528 -1.4976 -1.6953 -0.5467
  744TMC3    C110990   0.922   1.845   1.276  0.0915  0.1965  0.2065
  744TMC3    C210991   0.854   1.947   1.339  0.6225 -0.5103 -0.2510
  744TMC3    C310992   0.753   2.013   1.271  0.0589 -0.1953 -0.3199
  744TMC3    C410993   0.888   1.800   1.155 -0.2945  0.3322  0.7396
  744TMC3    C510994   0.792   1.868   1.085 -0.6456 -0.3473  0.1097
  744TMC3    C610995   0.725   1.977   1.142 -0.3614 -0.4625 -0.7149
  744TMC3     C10996   1.018   1.766   1.357  0.3123  0.4512 -0.0325
  744TMC3     O10997   1.080   1.675   1.300  0.0507  0.2985  0.3726
  744TMC3     H10998   0.881   1.979   1.438 -1.9622 -0.0358  0.3080
  744TMC3    H110999   0.953   1.739   1.093  0.2512  2.2624 -0.5679
  744TMC3    H211000   0.664   2.043   1.081 -2.2848 -1.4185  0.1773
  744TMC3    C711001   0.770   1.835   0.949  0.0847  0.1635  0.3404
  744TMC3    C811002   0.678   2.127   1.323 -0.5939  0.5142 -0.6930
  744TMC3    O111003   0.723   1.915   0.872 -0.2057 -0.0086 -0.1519
  744TMC3    O211004   0.646   2.205   1.232  0.4500 -0.3655  0.3994
  745TMC3    C111005   2.865   0.512  13.392 -0.4219 -0.1476  0.0198
  745TMC3    C211006   2.773   0.504  13.492 -0.4315  0.3643 -0.0139
  745TMC3    C311007   2.648   0.558  13.463 -0.6242 -0.6366 -0.7192
  745TMC3    C411008   2.844   0.602  13.289  0.7349  0.3295 -0.4345
  745TMC3    C511009   2.725   0.681  13.280 -0.6909  0.1769 -0.0598
  745TMC3    C611010   2.619   0.635  13.362  0.0431  0.0273 -0.0732
  745TMC3     C11011   3.003   0.499  13.439 -0.1340 -0.3340 -0.4483
  745TMC3     O11012   3.073   0.430  13.366  0.1719 -0.0532 -0.0046
  745TMC3     H11013   2.783   0.443  13.581 -0.7666 -1.6239 -1.3263
  745TMC3    H111014   2.918   0.619  13.212  0.4620  0.7036 -0.6117
  745TMC3    H211015   2.523   0.684  13.363  0.7380  1.3647  0.8323
  745TMC3    C711016   2.728   0.820  13.244 -0.3489 -0.9612 -0.7262
  745TMC3    C811017   2.565   0.575  13.576  0.3575  0.7141  0.3057
  745TMC3    O111018   2.621   0.874  13.265 -0.1200 -0.3566  0.1735
  745TMC3    O211019   2.446   0.572  13.556  0.1131  0.2198 -0.0151
  746TMC3    C111020   0.568   2.666  10.960  0.1636  0.0551  0.1817
  746TMC3    C211021   0.659   2.619  10.867 -0.1992 -0.4310 -0.6899
  746TMC3    C311022   0.642   2.493  10.817  0.2009 -0.5520  0.2181
  746TMC3    C411023   0.460   2.588  11.003  0.1133  0.1141  0.3759
  746TMC3    C511024   0.450   2.457  10.948 -0.3149 -0.5822  0.3853
  746TMC3    C611025   0.540   2.413  10.856 -0.4929 -0.1651  0.1634
  746TMC3     C11026   0.556   2.814  10.984 -0.1990 -0.2327 -0.0315
  746TMC3     O11027   0.470   2.851  11.066  0.8095  0.4857 -0.3811
  746TMC3     H11028   0.745   2.677  10.835 -0.2300  0.2454  0.4885
  746TMC3    H111029   0.371   2.631  11.049 -0.3175  1.3905 -1.6266
  746TMC3    H211030   0.527   2.319  10.803  4.9894  0.2078 -1.7803
  746TMC3    C711031   0.315   2.412  10.937  0.2086  0.2837 -0.2589
  746TMC3    C811032   0.670   2.470  10.675  0.8438  0.4867 -0.4730
  746TMC3    O111033   0.301   2.358  10.826 -0.5175 -0.1336 -0.1265
  746TMC3    O211034   0.688   2.357  10.633  0.0053 -0.5111  0.1738
  747TMC3    C111035   2.328   2.366  10.928  0.2032 -0.9117 -0.4178
  747TMC3    C211036   2.234   2.364  11.027  0.1815 -0.2501  0.6180
  747TMC3    C311037   2.275   2.352  11.156 -0.0196 -0.3414 -0.5888
  747TMC3    C411038   2.464   2.359  10.957 -0.1666 -0.3274  0.0642
  747TMC3    C511039   2.497   2.345  11.092  0.6508  0.0655 -0.0573
  747TMC3    C611040   2.407   2.341  11.197 -1.0205  0.1817 -0.2614
  747TMC3     C11041   2.286   2.445  10.813  0.4021 -0.2359 -0.3625
  747TMC3     O11042   2.177   2.499  10.822  0.2161 -0.2850  0.3292
  747TMC3     H11043   2.127   2.377  11.015 -0.1860 -1.7559  2.2559
  747TMC3    H111044   2.535   2.390  10.881  0.3282  0.6947  0.9436
  747TMC3    H211045   2.440   2.323  11.298 -3.1064  0.5151  0.4770
  747TMC3    C711046   2.630   2.351  11.133 -0.4261  0.4892 -0.0997
  747TMC3    C811047   2.168   2.330  11.258  0.2929  0.2016 -0.0976
  747TMC3    O111048   2.646   2.409  11.239  0.1028  0.4013 -0.7068
  747TMC3    O211049   2.051   2.337  11.223 -0.2673 -0.1128  0.2006
  748MPD2     C11050   4.408   3.226   1.558 -0.8052  0.2972 -0.1992
  748MPD2    C111051   4.496   3.120   1.582  0.2959 -0.2927  0.5217
  748MPD2    C211052   4.622   3.125   1.526 -0.4964  0.1920 -0.2466
  748MPD2    C311053   4.665   3.230   1.447  0.1617  0.2730  0.6669
  748MPD2    C411054   4.575   3.333   1.429  0.6305  0.1408  0.5725
  748MPD2    C511055   4.447   3.327   1.481  0.4190 -0.5194  0.1603
  748MPD2     H11056   4.685   3.038   1.537 -3.2697 -1.5834  1.5561
  748MPD2    H111057   4.594   3.426   1.377 -0.3199 -0.2793 -0.5140
  748MPD2    H211058   4.312   3.220   1.608 -0.6023 -0.4746  0.1059
  748MPD2    H311059   4.370   3.398   1.454  0.0961  0.0510  2.5568
  748MPD2     N11060   0.072   3.218   1.389 -0.5295  0.6317  0.1894
  748MPD2    H511061   0.134   3.139   1.407 -0.9836  0.1687 -0.2803
  748MPD2    N111062   4.456   3.012   1.664  0.2231 -0.4156  0.2464
  748MPD2    H711063   4.361   3.015   1.700  0.6782 -2.1899  1.6137
  749TMC3    C111064   0.246   3.281   1.253  0.0964 -0.2130 -0.0657
  749TMC3    C211065   0.323   3.183   1.302 -0.5551 -0.1177 -0.4800
  749TMC3    C311066   0.414   3.118   1.225 -0.2964 -0.3992 -0.5958
  749TMC3    C411067   0.262   3.325   1.125  0.4224  0.3442  0.3320
  749TMC3    C511068   0.358   3.261   1.052 -0.3608 -0.2292 -0.2274
  749TMC3    C611069   0.432   3.158   1.097 -0.1718 -0.2582  0.3463
  749TMC3     C11070   0.124   3.317   1.314  0.0603 -0.0918  0.2662
  749TMC3     O11071   0.082   3.423   1.276  0.0941  0.2448  0.5616
  749TMC3     H11072   0.334   3.157   1.406  0.9800 -0.7435 -0.7981
  749TMC3    H111073   0.196   3.396   1.076 -0.0597  0.0044  0.4835
  749TMC3    H211074   0.512   3.118   1.035  1.6041  2.4615  0.8684
  749TMC3    C711075   0.381   3.324   0.920 -0.5795  0.2603 -0.5231
  749TMC3    C811076   0.486   3.004   1.277  0.9843 -0.2751 -0.0744
  749TMC3    O111077   0.339   3.434   0.905  0.4555 -0.2780 -0.5247
  749TMC3    O211078   0.485   2.991   1.400 -0.1557 -0.2187 -0.5305
  750MPD2     C11079   0.630   0.075  10.838 -0.2212  0.3672 -0.7373
  750MPD2    C111080   0.538   0.035  10.932 -0.0751  0.0246 -0.0674
  750MPD2    C211081   0.455   4.656  10.907  0.3492 -0.9085 -0.5430
  750MPD2    C311082   0.459   4.601  10.779  0.4166  0.0686 -0.2846
  750MPD2    C411083   0.545   4.647  10.680 -0.9291  0.0010  0.7462
  750MPD2    C511084   0.630   0.029  10.712 -0.8666 -0.5470 -0.7025
  750MPD2     H11085   0.376   4.632  10.978 -0.7617 -3.4523 -2.6055
  750MPD2    H111086   0.569   4.587  10.592  0.5342  0.2944  0.9563
  750MPD2    H211087   0.700   0.155  10.858 -2.2431  2.0648 -0.3374
  750MPD2    H311088   0.701   0.055  10.634  0.6376  2.0254  1.5378
  750MPD2     N11089   0.380   4.491  10.753 -0.1543 -0.3458 -0.6784
  750MPD2    H511090   0.407   4.440  10.669  0.4657 -0.8448 -0.1786
  750MPD2    N111091   0.551   0.089  11.062  0.1928 -0.3457 -0.1745
  750MPD2    H711092   0.637   0.142  11.075  1.0803 -2.0098  0.7498
  751TMC3    C111093   0.197   4.338  10.761 -0.2383 -0.3827 -0.3036
  751TMC3    C211094   0.069   4.311  10.797 -0.1812  0.4625 -0.1679
  751TMC3    C311095   0.015   4.209  10.725 -0.4966 -0.1702 -0.6669
  751TMC3    C411096   0.279   4.261  10.684  0.0599 -0.0969  0.3774
  751TMC3    C511097   0.229   4.146  10.636  0.5342  0.5444 -0.0966
  751TMC3    C611098   0.094   4.127  10.642 -0.0965 -0.7153  0.0057
  751TMC3     C11099   0.259   4.459  10.815 -0.4137 -0.1627  0.4102
  751TMC3     O11100   0.202   4.514  10.906  0.2496  0.0085  0.7367
  751TMC3     H11101   0.014   4.370  10.869  2.2064  3.8849 -1.1465
  751TMC3    H111102   0.385   4.274  10.669 -0.1763 -0.3445 -1.4986
  751TMC3    H211103   0.044   4.046  10.591  0.4689 -0.7496 -0.4918
  751TMC3    C711104   0.308   4.074  10.542 -0.0292 -0.2262 -0.0390
  751TMC3    C811105   4.608   4.156  10.751 -0.3041  0.2373  0.9855
  751TMC3    O111106   0.429   4.093  10.533 -1.2019  0.1844  0.0009
  751TMC3    O211107   4.558   4.075  10.676 -0.2544  0.2536 -0.5519
  752TMC3    C111108   4.686   4.082  16.783 -0.3005 -0.7147  0.2923
  752TMC3    C211109   4.630   4.088  16.907 -0.2477 -0.1898 -0.5172
  752TMC3    C311110   4.662   3.987  16.999 -0.5320  0.2201 -0.1595
  752TMC3    C411111   0.058   3.990  16.764  0.4516 -0.0065 -0.1755
  752TMC3    C511112   0.088   3.887  16.848 -0.4158 -0.1876 -0.6247
  752TMC3    C611113   0.026   3.885  16.968 -0.1158  0.0032  0.7338
  752TMC3     C11114   4.662   4.189  16.690 -0.0007 -0.6353 -0.0222
  752TMC3     O11115   0.021   4.187  16.599 -0.3719  0.1647 -0.0487
  752TMC3     H11116   4.572   4.177  16.928  0.4766 -0.0928  1.1055
  752TMC3    H111117   0.096   3.981  16.662  0.4860 -2.4706  0.0477
  752TMC3    H211118   0.009   3.792  17.022 -0.3525 -0.7181 -0.5561
  752TMC3    C711119   0.129   3.765  16.785  0.2375  0.1470  0.2698
  752TMC3    C811120   4.575   3.976  17.119 -0.9143  0.1265  0.4820
  752TMC3    O111121   0.137   3.761  16.661  0.3817 -0.0225 -0.0350
  752TMC3    O211122   4.468   4.034  17.120 -0.3949  0.7979 -0.8715
  753TMC3    C111123   1.653   0.996  13.310 -0.0050 -0.6370 -0.0486
  753TMC3    C211124   1.602   0.956  13.433  0.1654 -0.3764  0.2873
  753TMC3    C311125   1.580   0.821  13.449  0.2760  1.1148 -0.5882
  753TMC3    C411126   1.658   0.914  13.201 -0.2110 -0.0798  0.0221
  753TMC3    C511127   1.597   0.788  13.211  0.2573 -0.1871  0.2783
  753TMC3    C611128   1.565   0.738  13.340  0.1781 -0.4847  0.5418
  753TMC3     C11129   1.642   1.135  13.277  0.1952  0.1828  0.1028
  753TMC3     O11130   1.592   1.162  13.169 -0.0657 -0.2657 -0.0768
  753TMC3     H11131   1.596   1.023  13.518  0.1666  0.1590 -0.1285
  753TMC3    H111132   1.679   0.958  13.104 -1.9628  0.7543  0.0336
  753TMC3    H211133   1.529   0.635  13.343 -1.9492  0.2601  0.5439
  753TMC3    C711134   1.587   0.704  13.098 -0.0592 -0.3249 -0.4513
  753TMC3    C811135   1.539   0.782  13.583  0.1323 -0.7065  0.8519
  753TMC3    O111136   1.674   0.699  13.016  0.5665 -0.4141  0.1206
  753TMC3    O211137   1.437   0.718  13.584 -0.5258  0.3340 -0.4682
  754MPD2     C11138   0.331   4.185  13.031  0.3571 -0.2124  0.1148
  754MPD2    C111139   0.212   4.116  13.039  0.0569  0.1539  0.7988
  754MPD2    C211140   0.129   4.126  12.933  0.1294 -0.4077 -0.3500
  754MPD2    C311141   0.156   4.185  12.818 -0.0440 -0.0814 -0.6064
  754MPD2    C411142   0.274   4.257  12.818 -0.4994  0.0154 -0.5936
  754MPD2    C511143   0.362   4.250  12.921  0.1648  0.4070 -0.1617
  754MPD2     H11144   0.038   4.069  12.947 -1.4538  2.0539 -0.7381
  754MPD2    H111145   0.311   4.310  12.731 -2.3899  0.8894 -0.8754
  754MPD2    H211146   0.405   4.186  13.110 -0.3742 -0.1652  0.7981
  754MPD2    H311147   0.454   4.307  12.911 -0.7365  1.7540 -0.7056
  754MPD2     N11148   0.055   4.217  12.727  0.3766 -0.0638  0.6985
  754MPD2    H511149   0.055   4.301  12.671  0.0589 -0.4757  0.0763
  754MPD2    N111150   0.181   4.054  13.156  0.2733  0.5786  0.0516
  754MPD2    H711151   0.251   4.043  13.229  0.3999 -0.4777 -0.2252
  755MPD2     C11152   4.370   0.224  12.936  0.5073 -0.0118  0.1416
  755MPD2    C111153   4.299   0.122  12.991 -0.0963  0.9359  0.3049
  755MPD2    C211154   4.311   4.715  12.944  1.0171 -0.6564 -0.0425
  755MPD2    C311155   4.396   4.687  12.837  0.5708  0.1494 -0.1353
  755MPD2    C411156   4.471   0.070  12.787  0.6844 -0.2361  0.6277
  755MPD2    C511157   4.457   0.201  12.831  0.1891  0.3153  0.2066
  755MPD2     H11158   4.256   4.634  12.990  1.6866 -2.4324 -2.3365
  755MPD2    H111159   4.539   0.044  12.706  0.6976  1.7637 -0.0108
  755MPD2    H211160   4.354   0.324  12.973 -0.6838  0.2079 -0.9697
  755MPD2    H311161   4.512   0.284  12.787  1.0607 -0.1737  0.3676
  755MPD2     N11162   4.409   4.557  12.778  0.4465  0.6572 -0.1261
  755MPD2    H511163   4.486   4.536  12.715  2.4941  0.3281  2.4387
  755MPD2    N111164   4.230   0.139  13.115 -0.1003 -0.7016  0.2404
  755MPD2    H711165   4.205   0.053  13.163  2.3691 -0.6344  1.6233
  756MPD2     C11166   0.062   0.956   9.716 -0.8069  0.2165  0.1225
  756MPD2    C111167   0.110   0.973   9.590 -0.3454 -0.8382 -0.3504
  756MPD2    C211168   0.049   0.895   9.497  0.3680 -0.2374 -0.3966
  756MPD2    C311169   4.661   0.818   9.520  0.3531  0.1608  0.1964
  756MPD2    C411170   4.629   0.795   9.652 -0.0042  0.2139  0.5926
  756MPD2    C511171   4.697   0.860   9.749 -0.6229 -0.3387 -0.1191
  756MPD2     H11172   0.087   0.904   9.396 -0.6924  3.0214 -0.5135
  756MPD2    H111173   4.546   0.740   9.696 -1.3553  0.9082 -1.0768
  756MPD2    H211174   0.106   1.012   9.798  1.8172 -1.1944 -0.3361
  756MPD2    H311175   4.657   0.868   9.850  1.2544 -4.8094  0.9785
  756MPD2     N11176   4.586   0.780   9.408 -0.3724  0.1698 -0.0775
  756MPD2    H511177   4.617   0.816   9.319  2.0478 -0.8991  0.3073
  756MPD2    N111178   0.226   1.041   9.552 -0.0347 -0.5245 -0.3895
  756MPD2    H711179   0.255   1.042   9.455  1.0965  1.4174 -0.0325
  757MPD2     C11180   3.846   0.088   9.419  0.2850 -0.1319 -0.1020
  757MPD2    C111181   3.978   0.097   9.472 -0.0172  0.2926 -0.0192
  757MPD2    C211182   4.059   0.206   9.447 -0.2035  0.1108  0.5356
  757MPD2    C311183   4.021   0.305   9.349  0.9082 -0.0703  0.2657
  757MPD2    C411184   3.898   0.290   9.291  0.9507  0.0733 -0.0257
  757MPD2    C511185   3.815   0.184   9.325 -0.0431 -0.1848 -0.7084
  757MPD2     H11186   4.151   0.216   9.503  1.0171 -1.5247 -1.1561
  757MPD2    H111187   3.858   0.363   9.222  2.2255  2.4259  1.7202
  757MPD2    H211188   3.776   0.008   9.434 -1.8684  1.4610 -1.6414
  757MPD2    H311189   3.727   0.181   9.261 -0.3572 -2.7413 -0.1599
  757MPD2     N11190   4.117   0.406   9.315 -0.2319 -0.0946  0.4538
  757MPD2    H511191   4.204   0.416   9.367 -0.7217 -0.6613  1.3735
  757MPD2    N111192   4.017   4.722   9.566  0.3162  0.1065  0.1991
  757MPD2    H711193   3.949   4.654   9.598  1.0181  0.0986  1.6459
  758MPD2     C11194   0.391   4.137  15.558 -0.6042 -0.2867 -0.6492
  758MPD2    C111195   0.407   4.035  15.643 -0.0606  0.2116 -0.2991
  758MPD2    C211196   0.345   4.036  15.767 -0.1433 -0.1353 -0.3328
  758MPD2    C311197   0.288   4.151  15.817  0.1342  0.1139 -0.8776
  758MPD2    C411198   0.264   4.259  15.725  0.0014 -0.2803  0.0330
  758MPD2    C511199   0.321   4.248  15.601 -0.2496 -0.1114  0.4841
  758MPD2     H11200   0.345   3.944  15.825 -2.2184  1.0964  1.6536
  758MPD2    H111201   0.234   4.361  15.749  0.3307 -0.3001  0.5083
  758MPD2    H211202   0.439   4.160  15.464  1.4127 -0.2739  0.3943
  758MPD2    H311203   0.309   4.334  15.536  4.7148  0.9819  0.9718
  758MPD2     N11204   0.236   4.164  15.946  0.8589 -0.0042  0.2124
  758MPD2    H511205   0.177   4.245  15.964  0.4148 -0.6676  1.7163
  758MPD2    N111206   0.476   3.919  15.597 -0.0157 -0.3227 -0.1306
  758MPD2    H711207   0.511   3.915  15.501  2.8229  1.3137  0.8273
  759MPD2     C11208   3.395   3.069   9.731 -0.2610  0.3037  0.5912
  759MPD2    C111209   3.444   2.953   9.797  1.0861  0.7404  0.3995
  759MPD2    C211210   3.584   2.924   9.794  0.2627  0.4059 -0.0712
  759MPD2    C311211   3.666   3.018   9.729 -0.5188 -0.0026 -0.6947
  759MPD2    C411212   3.621   3.128   9.662  0.1168  0.1921 -0.5929
  759MPD2    C511213   3.486   3.150   9.670 -0.4765  0.4336  0.2193
  759MPD2     H11214   3.627   2.843   9.851 -1.4045 -0.7454 -0.4618
  759MPD2    H111215   3.684   3.203   9.617  1.3139 -0.6100 -0.2685
  759MPD2    H211216   3.290   3.093   9.733  0.0218  1.5962 -0.6045
  759MPD2    H311217   3.446   3.244   9.633 -0.8161 -0.7631 -2.4053
  759MPD2     N11218   3.805   2.993   9.725  1.1099  0.1819 -0.1251
  759MPD2    H511219   3.831   2.915   9.783 -1.9948  0.6939  1.9230
  759MPD2    N111220   3.354   2.859   9.863  0.1422 -0.1721  0.5534
  759MPD2    H711221   3.397   2.785   9.917 -1.6049 -0.5757  1.4198
  760MPD2     C11222   3.432   4.577  11.085 -0.5108 -0.3628 -0.0674
  760MPD2    C111223   3.538   4.620  11.157 -0.1923 -0.5869 -0.1490
  760MPD2    C211224   3.551   4.579  11.290 -0.0018  0.3862 -0.2092
  760MPD2    C311225   3.461   4.490  11.352 -0.1518  0.5129 -0.3412
  760MPD2    C411226   3.356   4.454  11.278  0.3102  0.7867 -0.0754
  760MPD2    C511227   3.339   4.500  11.149  0.1764 -0.7438  0.7816
  760MPD2     H11228   3.639   4.616  11.340 -0.2046 -1.4910  1.5192
  760MPD2    H111229   3.274   4.396  11.319  0.9087 -0.6187 -0.8658
  760MPD2    H211230   3.412   4.601  10.981 -1.4855  0.5519  0.3275
  760MPD2    H311231   3.253   4.459  11.095 -0.6501 -0.4882  1.9061
  760MPD2     N11232   3.476   4.423  11.476 -0.0490 -0.3220 -0.4291
  760MPD2    H511233   3.406   4.359  11.512 -1.2714 -0.1932 -2.5524
  760MPD2    N111234   3.636   4.703  11.096 -0.1627  0.4040  0.4653
  760MPD2    H711235   3.722   4.724  11.146  0.6160  0.1523 -0.7839
  761MPD2     C11236   4.412   3.874  11.126  0.3156  0.3532  0.0170
  761MPD2    C111237   4.425   3.845  10.990  0.2402  0.1967 -0.0607
  761MPD2    C211238   4.476   3.942  10.908  0.0102 -0.5485  0.2816
  761MPD2    C311239   4.521   4.066  10.961  0.2865  0.2689  0.2437
  761MPD2    C411240   4.498   4.089  11.093 -0.7732  0.5893 -0.3239
  761MPD2    C511241   4.450   3.992  11.171  0.0894 -0.0231 -0.0788
  761MPD2     H11242   4.490   3.916  10.804 -0.9971 -2.2852  0.5721
  761MPD2    H111243   4.534   4.181  11.138 -1.1427  0.7575 -0.3707
  761MPD2    H211244   4.367   3.809  11.201  2.2243  1.1200  1.8183
  761MPD2    H311245   4.433   4.009  11.276 -3.6066 -1.3035 -0.4294
  761MPD2     N11246   4.588   4.163  10.887  0.2629  0.6747 -0.3152
  761MPD2    H511247   4.637   4.235  10.938 -2.5989  0.9218  2.0404
  761MPD2    N111248   4.400   3.715  10.934  0.0108  0.1696  0.7041
  761MPD2    H711249   4.384   3.635  10.994 -1.0269 -1.0499 -1.2156
  762MPD2     C11250   0.244   3.726  10.713 -0.4241  0.3125  0.9853
  762MPD2    C111251   0.211   3.595  10.695 -0.6753  0.8470  0.1794
  762MPD2    C211252   0.300   3.511  10.632  0.3304  0.4512 -0.6924
  762MPD2    C311253   0.425   3.553  10.579  0.7384 -0.1028 -0.1912
  762MPD2    C411254   0.457   3.684  10.613  1.0187  0.2854  0.3653
  762MPD2    C511255   0.372   3.768  10.684 -0.7531 -0.3314  0.4571
  762MPD2     H11256   0.267   3.412  10.603 -2.2040  0.1889  3.1745
  762MPD2    H111257   0.555   3.723  10.585  1.2414 -0.5934 -0.0666
  762MPD2    H211258   0.190   3.790  10.781 -2.4244  0.0252 -0.3247
  762MPD2    H311259   0.405   3.867  10.710  1.5648 -0.5015 -1.7948
  762MPD2     N11260   0.491   3.477  10.484 -0.3390 -0.0564 -0.2719
  762MPD2    H511261   0.447   3.397  10.439 -1.3936  0.9614 -1.0806
  762MPD2    N111262   0.079   3.556  10.721 -0.1072  0.1091 -0.2218
  762MPD2    H711263   0.010   3.628  10.740 -0.3148  0.4780 -2.2910
  763MPD2     C11264   2.323   3.585  15.616 -0.2515 -0.6826  0.3562
  763MPD2    C111265   2.287   3.716  15.579  0.7644  0.3049  0.1057
  763MPD2    C211266   2.282   3.816  15.676  0.4487  0.2171  0.1492
  763MPD2    C311267   2.318   3.795  15.807 -0.0721 -0.2356 -0.3209
  763MPD2    C411268   2.354   3.665  15.837  1.0334  0.6989  0.0957
  763MPD2    C511269   2.359   3.562  15.747  0.8733 -0.2628 -0.2149
  763MPD2     H11270   2.258   3.915  15.637  0.6409 -0.6664 -2.2225
  763MPD2    H111271   2.393   3.638  15.934  0.2530  0.5175  0.3563
  763MPD2    H211272   2.340   3.509  15.540  0.9160 -1.5879  1.5217
  763MPD2    H311273   2.423   3.476  15.764 -0.0035 -0.5640  1.5257
  763MPD2     N11274   2.334   3.905  15.900 -1.0190 -0.2056  0.0397
  763MPD2    H511275   2.292   3.990  15.862 -2.4762 -0.6824  0.5938
  763MPD2    N111276   2.277   3.749  15.441  0.5508 -0.0940  0.2538
  763MPD2    H711277   2.248   3.845  15.424 -0.9468 -0.8258 -1.3690
  764MPD2     C11278   0.290   1.038  17.198 -0.4349  0.3144  0.0205
  764MPD2    C111279   0.177   0.967  17.168 -0.6446  0.2274  0.0954
  764MPD2    C211280   0.136   0.867  17.266 -0.4349 -0.5526  0.4943
  764MPD2    C311281   0.202   0.853  17.386  0.3188  0.1581 -0.7696
  764MPD2    C411282   0.323   0.921  17.395  0.1251  0.1386  0.0872
  764MPD2    C511283   0.361   1.014  17.310  1.2161 -0.1994 -0.3260
  764MPD2     H11284   0.038   0.823  17.252 -0.4460 -0.1715 -0.5916
  764MPD2    H111285   0.391   0.890  17.474  0.8586  0.8847 -0.2370
  764MPD2    H211286   0.331   1.105  17.124  1.1478  0.4479  1.0210
  764MPD2    H311287   0.450   1.071  17.336  0.1717  0.0866  2.5857
  764MPD2     N11288   0.143   0.772  17.492 -0.3477 -0.3466  0.6014
  764MPD2    H511289   0.054   0.730  17.466 -0.0573  0.4744 -1.6416
  764MPD2    N111290   0.122   0.978  17.033 -0.6869 -0.2607  0.5125
  764MPD2    H711291   0.152   1.059  16.980  1.2372 -1.9848 -1.0182
  765MPD2     C11292   4.701   2.819  15.383  0.1338 -0.0613  0.4332
  765MPD2    C111293   0.027   2.947  15.400 -0.3256 -0.3091 -0.2464
  765MPD2    C211294   0.136   2.977  15.318 -0.8802 -0.1578 -0.6443
  765MPD2    C311295   0.202   2.893  15.234 -0.0430  0.4240 -0.4203
  765MPD2    C411296   0.157   2.763  15.223  0.0966 -0.5930  0.5339
  765MPD2    C511297   0.042   2.734  15.297 -0.1218  0.1217  0.2342
  765MPD2     H11298   0.184   3.071  15.344 -1.3137 -0.3626  0.8590
  765MPD2    H111299   0.204   2.687  15.163 -0.4279  0.5629 -1.3458
  765MPD2    H211300   4.616   2.779  15.438 -0.4075  0.8172  0.2441
  765MPD2    H311301   4.722   2.635  15.294  0.0931 -0.0047  1.2242
  765MPD2     N11302   0.330   2.938  15.179 -0.0257  0.0697 -0.3402
  765MPD2    H511303   0.346   3.038  15.188 -2.0288  0.4975 -1.5361
  765MPD2    N111304   4.688   3.034  15.492  0.3207 -0.6126  0.1819
  765MPD2    H711305   4.597   3.007  15.529 -0.0503  1.4943  0.8476
  766MPD2     C11306   4.115   3.301  15.252  0.3821  0.1140  0.2915
  766MPD2    C111307   4.251   3.285  15.247  0.5051  0.3905  0.9071
  766MPD2    C211308   4.315   3.259  15.126  0.1119 -0.3126  0.0721
  766MPD2    C311309   4.243   3.265  15.009 -0.5805  0.4310  0.1867
  766MPD2    C411310   4.108   3.290  15.020 -0.0471  0.2394 -0.0369
  766MPD2    C511311   4.042   3.298  15.138 -0.1062  0.0020  0.1917
  766MPD2     H11312   4.421   3.237  15.120  0.7880  2.6778  1.1431
  766MPD2    H111313   4.054   3.306  14.928 -0.9026 -1.6628  0.1256
  766MPD2    H211314   4.069   3.312  15.349 -0.2297 -0.9547  0.1164
  766MPD2    H311315   3.935   3.313  15.147 -0.0875  1.6404 -2.5293
  766MPD2     N11316   4.301   3.246  14.873  0.1779 -0.4915  0.1943
  766MPD2    H511317   4.234   3.251  14.797 -0.9078 -3.7983  0.9640
  766MPD2    N111318   4.330   3.300  15.361  0.9494 -0.2717 -0.2932
  766MPD2    H711319   4.429   3.297  15.343  1.4437  0.6574  2.2509
  767MPD2     C11320   3.915   3.604  14.890 -0.3670 -0.4031  0.3747
  767MPD2    C111321   4.039   3.596  14.854  0.2358  0.2676  0.1847
  767MPD2    C211322   4.071   3.537  14.727  0.0554 -0.1854 -0.7710
  767MPD2    C311323   3.963   3.524  14.640 -0.4034 -0.9630  0.1043
  767MPD2    C411324   3.834   3.536  14.684  0.1179 -0.6663  0.3269
  767MPD2    C511325   3.814   3.573  14.812 -0.2593  0.0083  0.0276
  767MPD2     H11326   4.174   3.512  14.705 -1.1837 -2.6180 -3.8058
  767MPD2    H111327   3.746   3.537  14.620  0.2644 -3.2656  0.0708
  767MPD2    H211328   3.899   3.648  14.988 -0.4566 -0.7717  0.5292
  767MPD2    H311329   3.712   3.604  14.832  0.0031  0.3354  0.8596
  767MPD2     N11330   3.989   3.494  14.499 -0.0206  1.0332 -0.6433
  767MPD2    H511331   4.087   3.485  14.476  0.8329  0.6955  3.0141
  767MPD2    N111332   4.137   3.628  14.944 -0.0752 -0.1708  0.3415
  767MPD2    H711333   4.113   3.645  15.041  0.1650 -0.7376  0.5003
  768MPD2     C11334   0.249   2.350  10.313 -0.0416 -0.2929 -0.9648
  768MPD2    C111335   0.182   2.275  10.408  0.8162  0.7201 -0.0243
  768MPD2    C211336   0.256   2.188  10.493 -0.7945  0.0644  0.0368
  768MPD2    C311337   0.395   2.181  10.487  0.7200  0.2168  0.3902
  768MPD2    C411338   0.459   2.258  10.394  0.7171 -0.1360  1.2961
  768MPD2    C511339   0.389   2.339  10.308  1.1881 -0.4292 -0.4343
  768MPD2     H11340   0.201   2.132  10.567 -0.4611 -0.3500 -0.0271
  768MPD2    H111341   0.565   2.249  10.372  0.8965 -0.3750  2.2531
  768MPD2    H211342   0.210   2.430  10.251  0.6592  1.7832  1.2717
  768MPD2    H311343   0.441   2.388  10.226  0.4569  2.9329  1.1527
  768MPD2     N11344   0.478   2.103  10.572  0.0239 -0.0879 -0.0244
  768MPD2    H511345   0.580   2.111  10.572  0.1011 -1.0629 -0.1793
  768MPD2    N111346   0.044   2.268  10.419 -0.6759  0.1894 -0.3915
  768MPD2    H711347   0.011   2.186  10.470 -1.3860  1.3096  0.9550
  769MPD2     C11348   1.373   0.195  14.581 -0.3006 -0.0192 -0.0665
  769MPD2    C111349   1.329   0.118  14.685  0.1638  0.1095 -0.0528
  769MPD2    C211350   1.407   0.101  14.796  0.0108 -0.2113  0.4924
  769MPD2    C311351   1.533   0.167  14.802 -0.0443  0.4048  0.4917
  769MPD2    C411352   1.574   0.249  14.697 -0.6726  0.0180 -0.4349
  769MPD2    C511353   1.496   0.269  14.586 -0.0241  0.0755  0.0730
  769MPD2     H11354   1.373   0.056  14.888 -1.8325 -2.0682 -1.1114
  769MPD2    H111355   1.665   0.308  14.698 -1.3966  1.1153  0.5481
  769MPD2    H211356   1.315   0.200  14.490 -1.0069  3.9581  0.5965
  769MPD2    H311357   1.541   0.332  14.510 -1.7112 -0.5568 -1.4292
  769MPD2     N11358   1.608   0.165  14.923 -0.1490 -0.1298  0.5778
  769MPD2    H511359   1.588   0.089  14.988 -2.1941  0.0383  0.1429
  769MPD2    N111360   1.200   0.050  14.673  0.0754  0.1357 -0.1309
  769MPD2    H711361   1.148   0.057  14.586 -0.7127 -0.6996  0.2776
  770MPD2     C11362   1.021   3.730  14.789  0.8958 -0.7854 -0.5778
  770MPD2    C111363   0.910   3.769  14.716 -0.2253 -0.1095 -0.5794
  770MPD2    C211364   0.899   3.904  14.685  0.5166  1.0914  0.6274
  770MPD2    C311365   0.993   4.000  14.736  0.4563  1.3387  0.2630
  770MPD2    C411366   1.099   3.955  14.811  0.4073 -0.0817  0.5109
  770MPD2    C511367   1.111   3.822  14.841  0.0713  0.2603 -0.0849
  770MPD2     H11368   0.810   3.944  14.637 -0.4309  0.0034  1.4649
  770MPD2    H111369   1.175   4.023  14.846 -2.1766  2.6615  0.8022
  770MPD2    H211370   1.047   3.626  14.803 -0.6783 -1.0647  0.2946
  770MPD2    H311371   1.196   3.793  14.901  0.4282  1.3302 -0.0655
  770MPD2     N11372   0.969   4.138  14.714  0.5183 -0.0575 -0.1263
  770MPD2    H511373   0.884   4.160  14.663  1.3528  1.6336 -0.7832
  770MPD2    N111374   0.827   3.668  14.675  0.1066 -0.2935 -0.0273
  770MPD2    H711375   0.863   3.576  14.699 -0.7073 -0.5938  0.0325
  771MPD2     C11376   2.176   2.759  13.565  0.9001  0.8212  0.1804
  771MPD2    C111377   2.143   2.882  13.515  0.7921 -0.8710  0.7363
  771MPD2    C211378   2.064   2.884  13.401 -0.0179 -0.1780 -0.3923
  771MPD2    C311379   2.014   2.764  13.345  0.1821  0.6839  0.2643
  771MPD2    C411380   2.040   2.639  13.408  0.5845  0.1052  0.0897
  771MPD2    C511381   2.128   2.640  13.514 -0.9723  0.0170 -0.3988
  771MPD2     H11382   2.031   2.979  13.361  0.6685 -0.8553 -2.5819
  771MPD2    H111383   2.004   2.542  13.376  0.6268 -0.7051  2.4759
  771MPD2    H211384   2.237   2.753  13.655 -0.4039 -1.5040  0.9003
  771MPD2    H311385   2.148   2.543  13.558 -0.5001 -0.3439 -1.4083
  771MPD2     N11386   1.933   2.767  13.227  0.4096 -0.4375 -0.0263
  771MPD2    H511387   1.920   2.859  13.185 -3.6477 -1.5345 -1.1491
  771MPD2    N111388   2.177   3.004  13.581  0.6858  0.5136 -0.3483
  771MPD2    H711389   2.129   3.084  13.540 -1.1288 -0.4856 -0.1752
  772MPD2     C11390   1.888   3.619  13.892  0.9241  0.8196 -0.5693
  772MPD2    C111391   1.872   3.491  13.845  0.2822  0.1818  0.0842
  772MPD2    C211392   1.749   3.431  13.868 -0.3019  0.6416 -0.0111
  772MPD2    C311393   1.649   3.493  13.934 -0.1103  0.3263 -0.2994
  772MPD2    C411394   1.671   3.619  13.977  0.3963 -0.1243 -0.0328
  772MPD2    C511395   1.790   3.682  13.960 -0.0419  0.5840  0.0518
  772MPD2     H11396   1.733   3.332  13.828  2.3386  0.2729 -0.1413
  772MPD2    H111397   1.596   3.684  14.022  0.5819  1.3935 -1.8801
  772MPD2    H211398   1.979   3.676  13.884  0.8076  1.0329 -0.3913
  772MPD2    H311399   1.813   3.779  14.002 -0.4424  1.0945 -0.8998
  772MPD2     N11400   1.522   3.430  13.965 -0.1678 -0.1164  0.2734
  772MPD2    H511401   1.459   3.499  14.006 -0.6673 -0.9455  0.8950
  772MPD2    N111402   1.978   3.425  13.774  0.5459  0.0422 -0.1941
  772MPD2    H711403   1.950   3.332  13.747 -1.0133 -0.2148  2.3576
  773MPD2     C11404   1.176   4.340  17.418  0.6335  0.3406  0.0084
  773MPD2    C111405   1.104   4.235  17.365  0.5884  0.5446 -1.0241
  773MPD2    C211406   1.100   4.114  17.427 -0.6419 -0.1954 -0.3176
  773MPD2    C311407   1.185   4.090  17.533 -0.1684  0.5064 -0.3382
  773MPD2    C411408   1.265   4.190  17.587 -0.1989  0.4022 -0.1350
  773MPD2    C511409   1.264   4.311  17.521 -0.7776 -0.3055  0.3898
  773MPD2     H11410   1.037   4.034  17.391 -0.0901 -0.2338 -1.2188
  773MPD2    H111411   1.326   4.197  17.676  0.4448 -0.8586 -0.4825
  773MPD2    H211412   1.176   4.436  17.368  1.7035  0.2359 -0.1825
  773MPD2    H311413   1.310   4.395  17.571  2.6888 -2.2592  0.4907
  773MPD2     N11414   1.175   3.957  17.588 -0.4546  0.5937 -0.0765
  773MPD2    H511415   1.090   3.909  17.559 -0.6585  0.0278  1.4501
  773MPD2    N111416   1.015   4.252  17.255 -0.3493 -0.0921  0.2728
  773MPD2    H711417   0.963   4.167  17.234  1.9704 -1.5821  0.5805
  774MPD2     C11418   4.529   3.168  13.462 -0.4392 -0.1518 -0.1471
  774MPD2    C111419   4.650   3.218  13.507 -0.2012 -0.0145  0.2178
  774MPD2    C211420   4.689   3.349  13.486  0.2545 -0.1017  0.4011
  774MPD2    C311421   4.596   3.439  13.439 -0.0847 -0.2913 -0.0243
  774MPD2    C411422   4.481   3.396  13.390 -0.1214 -0.0682 -0.0924
  774MPD2    C511423   4.445   3.263  13.405 -0.1180  0.7805 -0.3115
  774MPD2     H11424   0.060   3.381  13.525 -0.1712 -0.0085  1.3805
  774MPD2    H111425   4.416   3.470  13.346  1.0496  1.1494  0.1917
  774MPD2    H211426   4.497   3.064  13.469  0.6193 -0.4670  0.0016
  774MPD2    H311427   4.357   3.229  13.352  0.1446  0.9943 -0.8834
  774MPD2     N11428   4.623   3.581  13.429  0.1756 -0.0325 -0.1848
  774MPD2    H511429   4.562   3.640  13.373  1.3745  0.8746 -0.5306
  774MPD2    N111430   0.017   3.117  13.542  0.1323 -0.3486  0.1795
  774MPD2    H711431   4.706   3.024  13.520  3.9080 -1.6267 -0.4351
  775MPD2     C11432   1.877   4.630  15.611  0.3819 -0.5351  0.0649
  775MPD2    C111433   1.848   0.027  15.673 -0.3935 -0.4813 -0.6445
  775MPD2    C211434   1.940   0.126  15.669 -0.3096 -0.2834 -0.6368
  775MPD2    C311435   2.058   0.111  15.593  0.2713  0.4563 -0.9497
  775MPD2    C411436   2.082   4.719  15.534  0.2984  0.0826  0.1585
  775MPD2    C511437   1.995   4.615  15.545 -0.3163  0.5920 -0.9709
  775MPD2     H11438   1.924   0.222  15.718 -2.7441 -0.5761 -0.9104
  775MPD2    H111439   2.168   4.703  15.470  0.3005  0.2330  0.1238
  775MPD2    H211440   1.824   4.539  15.638 -0.1608 -0.5243 -0.9807
  775MPD2    H311441   2.028   4.516  15.515 -2.2181 -0.5464  0.7375
  775MPD2     N11442   2.149   0.212  15.582  0.0092  0.4110  0.0581
  775MPD2    H511443   2.213   0.201  15.504 -1.4953  1.0554 -1.2756
  775MPD2    N111444   1.719   0.053  15.723  0.1618 -0.0821 -0.2299
  775MPD2    H711445   1.651   4.703  15.728 -0.3971  0.3610 -1.1872
  776MPD2     C11446   0.913   0.463  11.730 -0.6698  0.3595 -0.5287
  776MPD2    C111447   0.858   0.472  11.602 -0.0207  0.7852 -0.4748
  776MPD2    C211448   0.859   0.594  11.534  0.1209 -0.2045 -1.1631
  776MPD2    C311449   0.910   0.706  11.597 -0.9334 -0.0619 -0.3552
  776MPD2    C411450   0.977   0.690  11.724  0.6255  0.1381  0.4506
  776MPD2    C511451   0.979   0.567  11.783 -1.0090  0.0498  0.3401
  776MPD2     H11452   0.815   0.603  11.435 -1.6662  0.4489 -0.3233
  776MPD2    H111453   1.017   0.777  11.776 -0.7972  1.5065 -0.7580
  776MPD2    H211454   0.906   0.370  11.784  0.2004  1.7395  1.9599
  776MPD2    H311455   1.017   0.559  11.884 -1.1994 -0.7681  0.3483
  776MPD2     N11456   0.913   0.833  11.529  0.0073 -0.3849 -0.2368
  776MPD2    H511457   0.948   0.912  11.581  0.0650 -0.4343 -0.2006
  776MPD2    N111458   0.811   0.349  11.549  0.5532  0.8928  0.3180
  776MPD2    H711459   0.818   0.275  11.618 -0.4837  1.2404  0.7986
  777MPD2     C11460   1.456   2.260   0.460 -0.0005  0.2783  0.3577
  777MPD2    C111461   1.327   2.248   0.514 -0.6862  0.4824 -0.1622
  777MPD2    C211462   1.236   2.162   0.461 -0.2203 -0.6897  0.7779
  777MPD2    C311463   1.285   2.073   0.362 -0.2622 -0.3652  0.2881
  777MPD2    C411464   1.418   2.075   0.318 -0.2724  0.0235  0.3219
  777MPD2    C511465   1.499   2.166   0.374 -0.1343  0.3510 -0.5441
  777MPD2     H11466   1.131   2.162   0.489  0.0800 -0.9944  1.9065
  777MPD2    H111467   1.458   1.996   0.255 -1.6772  0.0223 -0.5908
  777MPD2    H211468   1.528   2.334   0.494 -0.7721  0.5248  1.4653
  777MPD2    H311469   1.605   2.162   0.349  0.3034  1.3804  1.1973
  777MPD2     N11470   1.195   1.971   0.317  0.5462  0.5528 -0.1166
  777MPD2    H511471   1.100   1.971   0.352  0.7957 -1.4953  0.5546
  777MPD2    N111472   1.289   2.352   0.603 -0.7063  0.6182 -0.5264
  777MPD2    H711473   1.363   2.411   0.639 -1.0427  0.1194  0.9768
  778MPD2     C11474   2.067   2.634  15.026  0.9166 -0.1903 -0.0739
  778MPD2    C111475   1.982   2.598  14.917  0.0814 -0.1375  0.3832
  778MPD2    C211476   2.006   2.651  14.794 -0.1343  0.5880  0.3593
  778MPD2    C311477   2.113   2.742  14.771  0.3767  0.7292  0.0542
  778MPD2    C411478   2.190   2.777  14.880 -0.6335 -0.4378  0.1271
  778MPD2    C511479   2.175   2.714  14.999 -0.2017 -0.3363 -0.3117
  778MPD2     H11480   1.952   2.607  14.710 -0.1487  0.7966  0.2600
  778MPD2    H111481   2.278   2.841  14.875  1.8247 -3.8759 -0.7331
  778MPD2    H211482   2.051   2.588  15.122  1.3219 -1.2752 -0.5277
  778MPD2    H311483   2.249   2.745  15.072 -0.5943 -0.8408  0.2977
  778MPD2     N11484   2.130   2.800  14.645  0.1613 -0.5957 -0.2873
  778MPD2    H511485   2.073   2.754  14.575 -0.5584  0.0791 -0.1530
  778MPD2    N111486   1.860   2.513  14.928 -0.2061 -0.0749  0.5527
  778MPD2    H711487   1.813   2.495  14.840  1.1918  1.9546 -0.6053
  779MPD2     C11488   1.747   1.507  14.554  1.0000 -0.9329 -0.0401
  779MPD2    C111489   1.836   1.511  14.444  0.1818 -0.0588 -0.2669
  779MPD2    C211490   1.852   1.634  14.386 -0.7370 -0.2127 -0.0795
  779MPD2    C311491   1.792   1.751  14.429  0.0826 -0.4645 -0.3080
  779MPD2    C411492   1.701   1.737  14.528 -0.2025  0.3028  0.2848
  779MPD2    C511493   1.687   1.620  14.592 -1.0436  0.7825 -0.4250
  779MPD2     H11494   1.908   1.640  14.293 -0.8923  0.7033 -0.1155
  779MPD2    H111495   1.648   1.824  14.565 -0.7801 -0.7032  1.8091
  779MPD2    H211496   1.734   1.420  14.618  1.0917 -2.0972 -1.6003
  779MPD2    H311497   1.619   1.627  14.675  1.3170 -1.2189  1.6676
  779MPD2     N11498   1.837   1.872  14.374 -0.5015  0.0689 -0.3480
  779MPD2    H511499   1.923   1.868  14.320  0.1908 -1.1230  0.8317
  779MPD2    N111500   1.905   1.406  14.377  0.5852 -1.2480  1.0618
  779MPD2    H711501   1.977   1.422  14.307  0.1492 -1.6485  0.5251
  780MPD2     C11502   1.664   1.163   0.313 -0.1261 -0.2584 -0.5903
  780MPD2    C111503   1.580   1.168   0.205 -0.0793 -0.3038  0.4188
  780MPD2    C211504   1.585   1.277   0.126  0.1057  0.3715 -0.3062
  780MPD2    C311505   1.671   1.379   0.147 -0.2081 -0.4301 -0.2262
  780MPD2    C411506   1.763   1.376   0.245  0.4159 -0.3277  0.4115
  780MPD2    C511507   1.752   1.266   0.332 -0.4491 -0.0685 -0.0166
  780MPD2     H11508   1.515   1.275   0.043 -0.5198 -1.8624  0.2577
  780MPD2    H111509   1.841   1.448   0.266  1.4894 -0.8002 -1.9544
  780MPD2    H211510   1.649   1.091   0.392  0.8218 -2.2319 -2.2213
  780MPD2    H311511   1.817   1.264   0.419 -1.0040 -1.0276  0.3831
  780MPD2     N11512   1.674   1.477   0.046  0.3249 -0.6524  0.2022
  780MPD2    H511513   1.614   1.465  17.664  1.4696  1.3778 -0.9559
  780MPD2    N111514   1.486   1.066   0.199 -0.2617 -0.0538  0.1472
  780MPD2    H711515   1.494   0.982   0.256 -0.7810  0.8490  1.5643
  781MPD2     C11516   3.048   3.504  11.514 -0.2437 -0.3008  0.7044
  781MPD2    C111517   3.036   3.385  11.585  0.6880  0.1779 -0.2079
  781MPD2    C211518   3.025   3.261  11.515 -0.9640  0.4797 -0.1319
  781MPD2    C311519   3.046   3.252  11.379 -0.2986  0.0155  0.6392
  781MPD2    C411520   3.049   3.372  11.306 -0.0258  0.1511 -0.1638
  781MPD2    C511521   3.053   3.487  11.380 -0.1138  0.7486 -0.6632
  781MPD2     H11522   3.023   3.168  11.571 -0.3165  1.2876  1.2463
  781MPD2    H111523   3.062   3.375  11.198 -0.7349  1.6765 -0.2062
  781MPD2    H211524   3.065   3.603  11.553 -0.2404  0.5281 -1.4174
  781MPD2    H311525   3.050   3.574  11.317  2.3578  1.9880  0.9391
  781MPD2     N11526   3.080   3.139  11.310  0.2936 -0.7806  0.2078
  781MPD2    H511527   3.137   3.156  11.228 -2.3125  0.1866 -1.3955
  781MPD2    N111528   3.032   3.389  11.728 -0.3176 -0.1789  0.3859
  781MPD2    H711529   3.015   3.306  11.783 -2.4742  1.1841  1.7837
  782MPD2     C11530   0.558   4.355   9.971  0.0286 -0.3917  0.1638
  782MPD2    C111531   0.694   4.326   9.968 -0.8491 -0.0184  0.4799
  782MPD2    C211532   0.787   4.427  10.001  0.2950 -0.1423 -0.4222
  782MPD2    C311533   0.746   4.555  10.031 -0.5058  0.3314 -0.8771
  782MPD2    C411534   0.609   4.581  10.028  0.0568  0.8191  0.1081
  782MPD2    C511535   0.516   4.483   9.998 -0.0647 -0.2574  0.1971
  782MPD2     H11536   0.893   4.407  10.007  0.6961  1.2845 -2.6043
  782MPD2    H111537   0.579   4.685  10.028 -2.8254  0.0018  1.2962
  782MPD2    H211538   0.486   4.288   9.926  1.8767 -0.5163 -2.5964
  782MPD2    H311539   0.412   4.511   9.984 -0.4054 -1.4276  0.3965
  782MPD2     N11540   0.838   4.642  10.102 -0.4575  0.4334 -0.5103
  782MPD2    H511541   0.937   4.619  10.112 -0.4173  1.4247  1.5113
  782MPD2    N111542   0.728   4.192   9.941  0.1690 -0.4148  0.2962
  782MPD2    H711543   0.657   4.125   9.912 -1.9512  1.9289  0.0038
  783MPD2     C11544   0.229   3.752  10.370  0.4022 -0.3882 -0.4905
  783MPD2    C111545   0.299   3.871  10.396 -0.5412 -0.1736  0.6531
  783MPD2    C211546   0.423   3.888  10.331  0.1494  0.4862  0.3735
  783MPD2    C311547   0.467   3.799  10.238  0.5438  0.3330 -0.2381
  783MPD2    C411548   0.396   3.683  10.222  0.5877  0.3181  0.5172
  783MPD2    C511549   0.274   3.664  10.279  0.5987 -0.2005  0.3005
  783MPD2     H11550   0.490   3.969  10.357  0.5810 -0.1662  1.3297
  783MPD2    H111551   0.420   3.608  10.148 -0.3104  2.6396 -2.1088
  783MPD2    H211552   0.135   3.729  10.419  1.0733  0.8728  1.4012
  783MPD2    H311553   0.220   3.573  10.255 -0.6675  0.7703 -0.5162
  783MPD2     N11554   0.599   3.813  10.187  0.2850  0.0618  0.2067
  783MPD2    H511555   0.646   3.899  10.212  0.2993  0.0058  0.3746
  783MPD2    N111556   0.243   3.961  10.493  0.2379  0.4070 -0.0176
  783MPD2    H711557   0.151   3.935  10.525  0.5311 -1.1428 -0.4437
  784MPD2     C11558   3.596   4.129   0.272  0.3026 -0.1971 -0.2206
  784MPD2    C111559   3.659   4.211   0.359 -0.2023 -0.1622  0.4053
  784MPD2    C211560   3.592   4.331   0.383  0.5652 -0.2220  0.1779
  784MPD2    C311561   3.462   4.362   0.339 -0.1562 -0.5040 -0.8580
  784MPD2    C411562   3.415   4.281   0.239 -0.1914 -0.1445  0.4365
  784MPD2    C511563   3.481   4.170   0.208 -0.2274 -0.4076 -0.2399
  784MPD2     H11564   3.642   4.404   0.446 -2.5308  1.1802  1.0183
  784MPD2    H111565   3.318   4.297   0.194 -0.0625 -0.2874  0.1071
  784MPD2    H211566   3.641   4.035   0.242 -0.8077 -1.4804  2.0834
  784MPD2    H311567   3.434   4.093   0.148  2.8256 -1.8262 -0.8333
  784MPD2     N11568   3.402   4.487   0.369 -0.3218  1.0304  0.3055
  784MPD2    H511569   3.447   4.541   0.443  0.9271  0.1132  0.2063
  784MPD2    N111570   3.785   4.195   0.412 -0.1008  0.1128  0.4209
  784MPD2    H711571   3.819   4.277   0.460  0.8600 -0.2993  0.4372
  785MPD2     C11572   3.710   2.841  10.948  0.4059  0.3154 -0.0395
  785MPD2    C111573   3.612   2.914  11.007  0.3447  0.4230 -0.9493
  785MPD2    C211574   3.478   2.877  10.982  0.3791  0.0747 -0.5333
  785MPD2    C311575   3.445   2.784  10.885 -0.0906  0.3948  0.7028
  785MPD2    C411576   3.550   2.710  10.829 -0.0208  0.3885  0.5984
  785MPD2    C511577   3.681   2.746  10.857 -0.5296 -0.6459  0.1492
  785MPD2     H11578   3.398   2.932  11.031  1.3882  0.5994  0.5077
  785MPD2    H111579   3.540   2.635  10.751 -0.6743 -1.2088  2.2068
  785MPD2    H211580   3.815   2.868  10.963 -0.0445  2.3410 -0.5705
  785MPD2    H311581   3.759   2.703  10.795 -0.5475 -0.9939  0.3681
  785MPD2     N11582   3.310   2.765  10.849 -0.2157  0.2648 -0.2292
  785MPD2    H511583   3.249   2.832  10.894  0.0327 -0.3255  0.9931
  785MPD2    N111584   3.628   3.026  11.090 -0.2747  0.1178  0.0288
  785MPD2    H711585   3.543   3.081  11.103 -0.2868  0.2317 -0.5147
  786MPD2     C11586   2.075   0.858  14.559 -0.2664  0.7867  0.2184
  786MPD2    C111587   2.191   0.787  14.533 -0.3813  0.4766 -0.2381
  786MPD2    C211588   2.306   0.814  14.608 -0.0482 -0.2197  0.2834
  786MPD2    C311589   2.309   0.925  14.690 -0.3032  0.6698 -0.6932
  786MPD2    C411590   2.194   1.004  14.708 -0.5377  0.5481  0.2140
  786MPD2    C511591   2.074   0.965  14.649  0.3104 -0.3415  0.5995
  786MPD2     H11592   2.395   0.757  14.582  0.4239  0.9838 -0.7375
  786MPD2    H111593   2.187   1.083  14.781 -0.9127  1.6091 -0.9595
  786MPD2    H211594   1.984   0.828  14.508 -0.0761  0.3120  0.1652
  786MPD2    H311595   1.978   1.015  14.663 -0.4449 -1.9954  1.3396
  786MPD2     N11596   2.426   0.974  14.751 -0.2357 -0.1347  0.4650
  786MPD2    H511597   2.423   1.065  14.796 -0.2787 -0.5144  1.2411
  786MPD2    N111598   2.208   0.684  14.441  0.2347 -0.3954  0.4697
  786MPD2    H711599   2.304   0.650  14.438 -0.1365 -1.3887 -0.1986
  787MPD2     C11600   2.420   0.210  14.641 -0.0048  0.5326 -0.0215
  787MPD2    C111601   2.447   0.180  14.508  0.5332  0.2504 -0.6182
  787MPD2    C211602   2.554   0.103  14.464  1.1275  0.0487 -0.0361
  787MPD2    C311603   2.648   0.058  14.558 -0.0013 -0.1793 -0.4446
  787MPD2    C411604   2.624   0.093  14.696  0.0452 -0.3415  0.2748
  787MPD2    C511605   2.511   0.166  14.737 -0.4029 -0.6872 -0.3502
  787MPD2     H11606   2.568   0.083  14.358 -1.7908 -1.6804 -0.0682
  787MPD2    H111607   2.700   0.081  14.773 -0.0268 -1.2968  0.2016
  787MPD2    H211608   2.340   0.276  14.671 -2.1418 -2.0811  0.0642
  787MPD2    H311609   2.502   0.204  14.838  1.0220  0.5784 -0.6967
  787MPD2     N11610   2.764   4.708  14.511  0.3998 -0.4410 -0.1941
  787MPD2    H511611   2.787   4.700  14.412  0.3498 -0.1100 -0.2300
  787MPD2    N111612   2.367   0.251  14.415 -0.2977 -0.7623  0.1443
  787MPD2    H711613   2.289   0.303  14.453 -0.2186 -0.8030  0.3653
  788MPD2     C11614   0.248   3.068   0.350 -0.3060  0.0545  0.2613
  788MPD2    C111615   0.213   2.941   0.392  0.9122  0.4410  0.1687
  788MPD2    C211616   0.291   2.830   0.349  0.5705 -0.2444  0.4005
  788MPD2    C311617   0.408   2.859   0.291  0.2241  0.2534 -0.2437
  788MPD2    C411618   0.443   2.984   0.258  0.1495 -0.0255 -0.3682
  788MPD2    C511619   0.364   3.095   0.286  0.3063  0.1959 -0.2964
  788MPD2     H11620   0.260   2.730   0.378  2.0046  0.1237  3.2364
  788MPD2    H111621   0.541   3.011   0.221 -1.3333  2.1103 -2.7147
  788MPD2    H211622   0.198   3.158   0.383 -1.2073 -1.3629  2.7349
  788MPD2    H311623   0.404   3.196   0.277 -1.3840  1.1182  2.6264
  788MPD2     N11624   0.511   2.764   0.252  0.3845  0.4926 -0.4164
  788MPD2    H511625   0.598   2.797   0.213 -0.1063  1.1872 -0.9123
  788MPD2    N111626   0.091   2.912   0.456 -0.5017 -0.1212 -0.5013
  788MPD2    H711627   0.069   2.818   0.486 -0.6518 -0.1391 -0.6704
  789MPD2     C11628   0.121   3.583  15.975 -1.1594  0.5660 -0.0115
  789MPD2    C111629   0.078   3.477  16.054 -0.7203 -0.6471  0.5994
  789MPD2    C211630   4.684   3.494  16.122  0.5769  0.0570  0.6844
  789MPD2    C311631   4.603   3.604  16.105 -0.4091 -0.8385 -0.1990
  789MPD2    C411632   4.648   3.707  16.024 -0.5074 -0.0788 -0.4070
  789MPD2    C511633   0.052   3.701  15.975  0.0112 -0.1442 -0.0454
  789MPD2     H11634   4.662   3.413  16.190 -1.3876 -1.7191 -2.0745
  789MPD2    H111635   4.577   3.787  16.006  1.1811  1.2551 -1.1077
  789MPD2    H211636   0.216   3.566  15.926 -1.4610 -0.1294 -0.3646
  789MPD2    H311637   0.086   3.784  15.913  1.0097  1.0937  2.1573
  789MPD2     N11638   4.473   3.620  16.166  0.0929 -0.1324  0.2821
  789MPD2    H511639   4.414   3.697  16.138 -2.4179 -2.0849  0.2213
  789MPD2    N111640   0.152   3.353  16.072 -0.3983  0.4102  0.8010
  789MPD2    H711641   0.108   3.281  16.128 -2.1373 -0.4403 -1.6792
  790MPD2     C11642   1.245   0.945  13.356  0.2902  0.6776 -0.2036
  790MPD2    C111643   1.129   0.867  13.365  0.1238  0.9502 -0.2666
  790MPD2    C211644   1.055   0.841  13.250  0.4414  0.4043  0.0043
  790MPD2    C311645   1.099   0.881  13.124 -0.3715  0.4836 -0.1544
  790MPD2    C411646   1.217   0.948  13.116  0.4862 -0.4753 -0.2276
  790MPD2    C511647   1.283   0.984  13.232 -0.6671  0.1768 -0.2204
  790MPD2     H11648   0.971   0.774  13.267 -1.0907  2.2628 -0.3387
  790MPD2    H111649   1.257   0.986  13.022 -0.1579  0.9702  0.0748
  790MPD2    H211650   1.305   0.975  13.441  2.0098 -1.1124 -0.8002
  790MPD2    H311651   1.367   1.050  13.216  0.3783 -1.2115 -0.4075
  790MPD2     N11652   1.031   0.836  13.012  0.7197 -0.0362 -0.1560
  790MPD2    H511653   1.081   0.831  12.924 -0.2288 -1.1179 -0.6356
  790MPD2    N111654   1.102   0.806  13.494 -0.3885  0.3883  0.0576
  790MPD2    H711655   1.181   0.800  13.557 -0.0159 -0.6996 -0.5285
  791MPD2     C11656   0.362   0.915  12.599  0.2541 -1.0072 -0.3181
  791MPD2    C111657   0.376   0.786  12.634  0.0835 -0.7934  0.8871
  791MPD2    C211658   0.280   0.693  12.593  0.2078  0.5417  0.1804
  791MPD2    C311659   0.163   0.720  12.529 -0.1916 -0.4698 -0.2836
  791MPD2    C411660   0.146   0.853  12.499 -0.3105 -0.0486 -0.2258
  791MPD2    C511661   0.248   0.947  12.522  0.4907  0.3015 -0.5356
  791MPD2     H11662   0.294   0.589  12.618  0.9536  1.1057  2.1152
  791MPD2    H111663   0.069   0.880  12.427  0.0642  1.5123 -0.0481
  791MPD2    H211664   0.442   0.985  12.622 -0.9593  0.3859 -0.3569
  791MPD2    H311665   0.239   1.046  12.478 -0.3062 -0.0631 -1.1927
  791MPD2     N11666   0.068   0.618  12.500 -0.4369  0.3188  0.3710
  791MPD2    H511667   0.093   0.520  12.505  0.9342  0.7444  1.7172
  791MPD2    N111668   0.496   0.753  12.698 -0.5149  0.5193  0.7829
  791MPD2    H711669   0.550   0.837  12.716  0.0901  0.2209  0.3957
  792MPD2     C11670   1.431   0.564  11.094  0.5205 -0.2376 -0.4363
  792MPD2    C111671   1.301   0.576  11.060  0.0450  0.8753 -0.3292
  792MPD2    C211672   1.280   0.581  10.927  0.1984  0.1490  0.1544
  792MPD2    C311673   1.381   0.560  10.834  0.0611  0.3934 -0.0493
  792MPD2    C411674   1.513   0.542  10.868  0.4659  0.4756 -0.4863
  792MPD2    C511675   1.531   0.540  11.004  0.0959 -0.2223  0.0517
  792MPD2     H11676   1.179   0.606  10.897 -0.3875 -0.9587  1.1870
  792MPD2    H111677   1.596   0.513  10.805  0.9631 -0.8197  0.7514
  792MPD2    H211678   1.455   0.564  11.199 -0.6871 -3.9287 -0.1412
  792MPD2    H311679   1.635   0.529  11.034 -0.0014  2.0055  1.1665
  792MPD2     N11680   1.344   0.554  10.701  0.1520 -0.4850 -0.7684
  792MPD2    H511681   1.249   0.541  10.668 -0.5290  2.2971  0.1147
  792MPD2    N111682   1.204   0.605  11.158 -0.3038 -0.2187  0.1005
  792MPD2    H711683   1.235   0.649  11.245 -0.7733  1.4876 -0.5813
  793MPD2     C11684   0.931   1.221  10.012 -0.5547 -0.1285 -0.6675
  793MPD2    C111685   0.909   1.092   9.960  0.0579  0.5495 -0.3296
  793MPD2    C211686   0.962   0.984  10.024  0.6281  0.6238  0.5705
  793MPD2    C311687   1.044   1.000  10.134  0.3780 -0.0759 -0.4300
  793MPD2    C411688   1.080   1.130  10.172 -0.2944  0.3737  0.0734
  793MPD2    C511689   1.015   1.235  10.117 -0.0667 -0.0967 -0.2523
  793MPD2     H11690   0.952   0.889   9.971 -0.0489 -0.2608  2.2819
  793MPD2    H111691   1.154   1.139  10.251  0.3012 -3.9777  0.0431
  793MPD2    H211692   0.903   1.314   9.964  1.8254  0.0678 -1.6559
  793MPD2    H311693   1.061   1.331  10.140 -1.6935  0.8484 -0.9595
  793MPD2     N11694   1.095   0.884  10.197 -0.1826 -0.5655 -0.3574
  793MPD2    H511695   1.065   0.791  10.170  1.6818 -1.5964  1.0970
  793MPD2    N111696   0.819   1.083   9.853  0.7643 -0.0595  0.6407
  793MPD2    H711697   0.796   0.988   9.823  1.3300  0.8445 -2.6458
  794MPD2     C11698   0.469   0.060  16.858  0.5436  0.0500  0.0164
  794MPD2    C111699   0.504   4.701  16.758  0.2965 -0.8762 -0.1615
  794MPD2    C211700   0.466   0.006  16.625  0.3378 -0.2968  0.5691
  794MPD2    C311701   0.386   0.123  16.601  0.2815  0.3915  0.5256
  794MPD2    C411702   0.354   0.207  16.708  0.1760  0.4576 -0.4285
  794MPD2    C511703   0.397   0.173  16.834 -1.0116  0.0743  1.2840
  794MPD2     H11704   0.496   4.661  16.548  0.2450  2.4659 -1.9374
  794MPD2    H111705   0.313   0.307  16.693 -1.5604  0.1102  2.0495
  794MPD2    H211706   0.492   0.040  16.962 -1.7043  0.7992  0.6526
  794MPD2    H311707   0.365   0.240  16.913  1.4712  1.7627  0.8369
  794MPD2     N11708   0.343   0.174  16.473  0.6864  0.4941 -0.3659
  794MPD2    H511709   0.284   0.255  16.483  3.3897  2.3577  0.5468
  794MPD2    N111710   0.582   4.587  16.797  0.3263  0.1428  0.5466
  794MPD2    H711711   0.618   4.528  16.722  4.0600  1.5075  1.2721
  795MPD2     C11712   2.970   1.935  13.770  0.6235  0.3908 -0.3403
  795MPD2    C111713   2.931   1.826  13.697  0.0959 -0.1286  0.5257
  795MPD2    C211714   2.963   1.701  13.745  0.2701  0.4070 -0.2731
  795MPD2    C311715   3.042   1.684  13.856  0.2225 -0.5469  0.1957
  795MPD2    C411716   3.081   1.795  13.931 -0.6577  0.3275  0.4972
  795MPD2    C511717   3.045   1.918  13.884  0.6401  0.4056 -0.5937
  795MPD2     H11718   2.930   1.614  13.689 -2.5427  1.7395 -0.6800
  795MPD2    H111719   3.139   1.780  14.022  2.3505  0.9945 -1.3201
  795MPD2    H211720   2.965   2.038  13.737  1.5792  0.7668  0.6723
  795MPD2    H311721   3.078   2.008  13.934  0.2129  0.3552 -0.2175
  795MPD2     N11722   3.099   1.561  13.894  0.2731  0.1096  0.2192
  795MPD2    H511723   3.149   1.557  13.982 -0.8825  1.4906  0.9438
  795MPD2    N111724   2.841   1.834  13.598  0.2539 -0.0798  0.2481
  795MPD2    H711725   2.801   1.747  13.563 -0.0393  0.8827 -1.8459
  796MPD2     C11726   2.663   3.364  15.593 -0.0664  0.2225  0.2330
  796MPD2    C111727   2.716   3.420  15.704  0.8365  0.6221 -0.3446
  796MPD2    C211728   2.726   3.556  15.711 -0.1075 -0.2490  0.5731
  796MPD2    C311729   2.666   3.641  15.618 -0.5908 -0.3317 -0.1006
  796MPD2    C411730   2.619   3.584  15.501  0.0604  0.3372 -0.1743
  796MPD2    C511731   2.619   3.440  15.488  0.1376  0.4103 -0.1554
  796MPD2     H11732   2.764   3.616  15.794  0.4819  0.3659 -0.1363
  796MPD2    H111733   2.563   3.640  15.427 -0.8029  1.6434  1.4831
  796MPD2    H211734   2.660   3.258  15.571 -0.2736 -0.0879  1.7632
  796MPD2    H311735   2.567   3.400  15.402 -2.8478  0.6442  1.5285
  796MPD2     N11736   2.664   3.779  15.640  0.1155  0.3643 -0.1736
  796MPD2    H511737   2.705   3.810  15.728  0.8443  0.3416 -0.5075
  796MPD2    N111738   2.763   3.334  15.808 -0.2156 -0.4576 -0.2671
  796MPD2    H711739   2.755   3.234  15.796 -2.4525 -0.2399 -0.6243
  797MPD2     C11740   3.612   2.799  17.271  0.6004  0.5399 -0.4683
  797MPD2    C111741   3.721   2.877  17.277  0.0378 -0.1572  0.4702
  797MPD2    C211742   3.731   2.990  17.196  0.8038 -0.4943 -0.5848
  797MPD2    C311743   3.621   3.038  17.129 -0.1933 -0.2356 -0.5025
  797MPD2    C411744   3.504   2.966  17.133  0.1554  0.0498 -0.5686
  797MPD2    C511745   3.504   2.838  17.194  1.0579  0.5622  0.8267
  797MPD2     H11746   3.828   3.035  17.182  0.3725 -0.1170 -2.4346
  797MPD2    H111747   3.419   2.992  17.072 -0.6269  0.3361  0.6302
  797MPD2    H211748   3.606   2.699  17.312  0.2074  1.2905  1.3141
  797MPD2    H311749   3.416   2.778  17.171  1.8787  0.4001 -1.9561
  797MPD2     N11750   3.638   3.162  17.058 -0.0742 -0.7518  0.1161
  797MPD2    H511751   3.734   3.195  17.065  0.1362 -2.0077  3.4054
  797MPD2    N111752   3.844   2.853  17.346  0.6154  0.1233 -0.3663
  797MPD2    H711753   3.907   2.932  17.342 -1.5812  1.8464 -0.8344
  798MPD2     C11754   4.240   3.142  16.826  0.2573  0.1046  0.8760
  798MPD2    C111755   4.146   3.176  16.917  0.1355 -0.7973 -0.2668
  798MPD2    C211756   4.151   3.128  17.048 -0.3927  0.0776 -0.2051
  798MPD2    C311757   4.255   3.035  17.082  0.3356  0.2503  0.9289
  798MPD2    C411758   4.345   2.997  16.983 -0.1095  0.5589  0.2381
  798MPD2    C511759   4.335   3.052  16.854 -0.7225 -0.4261  0.1702
  798MPD2     H11760   4.088   3.163  17.128  2.1657 -0.9559  2.2593
  798MPD2    H111761   4.430   2.933  17.001  0.3650  0.9487 -0.6138
  798MPD2    H211762   4.226   3.186  16.728  2.4278 -1.3971 -0.1105
  798MPD2    H311763   4.412   3.031  16.781 -1.2819 -0.1700 -0.4932
  798MPD2     N11764   4.246   2.981  17.211  0.5866 -0.3131  0.8370
  798MPD2    H511765   4.179   3.017  17.278 -0.0236  0.6083 -0.2627
  798MPD2    N111766   4.046   3.269  16.883  0.2242  0.2623  0.6431
  798MPD2    H711767   4.054   3.306  16.788 -1.5035 -2.9518 -0.7721
  799MPD2     C11768   2.574   4.346  14.590  0.2817 -0.5234  0.8887
  799MPD2    C111769   2.532   4.259  14.495  0.3015 -0.0701  0.6497
  799MPD2    C211770   2.428   4.299  14.409  0.1532 -0.3433 -0.3460
  799MPD2    C311771   2.366   4.427  14.423  0.3278 -0.2848 -0.5358
  799MPD2    C411772   2.413   4.513  14.523  0.6526 -0.6635  0.0099
  799MPD2    C511773   2.517   4.467  14.601 -0.4387  0.6780  0.5186
  799MPD2     H11774   2.387   4.222  14.345  1.9457 -0.1238 -1.7810
  799MPD2    H111775   2.382   4.616  14.533  2.1128 -0.1829 -0.4011
  799MPD2    H211776   2.658   4.336  14.657  0.3929 -1.5673  0.5993
  799MPD2    H311777   2.554   4.543  14.669  0.1870  1.0371 -0.2272
  799MPD2     N11778   2.258   4.475  14.338  0.7327 -0.3931  0.4357
  799MPD2    H511779   2.215   4.568  14.341 -4.6984 -2.9079  1.3630
  799MPD2    N111780   2.591   4.128  14.476  0.0532  0.3429  0.0661
  799MPD2    H711781   2.550   4.072  14.402  0.5011 -0.1010  0.1597
  800MPD2     C11782   2.462   0.802  14.011  0.4297  0.0869  0.0112
  800MPD2    C111783   2.601   0.809  13.996 -0.3251 -0.3953 -0.2165
  800MPD2    C211784   2.655   0.742  13.888 -0.0123  0.7960 -0.5306
  800MPD2    C311785   2.579   0.664  13.802 -0.2381 -0.6864  0.6656
  800MPD2    C411786   2.445   0.659  13.819 -0.2687 -0.2340 -0.0541
  800MPD2    C511787   2.391   0.728  13.922 -0.6504 -0.2063  0.6888
  800MPD2     H11788   2.760   0.757  13.866  0.0201 -0.0581 -0.9840
  800MPD2    H111789   2.372   0.601  13.764  1.4599 -3.7206  1.3872
  800MPD2    H211790   2.415   0.844  14.100 -0.0665 -0.3355 -0.0540
  800MPD2    H311791   2.290   0.706  13.955 -0.9328 -0.3103 -0.2247
  800MPD2     N11792   2.637   0.622  13.682  0.1011  0.3207  0.9323
  800MPD2    H511793   2.735   0.642  13.664  0.8392 -2.9442  1.3853
  800MPD2    N111794   2.669   0.905  14.073 -0.2208  0.4031 -0.4795
  800MPD2    H711795   2.612   0.950  14.144 -1.0752 -0.9310 -0.3132
  801MPD2     C11796   2.761   1.670  14.133 -0.6445 -0.4476 -0.2702
  801MPD2    C111797   2.856   1.615  14.210 -0.4313  0.6149 -0.2892
  801MPD2    C211798   2.962   1.694  14.258  0.1537 -0.2800 -0.3007
  801MPD2    C311799   2.954   1.831  14.238 -0.2086 -0.5448  0.7531
  801MPD2    C411800   2.862   1.887  14.157  0.7025  0.5401 -0.2027
  801MPD2    C511801   2.763   1.803  14.110 -0.2532  0.4189 -0.4847
  801MPD2     H11802   3.043   1.645  14.311  0.0914  0.0960  0.1430
  801MPD2    H111803   2.856   1.990  14.123 -1.0118  1.0829  1.7545
  801MPD2    H211804   2.679   1.612  14.093 -0.1945 -0.0942 -1.6779
  801MPD2    H311805   2.706   1.842  14.026  0.5165  1.6782 -0.4186
  801MPD2     N11806   3.048   1.913  14.307  0.1041 -0.1705  0.2817
  801MPD2    H511807   3.050   2.009  14.274 -1.8446 -0.9990 -2.2353
  801MPD2    N111808   2.861   1.479  14.242 -0.1779  0.1156 -0.4409
  801MPD2    H711809   2.940   1.452  14.300 -1.1881 -0.3557  0.6854
  802MPD2     C11810   2.098   2.561  17.133 -0.3411 -0.4066 -0.5646
  802MPD2    C111811   2.151   2.499  17.246 -0.5178 -0.1095 -0.4258
  802MPD2    C211812   2.195   2.364  17.245  0.1146  0.0604  0.2192
  802MPD2    C311813   2.174   2.292  17.132  0.3663  0.0148 -0.2892
  802MPD2    C411814   2.095   2.350  17.027  0.6467 -0.3054  0.2842
  802MPD2    C511815   2.074   2.485  17.023 -0.2545 -0.3414  0.1539
  802MPD2     H11816   2.214   2.318  17.341 -0.3562 -1.7626 -0.5710
  802MPD2    H111817   2.069   2.296  16.936 -0.4749 -2.1198  1.7044
  802MPD2    H211818   2.036   2.649  17.148  0.1753 -0.1031 -0.2172
  802MPD2    H311819   2.009   2.537  16.953 -0.8470 -0.9183  0.2725
  802MPD2     N11820   2.219   2.158  17.133 -1.1089 -0.0194 -0.5376
  802MPD2    H511821   2.275   2.123  17.210 -0.8984 -0.0234 -0.6923
  802MPD2    N111822   2.166   2.560  17.376  0.0397 -0.8264  0.5163
  802MPD2    H711823   2.194   2.497  17.451  2.7177  2.1149  1.9676
  803MPD2     C11824   3.561   0.533  11.561  0.4879  0.6933 -0.4503
  803MPD2    C111825   3.634   0.560  11.674  0.3668 -0.1198  0.1415
  803MPD2    C211826   3.597   0.495  11.791  0.4873 -0.5295 -0.3249
  803MPD2    C311827   3.521   0.379  11.789  0.0115 -0.1603  0.1159
  803MPD2    C411828   3.439   0.359  11.683 -0.3627 -0.4969  0.9588
  803MPD2    C511829   3.462   0.438  11.572 -0.5214  0.5493  0.9459
  803MPD2     H11830   3.648   0.523  11.883 -3.3517 -0.7890  1.8619
  803MPD2    H111831   3.353   0.293  11.680 -0.3398 -0.5394  1.2372
  803MPD2    H211832   3.581   0.575  11.463 -0.2034  1.4008 -0.2861
  803MPD2    H311833   3.397   0.419  11.487 -0.5875  0.4218  1.0252
  803MPD2     N11834   3.508   0.297  11.906  0.6927 -0.0564  0.1211
  803MPD2    H511835   3.429   0.234  11.907  0.4848  0.2611  3.2212
  803MPD2    N111836   3.750   0.642  11.675  0.7114 -0.2832 -0.4134
  803MPD2    H711837   3.792   0.660  11.766 -1.1338 -1.1587  0.6089
  804MPD2     C11838   2.889   1.831  16.795  0.2113  0.6442 -0.7180
  804MPD2    C111839   2.913   1.777  16.918  0.2200  0.3156  0.2036
  804MPD2    C211840   3.024   1.812  16.994 -0.2436 -0.5758 -0.6372
  804MPD2    C311841   3.117   1.896  16.941  0.0571 -0.3761 -0.4883
  804MPD2    C411842   3.090   1.950  16.820  0.2108  0.4971 -0.4767
  804MPD2    C511843   2.977   1.922  16.751 -0.5004 -0.4177  0.2907
  804MPD2     H11844   3.059   1.760  17.082 -2.3128 -0.8794 -0.0001
  804MPD2    H111845   3.155   2.021  16.771  0.4856  1.6147  1.5077
  804MPD2    H211846   2.799   1.814  16.736 -0.2605 -1.8094  0.7574
  804MPD2    H311847   2.972   1.977  16.658 -0.0335  0.4183  0.7643
  804MPD2     N11848   3.231   1.932  17.018 -0.0276  0.3450 -0.1876
  804MPD2    H511849   3.243   1.900  17.114 -0.0145 -0.8583 -0.5914
  804MPD2    N111850   2.827   1.673  16.965  0.2020  0.0993  0.8512
  804MPD2    H711851   2.838   1.641  17.060 -0.9635 -0.8479  0.6711
  805MPD2     C11852   2.530   0.274  15.484  0.6152  0.0008  0.8360
  805MPD2    C111853   2.582   0.162  15.412 -0.1387 -0.4375  0.0874
  805MPD2    C211854   2.703   0.106  15.456  0.4002 -0.8124  0.2759
  805MPD2    C311855   2.771   0.159  15.563 -0.1597 -0.2172  0.2579
  805MPD2    C411856   2.716   0.263  15.632  0.3248  0.6149  0.1401
  805MPD2    C511857   2.597   0.324  15.594  0.8764  0.2620  0.0048
  805MPD2     H11858   2.744   0.030  15.391  0.1573 -0.4995 -0.2481
  805MPD2    H111859   2.771   0.316  15.709  0.0009  0.5947  0.3852
  805MPD2    H211860   2.447   0.327  15.439 -0.1991 -0.4166  1.8375
  805MPD2    H311861   2.551   0.407  15.646  0.8274  0.0152  0.3560
  805MPD2     N11862   2.896   0.100  15.601  0.7487 -0.1079 -0.3561
  805MPD2    H511863   2.901   0.009  15.556 -2.8920 -0.3302 -0.3293
  805MPD2    N111864   2.526   0.096  15.300  0.0681 -0.2577  0.0379
  805MPD2    H711865   2.582   0.030  15.247 -1.9933 -2.9410  1.2236
  806MPD2     C11866   3.404   3.327   1.072 -0.4174  0.0573 -0.0681
  806MPD2    C111867   3.490   3.385   0.980  0.1576 -0.3532  0.4376
  806MPD2    C211868   3.442   3.486   0.897 -0.1883 -0.0785 -0.4496
  806MPD2    C311869   3.308   3.530   0.903  0.0969  0.1782  0.1278
  806MPD2    C411870   3.228   3.471   0.997 -0.4600  0.2758  0.1563
  806MPD2    C511871   3.278   3.373   1.077  0.2033  0.0774  0.8414
  806MPD2     H11872   3.501   3.553   0.835 -0.4303 -0.2023 -0.8150
  806MPD2    H111873   3.127   3.498   1.025  0.8210  3.5809  1.6251
  806MPD2    H211874   3.430   3.242   1.133 -0.7776  0.7171  1.0066
  806MPD2    H311875   3.210   3.328   1.148 -0.7460  0.7074  0.3389
  806MPD2     N11876   3.265   3.627   0.807 -0.1532  0.4722  1.0936
  806MPD2    H511877   3.339   3.669   0.751 -2.8382  3.7255  0.0007
  806MPD2    N111878   3.627   3.337   0.977 -0.0224  0.6955  0.5040
  806MPD2    H711879   3.658   3.255   1.028  0.0636  1.1139  1.1257
  807MPD2     C11880   3.966   2.707   1.095  0.1489  0.5224  0.5006
  807MPD2    C111881   3.856   2.777   1.043 -0.4155  0.3499  0.0528
  807MPD2    C211882   3.729   2.728   1.063 -0.1176 -0.5882  0.2378
  807MPD2    C311883   3.709   2.599   1.106 -0.5307  0.4968  0.1105
  807MPD2    C411884   3.818   2.517   1.132  0.7258  0.5629  0.2213
  807MPD2    C511885   3.948   2.567   1.132 -0.0223 -0.6793 -0.9085
  807MPD2     H11886   3.643   2.780   1.023 -0.7028 -2.4112 -0.8844
  807MPD2    H111887   3.822   2.410   1.150 -1.3962  0.6225  0.9821
  807MPD2    H211888   4.064   2.752   1.095  0.5588 -0.3716  1.1984
  807MPD2    H311889   4.025   2.502   1.171 -1.8161 -0.3182  3.2765
  807MPD2     N11890   3.571   2.558   1.109 -0.0187  0.2265 -0.4546
  807MPD2    H511891   3.501   2.626   1.081 -1.2036 -0.2692  1.2776
  807MPD2    N111892   3.870   2.913   0.993 -0.2246  0.4326  0.1115
  807MPD2    H711893   3.785   2.967   0.981  0.2139  0.7351 -1.5638
  808MPD2     C11894   2.308   1.657   9.075 -0.7272  0.1579 -0.2332
  808MPD2    C111895   2.375   1.542   9.111 -0.1559  0.7748 -0.1264
  808MPD2    C211896   2.491   1.560   9.179  0.4062 -0.5469 -1.1256
  808MPD2    C311897   2.539   1.684   9.220  0.6559  0.5481  0.1141
  808MPD2    C411898   2.466   1.798   9.180  0.2400 -0.3806 -0.2951
  808MPD2    C511899   2.348   1.783   9.112 -0.1297  0.8051  0.7150
  808MPD2     H11900   2.545   1.469   9.202  0.6460 -0.1080  0.0499
  808MPD2    H111901   2.498   1.897   9.207 -3.2871  0.5446  0.4621
  808MPD2    H211902   2.220   1.644   9.013  0.3256 -2.3643 -1.2059
  808MPD2    H311903   2.291   1.869   9.080  1.5587  2.3872  1.9812
  808MPD2     N11904   2.664   1.704   9.294  0.1460  0.7221  0.4787
  808MPD2    H511905   2.693   1.801   9.297 -1.9163  1.3930 -1.1909
  808MPD2    N111906   2.351   1.410   9.065 -0.1151 -0.2848  0.5540
  808MPD2    H711907   2.416   1.336   9.089  2.2509  0.7918 -2.4132
  809MPD2     C11908   3.163   1.082   9.882  0.6029  0.2189  0.2137
  809MPD2    C111909   3.248   1.191   9.868  0.5660  0.2446 -0.4752
  809MPD2    C211910   3.201   1.300   9.798  0.5757 -0.0601 -0.3748
  809MPD2    C311911   3.073   1.309   9.744 -0.2893  0.3529 -0.4632
  809MPD2    C411912   2.987   1.203   9.770  0.0338  0.1675 -0.4167
  809MPD2    C511913   3.034   1.092   9.835 -0.1997 -0.8086 -1.0298
  809MPD2     H11914   3.264   1.388   9.792  0.6973 -0.1055  0.2204
  809MPD2    H111915   2.886   1.203   9.731  0.1241  0.3841 -0.6484
  809MPD2    H211916   3.184   0.999   9.948 -0.0972  1.2887  1.7692
  809MPD2    H311917   2.963   1.015   9.866  0.0851 -0.0172  1.6281
  809MPD2     N11918   3.027   1.418   9.670  0.1795 -0.2048  0.0517
  809MPD2    H511919   2.938   1.413   9.622 -0.2641  1.3084  0.7101
  809MPD2    N111920   3.387   1.178   9.912 -0.1748  0.3480 -0.0324
  809MPD2    H711921   3.446   1.260   9.904 -0.0386 -0.0490 -3.3684
  810MPD2     C11922   2.702   4.505   9.613 -0.1038 -0.5664  0.4142
  810MPD2    C111923   2.640   4.618   9.669 -0.5212  0.1013  0.0949
  810MPD2    C211924   2.714   4.711   9.744  0.4690  0.0268  0.4853
  810MPD2    C311925   2.849   4.695   9.755  0.6635 -0.0747 -0.7649
  810MPD2    C411926   2.907   4.587   9.701  0.0147  0.1454 -0.3200
  810MPD2    C511927   2.837   4.494   9.632 -0.9189 -0.1937  0.5317
  810MPD2     H11928   2.656   0.053   9.807  0.0077 -0.8923  1.0242
  810MPD2    H111929   3.014   4.573   9.692 -0.0666 -1.0195  0.4316
  810MPD2    H211930   2.647   4.424   9.565 -0.5196 -0.2901  0.4245
  810MPD2    H311931   2.885   4.402   9.601  0.3787  0.3590  0.8847
  810MPD2     N11932   2.933   0.070   9.829  0.2552 -0.8547  0.3459
  810MPD2    H511933   3.033   0.064   9.810  0.2150  0.9960 -0.4643
  810MPD2    N111934   2.499   4.625   9.675 -0.0800  0.2849 -0.0832
  810MPD2    H711935   2.440   4.550   9.640 -0.7495 -0.2686  2.2114
  811MPD2     C11936   1.656   0.326   9.665 -0.0926  0.4442 -0.1661
  811MPD2    C111937   1.790   0.356   9.658 -0.4819 -0.2268  0.6145
  811MPD2    C211938   1.824   0.489   9.645 -0.8613  0.5232 -0.5443
  811MPD2    C311939   1.731   0.585   9.643 -0.3432 -0.1980 -0.1037
  811MPD2    C411940   1.599   0.549   9.664  0.0065  0.3173  0.0902
  811MPD2    C511941   1.565   0.423   9.672  0.0082 -0.9839 -0.3194
  811MPD2     H11942   1.928   0.511   9.624 -1.1947  0.8617 -1.8170
  811MPD2    H111943   1.518   0.620   9.673 -0.3468  0.1180 -1.4468
  811MPD2    H211944   1.613   0.227   9.671 -2.0926  1.4618  2.2643
  811MPD2    H311945   1.463   0.396   9.697  0.2486 -1.9003 -0.3344
  811MPD2     N11946   1.772   0.719   9.622 -0.4071 -0.5142 -0.1049
  811MPD2    H511947   1.871   0.739   9.624 -0.7287  1.1061 -0.3229
  811MPD2    N111948   1.884   0.249   9.669  0.1639  0.7327  0.0670
  811MPD2    H711949   1.850   0.154   9.657 -2.9219  2.1454 -2.4162
  812MPD2     C11950   1.745   0.638  11.974  0.0317  0.7354 -0.0175
  812MPD2    C111951   1.646   0.593  12.057 -0.0736 -0.5941  0.4504
  812MPD2    C211952   1.666   0.477  12.128 -0.2458  0.1557 -0.2797
  812MPD2    C311953   1.781   0.409  12.119  0.5553  0.7162 -0.2083
  812MPD2    C411954   1.871   0.444  12.019 -0.2475 -0.1659 -0.2750
  812MPD2    C511955   1.862   0.570  11.960  0.6732 -0.8016  0.3071
  812MPD2     H11956   1.590   0.448  12.200 -0.9933 -0.0972 -1.1706
  812MPD2    H111957   1.966   0.391  12.015 -0.9718 -1.6545  1.9499
  812MPD2    H211958   1.737   0.738  11.934 -0.6289  0.6171 -0.1755
  812MPD2    H311959   1.945   0.615  11.906 -0.0467 -0.5359 -0.5659
  812MPD2     N11960   1.796   0.294  12.199 -0.5786 -0.0957  0.0953
  812MPD2    H511961   1.713   0.275  12.254  0.1434 -0.4406  1.0769
  812MPD2    N111962   1.536   0.678  12.071 -0.2867  0.1963  0.0034
  812MPD2    H711963   1.534   0.751  12.000 -0.4152 -0.9224 -1.1535
  813MPD2     C11964   0.730   2.262  12.622 -0.5929  0.3138  0.0993
  813MPD2    C111965   0.700   2.389  12.669  0.2850 -0.1063 -0.1669
  813MPD2    C211966   0.597   2.405  12.746  0.3598 -0.2856  0.1708
  813MPD2    C311967   0.519   2.308  12.791 -0.3686  0.3478 -0.2643
  813MPD2    C411968   0.541   2.180  12.737 -0.1529 -0.3347 -0.1381
  813MPD2    C511969   0.642   2.156  12.646  0.2719  0.0844 -0.0543
  813MPD2     H11970   0.571   2.504  12.782  1.3924  0.1070 -0.1652
  813MPD2    H111971   0.482   2.090  12.753  0.4637 -0.8461 -0.7420
  813MPD2    H211972   0.810   2.238  12.553  1.9862 -0.0184  3.2618
  813MPD2    H311973   0.646   2.061  12.595 -0.4842 -0.0933  0.2159
  813MPD2     N11974   0.422   2.340  12.888 -0.0516  0.5350  0.2088
  813MPD2    H511975   0.420   2.438  12.913  0.3171  0.4473  0.5828
  813MPD2    N111976   0.774   2.509  12.630 -0.1013 -0.1313  0.0656
  813MPD2    H711977   0.753   2.598  12.672 -1.5050 -0.7489  0.6744
  814MPD2     C11978   0.584   3.761  12.026 -0.3185  0.2792  0.3116
  814MPD2    C111979   0.689   3.767  11.941 -0.2559  0.1513 -0.3895
  814MPD2    C211980   0.807   3.809  11.987 -0.7075 -0.1215  0.0759
  814MPD2    C311981   0.837   3.838  12.119  0.4109  0.1684  0.0858
  814MPD2    C411982   0.729   3.837  12.203  0.8842 -0.5446 -0.2258
  814MPD2    C511983   0.601   3.805  12.158  0.2163 -0.4311 -0.1669
  814MPD2     H11984   0.882   3.817  11.909  2.8466  1.0504  3.6235
  814MPD2    H111985   0.728   3.870  12.306 -0.7869  1.8249 -0.9932
  814MPD2    H211986   0.489   3.726  11.988  0.6915 -1.5372 -0.5742
  814MPD2    H311987   0.517   3.822  12.224  1.3670 -0.8147  1.3804
  814MPD2     N11988   0.955   3.899  12.166 -0.2713  0.2882 -0.9001
  814MPD2    H511989   0.977   3.894  12.265 -0.6465 -1.7403 -0.9198
  814MPD2    N111990   0.682   3.727  11.806  0.8252 -0.3519 -0.2150
  814MPD2    H711991   0.764   3.743  11.749  0.7728  2.4495  0.4851
  815MPD2     C11992   1.082   2.455  11.516 -0.0543 -0.1962  1.1691
  815MPD2    C111993   1.067   2.331  11.569 -0.1996  0.1613 -0.4946
  815MPD2    C211994   0.946   2.300  11.639 -0.2797  0.4321  0.3391
  815MPD2    C311995   0.854   2.404  11.655  0.0288  0.4424 -0.0403
  815MPD2    C411996   0.891   2.538  11.623  0.3814 -0.5537 -0.2226
  815MPD2    C511997   0.999   2.558  11.547  0.4245 -0.0447  0.2893
  815MPD2     H11998   0.919   2.199  11.668  1.5526 -0.4420 -1.0345
  815MPD2    H111999   0.826   2.621  11.646 -1.5617 -2.0902 -0.1764
  815MPD2    H212000   1.172   2.485  11.464  0.8717 -1.5902  1.9673
  815MPD2    H312001   1.018   2.654  11.501  0.3363 -0.8127 -1.3389
  815MPD2     N12002   0.727   2.373  11.700  0.5618 -0.1323 -0.3284
  815MPD2    H512003   0.703   2.275  11.708  2.7167 -0.7496 -1.4068
  815MPD2    N112004   1.185   2.251  11.549  0.2047 -0.2803  0.0092
  815MPD2    H712005   1.252   2.289  11.483  1.5906 -0.5794  1.2378
  816MPD2     C12006   1.156   1.037  16.729 -0.6736 -0.5954 -0.4634
  816MPD2    C112007   1.249   1.133  16.761 -0.1601 -0.3572  0.1015
  816MPD2    C212008   1.384   1.101  16.733 -0.4211 -0.0096 -0.3691
  816MPD2    C312009   1.414   0.986  16.668 -0.2721 -0.9874  0.4477
  816MPD2    C412010   1.326   0.889  16.643  0.4732 -0.5966  0.7928
  816MPD2    C512011   1.191   0.911  16.676  0.6720  0.1185  0.1905
  816MPD2     H12012   1.456   1.181  16.745 -0.0762 -0.3947  0.1698
  816MPD2    H112013   1.338   0.800  16.583 -2.0964  0.5421 -1.4529
  816MPD2    H212014   1.050   1.051  16.748 -1.4627 -1.9406 -3.8305
  816MPD2    H312015   1.112   0.841  16.655  1.6125 -0.6169 -0.9034
  816MPD2     N12016   1.546   0.975  16.615  0.1152  0.0343  0.2548
  816MPD2    H512017   1.605   1.057  16.617  0.4268 -0.1654 -1.6573
  816MPD2    N112018   1.216   1.255  16.835 -0.7924 -0.2677 -1.0105
  816MPD2    H712019   1.121   1.279  16.862 -0.8667 -0.7933 -0.8125
  817MPD2     C12020   0.819   3.130   9.926 -0.1671 -0.0616  0.3087
  817MPD2    C112021   0.952   3.158   9.893 -0.3970 -0.3915 -0.6633
  817MPD2    C212022   0.977   3.283   9.830  0.0278  0.8777 -0.1364
  817MPD2    C312023   0.875   3.376   9.812 -0.0403 -0.4689  0.0363
  817MPD2    C412024   0.743   3.350   9.848  0.0698  0.0926 -0.2664
  817MPD2    C512025   0.723   3.225   9.899  0.9353  0.1807  0.0755
  817MPD2     H12026   1.076   3.319   9.805 -0.8182  2.4580 -1.2320
  817MPD2    H112027   0.665   3.424   9.862  0.8121  0.9473 -0.7124
  817MPD2    H212028   0.788   3.037   9.973 -3.5534  0.7934 -0.3052
  817MPD2    H312029   0.625   3.200   9.938  0.9849  0.5653  0.4449
  817MPD2     N12030   0.915   3.498   9.747  0.2685 -0.2476  0.2402
  817MPD2    H512031   1.015   3.508   9.736  0.3563  1.0171  2.2045
  817MPD2    N112032   1.063   3.077   9.930  0.0368  0.7002  0.6447
  817MPD2    H712033   1.149   3.097   9.880 -1.9475  0.5569 -2.8536
  818MPD2     C12034   4.493   3.382   9.665  0.0160 -0.0002  0.1024
  818MPD2    C112035   4.505   3.296   9.771 -0.3457 -0.6628  0.0233
  818MPD2    C212036   4.590   3.192   9.761 -0.2144 -0.2503  0.3296
  818MPD2    C312037   4.655   3.163   9.642 -0.4908  0.5511  0.1327
  818MPD2    C412038   4.632   3.248   9.538 -0.2516 -0.7821  0.6690
  818MPD2    C512039   4.560   3.364   9.550  0.3241 -0.6894 -0.1563
  818MPD2     H12040   4.619   3.129   9.844  0.1987  0.4996  0.7510
  818MPD2    H112041   4.690   3.247   9.446 -1.4792  2.0911 -0.1323
  818MPD2    H212042   4.437   3.475   9.671  1.2387  0.8241 -1.3492
  818MPD2    H312043   4.551   3.436   9.471 -1.4963 -0.5432  0.1996
  818MPD2     N12044   0.003   3.049   9.613 -0.3515  0.1579  0.3082
  818MPD2    H512045   0.034   3.043   9.517  1.9121 -0.7713  1.0722
  818MPD2    N112046   4.433   3.316   9.893  0.4195  0.4044  0.9649
  818MPD2    H712047   4.443   3.251   9.970 -3.8584 -1.4631 -0.0405
  819MPD2     C12048   3.217   3.753  14.987 -0.2764  0.5260 -0.5212
  819MPD2    C112049   3.175   3.701  15.106 -1.0252 -0.5395  0.5489
  819MPD2    C212050   3.275   3.656  15.192  0.1934 -0.4175  0.0352
  819MPD2    C312051   3.410   3.645  15.161 -0.9143  0.1240  0.4927
  819MPD2    C412052   3.444   3.692  15.034 -0.1914  0.4290  0.7481
  819MPD2    C512053   3.345   3.733  14.949  0.7058 -0.0349 -0.3669
  819MPD2     H12054   3.250   3.604  15.284 -0.4425 -1.3941 -0.6899
  819MPD2    H112055   3.540   3.677  14.987  1.1648 -0.0267  3.7051
  819MPD2    H212056   3.147   3.774  14.907  1.1152 -2.9231 -2.6314
  819MPD2    H312057   3.381   3.765  14.852  0.9162  1.3503  0.1562
  819MPD2     N12058   3.509   3.598  15.253 -0.7207  0.7336  0.3843
  819MPD2    H512059   3.490   3.610  15.352 -0.4724 -0.1830  0.5470
  819MPD2    N112060   3.033   3.687  15.127 -0.1687 -0.4662 -0.5286
  819MPD2    H712061   2.967   3.699  15.052  1.2607 -0.5011 -1.7947
  820MPD2     C12062   2.283   4.204  14.787 -0.1124 -0.1129  0.0143
  820MPD2    C112063   2.381   4.264  14.864 -0.5572  0.5131 -0.1793
  820MPD2    C212064   2.486   4.179  14.914 -0.4469 -0.2655 -0.3243
  820MPD2    C312065   2.495   4.047  14.876 -0.1660  0.0093 -0.6444
  820MPD2    C412066   2.392   3.991  14.808  0.2620 -0.0888  0.2686
  820MPD2    C512067   2.290   4.068  14.761  0.5883  0.0111 -0.7186
  820MPD2     H12068   2.568   4.218  14.972 -0.5489  1.5301 -1.3920
  820MPD2    H112069   2.387   3.883  14.801  2.9449 -0.0890 -1.7403
  820MPD2    H212070   2.190   4.254  14.762 -0.5957 -0.8958  0.2528
  820MPD2    H312071   2.206   4.028  14.705 -1.3273  0.0684  2.1196
  820MPD2     N12072   2.586   3.953  14.929  0.0392  0.3127 -0.1117
  820MPD2    H512073   2.584   3.862  14.885  2.1468  1.1467 -1.8859
  820MPD2    N112074   2.366   4.401  14.890 -0.2669 -0.0561  0.4458
  820MPD2    H712075   2.274   4.439  14.868 -0.9606 -1.3415  1.1036
  821MPD2     C12076   2.759   1.068  13.077 -0.1780  0.6506 -0.4642
  821MPD2    C112077   2.864   1.003  13.137  0.0247 -0.4434 -0.0318
  821MPD2    C212078   2.993   1.047  13.129 -0.2274  0.1259  0.2347
  821MPD2    C312079   3.023   1.159  13.055 -0.3812 -0.5569  0.2563
  821MPD2    C412080   2.918   1.215  12.977  0.0857  0.2312  0.4239
  821MPD2    C512081   2.796   1.167  12.987  0.1901  0.6060  0.4254
  821MPD2     H12082   3.075   0.989  13.170 -0.1717  0.0711  0.0486
  821MPD2    H112083   2.937   1.302  12.916  0.7000 -0.2549 -0.0808
  821MPD2    H212084   2.659   1.027  13.073 -0.1671  0.6377 -0.6471
  821MPD2    H312085   2.718   1.198  12.919 -1.3913  0.1681  2.0647
  821MPD2     N12086   3.144   1.230  13.056 -0.3953  0.5038  0.5819
  821MPD2    H512087   3.155   1.302  12.986 -0.5625  0.6118  0.6641
  821MPD2    N112088   2.845   0.875  13.198 -0.1699 -0.1417 -0.1273
  821MPD2    H712089   2.926   0.819  13.225  0.2088  1.6908  2.5658
  822MPD2     C12090   3.723   0.859  15.457 -0.1529  0.2043  0.1789
  822MPD2    C112091   3.733   0.840  15.592 -0.2359 -0.3808 -0.4354
  822MPD2    C212092   3.679   0.942  15.674 -0.5735  0.2396 -0.1638
  822MPD2    C312093   3.605   1.045  15.622  0.3373 -0.1544 -0.0101
  822MPD2    C412094   3.593   1.056  15.486  0.5355  0.0586 -0.3464
  822MPD2    C512095   3.659   0.964  15.406  0.3591 -0.3808 -0.1802
  822MPD2     H12096   3.692   0.930  15.781 -0.9880 -1.7044 -0.3185
  822MPD2    H112097   3.527   1.130  15.443 -0.0583  0.4832  1.2970
  822MPD2    H212098   3.770   0.795  15.383 -1.1946 -2.3664  1.7373
  822MPD2    H312099   3.650   0.972  15.298  0.4663 -2.5561 -0.3494
  822MPD2     N12100   3.550   1.144  15.714  0.5600 -0.0085 -0.3165
  822MPD2    H512101   3.546   1.123  15.813  0.0804  0.0953 -0.3129
  822MPD2    N112102   3.799   0.732  15.645 -0.0575  0.2054 -0.2922
  822MPD2    H712103   3.811   0.721  15.746 -2.1272 -0.5854 -0.1311
  823MPD2     C12104   3.086   1.444  16.373  0.3744 -0.0285  0.8127
  823MPD2    C112105   3.165   1.357  16.304  0.1063  0.8739 -0.5379
  823MPD2    C212106   3.192   1.230  16.350 -0.2494  0.1231 -0.2046
  823MPD2    C312107   3.146   1.196  16.478  0.5353  0.6638  0.1288
  823MPD2    C412108   3.053   1.279  16.543 -0.2267 -0.1798 -0.0436
  823MPD2    C512109   3.024   1.400  16.489  0.9430  0.3030  0.0015
  823MPD2     H12110   3.257   1.160  16.298 -1.1627  0.1744 -1.4179
  823MPD2    H112111   3.012   1.256  16.641  0.3806 -1.0773 -0.0010
  823MPD2    H212112   3.070   1.546  16.338 -0.0043 -0.1409  0.6553
  823MPD2    H312113   2.967   1.474  16.544  3.5370  1.9351  0.4831
  823MPD2     N12114   3.200   1.092  16.553  0.2252  0.2359  0.8922
  823MPD2    H512115   3.170   1.078  16.649  0.0329  0.2045  0.8278
  823MPD2    N112116   3.228   1.406  16.187 -0.0343  0.4570  0.7955
  823MPD2    H712117   3.256   1.503  16.179 -0.6942  0.6313  0.6106
  824MPD2     C12118   4.007   4.621  15.569  0.8651 -0.1760  0.6787
  824MPD2    C112119   4.110   4.710  15.607  0.9010  0.4124 -0.1604
  824MPD2    C212120   4.240   4.671  15.593 -0.1627 -0.1260 -0.0865
  824MPD2    C312121   4.279   4.547  15.539 -0.3735 -0.8013 -0.3407
  824MPD2    C412122   4.179   4.462  15.498  0.0213  0.4348  0.3437
  824MPD2    C512123   4.043   4.505  15.518 -0.5070 -0.4627  0.2899
  824MPD2     H12124   4.318   0.020  15.613 -1.5742  0.6513  2.4971
  824MPD2    H112125   4.194   4.363  15.457  2.4817  0.2724  1.6157
  824MPD2    H212126   3.900   4.633  15.578  1.1773  1.2349  2.4340
  824MPD2    H312127   3.971   4.434  15.480 -0.8567  1.0612 -1.9151
  824MPD2     N12128   4.419   4.519  15.529  0.5132 -0.2476 -0.5591
  824MPD2    H512129   4.483   4.590  15.562  2.8400 -2.4268 -0.4142
  824MPD2    N112130   4.091   0.118  15.655 -0.0685 -0.2854  0.2611
  824MPD2    H712131   4.176   0.168  15.681 -0.9688  1.2329  0.2902
  825MPD2     C12132   0.314   4.667  14.985  0.1285 -0.5868 -0.2270
  825MPD2    C112133   0.231   4.712  15.080  0.2228 -0.4654 -0.5612
  825MPD2    C212134   0.184   0.121  15.071 -0.5675 -0.2382  0.9826
  825MPD2    C312135   0.214   0.200  14.956  0.0328 -0.2397  0.7618
  825MPD2    C412136   0.284   0.141  14.858 -0.3283 -0.3912 -0.2578
  825MPD2    C512137   0.330   0.014  14.872 -0.2947 -0.3789 -0.1938
  825MPD2     H12138   0.127   0.163  15.154  0.7762 -0.0727  1.8208
  825MPD2    H112139   0.312   0.196  14.769  1.8163 -0.4424  0.3746
  825MPD2    H212140   0.341   4.562  14.980  0.7906 -0.4745  1.1337
  825MPD2    H312141   0.391   4.693  14.795  1.7701 -0.6563  1.5916
  825MPD2     N12142   0.161   0.331  14.935  0.6661  0.1663  0.4522
  825MPD2    H512143   0.186   0.362  14.841 -2.3917 -0.1485 -0.4516
  825MPD2    N112144   0.196   4.614  15.181 -0.9107  0.1459 -0.3708
  825MPD2    H712145   0.253   4.530  15.177 -1.6469 -0.3871  0.4530
  826MPD2     C12146   4.429   0.321  13.725 -0.8747  0.5491  0.2606
  826MPD2    C112147   4.468   0.368  13.601  0.4649 -0.7781 -1.2741
  826MPD2    C212148   4.424   0.488  13.557  0.2160 -0.0859 -0.0660
  826MPD2    C312149   4.343   0.569  13.639  0.2233 -0.2268 -0.1553
  826MPD2    C412150   4.307   0.524  13.765 -0.1638 -0.9100 -0.1213
  826MPD2    C512151   4.353   0.401  13.802 -0.2028 -1.1259 -0.4137
  826MPD2     H12152   4.452   0.523  13.459 -0.1300  0.8909  0.1913
  826MPD2    H112153   4.238   0.580  13.828 -0.6204 -0.8552 -0.6634
  826MPD2    H212154   4.452   0.222  13.763  1.1225  1.4240  1.3575
  826MPD2    H312155   4.323   0.363  13.899  0.5190  0.0391  0.2755
  826MPD2     N12156   4.287   0.691  13.595  0.2677 -0.0309 -0.3635
  826MPD2    H512157   4.226   0.743  13.658  2.3446  1.2805  0.5609
  826MPD2    N112158   4.548   0.286  13.521 -0.0185 -0.4020  0.6133
  826MPD2    H712159   4.581   0.202  13.567  1.3793 -0.0589  0.2322
  827MPD2     C12160   0.508   1.703   9.881 -0.5118  1.0374  0.1375
  827MPD2    C112161   0.441   1.590   9.930  0.0661 -0.1320  0.0512
  827MPD2    C212162   0.318   1.552   9.874  0.7320 -0.0658  0.1012
  827MPD2    C312163   0.253   1.632   9.786  0.3089 -0.0663 -0.9539
  827MPD2    C412164   0.316   1.753   9.747 -0.3801  0.3035 -0.2238
  827MPD2    C512165   0.444   1.785   9.794  0.0537 -0.5391 -0.3323
  827MPD2     H12166   0.268   1.457   9.891  0.0719  0.7949  2.9698
  827MPD2    H112167   0.272   1.820   9.675  2.4109  1.6865 -0.6528
  827MPD2    H212168   0.598   1.731   9.933 -0.0381 -1.1614  0.4842
  827MPD2    H312169   0.495   1.879   9.772 -0.8099  0.3062  1.2641
  827MPD2     N12170   0.124   1.596   9.737 -0.3757 -0.1290 -0.0437
  827MPD2    H512171   0.078   1.516   9.778 -2.4471  0.8203 -0.4656
  827MPD2    N112172   0.500   1.522  10.038  0.1134  0.3290 -0.1369
  827MPD2    H712173   0.581   1.566  10.081 -0.8346  2.5882 -0.6453
  828MPD2     C12174   3.474   1.352  12.602 -0.0872 -0.4019  0.8401
  828MPD2    C112175   3.492   1.443  12.493 -0.0756  0.5047 -0.1085
  828MPD2    C212176   3.618   1.483  12.463  0.7111  0.5477 -0.2787
  828MPD2    C312177   3.731   1.443  12.534 -0.5361  0.6646  0.2032
  828MPD2    C412178   3.706   1.358  12.643 -0.4936 -0.1469  0.2632
  828MPD2    C512179   3.577   1.319  12.682  0.0005  0.1577  0.0701
  828MPD2     H12180   3.624   1.545  12.375 -0.9738  0.0827 -0.7156
  828MPD2    H112181   3.783   1.330  12.714 -1.4605 -1.0337  0.9703
  828MPD2    H212182   3.384   1.300  12.631 -0.5480  0.4308  0.8884
  828MPD2    H312183   3.566   1.253  12.767  0.7980  1.5368  1.2547
  828MPD2     N12184   3.861   1.479  12.503 -0.8806 -0.4701 -0.4742
  828MPD2    H512185   3.929   1.448  12.572  0.8443  2.0611 -1.0015
  828MPD2    N112186   3.386   1.477  12.404  0.9131 -0.3997 -0.2551
  828MPD2    H712187   3.411   1.522  12.316 -1.1386  0.4434 -0.4110
  829MPD2     C12188   3.419   1.589  11.546 -0.7565  0.1985 -0.0639
  829MPD2    C112189   3.285   1.568  11.554 -0.1860 -0.1443  0.8130
  829MPD2    C212190   3.230   1.539  11.676 -0.3173 -0.4224 -0.8154
  829MPD2    C312191   3.309   1.514  11.782 -0.7460  0.3543 -1.1905
  829MPD2    C412192   3.453   1.538  11.778 -0.2194  0.6436 -0.0254
  829MPD2    C512193   3.497   1.582  11.659 -0.5920  0.1042  0.0973
  829MPD2     H12194   3.126   1.508  11.676 -0.5265  0.2817 -0.5739
  829MPD2    H112195   3.532   1.515  11.849  0.3625  2.4121 -0.1115
  829MPD2    H212196   3.477   1.610  11.457  2.1025  0.1518  1.7872
  829MPD2    H312197   3.604   1.594  11.648 -0.3254 -2.3595  0.1216
  829MPD2     N12198   3.259   1.488  11.911 -0.4154 -0.5132  0.3144
  829MPD2    H512199   3.325   1.476  11.987  1.9396  3.0737 -1.1352
  829MPD2    N112200   3.208   1.571  11.435 -0.2834 -0.0278  0.3171
  829MPD2    H712201   3.261   1.573  11.348 -1.6271 -2.4820 -0.5588
  830MPD2     C12202   4.320   3.819  15.539  0.2655 -0.6301 -0.0777
  830MPD2    C112203   4.227   3.806  15.440 -0.5244 -0.7643  0.4514
  830MPD2    C212204   4.216   3.907  15.342  0.8272 -0.6061 -0.8350
  830MPD2    C312205   4.307   4.003  15.333  0.5246  0.0598 -0.1915
  830MPD2    C412206   4.402   4.012  15.436  0.0995 -1.3222 -0.6307
  830MPD2    C512207   4.408   3.920  15.539 -1.0437 -0.0844 -0.3170
  830MPD2     H12208   4.131   3.910  15.275  1.2853 -1.1406 -1.4442
  830MPD2    H112209   4.473   4.094  15.437  0.1099 -1.3623  2.7894
  830MPD2    H212210   4.329   3.750  15.622 -0.4192 -0.9432 -0.2734
  830MPD2    H312211   4.487   3.929  15.613  0.9689 -1.8699 -2.2609
  830MPD2     N12212   4.290   4.113  15.246  0.4610 -0.7961  0.1200
  830MPD2    H512213   4.345   4.191  15.280  0.6280 -0.8420 -0.0406
  830MPD2    N112214   4.136   3.701  15.449 -0.2965  0.0860 -0.9611
  830MPD2    H712215   4.131   3.657  15.540 -0.7801  2.9101  0.3942
  831MPD2     C12216   3.771   1.263  16.074 -0.3499 -0.2696  0.4086
  831MPD2    C112217   3.794   1.134  16.020  0.4047  0.3238  0.0139
  831MPD2    C212218   3.700   1.030  16.047 -0.4406  0.5938 -0.1588
  831MPD2    C312219   3.595   1.058  16.133 -0.1375 -0.1412  0.4128
  831MPD2    C412220   3.589   1.178  16.208 -0.2234 -0.0733  0.1567
  831MPD2    C512221   3.671   1.280  16.163 -0.0970 -0.0021 -0.2081
  831MPD2     H12222   3.709   0.940  15.987 -1.1920  0.2744  0.2040
  831MPD2    H112223   3.504   1.203  16.270 -1.4472 -1.9937 -0.7697
  831MPD2    H212224   3.830   1.347  16.040  0.8188 -1.6221 -0.8841
  831MPD2    H312225   3.653   1.382  16.195 -3.5518 -1.0230  1.0750
  831MPD2     N12226   3.486   0.966  16.146 -0.3748  0.5220 -0.0710
  831MPD2    H512227   3.422   0.985  16.222  2.0529 -0.0881  2.1348
  831MPD2    N112228   3.889   1.115  15.922 -0.8572  0.7093  0.1730
  831MPD2    H712229   3.937   1.196  15.883  1.4049 -0.4556  0.5119
  832MPD2     C12230   2.347   2.270  16.801 -0.3677 -0.2419  0.7013
  832MPD2    C112231   2.295   2.396  16.795 -0.9121 -0.0095 -0.2730
  832MPD2    C212232   2.184   2.424  16.708 -0.1098  0.2942 -0.3929
  832MPD2    C312233   2.112   2.319  16.660  0.6327  0.2339 -0.0254
  832MPD2    C412234   2.155   2.186  16.682 -0.6220  0.1172 -0.2671
  832MPD2    C512235   2.281   2.172  16.738  0.8213  0.2571  0.2954
  832MPD2     H12236   2.138   2.522  16.721  3.4974  1.9565 -0.3418
  832MPD2    H112237   2.107   2.100  16.638  1.1432 -1.0243  0.0125
  832MPD2    H212238   2.430   2.241  16.866  2.1310  1.6555 -1.6596
  832MPD2    H312239   2.329   2.075  16.733  0.9354  0.3236  0.0806
  832MPD2     N12240   1.988   2.326  16.595  0.0817  0.6181 -0.0254
  832MPD2    H512241   1.944   2.236  16.590 -0.7131  1.1064 -1.8851
  832MPD2    N112242   2.375   2.487  16.873 -0.8206 -0.0003  0.2039
  832MPD2    H712243   2.452   2.453  16.929  0.1045 -0.7726 -1.5481
  833MPD2     C12244   4.242   4.106  12.225 -0.2686  0.5430 -0.2131
  833MPD2    C112245   4.277   4.239  12.241 -0.1200  0.2244 -0.3007
  833MPD2    C212246   4.370   4.297  12.153  0.8098 -0.0282 -0.0356
  833MPD2    C312247   4.419   4.217  12.047 -0.1762 -0.4886 -0.3773
  833MPD2    C412248   4.373   4.087  12.021  0.6468  0.2281 -0.2999
  833MPD2    C512249   4.277   4.031  12.113  0.0258  0.2047 -0.5475
  833MPD2     H12250   4.400   4.400  12.168  0.3854 -0.3892  3.3560
  833MPD2    H112251   4.414   4.030  11.938 -0.4441 -1.8029  0.5452
  833MPD2    H212252   4.181   4.049  12.294 -1.0554  0.4314 -0.9991
  833MPD2    H312253   4.230   3.935  12.098 -0.1635  0.2729 -0.3900
  833MPD2     N12254   4.509   4.278  11.948  0.7942  0.1072 -0.1592
  833MPD2    H512255   4.533   4.217  11.870  0.4396  0.1782 -0.3239
  833MPD2    N112256   4.230   4.312  12.354  0.4165  0.4983 -0.2225
  833MPD2    H712257   4.138   4.281  12.385  1.2325 -1.6441  0.0324
  834MPD2     C12258   4.226   4.336  11.147  0.3803 -0.1838  0.3543
  834MPD2    C112259   4.236   4.239  11.245 -0.2142 -0.0361  0.2010
  834MPD2    C212260   4.313   4.259  11.356 -0.1271 -0.4926 -0.4297
  834MPD2    C312261   4.373   4.384  11.378 -0.4226  0.4326  0.2834
  834MPD2    C412262   4.373   4.476  11.268  0.5228 -0.1277 -0.0202
  834MPD2    C512263   4.301   4.446  11.150 -0.3886  0.4808  0.1007
  834MPD2     H12264   4.309   4.181  11.431  1.9972  1.1045  1.3162
  834MPD2    H112265   4.427   4.569  11.262  0.6789 -0.2353 -0.2781
  834MPD2    H212266   4.149   4.332  11.071  0.4224  0.8863  0.2516
  834MPD2    H312267   4.299   4.523  11.073  0.9081 -0.0865 -0.4972
  834MPD2     N12268   4.447   4.410  11.494  0.0093 -0.0329 -0.3741
  834MPD2    H512269   4.441   4.343  11.570  0.2979  0.7948  0.3838
  834MPD2    N112270   4.161   4.121  11.225 -0.5923  0.0207 -0.3645
  834MPD2    H712271   4.103   4.118  11.142 -0.0019 -2.3634 -0.7089
  835MPD2     C12272   3.991   1.825  11.013  0.7162  0.5367  0.2071
  835MPD2    C112273   3.868   1.803  11.060  0.6407 -0.6840 -0.0351
  835MPD2    C212274   3.844   1.785  11.195  0.6307 -0.4424  0.3622
  835MPD2    C312275   3.939   1.811  11.290  0.1066 -0.4039  0.8891
  835MPD2    C412276   4.065   1.839  11.240  0.2853 -0.6981  0.1615
  835MPD2    C512277   4.092   1.841  11.107  0.1181  0.1231 -0.1467
  835MPD2     H12278   3.741   1.770  11.224  0.9320  0.5788  2.0062
  835MPD2    H112279   4.138   1.862  11.317  0.9433 -1.1318 -0.3381
  835MPD2    H212280   4.021   1.838  10.910  0.4063 -1.2306 -0.1028
  835MPD2    H312281   4.193   1.862  11.074  0.4964 -3.2744 -1.1596
  835MPD2     N12282   3.926   1.815  11.431  0.5346  0.1519 -0.3370
  835MPD2    H512283   3.999   1.866  11.479  1.5735 -0.7820 -0.9026
  835MPD2    N112284   3.749   1.780  10.982 -0.0669 -0.5011 -0.4445
  835MPD2    H712285   3.663   1.749  11.026  0.8938 -0.8000  1.2229
  836MPD2     C12286   3.227   1.847  11.816  0.5051 -0.0653 -0.3369
  836MPD2    C112287   3.330   1.892  11.891 -0.1560  0.9081  0.3150
  836MPD2    C212288   3.304   1.963  12.005 -0.6628  0.4704  0.4939
  836MPD2    C312289   3.173   1.971  12.054  0.0386 -0.0119 -0.7927
  836MPD2    C412290   3.070   1.915  11.978 -0.2691  0.5450 -0.1252
  836MPD2    C512291   3.098   1.858  11.860  0.5976  0.3303  0.9579
  836MPD2     H12292   3.381   2.015  12.059  1.6108 -1.3118 -1.0342
  836MPD2    H112293   2.965   1.918  12.005 -0.4716 -0.6790 -0.7669
  836MPD2    H212294   3.240   1.799  11.720 -0.7145  0.5995 -0.8310
  836MPD2    H312295   3.017   1.814  11.803  0.0800  0.0333  1.9116
  836MPD2     N12296   3.141   2.028  12.183  0.1269 -0.2235  0.4320
  836MPD2    H512297   3.043   2.041  12.205  0.6129  1.9319  1.2497
  836MPD2    N112298   3.459   1.878  11.841  0.1053 -0.8906  0.1679
  836MPD2    H712299   3.461   1.852  11.743  0.2330  0.2002 -0.1202
  837MPD2     C12300   2.297   1.282   9.809  1.2055  0.6162  0.5668
  837MPD2    C112301   2.175   1.328   9.795 -0.5338  0.4833  0.3680
  837MPD2    C212302   2.141   1.459   9.826  0.0210 -0.3687 -0.0441
  837MPD2    C312303   2.240   1.551   9.841  0.5677  0.3975  0.4676
  837MPD2    C412304   2.366   1.501   9.846 -0.4150 -0.6544  0.6431
  837MPD2    C512305   2.400   1.367   9.838 -0.1102 -0.5275 -0.0113
  837MPD2     H12306   2.037   1.486   9.835  0.3243  0.1999  1.7629
  837MPD2    H112307   2.454   1.563   9.864 -1.9914  1.9180 -0.4920
  837MPD2    H212308   2.327   1.178   9.800  0.8622  0.5068  0.6852
  837MPD2    H312309   2.501   1.328   9.850  0.0985 -0.2182 -0.8393
  837MPD2     N12310   2.203   1.686   9.844 -0.4761 -0.2841  0.6245
  837MPD2    H512311   2.106   1.706   9.824 -0.6845 -1.6391  0.2950
  837MPD2    N112312   2.074   1.250   9.744  0.7895  0.4486  0.7038
  837MPD2    H712313   1.991   1.304   9.724 -0.3416 -1.6077 -0.2266
  838MPD2     C12314   0.396   4.075  10.964  0.1058  0.0079  0.4296
  838MPD2    C112315   0.342   4.174  11.036  0.0826  0.2677 -0.3819
  838MPD2    C212316   0.228   4.151  11.112  0.8463  0.1821  0.0909
  838MPD2    C312317   0.179   4.025  11.128 -0.4293 -0.1003  1.2089
  838MPD2    C412318   0.241   3.923  11.058 -0.0654  0.1100  0.7714
  838MPD2    C512319   0.346   3.948  10.981 -0.1673 -0.1976  1.1067
  838MPD2     H12320   0.192   4.231  11.176 -0.7545  1.1980 -2.0784
  838MPD2    H112321   0.217   3.818  11.067  0.1042 -0.1776 -2.1527
  838MPD2    H212322   0.489   4.085  10.908  1.6289  1.2408  3.1917
  838MPD2    H312323   0.390   3.862  10.931 -0.5033 -0.4243  1.2023
  838MPD2     N12324   0.082   4.006  11.228 -0.2142  1.1657 -0.5853
  838MPD2    H512325   0.064   4.088  11.286  1.9395  1.0271  0.3013
  838MPD2    N112326   0.402   4.303  11.063  0.0449 -0.1087  0.7884
  838MPD2    H712327   0.351   4.365  11.124 -0.8746  1.0056 -1.1133
  839MPD2     C12328   0.404   3.863  11.562 -0.2646 -0.6833 -0.3902
  839MPD2    C112329   0.412   3.882  11.428  0.1140  0.4566  0.0740
  839MPD2    C212330   0.457   3.995  11.375 -0.8600 -1.0346 -0.2393
  839MPD2    C312331   0.504   4.096  11.462  0.6092  0.2581  0.2979
  839MPD2    C412332   0.496   4.078  11.600  0.0670 -0.2564  0.1711
  839MPD2    C512333   0.448   3.961  11.646  0.1592  0.3314 -0.4240
  839MPD2     H12334   0.469   4.003  11.267  1.4189  0.8578  0.1467
  839MPD2    H112335   0.518   4.152  11.677  2.2472 -1.5503  0.7726
  839MPD2    H212336   0.368   3.777  11.618  1.7382 -0.7412  0.8236
  839MPD2    H312337   0.425   3.948  11.752  1.7804 -0.4126 -0.1700
  839MPD2     N12338   0.565   4.206  11.397  0.2823 -0.1633 -0.5800
  839MPD2    H512339   0.554   4.211  11.296  1.5920  2.6759 -0.5608
  839MPD2    N112340   0.359   3.788  11.341 -0.2570 -0.2520 -0.2708
  839MPD2    H712341   0.370   3.811  11.243 -0.3518  0.8165 -0.0342
  840MPD2     C12342   1.063   1.688  10.186  0.1079 -0.9905 -0.1695
  840MPD2    C112343   0.986   1.675  10.301  0.2301  0.4810 -0.1798
  840MPD2    C212344   1.005   1.766  10.405  0.7080 -0.0632  0.1278
  840MPD2    C312345   1.104   1.859  10.401 -0.7350  0.1364 -0.0994
  840MPD2    C412346   1.187   1.864  10.294 -0.3050  0.3267  0.1253
  840MPD2    C512347   1.164   1.782  10.186 -0.2511 -0.6335 -0.6572
  840MPD2     H12348   0.942   1.764  10.493  0.6471  0.8383  0.1061
  840MPD2    H112349   1.270   1.933  10.286  1.3660 -1.4958  1.5615
  840MPD2    H212350   1.044   1.627  10.099  3.0160 -2.1217 -0.0180
  840MPD2    H312351   1.224   1.797  10.097  0.8442 -1.3901 -0.0454
  840MPD2     N12352   1.117   1.959  10.503  0.4156 -0.0268 -0.1318
  840MPD2    H512353   1.191   2.025  10.485  0.6368 -0.2230  0.0458
  840MPD2    N112354   0.887   1.577  10.297  0.2583  0.7185  0.2439
  840MPD2    H712355   0.862   1.533  10.209 -0.0029 -1.2301  1.2923
  841MPD2     C12356   0.444   1.182  14.643 -0.2254  0.2780  0.4242
  841MPD2    C112357   0.518   1.152  14.533 -0.5486  0.5504  0.5736
  841MPD2    C212358   0.588   1.254  14.472 -0.0822 -0.2811  0.5089
  841MPD2    C312359   0.604   1.368  14.537 -0.8299 -0.7669 -0.5452
  841MPD2    C412360   0.544   1.397  14.656  0.6923  0.1424  0.0392
  841MPD2    C512361   0.453   1.304  14.702  0.2276 -1.0416  0.2356
  841MPD2     H12362   0.652   1.235  14.386  2.3787  0.2376  2.2281
  841MPD2    H112363   0.564   1.490  14.708  1.0238  0.0085  0.1477
  841MPD2    H212364   0.371   1.117  14.691 -1.7493  0.3433 -1.7961
  841MPD2    H312365   0.387   1.326  14.785 -1.0907 -2.1998 -0.5122
  841MPD2     N12366   0.693   1.464  14.479  0.6224  0.5423 -0.0370
  841MPD2    H512367   0.730   1.437  14.388 -1.0332  0.8234 -0.7898
  841MPD2    N112368   0.523   1.024  14.469 -0.9882 -0.3031  0.0442
  841MPD2    H712369   0.573   1.024  14.381 -1.8028  0.3647 -0.4212
  842MPD2     C12370   1.523   2.830  16.435  0.0244 -0.5267  0.0252
  842MPD2    C112371   1.408   2.756  16.416  0.1414  0.4254  0.2873
  842MPD2    C212372   1.382   2.650  16.504  0.5291 -0.0114 -0.0940
  842MPD2    C312373   1.479   2.624  16.606  0.3889  0.2324  0.3943
  842MPD2    C412374   1.595   2.693  16.605 -0.0115  0.7344 -0.2261
  842MPD2    C512375   1.619   2.788  16.522  0.0088 -0.0706 -0.3000
  842MPD2     H12376   1.291   2.593  16.495 -0.1516  1.2220 -0.9560
  842MPD2    H112377   1.681   2.669  16.666 -1.0773 -0.1858  0.9333
  842MPD2    H212378   1.563   2.908  16.372  1.4603  0.8119  2.6288
  842MPD2    H312379   1.712   2.844  16.520  0.0861 -0.1288  1.5865
  842MPD2     N12380   1.459   2.521  16.704 -0.0083 -0.4063 -0.3919
  842MPD2    H512381   1.540   2.496  16.760 -0.1874  2.0626  0.9356
  842MPD2    N112382   1.316   2.801  16.317  0.3525 -0.1052 -0.4471
  842MPD2    H712383   1.348   2.867  16.247  1.4955  0.8657  0.9980
  843MPD2     C12384   4.094   3.653  17.299  0.3106  0.5372 -0.3376
  843MPD2    C112385   4.026   3.548  17.354  0.1700  1.2650 -0.4308
  843MPD2    C212386   4.098   3.445  17.413  0.3133  0.4138 -0.3703
  843MPD2    C312387   4.228   3.460  17.430  0.6275 -0.4301  0.0555
  843MPD2    C412388   4.300   3.569  17.378  0.2188  0.0424  0.3960
  843MPD2    C512389   4.231   3.661  17.309 -0.4056 -0.0253  0.6602
  843MPD2     H12390   4.048   3.364  17.465  1.8421 -1.0520 -1.1943
  843MPD2    H112391   4.406   3.588  17.394  0.4830 -2.7539  1.9291
  843MPD2    H212392   4.045   3.734  17.247 -0.5280  2.0381  2.8099
  843MPD2    H312393   4.284   3.746  17.268  0.9264 -0.9633  0.4525
  843MPD2     N12394   4.310   3.373  17.503 -0.1530  0.3923  0.7204
  843MPD2    H512395   4.408   3.400  17.507  0.7442 -2.2902 -2.6981
  843MPD2    N112396   3.889   3.548  17.339  0.2986  0.1787 -0.8494
  843MPD2    H712397   3.846   3.635  17.308 -0.2531 -0.3903 -1.6775
  844MPD2     C12398   1.974   2.113  16.156 -0.1160 -0.3686 -0.2006
  844MPD2    C112399   2.100   2.053  16.162  0.6782  0.0337  0.0118
  844MPD2    C212400   2.210   2.122  16.209 -1.4044 -0.4606  0.0005
  844MPD2    C312401   2.193   2.248  16.256  0.4916  0.4290  1.3848
  844MPD2    C412402   2.070   2.307  16.263  0.1823 -0.0539  0.0552
  844MPD2    C512403   1.962   2.241  16.210  0.1104 -0.2825  0.1200
  844MPD2     H12404   2.310   2.083  16.194 -0.3716  1.4593  1.9265
  844MPD2    H112405   2.054   2.401  16.314  0.0045  0.6975 -1.3933
  844MPD2    H212406   1.883   2.072  16.114 -0.6970  1.2975 -0.5771
  844MPD2    H312407   1.866   2.290  16.223 -0.4995 -1.3243 -0.5064
  844MPD2     N12408   2.301   2.323  16.309 -0.0730  0.0955 -0.3254
  844MPD2    H512409   2.395   2.285  16.300 -0.1053  0.5248 -2.3736
  844MPD2    N112410   2.120   1.935  16.090 -0.4300  0.1638  0.1321
  844MPD2    H712411   2.213   1.911  16.059 -0.0882  0.9347  0.5614
  845MPD2     C12412   2.422   3.289  16.475  0.4871  0.1631  0.5780
  845MPD2    C112413   2.422   3.211  16.584 -0.1958 -0.1293  0.5590
  845MPD2    C212414   2.460   3.080  16.572  0.5892 -0.1465 -0.4764
  845MPD2    C312415   2.497   3.025  16.443  0.2607  0.1184 -0.5284
  845MPD2    C412416   2.492   3.103  16.331  0.0405  0.0091  0.0188
  845MPD2    C512417   2.458   3.234  16.352 -0.3210 -0.6469 -0.3006
  845MPD2     H12418   2.445   3.012  16.654 -3.3973  1.8646  0.4599
  845MPD2    H112419   2.516   3.065  16.233 -0.0466  0.1921 -0.0735
  845MPD2    H212420   2.410   3.396  16.474  2.6490  0.3991  0.5841
  845MPD2    H312421   2.465   3.297  16.264 -0.7399  2.1220  1.6367
  845MPD2     N12422   2.519   2.888  16.420 -0.0769 -0.3051  0.4646
  845MPD2    H512423   2.494   2.848  16.330 -2.2580  1.9172  0.0860
  845MPD2    N112424   2.378   3.265  16.711 -0.0943  0.3182 -0.6033
  845MPD2    H712425   2.344   3.361  16.711  0.3702  0.4905  1.2265
  846MPD2     C12426   3.933   3.311  13.007 -0.4050  0.0458  0.4298
  846MPD2    C112427   3.886   3.430  13.044  0.2872  0.4017  0.5524
  846MPD2    C212428   3.849   3.454  13.174  0.4139  0.4749 -0.2493
  846MPD2    C312429   3.865   3.349  13.269  0.2743 -0.0343 -0.0200
  846MPD2    C412430   3.914   3.229  13.227 -0.4984  0.1473 -0.1106
  846MPD2    C512431   3.945   3.209  13.096  0.4535  0.9328 -0.4473
  846MPD2     H12432   3.831   3.555  13.210  3.2455 -0.1124  2.7456
  846MPD2    H112433   3.926   3.146  13.295 -1.1759 -0.3817 -0.6372
  846MPD2    H212434   3.960   3.295  12.903  1.9614 -1.1785  1.2194
  846MPD2    H312435   3.969   3.108  13.065 -1.2102 -0.1802  1.8914
  846MPD2     N12436   3.816   3.375  13.405  0.3044  0.3895  0.2759
  846MPD2    H512437   3.784   3.468  13.431  1.5042  1.4373 -2.0528
  846MPD2    N112438   3.884   3.534  12.957 -0.6652 -0.2193 -0.6396
  846MPD2    H712439   3.857   3.625  12.993  0.9992  0.2403 -0.5474
  847MPD2     C12440   3.633   4.155  14.018 -0.5714 -0.2533 -0.0626
  847MPD2    C112441   3.766   4.169  14.041 -0.1081 -0.2918  0.0525
  847MPD2    C212442   3.824   4.086  14.137  0.2234  0.0990  0.0458
  847MPD2    C312443   3.744   4.004  14.217  1.2802  0.5364  0.2502
  847MPD2    C412444   3.609   3.994  14.199  0.3468 -0.3676 -0.1624
  847MPD2    C512445   3.565   4.057  14.085  0.0675 -0.4157  0.0946
  847MPD2     H12446   3.930   4.096  14.157  0.2890  1.4142 -0.9345
  847MPD2    H112447   3.543   3.931  14.257 -1.6895  0.5742 -1.4558
  847MPD2    H212448   3.575   4.210  13.944  1.5903 -1.5303 -2.7175
  847MPD2    H312449   3.463   4.041  14.055  0.0331 -0.8728  0.4519
  847MPD2     N12450   3.793   3.921  14.320  0.4556  0.1110  0.6575
  847MPD2    H512451   3.727   3.872  14.379 -0.2207 -0.4825 -0.5906
  847MPD2    N112452   3.847   4.260  13.973 -0.2017  0.0294  0.2370
  847MPD2    H712453   3.944   4.262  14.003 -0.0016 -0.7100 -0.3725
  848MPD2     C12454   1.608   2.692  15.978  0.7579 -0.3623  0.9664
  848MPD2    C112455   1.686   2.725  16.084 -0.6602 -0.0324 -0.3578
  848MPD2    C212456   1.757   2.843  16.083  0.0808 -0.2206 -0.5053
  848MPD2    C312457   1.741   2.940  15.981  0.3099  0.2159 -0.9020
  848MPD2    C412458   1.652   2.906  15.880  0.2101 -0.5507 -0.3034
  848MPD2    C512459   1.598   2.782  15.872  0.3522 -0.6928  0.9811
  848MPD2     H12460   1.820   2.860  16.169 -2.6165 -0.8340  1.5823
  848MPD2    H112461   1.614   2.979  15.809  0.8356 -0.1396 -0.2133
  848MPD2    H212462   1.556   2.597  15.970  1.6261 -0.7924  0.5114
  848MPD2    H312463   1.539   2.756  15.785 -0.7030  1.3157  1.1165
  848MPD2     N12464   1.804   3.063  15.971  0.6682  0.0961  0.2400
  848MPD2    H512465   1.796   3.110  15.881 -2.3699  0.9361  0.9689
  848MPD2    N112466   1.699   2.647  16.194 -0.0136  0.4278  0.6950
  848MPD2    H712467   1.756   2.678  16.273  0.8208  0.0954  0.2295
  849MPD2     C12468   1.030   2.393  13.622  0.5793 -0.2542 -0.3701
  849MPD2    C112469   1.143   2.426  13.692 -1.0566  0.1962 -0.2696
  849MPD2    C212470   1.176   2.364  13.812  0.1279 -0.7752 -0.0576
  849MPD2    C312471   1.096   2.267  13.859 -0.2810 -0.1970 -1.3375
  849MPD2    C412472   0.984   2.230  13.789 -0.6179 -0.6060 -0.3078
  849MPD2    C512473   0.950   2.289  13.672 -1.0411  0.2418 -0.3830
  849MPD2     H12474   1.273   2.387  13.855  0.5590 -0.7613 -1.0511
  849MPD2    H112475   0.920   2.147  13.817 -1.2558 -0.8553 -2.4958
  849MPD2    H212476   1.005   2.440  13.528  0.5032  2.2309  0.9117
  849MPD2    H312477   0.860   2.261  13.619  0.0698 -0.6922 -1.7514
  849MPD2     N12478   1.143   2.196  13.971 -0.1016  0.3348  0.1214
  849MPD2    H512479   1.235   2.225  14.005 -0.5702  1.6343  0.2658
  849MPD2    N112480   1.238   2.519  13.636  0.0408  0.0584  0.1158
  849MPD2    H712481   1.312   2.546  13.700  0.0932 -1.0776  0.5272
  850MPD2     C12482   3.729   0.128  14.364 -0.1884 -0.1362 -0.8104
  850MPD2    C112483   3.710   0.234  14.454  0.9105  0.1704 -0.2127
  850MPD2    C212484   3.820   0.290  14.513 -0.2252 -0.1826  0.2807
  850MPD2    C312485   3.945   0.236  14.500 -0.6855  0.0446 -0.3068
  850MPD2    C412486   3.962   0.126  14.415 -0.3297 -0.4973  0.6442
  850MPD2    C512487   3.856   0.078  14.347 -0.1630  0.4722 -0.9823
  850MPD2     H12488   3.815   0.373  14.583 -2.9629 -0.5824  0.5946
  850MPD2    H112489   4.057   0.077  14.399 -0.6184 -0.9527  0.3149
  850MPD2    H212490   3.645   0.078  14.317  0.0237 -0.9840 -0.2958
  850MPD2    H312491   3.865   4.712  14.288 -3.3757 -0.1450 -0.5250
  850MPD2     N12492   4.063   0.271  14.565 -0.4827  0.3541 -0.0870
  850MPD2    H512493   4.144   0.210  14.556  0.1298  1.1278  0.1593
  850MPD2    N112494   3.577   0.285  14.464 -0.0053  0.0622 -0.0560
  850MPD2    H712495   3.515   0.249  14.392 -1.2436 -0.3346  1.2213
  851MPD2     C12496   3.970   0.234  15.251 -0.2574 -0.8178  0.5569
  851MPD2    C112497   3.931   0.177  15.131  0.0033  0.5782  0.4030
  851MPD2    C212498   3.994   0.073  15.079 -0.2240 -0.5271 -0.7003
  851MPD2    C312499   4.109   0.023  15.148  0.3289  0.5156  0.0526
  851MPD2    C412500   4.151   0.080  15.266 -0.5202 -0.2735 -0.6187
  851MPD2    C512501   4.080   0.184  15.318  0.2565  0.0107  0.9910
  851MPD2     H12502   3.960   0.020  14.991 -0.5917 -1.4108 -0.0246
  851MPD2    H112503   4.226   0.043  15.335 -1.2692 -0.0993  0.2915
  851MPD2    H212504   3.911   0.312  15.299  2.0946 -0.2203  2.4735
  851MPD2    H312505   4.099   0.220  15.418 -2.0891 -0.5125  1.6258
  851MPD2     N12506   4.172   4.633  15.088 -0.4140 -0.2497 -0.4038
  851MPD2    H512507   4.126   4.597  15.005 -1.6601  1.0266 -0.2527
  851MPD2    N112508   3.831   0.249  15.061  0.0069  0.5036 -0.3554
  851MPD2    H712509   3.801   0.334  15.108 -1.0626 -0.3564  0.5433
  852MPD2     C12510   3.069   3.063  10.184 -0.5476  0.2441 -0.0988
  852MPD2    C112511   3.108   3.106  10.310 -0.6352  0.3483 -0.4173
  852MPD2    C212512   3.172   3.231  10.316 -0.5569 -0.5764 -0.3499
  852MPD2    C312513   3.212   3.302  10.198 -0.0019 -0.1998 -0.3264
  852MPD2    C412514   3.159   3.259  10.071  0.1672 -0.0496 -0.5967
  852MPD2    C512515   3.088   3.139  10.071  0.1127 -0.1460 -0.9262
  852MPD2     H12516   3.192   3.270  10.415 -0.1486  0.2896 -0.7675
  852MPD2    H112517   3.169   3.314   9.978  0.5765  1.2603  0.2277
  852MPD2    H212518   3.024   2.965  10.177 -0.9059  0.3582  0.5381
  852MPD2    H312519   3.061   3.086   9.981  1.8025  0.2038 -1.6360
  852MPD2     N12520   3.263   3.431  10.216  0.3654 -0.3268  0.5574
  852MPD2    H512521   3.295   3.467  10.306 -1.0567 -0.4057  1.0843
  852MPD2    N112522   3.102   3.029  10.432 -0.1999 -0.0659 -0.3059
  852MPD2    H712523   3.131   3.082  10.513  1.0879 -1.3830  0.0837
  853MPD2     C12524   0.530   3.055  12.091 -0.1261 -0.9648  0.3487
  853MPD2    C112525   0.400   3.024  12.103  0.4148 -0.4064  0.4420
  853MPD2    C212526   0.340   2.948  12.000 -0.1385  0.1671 -0.1317
  853MPD2    C312527   0.415   2.900  11.892  0.0804  0.2585 -0.2078
  853MPD2    C412528   0.552   2.918  11.905 -0.0970 -0.3122 -0.2997
  853MPD2    C512529   0.606   2.990  12.001  0.0844 -0.5058  0.3983
  853MPD2     H12530   0.232   2.934  12.005 -0.4515  2.5438 -0.5984
  853MPD2    H112531   0.618   2.864  11.837 -1.2069 -0.8309 -0.9582
  853MPD2    H212532   0.581   3.113  12.168 -0.8211 -1.5794  1.2628
  853MPD2    H312533   0.714   2.999  12.003  0.1356 -1.1214  0.3222
  853MPD2     N12534   0.364   2.820  11.783  0.1747  0.2789 -0.0472
  853MPD2    H512535   0.432   2.780  11.720  0.4232 -0.5582  0.7592
  853MPD2    N112536   0.339   3.073  12.220 -0.0879  0.1726  0.1720
  853MPD2    H712537   0.392   3.106  12.300  1.0690  2.5190 -1.5802
  854MPD2     C12538   2.104   3.060  12.945 -0.1477  0.5776  0.0626
  854MPD2    C112539   2.068   3.047  12.814  0.4451  0.5861 -0.1143
  854MPD2    C212540   2.071   2.923  12.760 -0.5807 -0.3190  0.0901
  854MPD2    C312541   2.120   2.809  12.831 -0.6197  0.8281  0.3705
  854MPD2    C412542   2.155   2.829  12.961  0.2430  0.0950  0.0255
  854MPD2    C512543   2.138   2.955  13.017  0.2335  0.0614 -0.6852
  854MPD2     H12544   2.050   2.906  12.655 -0.9364 -0.2722  0.1537
  854MPD2    H112545   2.194   2.750  13.024 -0.6150 -0.5110 -0.2059
  854MPD2    H212546   2.090   3.158  12.988  1.8765  1.4201 -1.1947
  854MPD2    H312547   2.168   2.980  13.119 -1.8810 -0.7318  0.1204
  854MPD2     N12548   2.162   2.687  12.776  0.1118 -0.0092  0.1337
  854MPD2    H512549   2.221   2.628  12.834  2.4421  0.4781 -1.7047
  854MPD2    N112550   2.030   3.167  12.739  0.0963  0.0168 -0.3903
  854MPD2    H712551   2.022   3.258  12.783  1.2084 -0.3259  0.4981
  855MPD2     C12552   2.838   2.358  13.080 -0.0256  0.0261 -0.0861
  855MPD2    C112553   2.710   2.377  13.126  0.2496 -0.1342 -0.9417
  855MPD2    C212554   2.605   2.376  13.038 -0.0265  0.0127 -0.2750
  855MPD2    C312555   2.636   2.358  12.902 -0.4992 -0.7788 -0.3769
  855MPD2    C412556   2.767   2.343  12.860 -0.2793 -0.0605  0.0990
  855MPD2    C512557   2.867   2.337  12.951  0.2821 -0.2102 -0.2134
  855MPD2     H12558   2.503   2.391  13.074 -0.8102 -3.1291 -1.1999
  855MPD2    H112559   2.789   2.330  12.755  2.0161  1.7343  0.3495
  855MPD2    H212560   2.925   2.360  13.144 -0.0729  2.6106 -0.1022
  855MPD2    H312561   2.969   2.322  12.918  0.5612  3.6943 -1.1436
  855MPD2     N12562   2.527   2.376  12.812  0.2124 -0.3286 -0.6938
  855MPD2    H512563   2.439   2.379  12.861  0.5471  1.6539 -0.2114
  855MPD2    N112564   2.683   2.401  13.264  0.0407  0.3476  0.2465
  855MPD2    H712565   2.586   2.393  13.290  0.0245  1.2003  0.4184
  856MPD2     C12566   4.383   3.721  13.631 -0.7123 -0.3053 -0.3102
  856MPD2    C112567   4.454   3.805  13.707  0.4196  0.1828 -0.0956
  856MPD2    C212568   4.470   3.935  13.666  1.0432  0.8204 -0.3023
  856MPD2    C312569   4.424   3.977  13.541 -0.5889  0.1819 -0.0037
  856MPD2    C412570   4.352   3.890  13.461 -0.1266 -0.8237  0.0683
  856MPD2    C512571   4.334   3.766  13.512 -0.1612  0.2759 -0.6009
  856MPD2     H12572   4.511   4.002  13.740  0.2233  1.6378 -0.5856
  856MPD2    H112573   4.326   3.920  13.361 -1.6024  0.7957  0.9436
  856MPD2    H212574   4.358   3.618  13.653 -1.3017  0.0195  0.5435
  856MPD2    H312575   4.272   3.695  13.458 -1.9048 -0.3398  2.1788
  856MPD2     N12576   4.437   4.111  13.497 -0.3334  0.2334 -1.0693
  856MPD2    H512577   4.387   4.122  13.409 -1.9454  1.9286  0.0540
  856MPD2    N112578   4.520   3.762  13.824  0.0858  0.3517 -0.8415
  856MPD2    H712579   4.590   3.829  13.854 -0.1460  0.3599 -0.3222
  857MPD2     C12580   1.288   1.084  12.503  0.2673 -0.4263 -0.0484
  857MPD2    C112581   1.426   1.086  12.498  0.5993  0.1997 -0.9962
  857MPD2    C212582   1.494   1.186  12.570  0.5825 -0.3710 -0.8604
  857MPD2    C312583   1.424   1.295  12.621 -0.3270  0.0761  0.0644
  857MPD2    C412584   1.292   1.300  12.614  0.2261 -0.0997 -0.2928
  857MPD2    C512585   1.228   1.192  12.560 -0.5990  0.4900  0.8887
  857MPD2     H12586   1.602   1.177  12.565  0.5474 -1.1309 -0.2762
  857MPD2    H112587   1.236   1.381  12.659  0.2700 -0.5894  0.6482
  857MPD2    H212588   1.229   1.015  12.443 -0.2074 -0.0090 -0.0628
  857MPD2    H312589   1.120   1.198  12.561 -0.6323 -0.4470  2.8794
  857MPD2     N12590   1.496   1.402  12.687  0.2899 -0.6534 -0.4110
  857MPD2    H512591   1.593   1.378  12.708  0.0846 -1.2081 -0.0969
  857MPD2    N112592   1.489   0.980  12.433 -0.4299 -0.1727  0.0082
  857MPD2    H712593   1.430   0.898  12.424 -2.5450  1.0674  2.3136
  858MPD2     C12594   1.972   4.456  16.367  0.0598 -0.2345 -0.3706
  858MPD2    C112595   2.104   4.466  16.388  0.4791  0.3986 -0.5258
  858MPD2    C212596   2.160   4.552  16.487  0.0089 -0.1097 -0.2425
  858MPD2    C312597   2.074   4.632  16.564 -0.7418 -0.7470  0.3899
  858MPD2    C412598   1.943   4.625  16.532 -0.0539 -0.8717 -0.1141
  858MPD2    C512599   1.885   4.539  16.436  0.2433  0.0498 -0.4722
  858MPD2     H12600   2.268   4.552  16.500 -0.3040 -0.8357  2.3362
  858MPD2    H112601   1.872   4.697  16.571 -0.1875 -1.6988  1.1771
  858MPD2    H212602   1.923   4.375  16.312 -3.8054  1.4580  0.5888
  858MPD2    H312603   1.778   4.546  16.419  0.1748 -1.5211 -0.6822
  858MPD2     N12604   2.118   4.721  16.662  0.0891 -0.3012  0.5825
  858MPD2    H512605   2.044   0.062  16.687  0.5237  0.6020 -0.4323
  858MPD2    N112606   2.200   4.382  16.323 -0.8203 -0.4313 -0.1373
  858MPD2    H712607   2.293   4.419  16.334 -1.5612  1.0693  1.1063
  859MPD2     C12608   0.718   2.189  14.699  0.0191  1.3804  0.3420
  859MPD2    C112609   0.804   2.187  14.801 -0.3175  0.2523  0.5368
  859MPD2    C212610   0.837   2.065  14.859  0.4268 -0.2639 -0.7378
  859MPD2    C312611   0.772   1.955  14.812  0.1281  0.5894  0.7075
  859MPD2    C412612   0.682   1.954  14.710 -0.1927  0.3765  0.1525
  859MPD2    C512613   0.658   2.077  14.652 -0.0680  0.4051 -0.3124
  859MPD2     H12614   0.917   2.058  14.931 -0.1621  1.0281  0.0467
  859MPD2    H112615   0.622   1.868  14.682  2.7485 -2.2221  1.8506
  859MPD2    H212616   0.681   2.275  14.645  0.5597  1.4217  0.0316
  859MPD2    H312617   0.585   2.080  14.572  3.1077 -0.9921 -3.2650
  859MPD2     N12618   0.791   1.820  14.868 -0.4634 -0.0586  0.6408
  859MPD2    H512619   0.747   1.748  14.812  0.2451 -0.7691  0.9986
  859MPD2    N112620   0.869   2.308  14.831 -0.3132 -0.3570  0.3405
  859MPD2    H712621   0.824   2.391  14.794  0.7608  1.1432  2.4155
  860MPD2     C12622   3.497   2.466  11.500  0.0520  0.2341 -0.0480
  860MPD2    C112623   3.441   2.547  11.599  0.2049 -0.1111  0.0774
  860MPD2    C212624   3.309   2.549  11.611 -0.0056  0.0918 -0.6761
  860MPD2    C312625   3.227   2.490  11.515 -0.1758 -0.4549  0.3741
  860MPD2    C412626   3.275   2.410  11.416  0.1820 -0.4324  0.4034
  860MPD2    C512627   3.417   2.397  11.416 -0.3971 -0.1936 -0.4047
  860MPD2     H12628   3.266   2.595  11.699 -0.4058 -3.2069  0.8602
  860MPD2    H112629   3.212   2.366  11.339 -1.2848  0.0874  1.3115
  860MPD2    H212630   3.603   2.452  11.487 -0.5748 -3.3243 -1.2286
  860MPD2    H312631   3.462   2.340  11.335 -0.1365  0.7773 -0.9369
  860MPD2     N12632   3.092   2.511  11.520  0.1458  0.2442 -0.1035
  860MPD2    H512633   3.067   2.584  11.587  1.2137  1.8239 -1.4129
  860MPD2    N112634   3.519   2.613  11.703  0.2357 -0.0302 -0.2693
  860MPD2    H712635   3.471   2.645  11.786  0.6513 -1.6966  0.5875
  861MPD2     C12636   1.524   0.926  11.049 -0.2366  0.1747  0.2646
  861MPD2    C112637   1.584   1.044  11.074 -0.0744 -0.6004  0.3460
  861MPD2    C212638   1.565   1.143  10.979 -0.4641 -0.0135  0.3085
  861MPD2    C312639   1.483   1.127  10.864 -0.1058  0.4239 -0.7854
  861MPD2    C412640   1.419   1.005  10.850  0.8853  0.0247 -0.9463
  861MPD2    C512641   1.442   0.910  10.943  0.2483 -0.1957 -0.3651
  861MPD2     H12642   1.613   1.237  11.003  0.9821 -0.9223  0.9702
  861MPD2    H112643   1.354   0.977  10.768  0.6613  0.4511 -0.9155
  861MPD2    H212644   1.535   0.842  11.116 -1.1785  0.9459  1.3961
  861MPD2    H312645   1.390   0.816  10.929 -0.2433 -0.0765  0.6920
  861MPD2     N12646   1.453   1.231  10.773 -0.0898  0.0446  0.0190
  861MPD2    H512647   1.375   1.210  10.712 -0.3689 -0.7087  0.6358
  861MPD2    N112648   1.658   1.078  11.190 -0.3776 -1.0069 -0.3528
  861MPD2    H712649   1.700   1.170  11.199  0.2685 -1.5219  1.8567
  862MPD2     C12650   1.330   1.460  10.099 -0.5383  0.5189 -0.2572
  862MPD2    C112651   1.369   1.375  10.199  1.1987  0.0322 -0.0239
  862MPD2    C212652   1.394   1.246  10.179  0.7330  0.1135  0.2548
  862MPD2    C312653   1.380   1.193  10.054 -0.2463  0.1283 -0.5412
  862MPD2    C412654   1.335   1.274   9.955  0.4263  0.1686 -0.4651
  862MPD2    C512655   1.296   1.401   9.981 -0.2343  0.4566 -0.2455
  862MPD2     H12656   1.442   1.187  10.256  0.5751  0.1729  0.3990
  862MPD2    H112657   1.310   1.233   9.857  0.5417 -0.7528 -0.1033
  862MPD2    H212658   1.302   1.563  10.119  0.1560  0.6551  0.0083
  862MPD2    H312659   1.251   1.467   9.908 -0.3571 -1.2583 -1.7008
  862MPD2     N12660   1.403   1.047  10.041  0.2920 -0.1247 -0.1486
  862MPD2    H512661   1.429   0.991  10.122 -0.5415  2.1576  1.6664
  862MPD2    N112662   1.381   1.428  10.328 -0.1320 -0.4834  0.1163
  862MPD2    H712663   1.399   1.360  10.401  1.3633  1.4189  1.5163
  863MPD2     C12664   0.377   3.578  16.414  0.1856 -0.0204 -0.1286
  863MPD2    C112665   0.443   3.694  16.439 -0.1945  0.1447  0.2651
  863MPD2    C212666   0.557   3.697  16.519  0.2435 -0.0853  0.2029
  863MPD2    C312667   0.596   3.575  16.584 -0.2178  0.2195  0.1440
  863MPD2    C412668   0.523   3.464  16.570  0.2435  0.0120  0.9380
  863MPD2    C512669   0.424   3.461  16.476  0.3791 -0.0457  0.1227
  863MPD2     H12670   0.609   3.790  16.538  0.3977 -0.2939  0.8055
  863MPD2    H112671   0.535   3.368  16.619 -2.2205  0.3975  2.2789
  863MPD2    H212672   0.285   3.566  16.358 -0.3092  1.9077  0.2458
  863MPD2    H312673   0.360   3.376  16.455  2.2281 -1.2100 -0.8093
  863MPD2     N12674   0.714   3.570  16.670 -0.8223  0.3525 -0.3509
  863MPD2    H512675   0.720   3.489  16.731 -2.2917  0.7041  0.2614
  863MPD2    N112676   0.375   3.807  16.388 -0.2735 -0.5206 -0.2182
  863MPD2    H712677   0.289   3.776  16.344  0.5252 -1.5794 -1.0248
  864MPD2     C12678   0.935   0.158  16.200  0.8850  0.2422 -0.2280
  864MPD2    C112679   0.895   0.244  16.299 -0.2205  0.0512 -0.8558
  864MPD2    C212680   0.959   0.362  16.318 -0.5830 -0.7076 -0.0831
  864MPD2    C312681   1.045   0.403  16.217  0.3773 -0.4551 -0.2582
  864MPD2    C412682   1.055   0.322  16.102 -0.2541  0.6404 -0.3943
  864MPD2    C512683   1.007   0.200  16.095  0.2065  1.0501  0.1377
  864MPD2     H12684   0.938   0.423  16.405  0.2420  2.5030 -2.0979
  864MPD2    H112685   1.113   0.362  16.020 -0.9273 -1.7537 -2.0520
  864MPD2    H212686   0.903   0.054  16.195 -0.8310  0.8357 -1.4889
  864MPD2    H312687   1.016   0.136  16.009 -0.9036  1.0764  0.0089
  864MPD2     N12688   1.130   0.516  16.228  0.4696 -0.3035  0.0141
  864MPD2    H512689   1.195   0.534  16.152 -0.9733 -0.8389 -1.3678
  864MPD2    N112690   0.809   0.186  16.386 -0.4128 -0.3587 -0.3950
  864MPD2    H712691   0.800   0.085  16.378 -1.8172 -0.2720  0.0460
  865MPD2     C12692   1.434   0.780  15.715  0.0359  0.3155 -0.2289
  865MPD2    C112693   1.374   0.714  15.821  0.0140  0.4091  0.1469
  865MPD2    C212694   1.319   0.796  15.921 -0.0787  0.0885  0.3283
  865MPD2    C312695   1.301   0.932  15.899 -0.1058 -0.4737 -0.1886
  865MPD2    C412696   1.354   0.993  15.789  0.6506  0.4283  0.2631
  865MPD2    C512697   1.430   0.917  15.702  0.0385 -0.6382 -0.2994
  865MPD2     H12698   1.280   0.747  16.010 -1.8061 -0.8011 -0.9129
  865MPD2    H112699   1.354   1.101  15.781  2.2804  0.5137  1.4861
  865MPD2    H212700   1.471   0.733  15.625  1.0360  0.5041  0.0825
  865MPD2    H312701   1.466   0.978  15.620  2.1253 -0.7694  0.5288
  865MPD2     N12702   1.226   1.023  15.985 -0.5820 -0.4325 -1.0640
  865MPD2    H512703   1.201   1.112  15.941  3.2003  1.1340 -0.0204
  865MPD2    N112704   1.383   0.571  15.825  0.0845 -0.0852 -0.3899
  865MPD2    H712705   1.422   0.528  15.741 -0.2094  0.3200 -0.7358
  866MPD2     C12706   2.459   1.528  11.345 -0.3312 -0.2639 -0.4883
  866MPD2    C112707   2.443   1.504  11.211  0.6909 -0.9276  0.5048
  866MPD2    C212708   2.328   1.549  11.147  0.4167 -0.0261  0.6542
  866MPD2    C312709   2.222   1.606  11.223 -0.3394 -0.4312  0.2118
  866MPD2    C412710   2.246   1.632  11.362  1.1005 -0.0800 -0.5905
  866MPD2    C512711   2.370   1.602  11.415 -0.0963 -0.1960 -0.9214
  866MPD2     H12712   2.323   1.540  11.039  1.6991 -0.4449  0.6246
  866MPD2    H112713   2.186   1.697  11.425 -0.9580 -1.7728 -0.8075
  866MPD2    H212714   2.560   1.529  11.385 -0.1569 -0.2409 -0.9341
  866MPD2    H312715   2.401   1.620  11.517  0.4306 -1.3938 -0.8806
  866MPD2     N12716   2.108   1.658  11.155 -0.1121  0.8371  0.4385
  866MPD2    H512717   2.035   1.688  11.219  1.3302 -0.7371  2.8367
  866MPD2    N112718   2.551   1.450  11.136 -0.8756  0.3163  0.1012
  866MPD2    H712719   2.531   1.446  11.036  1.5273 -0.5970 -0.3466
  867MPD2     C12720   4.578   0.683  16.051 -0.4552  0.2799 -0.3886
  867MPD2    C112721   4.683   0.646  16.143 -0.2382 -0.5721 -0.7212
  867MPD2    C212722   4.688   0.715  16.262  0.4674 -0.0285 -0.5004
  867MPD2    C312723   4.586   0.809  16.296 -0.1801  0.1998  0.2346
  867MPD2    C412724   4.494   0.845  16.199  0.0569  0.0088  0.1025
  867MPD2    C512725   4.494   0.783  16.080  0.3455  0.1800  0.9506
  867MPD2     H12726   0.041   0.691  16.334  0.9656  1.5579 -0.4968
  867MPD2    H112727   4.409   0.910  16.217  0.4279  0.1972  1.1775
  867MPD2    H212728   4.576   0.634  15.954 -2.1747 -1.5216  0.5655
  867MPD2    H312729   4.405   0.784  16.017  0.3276 -1.1310  0.9412
  867MPD2     N12730   4.579   0.879  16.421 -0.7125  0.2420  0.5535
  867MPD2    H512731   4.509   0.953  16.427  0.0188  0.9315  0.6051
  867MPD2    N112732   0.054   0.546  16.102 -0.0003  0.0047  0.0362
  867MPD2    H712733   0.037   0.485  16.022  0.2961  0.0744 -0.0759
  868MPD2     C12734   1.527   3.490  13.173 -0.0807  0.9784  0.2153
  868MPD2    C112735   1.569   3.622  13.170 -1.1788  0.1851 -0.5035
  868MPD2    C212736   1.516   3.715  13.260  0.0907 -0.6811  0.4860
  868MPD2    C312737   1.426   3.675  13.348 -0.5662  0.7616  0.3814
  868MPD2    C412738   1.374   3.546  13.337  0.0765 -0.1641  0.6570
  868MPD2    C512739   1.427   3.451  13.257  0.2842  0.0923 -0.1656
  868MPD2     H12740   1.555   3.816  13.259  0.4298 -0.8097  0.5510
  868MPD2    H112741   1.290   3.515  13.398 -0.5129  1.0480  0.4748
  868MPD2    H212742   1.553   3.413  13.101  0.0166  1.1860  0.0296
  868MPD2    H312743   1.396   3.348  13.265  0.4191  0.1523  1.1286
  868MPD2     N12744   1.390   3.764  13.461 -0.1537  0.2625  0.0218
  868MPD2    H512745   1.428   3.859  13.460 -1.4259  0.7848  1.0231
  868MPD2    N112746   1.669   3.650  13.076  0.5302 -0.4852 -0.1798
  868MPD2    H712747   1.708   3.563  13.040  0.8327 -0.3211 -0.2558
  869MPD2     C12748   3.755   2.847   0.681 -0.5006 -0.3285  0.4104
  869MPD2    C112749   3.624   2.821   0.718 -0.0668  0.0132  0.3535
  869MPD2    C212750   3.533   2.927   0.726 -0.3951 -0.5766  0.7388
  869MPD2    C312751   3.566   3.054   0.685  0.0902 -0.0548 -0.5505
  869MPD2    C412752   3.702   3.079   0.653  0.4911 -0.0070 -0.0529
  869MPD2    C512753   3.798   2.982   0.652  0.1261 -0.3912 -0.6494
  869MPD2     H12754   3.430   2.896   0.736  0.2108 -2.8234  0.0840
  869MPD2    H112755   3.737   3.182   0.645  2.0393 -0.5791 -0.6975
  869MPD2    H212756   3.834   2.775   0.663  0.8309  1.0513  0.7232
  869MPD2    H312757   3.902   3.012   0.642  0.4396 -0.6327  1.7740
  869MPD2     N12758   3.466   3.151   0.662  0.4439 -0.4388 -0.0065
  869MPD2    H512759   3.490   3.234   0.609  0.6197 -0.3577  0.2022
  869MPD2    N112760   3.580   2.686   0.743  0.1972 -0.2370 -0.2964
  869MPD2    H712761   3.628   2.604   0.706 -2.0983 -1.4274 -0.6635
  870MPD2     C12762   1.609   1.175   1.617  0.2131 -0.8050 -0.5275
  870MPD2    C112763   1.741   1.153   1.589  0.2484  0.4640  0.0960
  870MPD2    C212764   1.783   1.160   1.459 -0.3133  0.6329 -0.9540
  870MPD2    C312765   1.698   1.205   1.354  0.2961 -0.0602  0.0831
  870MPD2    C412766   1.565   1.228   1.381  0.0460 -0.0283  0.4932
  870MPD2    C512767   1.527   1.214   1.514 -0.7472 -0.1255  0.3284
  870MPD2     H12768   1.882   1.131   1.426 -0.5688 -2.4350  0.9648
  870MPD2    H112769   1.489   1.256   1.308 -0.8207 -1.0376  1.0112
  870MPD2    H212770   1.564   1.168   1.715  0.5560  3.1763 -0.0814
  870MPD2    H312771   1.428   1.250   1.541  0.8800  3.4185  1.5050
  870MPD2     N12772   1.761   1.225   1.228 -0.0785  0.0643 -0.3379
  870MPD2    H512773   1.861   1.210   1.222  0.0528  0.3246  1.3110
  870MPD2    N112774   1.813   1.120   1.704 -0.4380  0.4237 -0.5525
  870MPD2    H712775   1.770   1.125   1.796  0.1493  1.2415 -0.3196
  871MPD2     C12776   3.392   0.421  16.251 -0.1202  0.4145 -0.4250
  871MPD2    C112777   3.459   0.435  16.374  0.0531 -0.4567 -0.1808
  871MPD2    C212778   3.538   0.334  16.414 -0.1123 -0.1751  0.3358
  871MPD2    C312779   3.557   0.223  16.334 -0.4304 -0.0837  0.6828
  871MPD2    C412780   3.503   0.220  16.210  0.2454 -0.4074  0.0194
  871MPD2    C512781   3.419   0.313  16.168 -0.7712  0.3860  0.0200
  871MPD2     H12782   3.592   0.334  16.508 -2.3921  1.7471  1.6623
  871MPD2    H112783   3.511   0.132  16.147 -0.8422 -0.9530  0.6423
  871MPD2    H212784   3.319   0.496  16.222 -2.2497 -1.2663  0.6348
  871MPD2    H312785   3.376   0.299  16.069 -1.9951 -0.4244  0.6756
  871MPD2     N12786   3.612   0.107  16.385 -0.8488  0.2185  0.0206
  871MPD2    H512787   3.606   0.094  16.485 -0.4094 -1.5576 -0.1682
  871MPD2    N112788   3.425   0.547  16.452 -0.3174  1.1293 -0.1612
  871MPD2    H712789   3.351   0.602  16.410  0.5544  2.2693 -0.2235
  872MPD2     C12790   4.713   2.473  13.825  0.7568 -0.3551  0.6764
  872MPD2    C112791   4.669   2.602  13.800  0.1505 -0.4262 -0.5068
  872MPD2    C212792   4.543   2.643  13.848  0.4647  0.2286 -0.3360
  872MPD2    C312793   4.463   2.550  13.907  0.5885 -0.3345 -0.2737
  872MPD2    C412794   4.501   2.413  13.922  0.4224  0.2569 -0.5076
  872MPD2    C512795   4.631   2.375  13.878  0.5884  0.0258  0.0458
  872MPD2     H12796   4.515   2.747  13.834 -4.0747 -0.9128  0.0110
  872MPD2    H112797   4.436   2.339  13.967  1.8597  0.0730  1.2405
  872MPD2    H212798   0.080   2.429  13.788 -0.5839 -0.9972 -1.8678
  872MPD2    H312799   4.670   2.275  13.893  3.2595  1.1609  0.6186
  872MPD2     N12800   4.335   2.575  13.952 -0.5861  0.0091  0.2959
  872MPD2    H512801   4.292   2.507  14.014  1.8985 -2.1056 -0.3006
  872MPD2    N112802   0.027   2.697  13.739  0.2453 -0.3364 -0.7724
  872MPD2    H712803   4.723   2.792  13.718  0.2680 -0.1842 -0.1233
  873MPD2     C12804   2.000   2.767   0.957 -0.3213  0.5856  0.3600
  873MPD2    C112805   1.874   2.744   0.916  1.2536  1.0150  0.4100
  873MPD2    C212806   1.848   2.620   0.861  0.6301  0.0655 -0.2538
  873MPD2    C312807   1.951   2.525   0.840 -0.8102  0.2686  0.4261
  873MPD2    C412808   2.070   2.545   0.899  0.1192  0.1386 -0.4668
  873MPD2    C512809   2.096   2.672   0.947  0.2932  0.1061 -1.0252
  873MPD2     H12810   1.744   2.595   0.842  0.5803  1.1994 -1.5027
  873MPD2    H112811   2.146   2.469   0.914  0.7519  1.0453  0.9283
  873MPD2    H212812   2.029   2.862   0.999  1.7016  0.0194  0.2474
  873MPD2    H312813   2.198   2.683   0.984  0.4182 -2.2529 -0.6488
  873MPD2     N12814   1.928   2.391   0.789  0.1775 -0.2634  0.4020
  873MPD2    H512815   1.991   2.318   0.821 -0.3798  0.2821  2.7852
  873MPD2    N112816   1.780   2.845   0.945 -0.0734  0.5971 -0.2822
  873MPD2    H712817   1.810   2.921   1.005  0.4618  1.0413 -1.1169
  874MPD2     C12818   1.364   3.108  15.617  0.1512  0.5977  0.7073
  874MPD2    C112819   1.359   3.130  15.753  0.6859  0.0229  0.3668
  874MPD2    C212820   1.447   3.222  15.811 -0.7097 -0.4242 -0.0345
  874MPD2    C312821   1.549   3.284  15.738  0.1056 -0.0063 -0.5134
  874MPD2    C412822   1.550   3.257  15.602 -0.4453  0.4807  0.0773
  874MPD2    C512823   1.464   3.169  15.546 -0.3166  0.0870 -1.0853
  874MPD2     H12824   1.453   3.232  15.919 -0.0359 -0.0852 -0.1010
  874MPD2    H112825   1.624   3.302  15.538 -0.8367  2.2707  0.8745
  874MPD2    H212826   1.291   3.042  15.572 -0.7525  3.0902 -1.4628
  874MPD2    H312827   1.466   3.154  15.438 -1.5779 -0.2681 -1.0589
  874MPD2     N12828   1.650   3.361  15.808  0.2966 -0.1028  0.0244
  874MPD2    H512829   1.636   3.385  15.906  0.0291 -1.0886  0.2287
  874MPD2    N112830   1.251   3.066  15.833  0.1686 -0.5790 -0.0249
  874MPD2    H712831   1.198   2.993  15.785 -0.1176  0.3983 -1.1981
  875MPD2     C12832   2.594   1.167  14.431  0.2452  0.8968 -0.2483
  875MPD2    C112833   2.468   1.199  14.470  0.4544  0.9882 -0.4018
  875MPD2    C212834   2.449   1.260  14.594  0.6251  0.7642  0.0450
  875MPD2    C312835   2.553   1.312  14.668 -0.6227  0.4763 -0.1689
  875MPD2    C412836   2.676   1.303  14.607  0.0068 -0.3512  0.0756
  875MPD2    C512837   2.703   1.227  14.493 -0.0955 -0.5589 -0.0371
  875MPD2     H12838   2.347   1.248  14.630  0.3440  1.1405 -0.6217
  875MPD2    H112839   2.763   1.337  14.661  0.5526 -0.5262 -0.6969
  875MPD2    H212840   2.609   1.107  14.342 -0.5278  2.0684 -1.1736
  875MPD2    H312841   2.806   1.202  14.467  0.3245  0.5107  0.5856
  875MPD2     N12842   2.537   1.370  14.798  0.2923  0.4903  0.1919
  875MPD2    H512843   2.622   1.408  14.839 -0.6843 -0.2745  2.8736
  875MPD2    N112844   2.343   1.153  14.420  0.2982 -0.9245 -0.1058
  875MPD2    H712845   2.262   1.183  14.473  0.7056  0.9963 -0.5720
  876MPD2     C12846   1.156   2.506  15.862  0.3425  0.5593 -0.0670
  876MPD2    C112847   1.285   2.495  15.822 -0.3854 -0.6081  0.3706
  876MPD2    C212848   1.359   2.392  15.874  0.0538 -0.4997 -0.0167
  876MPD2    C312849   1.305   2.292  15.955 -0.8280  0.1017  0.4075
  876MPD2    C412850   1.165   2.300  15.980  0.5202 -0.0773  0.3658
  876MPD2    C512851   1.093   2.418  15.946 -0.1120  0.2078 -0.6823
  876MPD2     H12852   1.464   2.372  15.852  0.3004 -0.8967  1.4823
  876MPD2    H112853   1.110   2.234  16.045 -1.8122  1.8447  0.3336
  876MPD2    H212854   1.114   2.589  15.806  2.5089  0.5752 -1.6642
  876MPD2    H312855   0.991   2.430  15.981 -0.0907 -1.3673 -0.0914
  876MPD2     N12856   1.393   2.190  15.999 -0.2808 -0.5244 -0.1702
  876MPD2    H512857   1.487   2.185  15.961 -0.3823 -2.2237 -0.1899
  876MPD2    N112858   1.326   2.566  15.701  0.0706  0.0902  0.3336
  876MPD2    H712859   1.254   2.618  15.652  0.4495  0.6606  0.3703
  877MPD2     C12860   1.144   3.033  15.134 -0.5300 -0.0083  0.2961
  877MPD2    C112861   1.275   2.998  15.101 -0.1300 -0.6472  0.3068
  877MPD2    C212862   1.315   3.014  14.974  0.0891 -0.1970 -0.8280
  877MPD2    C312863   1.236   3.060  14.869 -0.2406 -0.7367  0.2387
  877MPD2    C412864   1.104   3.084  14.902  0.3976 -0.2976  0.0008
  877MPD2    C512865   1.054   3.067  15.032  0.4148  0.0112 -0.7993
  877MPD2     H12866   1.420   2.995  14.961  0.3187 -0.1168  0.8683
  877MPD2    H112867   1.034   3.112  14.825 -0.1873 -0.3153  0.5222
  877MPD2    H212868   1.114   3.040  15.238  2.4578  0.9030  1.0853
  877MPD2    H312869   0.949   3.079  15.059  0.4278 -1.4471 -0.0772
  877MPD2     N12870   1.274   3.066  14.732 -0.2868 -0.1989  0.1903
  877MPD2    H512871   1.204   3.097  14.665  0.7339  1.0096 -0.3337
  877MPD2    N112872   1.365   2.948  15.201  0.0300 -0.6381  0.2254
  877MPD2    H712873   1.459   2.924  15.168 -0.2214  0.3733 -1.2317
  878MPD2     C12874   1.418   2.343  12.728  0.2159 -0.7252  0.3751
  878MPD2    C112875   1.418   2.481  12.753 -0.7022 -0.6564  0.5637
  878MPD2    C212876   1.455   2.535  12.872  1.1260  0.1284 -0.4770
  878MPD2    C312877   1.503   2.458  12.980 -1.1566  0.3731  0.2330
  878MPD2    C412878   1.501   2.320  12.957 -0.1208  0.0283 -0.2757
  878MPD2    C512879   1.466   2.260  12.834 -0.0196  0.7694  0.1619
  878MPD2     H12880   1.431   2.638  12.896 -1.7107 -0.7747  0.6794
  878MPD2    H112881   1.511   2.259  13.046  0.9071  0.2734 -0.2303
  878MPD2    H212882   1.395   2.309  12.627  2.0333  0.2186 -0.3550
  878MPD2    H312883   1.469   2.152  12.822 -0.0474  0.8668 -0.7507
  878MPD2     N12884   1.533   2.499  13.109 -0.7013 -0.3211  0.7070
  878MPD2    H512885   1.566   2.425  13.170  2.6102  0.2693 -0.3502
  878MPD2    N112886   1.341   2.554  12.669  0.2222 -0.2214 -0.5029
  878MPD2    H712887   1.287   2.498  12.604 -0.4826 -2.0830  1.6645
  879MPD2     C12888   1.233   3.727  16.651  0.3345  0.6026 -0.4101
  879MPD2    C112889   1.242   3.617  16.724  0.4698 -0.6536  0.3956
  879MPD2    C212890   1.182   3.501  16.683 -0.5927 -0.7402  0.3753
  879MPD2    C312891   1.105   3.495  16.568 -0.9629  0.3421  0.6957
  879MPD2    C412892   1.101   3.606  16.487  0.9440 -0.1244  0.7820
  879MPD2    C512893   1.165   3.721  16.531  0.0855 -0.3200  0.4323
  879MPD2     H12894   1.206   3.408  16.734 -2.1231 -0.6679  1.2107
  879MPD2    H112895   1.056   3.608  16.389 -0.5376 -0.0918  1.4654
  879MPD2    H212896   1.286   3.818  16.678 -2.1636  1.7166  0.7190
  879MPD2    H312897   1.153   3.802  16.460 -0.6957 -0.1185  0.7909
  879MPD2     N12898   1.050   3.370  16.526  0.0221 -0.5314  0.0056
  879MPD2    H512899   1.018   3.367  16.430  1.6436  0.0697 -0.5496
  879MPD2    N112900   1.325   3.629  16.841  0.5953 -0.4262 -0.6067
  879MPD2    H712901   1.376   3.713  16.864 -1.3443  0.4226  0.5878
  880MPD2     C12902   2.909   0.653   0.008  0.2829 -0.9707  0.3918
  880MPD2    C112903   2.920   0.667   0.141  0.9560 -0.5109 -0.4932
  880MPD2    C212904   2.993   0.575   0.211 -0.5807 -0.2347 -0.0706
  880MPD2    C312905   3.058   0.464   0.149 -0.3979 -0.5497  0.0613
  880MPD2    C412906   3.050   0.455   0.014 -0.7459 -0.0973  0.0627
  880MPD2    C512907   2.975   0.544  17.643  0.2458 -0.2854 -0.5320
  880MPD2     H12908   3.015   0.586   0.317  0.9132  0.7680 -0.4860
  880MPD2    H112909   3.084   0.368  17.658  1.1169  1.1266 -0.7115
  880MPD2    H212910   2.838   0.708  17.647 -0.1281 -0.8881  0.9482
  880MPD2    H312911   2.952   0.532  17.538 -1.3271 -1.8660  0.0083
  880MPD2     N12912   3.132   0.369   0.223 -0.1922 -0.5447 -0.2510
  880MPD2    H512913   3.143   0.400   0.318 -0.2143 -0.5485 -0.2471
  880MPD2    N112914   2.849   0.772   0.194 -0.5064  0.2575 -0.0698
  880MPD2    H712915   2.805   0.833   0.126 -1.2291  0.5320  0.6321
  881MPD2     C12916   2.526   1.620  17.515  0.4979 -0.5204  0.0071
  881MPD2    C112917   2.558   1.493  17.480 -0.4056 -0.0276 -0.0027
  881MPD2    C212918   2.593   1.399  17.578  0.4586  0.6951  0.1288
  881MPD2    C312919   2.598   1.444   0.010 -0.1323 -0.8181  0.5421
  881MPD2    C412920   2.555   1.574   0.046  0.0102 -0.0883  0.0231
  881MPD2    C512921   2.513   1.659  17.649  0.3648  0.4173 -0.5412
  881MPD2     H12922   2.639   1.305  17.549  1.3971  1.2602 -0.2024
  881MPD2    H112923   2.551   1.597   0.152  1.5489 -0.1081  0.0842
  881MPD2    H212924   2.483   1.692  17.446  0.5467 -2.1445 -1.7255
  881MPD2    H312925   2.469   1.756  17.671 -0.8338  0.4225 -2.9206
  881MPD2     N12926   2.628   1.352   0.117  0.2452 -0.2017  0.1405
  881MPD2    H512927   2.631   1.393   0.209  0.1296  1.4938 -0.6100
  881MPD2    N112928   2.577   1.470  17.346  0.4483  0.9225 -0.6999
  881MPD2    H712929   2.552   1.546  17.284 -0.3535  0.3878 -1.0304
  882MPD2     C12930   1.097   2.669  14.288  0.2356 -0.1929 -0.0015
  882MPD2    C112931   1.084   2.800  14.253 -0.2166 -0.0204 -0.1868
  882MPD2    C212932   0.964   2.845  14.197  0.7159 -0.4036  0.6532
  882MPD2    C312933   0.871   2.748  14.162  0.5428  0.1444 -0.0222
  882MPD2    C412934   0.887   2.618  14.207 -0.7261 -0.4567  0.4639
  882MPD2    C512935   1.000   2.576  14.265  0.6693  0.2889 -0.0165
  882MPD2     H12936   0.944   2.951  14.182 -0.4898 -0.9826 -1.7339
  882MPD2    H112937   0.807   2.549  14.182  1.6181 -3.7382  1.9690
  882MPD2    H212938   1.190   2.629  14.328 -0.7382 -2.0670  0.4258
  882MPD2    H312939   1.016   2.471  14.288  0.3989  0.2912  0.1814
  882MPD2     N12940   0.739   2.782  14.114  0.0285  0.6705 -0.0477
  882MPD2    H512941   0.679   2.700  14.118  1.2385 -0.0307  3.5997
  882MPD2    N112942   1.195   2.887  14.275 -0.0063  0.0445 -0.6210
  882MPD2    H712943   1.285   2.842  14.282  0.2773  0.5430 -1.0674
  883MPD2     C12944   3.686   2.869  16.758  0.2689  0.2422 -0.2908
  883MPD2    C112945   3.770   2.876  16.648  0.6500 -0.5301  0.4717
  883MPD2    C212946   3.895   2.833  16.668 -0.4540 -0.9963 -0.6680
  883MPD2    C312947   3.946   2.797  16.798 -0.1780  0.1130  0.1580
  883MPD2    C412948   3.863   2.789  16.901  0.0564 -0.2784  0.6416
  883MPD2    C512949   3.733   2.820  16.880  0.0950 -0.2914 -0.0059
  883MPD2     H12950   3.964   2.842  16.585  1.2073 -0.7008  0.7384
  883MPD2    H112951   3.893   2.746  16.996 -1.1270  0.2603  1.2676
  883MPD2    H212952   3.584   2.906  16.755  0.7078  1.2217 -3.2164
  883MPD2    H312953   3.657   2.815  16.957 -1.0040 -1.0199 -1.1376
  883MPD2     N12954   4.087   2.769  16.814 -0.1257 -0.4151  0.5573
  883MPD2    H512955   4.149   2.788  16.737  1.0894 -1.6051  1.2525
  883MPD2    N112956   3.730   2.914  16.514 -0.5396 -0.2811  0.3318
  883MPD2    H712957   3.805   2.909  16.447 -0.8521  1.4874 -0.1562
  884MPD2     C12958   0.197   3.250  14.975  0.0804 -0.3154  0.1236
  884MPD2    C112959   0.229   3.385  14.951  0.0600 -0.3773  0.5080
  884MPD2    C212960   0.158   3.488  15.012 -0.3089  0.2913 -0.1228
  884MPD2    C312961   0.047   3.455  15.081 -0.2710 -0.0491  0.5524
  884MPD2    C412962   0.019   3.322  15.113  0.2843 -0.2348  0.0297
  884MPD2    C512963   0.092   3.222  15.060 -0.1398 -0.4775 -0.7204
  884MPD2     H12964   0.191   3.585  14.978  0.0063  0.2272 -0.0088
  884MPD2    H112965   4.653   3.301  15.170 -0.0693 -1.9475 -1.1577
  884MPD2    H212966   0.256   3.165  14.944  1.1371  0.6417 -0.5335
  884MPD2    H312967   0.083   3.116  15.083 -0.8928  0.0285  1.3164
  884MPD2     N12968   4.690   3.562  15.123  0.7478  0.3889  0.3796
  884MPD2    H512969   4.707   3.656  15.088 -0.6352  0.1074 -1.0552
  884MPD2    N112970   0.336   3.418  14.870  0.1921  0.1526 -0.1194
  884MPD2    H712971   0.343   3.516  14.844 -1.7960  0.4291  0.3669
  885MPD2     C12972   3.639   4.195  17.632  0.3349 -0.4771 -0.1441
  885MPD2    C112973   3.674   4.079  17.576 -0.1905  0.3225  0.3725
  885MPD2    C212974   3.614   4.052  17.449 -0.3504 -0.4434  0.0342
  885MPD2    C312975   3.525   4.141  17.394 -1.3034 -0.2634  0.9045
  885MPD2    C412976   3.478   4.250  17.463  0.0021  0.3844 -0.1709
  885MPD2    C512977   3.542   4.281  17.583  0.4228 -0.5706 -0.4519
  885MPD2     H12978   3.638   3.966  17.388 -0.4005  0.1011 -0.7588
  885MPD2    H112979   3.393   4.310  17.431 -0.0231  0.8556  0.7709
  885MPD2    H212980   3.693   4.233   0.019 -0.4300  0.8669 -0.2365
  885MPD2    H312981   3.519   4.371  17.639 -0.2439 -0.9291 -0.1458
  885MPD2     N12982   3.482   4.120  17.262  0.0907 -0.4298 -0.8338
  885MPD2    H512983   3.516   4.036  17.217  0.8958 -0.2723 -0.5116
  885MPD2    N112984   3.772   4.003  17.644 -0.0470  0.0708  0.0005
  885MPD2    H712985   3.817   4.044   0.027  1.5961 -0.7392 -0.4997
  886MPD2     C12986   0.041   2.119  14.667  0.0068 -0.8164 -0.2059
  886MPD2    C112987   0.096   2.180  14.770 -0.3813  0.5048  0.5115
  886MPD2    C212988   0.082   2.320  14.773  0.6648  0.6756  0.1467
  886MPD2    C312989   0.008   2.392  14.684 -0.2046  0.0922  0.2346
  886MPD2    C412990   4.668   2.321  14.587 -0.5037  0.4282  1.0752
  886MPD2    C512991   4.685   2.186  14.578 -0.2020  0.0524  0.5523
  886MPD2     H12992   0.148   2.367  14.846 -0.1490 -0.9756  1.9436
  886MPD2    H112993   4.617   2.383  14.514 -0.4727 -1.0517 -0.1942
  886MPD2    H212994   0.053   2.012  14.652  1.9560 -0.7343  0.8697
  886MPD2    H312995   4.643   2.132  14.494  2.8101 -0.6030 -0.5244
  886MPD2     N12996   0.007   2.538  14.685  0.2263 -0.4719  1.0811
  886MPD2    H512997   4.682   2.581  14.608  1.8206  2.5156  1.7263
  886MPD2    N112998   0.186   2.102  14.857  0.5827 -0.1497 -0.3238
  886MPD2    H712999   0.246   2.149  14.924 -0.5224  1.5168 -0.5019
  887MPD2     C13000   0.768   2.202  15.255  0.4313  0.3921  0.2527
  887MPD2    C113001   0.679   2.230  15.155  0.0111 -0.2182  0.2143
  887MPD2    C213002   0.683   2.360  15.100  0.0076  0.0650 -0.4696
  887MPD2    C313003   0.753   2.460  15.168 -0.1345 -0.2568  0.2768
  887MPD2    C413004   0.848   2.425  15.255  0.1156  0.7342 -0.2849
  887MPD2    C513005   0.863   2.296  15.292  0.6628 -0.7775 -0.0005
  887MPD2     H13006   0.610   2.393  15.028 -0.1022 -1.2992 -0.9886
  887MPD2    H113007   0.921   2.499  15.287  1.3156 -1.6151  2.4123
  887MPD2    H213008   0.782   2.106  15.304  1.7071  0.2265 -0.4483
  887MPD2    H313009   0.942   2.269  15.361  2.1167  1.9112 -0.6347
  887MPD2     N13010   0.738   2.596  15.119  0.0613  0.5051 -0.2338
  887MPD2    H513011   0.654   2.620  15.067  0.3206 -2.3882 -1.9536
  887MPD2    N113012   0.586   2.138  15.107 -0.2344  0.3402  0.5269
  887MPD2    H713013   0.518   2.169  15.039  0.5725 -2.0399 -1.3505
  888MPD2     C13014   2.440   2.561  14.392  0.3804  0.0312  0.5081
  888MPD2    C113015   2.471   2.602  14.525  0.5783  0.9148  0.2977
  888MPD2    C213016   2.565   2.703  14.535  0.3663  0.1721  0.1332
  888MPD2    C313017   2.623   2.763  14.426  0.3340  0.2906  0.3333
  888MPD2    C413018   2.600   2.717  14.298 -0.2868  0.3243 -0.4578
  888MPD2    C513019   2.508   2.611  14.289  0.3497 -0.0766  0.4180
  888MPD2     H13020   2.600   2.742  14.629  2.3207  0.2302 -0.6332
  888MPD2    H113021   2.630   2.773  14.210 -0.7267  0.8401 -0.2830
  888MPD2    H213022   2.373   2.477  14.379  1.5592 -0.6278 -1.3020
  888MPD2    H313023   2.468   2.584  14.192  1.5326 -1.0449  0.2016
  888MPD2     N13024   2.706   2.870  14.454 -0.1043 -0.2051 -0.0463
  888MPD2    H513025   2.717   2.899  14.551 -0.1815 -0.6991  0.1064
  888MPD2    N113026   2.406   2.552  14.644  0.1419  0.4121  0.3496
  888MPD2    H713027   2.423   2.600  14.732 -2.1725  1.0104  0.4723
  889MPD2     C13028   1.775   2.039  12.552  0.2689 -0.1126 -0.1190
  889MPD2    C113029   1.779   2.037  12.691  0.2148  0.4293 -0.2341
  889MPD2    C213030   1.790   2.160  12.751 -0.6361 -0.0245  0.0370
  889MPD2    C313031   1.806   2.276  12.675 -0.2245  0.0946 -0.4202
  889MPD2    C413032   1.814   2.267  12.538  0.5340  0.0122 -0.3784
  889MPD2    C513033   1.814   2.143  12.478  0.1680 -0.6005 -0.2276
  889MPD2     H13034   1.776   2.177  12.857  2.6904  0.8100  0.3430
  889MPD2    H113035   1.847   2.350  12.476  1.1476 -0.2658 -0.4153
  889MPD2    H213036   1.772   1.940  12.508 -3.0394  0.7618 -1.8673
  889MPD2    H313037   1.822   2.133  12.370 -0.0690 -0.0106 -0.3001
  889MPD2     N13038   1.801   2.396  12.752  0.0599 -0.2536  0.2109
  889MPD2    H513039   1.803   2.387  12.853  1.4554 -1.7871  0.0309
  889MPD2    N113040   1.725   1.926  12.749 -0.8883 -0.1430  0.3355
  889MPD2    H713041   1.734   1.842  12.693 -0.8215 -0.3244  0.6164
  890MPD2     C13042   1.428   3.884  14.659  1.4398 -0.7380 -0.4926
  890MPD2    C113043   1.439   3.994  14.744  0.3759 -0.7197  0.3853
  890MPD2    C213044   1.453   3.971  14.877 -0.2946  0.9129 -0.2965
  890MPD2    C313045   1.452   3.844  14.926 -0.1288  0.5141 -0.0679
  890MPD2    C413046   1.447   3.745  14.841  0.8625 -0.2282 -0.9099
  890MPD2    C513047   1.428   3.760  14.708 -0.3336  0.4992 -0.1042
  890MPD2     H13048   1.447   4.054  14.947  2.2152  0.1624  0.8160
  890MPD2    H113049   1.460   3.645  14.882 -0.2827  0.2057  0.5043
  890MPD2    H213050   1.422   3.890  14.551 -1.2233 -1.3223 -0.3736
  890MPD2    H313051   1.440   3.686  14.629 -3.1040  0.7466 -0.7557
  890MPD2     N13052   1.452   3.815  15.064 -0.6664 -0.0795  0.1179
  890MPD2    H513053   1.454   3.897  15.124  1.3695 -0.9574  1.2501
  890MPD2    N113054   1.442   4.117  14.684 -0.1539  0.4612 -0.2098
  890MPD2    H713055   1.446   4.110  14.583 -1.8268 -0.6400 -0.2036
  891MPD2     C13056   4.261   2.238  16.229  0.0694  0.2987  0.1670
  891MPD2    C113057   4.162   2.180  16.305  0.6404 -0.4946 -0.7240
  891MPD2    C213058   4.204   2.098  16.407 -0.6778 -0.2134  0.1220
  891MPD2    C313059   4.338   2.057  16.423 -0.3168  0.6298 -0.2450
  891MPD2    C413060   4.438   2.121  16.344 -0.5906  0.3979  0.0082
  891MPD2    C513061   4.392   2.209  16.248 -0.0102  0.3846  0.6245
  891MPD2     H13062   4.125   2.054  16.467 -1.2403  0.9066  0.2010
  891MPD2    H113063   4.542   2.091  16.351 -0.4046  1.2628  0.9803
  891MPD2    H213064   4.244   2.305  16.146  2.5246  1.0423  0.2644
  891MPD2    H313065   4.473   2.249  16.188 -0.7315 -0.1060 -0.6844
  891MPD2     N13066   4.368   1.957  16.519  0.1839  0.0765  0.0477
  891MPD2    H513067   4.298   1.919  16.583 -0.7723  1.6472 -0.0619
  891MPD2    N113068   4.031   2.224  16.281  0.4837 -0.4513  0.1621
  891MPD2    H713069   4.017   2.291  16.205  0.3813 -1.5153 -0.7505
  892MPD2     C13070   0.291   3.496  14.464  0.1524 -0.0290 -0.0704
  892MPD2    C113071   0.212   3.382  14.482  0.3368  0.8973 -0.0891
  892MPD2    C213072   0.240   3.270  14.411 -0.1581 -0.1513 -0.5126
  892MPD2    C313073   0.342   3.267  14.310  0.2383  0.1317  0.0561
  892MPD2    C413074   0.416   3.384  14.290 -0.1928  0.6973  0.2727
  892MPD2    C513075   0.390   3.499  14.365  0.5467 -0.1549 -0.1706
  892MPD2     H13076   0.171   3.188  14.426  0.3413 -0.5086 -0.1598
  892MPD2    H113077   0.496   3.392  14.218  0.1671 -4.5009  0.1024
  892MPD2    H213078   0.276   3.586  14.523 -1.8147 -1.7055  1.9836
  892MPD2    H313079   0.456   3.584  14.356  1.6485 -0.7666  2.2421
  892MPD2     N13080   0.357   3.158  14.218 -0.0148 -0.0369  0.3907
  892MPD2    H513081   0.412   3.179  14.136 -0.9182 -1.2822 -0.5389
  892MPD2    N113082   0.094   3.375  14.564  0.0840 -0.0249 -0.1937
  892MPD2    H713083   0.032   3.295  14.556 -0.2358  0.0582  1.5552
  893MPD2     C13084   2.475   1.430   1.392  0.1089  0.4265  0.7396
  893MPD2    C113085   2.422   1.526   1.312  0.6593  0.5062 -0.3320
  893MPD2    C213086   2.335   1.626   1.367 -0.2039 -0.3076 -0.0715
  893MPD2    C313087   2.316   1.622   1.504 -0.0246  0.6826  1.0039
  893MPD2    C413088   2.368   1.519   1.577  0.2462 -0.1204 -0.0644
  893MPD2    C513089   2.458   1.430   1.525 -0.1394  0.2186 -0.1673
  893MPD2     H13090   2.293   1.703   1.303 -2.5984 -0.4115  1.3859
  893MPD2    H113091   2.343   1.526   1.682  1.2997 -0.2397  0.2049
  893MPD2    H213092   2.536   1.352   1.346 -1.8681 -1.2330  0.9205
  893MPD2    H313093   2.502   1.352   1.586 -0.5251  0.5769  0.5738
  893MPD2     N13094   2.240   1.721   1.574 -0.3223  0.2094 -0.2106
  893MPD2    H513095   2.241   1.705   1.674  0.2427  1.8872  0.0491
  893MPD2    N113096   2.455   1.533   1.178 -0.3279  0.3065  0.4844
  893MPD2    H713097   2.486   1.450   1.129  0.5127  1.0775 -0.2970
  894MPD2     C13098   0.089   3.485   0.490 -0.2729  0.3437 -0.6271
  894MPD2    C113099   0.065   3.564   0.597  0.7814 -1.0049  0.4853
  894MPD2    C213100   0.065   3.701   0.576  0.6174  0.1364 -0.3336
  894MPD2    C313101   0.101   3.758   0.450  0.8697 -0.6985 -0.1376
  894MPD2    C413102   0.134   3.668   0.346 -0.0421  0.2256 -0.2592
  894MPD2    C513103   0.133   3.532   0.373 -1.0755  0.2679 -0.2030
  894MPD2     H13104   0.053   3.761   0.665 -3.5212 -1.4795  0.1924
  894MPD2    H113105   0.180   3.696   0.252  0.6892 -2.1662 -0.6053
  894MPD2    H213106   0.077   3.377   0.494 -2.2109  0.5636 -0.6563
  894MPD2    H313107   0.179   3.459   0.308  0.8290  0.0899  1.3544
  894MPD2     N13108   0.101   3.900   0.430  0.1582 -0.7307  0.0405
  894MPD2    H513109   0.082   3.949   0.517  1.9807  1.1759 -0.6277
  894MPD2    N113110   0.012   3.511   0.716  0.7899 -0.3093 -0.2423
  894MPD2    H713111   4.715   3.579   0.788 -1.0750 -0.7944 -0.3378
  895MPD2     C13112   4.494   2.411  13.543 -0.6647 -0.2461 -0.3625
  895MPD2    C113113   4.354   2.417  13.535 -0.5057  0.1264  0.0278
  895MPD2    C213114   4.288   2.290  13.537  0.3601  0.2683  0.1485
  895MPD2    C313115   4.349   2.171  13.519  0.2755 -0.7219 -0.2230
  895MPD2    C413116   4.487   2.170  13.530 -0.0858  0.4049 -0.3832
  895MPD2    C513117   4.554   2.287  13.547 -0.2692  0.0547 -0.4355
  895MPD2     H13118   4.183   2.307  13.519  0.8166  1.5955 -1.2484
  895MPD2    H113119   4.558   2.088  13.520 -1.8074 -1.2208  0.6609
  895MPD2    H213120   4.553   2.500  13.558 -1.5253  0.5878 -1.8829
  895MPD2    H313121   4.662   2.291  13.543 -0.2262 -0.4810  0.1110
  895MPD2     N13122   4.282   2.049  13.487  0.1030 -0.1502  0.2246
  895MPD2    H513123   4.338   1.965  13.479  0.6338  0.1783  0.4759
  895MPD2    N113124   4.282   2.538  13.541  0.1594 -0.4231 -0.4105
  895MPD2    H713125   4.181   2.529  13.537  0.2517 -0.9268 -1.6002
  896MPD2     C13126   1.104   0.011   1.867 -0.3029 -0.3182  0.2747
  896MPD2    C113127   1.163   0.012   1.744  0.6453  0.6311 -0.5254
  896MPD2    C213128   1.078   4.692   1.641  0.0384 -0.5205  0.1694
  896MPD2    C313129   0.942   4.672   1.660 -0.3304  0.1521 -0.2460
  896MPD2    C413130   0.890   4.680   1.783 -0.3205 -0.1678 -0.2979
  896MPD2    C513131   0.970   4.711   1.885 -0.3977 -0.6255  0.1376
  896MPD2     H13132   1.112   4.675   1.539 -0.0771 -0.5565  0.1362
  896MPD2    H113133   0.784   4.670   1.803 -0.3123  0.9253  0.3189
  896MPD2    H213134   1.160   0.037   1.956  0.9514  1.3145 -0.9904
  896MPD2    H313135   0.934   4.714   1.987 -2.6545 -1.8150 -0.6202
  896MPD2     N13136   0.862   4.645   1.539 -0.2318  0.4767 -1.0628
  896MPD2    H513137   0.914   4.643   1.452 -0.3869 -1.7728 -1.0916
  896MPD2    N113138   1.303   0.037   1.726 -0.1380  0.2947  0.8537
  896MPD2    H713139   1.352   0.066   1.810  0.9072 -0.0715  0.3703
  897MPD2     C13140   2.472   1.765  10.162  0.1651  0.1356 -0.4524
  897MPD2    C113141   2.460   1.897  10.186 -0.3292  0.9349 -0.3501
  897MPD2    C213142   2.371   1.948  10.269  0.6674 -0.1414  0.0135
  897MPD2    C313143   2.285   1.860  10.334 -0.6304 -0.6053  1.1627
  897MPD2    C413144   2.303   1.723  10.321  0.4999  0.0615 -0.4776
  897MPD2    C513145   2.398   1.675  10.230 -0.0655 -0.1747  0.1914
  897MPD2     H13146   2.349   2.054  10.274 -0.2005 -0.2912 -0.5363
  897MPD2    H113147   2.250   1.645  10.375  0.4943 -0.3701 -1.1097
  897MPD2    H213148   2.541   1.730  10.086 -0.1222  0.1527 -0.7221
  897MPD2    H313149   2.413   1.569  10.211  0.0456 -0.1808  0.3076
  897MPD2     N13150   2.207   1.927  10.428  0.6957  0.4836 -0.2750
  897MPD2    H513151   2.207   2.028  10.423  1.0461  0.4275 -1.5124
  897MPD2    N113152   2.545   1.980  10.112  0.1932  0.0405  0.1838
  897MPD2    H713153   2.598   1.949  10.032 -2.8369 -1.0513 -1.3745
  898MPD2     C13154   0.243   1.863  17.113 -0.0778 -0.0918  0.5340
  898MPD2    C113155   0.320   1.976  17.123  0.3956 -0.0819 -0.7103
  898MPD2    C213156   0.301   2.071  17.026 -0.2424  0.7960  0.4792
  898MPD2    C313157   0.205   2.056  16.925  0.1124  1.0284  0.4281
  898MPD2    C413158   0.129   1.938  16.914 -1.0318 -0.5951 -0.2524
  898MPD2    C513159   0.151   1.852  17.015 -0.2357 -0.5029 -0.5084
  898MPD2     H13160   0.368   2.157  17.024  0.3597  0.3366  1.0534
  898MPD2    H113161   0.044   1.923  16.849  0.0523  0.3152 -1.8940
  898MPD2    H213162   0.256   1.780  17.182  2.7763 -1.2169 -1.3678
  898MPD2    H313163   0.088   1.763  17.014 -0.4019 -0.3961  1.2114
  898MPD2     N13164   0.186   2.173  16.846  0.2184 -0.0010  0.4197
  898MPD2    H513165   0.238   2.260  16.855 -2.0821  1.2825  1.4272
  898MPD2    N113166   0.423   1.997  17.217  0.5038  0.1670  0.2425
  898MPD2    H713167   0.475   2.082  17.197  0.5874 -0.0540 -0.5106
  899MPD2     C13168   0.932   3.049  16.997  0.0151  0.0975  0.7692
  899MPD2    C113169   0.938   3.166  17.069 -1.1541 -0.5219 -0.3773
  899MPD2    C213170   0.910   3.153  17.206  0.1606  0.0125 -0.0697
  899MPD2    C313171   0.873   3.035  17.264  0.2548 -0.0707 -0.0317
  899MPD2    C413172   0.870   2.928  17.186  0.6218  0.0970 -0.9375
  899MPD2    C513173   0.890   2.929  17.049  0.1218 -0.9194 -0.1441
  899MPD2     H13174   0.914   3.240  17.270 -1.3594  0.4642 -0.5853
  899MPD2    H113175   0.844   2.831  17.227 -0.7162  0.9373  0.1895
  899MPD2    H213176   0.954   3.060  16.891  0.7060  2.4257  1.1591
  899MPD2    H313177   0.873   2.839  16.992  0.6436 -2.8416  2.7373
  899MPD2     N13178   0.843   3.027  17.408 -0.2648  0.6428 -0.5084
  899MPD2    H513179   0.843   2.931  17.443  0.9753  1.6532  2.2631
  899MPD2    N113180   0.960   3.290  17.002 -0.4164 -0.0303 -0.1157
  899MPD2    H713181   0.976   3.274  16.903 -0.9163 -2.8885  0.2596
  900MPD2     C13182   0.520   0.404  11.783 -0.3668  0.0656 -0.5210
  900MPD2    C113183   0.404   0.365  11.836 -0.0788  0.1587  0.2809
  900MPD2    C213184   0.285   0.425  11.796  0.8965 -0.1183  0.1453
  900MPD2    C313185   0.286   0.521  11.695 -0.5476  0.1899 -0.0752
  900MPD2    C413186   0.405   0.550  11.632 -0.3776  0.5667 -0.3983
  900MPD2    C513187   0.525   0.499  11.680  0.1134  0.0362  0.6037
  900MPD2     H13188   0.190   0.391  11.836  0.4567 -0.0630 -0.8363
  900MPD2    H113189   0.411   0.613  11.544 -1.7788  0.9303 -0.2463
  900MPD2    H213190   0.602   0.344  11.820 -0.1515 -0.0772 -1.2242
  900MPD2    H313191   0.618   0.517  11.627  0.6386 -1.9521  0.8682
  900MPD2     N13192   0.154   0.582  11.657  0.1334 -0.3676 -0.6312
  900MPD2    H513193   0.068   0.572  11.710 -0.7527 -0.7905 -2.1698
  900MPD2    N113194   0.412   0.260  11.927 -0.6920  0.1697  0.0613
  900MPD2    H713195   0.507   0.225  11.934 -0.3264  0.7891 -2.0029
  901MPD2     C13196   0.037   4.055  12.405 -0.3941 -0.8774  0.5592
  901MPD2    C113197   0.169   4.078  12.441  0.9543  0.5708  0.4939
  901MPD2    C213198   0.229   4.200  12.414  0.1383  0.5160 -0.2005
  901MPD2    C313199   0.163   4.304  12.353 -0.6983  0.4651  0.3879
  901MPD2    C413200   0.023   4.284  12.330  0.5116 -1.1575 -0.2029
  901MPD2    C513201   4.691   4.162  12.361  0.0292  0.5803  0.4779
  901MPD2     H13202   0.331   4.221  12.442 -0.0302  1.7824 -0.5038
  901MPD2    H113203   4.689   4.364  12.286  1.3480 -0.4839 -0.0927
  901MPD2    H213204   4.718   3.959  12.431 -0.5503 -0.2840  2.4700
  901MPD2    H313205   4.587   4.152  12.333 -0.4605  2.2023  1.7165
  901MPD2     N13206   0.233   4.421  12.309 -0.2901  0.2460  0.2548
  901MPD2    H513207   0.332   4.416  12.330 -0.1163  2.9970  0.0733
  901MPD2    N113208   0.244   3.956  12.475  0.2693  0.0973 -0.3493
  901MPD2    H713209   0.196   3.867  12.480  1.6110 -0.6213 -0.3198
  902MPD2     C13210   3.901   2.743  12.173  0.6413  0.0395 -0.8008
  902MPD2    C113211   4.003   2.822  12.212  0.0934  0.0813  0.0999
  902MPD2    C213212   4.129   2.774  12.243 -1.0955 -0.5662  0.4342
  902MPD2    C313213   4.146   2.638  12.218  0.0722  0.3801  0.6236
  902MPD2    C413214   4.040   2.558  12.173  0.0745 -0.4688  0.6839
  902MPD2    C513215   3.919   2.613  12.154  0.1153  0.9515 -0.3902
  902MPD2     H13216   4.205   2.834  12.291 -1.1122  1.9771 -2.6665
  902MPD2    H113217   4.055   2.454  12.150 -0.4033 -0.3165 -0.3084
  902MPD2    H213218   3.801   2.784  12.160  0.8430  1.3206  1.6881
  902MPD2    H313219   3.837   2.546  12.129 -1.2850  3.2105 -1.7635
  902MPD2     N13220   4.269   2.572  12.232 -0.5305 -0.3355 -0.5750
  902MPD2    H513221   4.273   2.473  12.213  1.4381 -0.5260  0.8713
  902MPD2    N113222   3.972   2.960  12.224  0.0022  0.0559  0.5781
  902MPD2    H713223   3.885   2.984  12.178 -0.6360 -0.0423  1.7206
  903MPD2     C13224   4.512   2.922  11.854 -0.0539  0.6984 -0.0331
  903MPD2    C113225   4.467   2.790  11.864  0.2340 -0.3474  0.4524
  903MPD2    C213226   4.334   2.766  11.835 -0.1988  0.1585  0.2146
  903MPD2    C313227   4.252   2.871  11.794  0.6872 -0.7135  0.5335
  903MPD2    C413228   4.301   2.997  11.783  0.1696 -0.4379 -0.0315
  903MPD2    C513229   4.436   3.023  11.810 -0.3029  0.2630 -0.3880
  903MPD2     H13230   4.288   2.671  11.859  0.2052  0.0255  0.4515
  903MPD2    H113231   4.248   3.091  11.774 -0.2445 -0.4458  2.1491
  903MPD2    H213232   4.618   2.942  11.867  0.1275  0.1645 -0.7449
  903MPD2    H313233   4.478   3.123  11.815 -0.5672  0.4338 -1.6949
  903MPD2     N13234   4.106   2.848  11.790 -0.1431 -0.1212  0.2915
  903MPD2    H513235   4.068   2.757  11.769  1.3905 -0.8911  0.8555
  903MPD2    N113236   4.559   2.693  11.926  0.0927  0.3518 -0.1671
  903MPD2    H713237   4.642   2.728  11.973 -1.5389  3.0122  0.7248
  904MPD2     C13238   3.775   1.757  13.789  0.1254  0.1851 -0.5942
  904MPD2    C113239   3.815   1.701  13.906  0.4478  0.0095 -0.1237
  904MPD2    C213240   3.953   1.699  13.930  0.1681 -0.9915 -0.0282
  904MPD2    C313241   4.045   1.764  13.854 -0.2404  0.7063  0.1380
  904MPD2    C413242   3.993   1.840  13.752 -0.6892  0.9876  0.5366
  904MPD2    C513243   3.863   1.832  13.722 -0.1987  0.1496  0.2090
  904MPD2     H13244   3.997   1.654  14.018  3.0031 -0.5546 -1.2081
  904MPD2    H113245   4.060   1.889  13.683  1.6761 -1.4262  1.1073
  904MPD2    H213246   3.677   1.756  13.744 -0.9349  0.1863  1.7241
  904MPD2    H313247   3.840   1.883  13.629  1.5552 -0.9059 -0.8101
  904MPD2     N13248   4.180   1.736  13.878 -0.3695  0.1608 -0.1410
  904MPD2    H513249   4.197   1.678  13.959  3.4673  0.3717 -0.8193
  904MPD2    N113250   3.729   1.636  14.000 -0.0019 -0.0555 -0.0841
  904MPD2    H713251   3.777   1.573  14.063  1.3248  0.5456 -0.4913
  905MPD2     C13252   3.315   1.612  13.459 -0.3030  0.2685  0.1739
  905MPD2    C113253   3.387   1.717  13.507 -0.2531  0.4474 -0.0021
  905MPD2    C213254   3.514   1.750  13.467  0.4687 -0.0545  0.0185
  905MPD2    C313255   3.579   1.672  13.371  0.1950 -0.2667 -0.3288
  905MPD2    C413256   3.509   1.560  13.325  0.3289 -0.0228 -0.2753
  905MPD2    C513257   3.382   1.533  13.369 -0.3637 -0.7077 -0.4233
  905MPD2     H13258   3.562   1.830  13.522  1.6009 -1.8761  1.7088
  905MPD2    H113259   3.555   1.492  13.253 -0.0530  1.3686 -1.8429
  905MPD2    H213260   3.218   1.585  13.497  0.1366 -0.2708  0.9078
  905MPD2    H313261   3.328   1.445  13.334  0.1873 -0.9542 -0.6508
  905MPD2     N13262   3.707   1.692  13.314  0.5805 -0.0521  0.2125
  905MPD2    H513263   3.744   1.632  13.241  1.0892  0.9398 -0.3440
  905MPD2    N113264   3.334   1.775  13.628 -0.0860 -0.5230  0.7302
  905MPD2    H713265   3.273   1.717  13.685 -2.0842  0.3127 -0.5536
  906MPD2     C13266   0.992   2.034  11.345  0.2231  0.5388  1.0465
  906MPD2    C113267   0.985   1.963  11.233 -0.4917 -0.1376  0.5498
  906MPD2    C213268   0.922   1.834  11.243  0.3339 -0.1206  0.1253
  906MPD2    C313269   0.877   1.783  11.366 -0.4020  0.2613  0.1659
  906MPD2    C413270   0.905   1.854  11.483 -0.5607 -0.0153 -0.2068
  906MPD2    C513271   0.958   1.979  11.467 -0.3726 -0.8186 -0.1041
  906MPD2     H13272   0.910   1.772  11.155 -0.9752 -0.5890  0.6412
  906MPD2    H113273   0.894   1.812  11.583 -1.3831 -0.2680 -0.4040
  906MPD2    H213274   1.029   2.135  11.340 -1.1576  0.9894 -0.0552
  906MPD2    H313275   0.970   2.039  11.557 -0.7869 -0.5023 -0.2573
  906MPD2     N13276   0.811   1.659  11.367 -0.3348  0.4434 -0.5763
  906MPD2    H513277   0.817   1.615  11.275  1.3764  0.7835 -0.6227
  906MPD2    N113278   1.029   2.004  11.101  0.1535  0.2004 -0.3455
  906MPD2    H713279   1.017   1.932  11.031  0.1964 -0.8888  0.7646
  907MPD2     C13280   4.430   0.979  15.308  0.5336 -0.5982  0.5660
  907MPD2    C113281   4.548   0.895  15.292  0.8017  0.3794 -0.2556
  907MPD2    C213282   4.658   0.925  15.368  0.5896 -0.1253  0.0902
  907MPD2    C313283   4.658   1.035  15.448 -0.2319 -0.1360  0.6746
  907MPD2    C413284   4.546   1.113  15.459 -0.3769 -0.3487  0.4127
  907MPD2    C513285   4.436   1.085  15.391  0.8805  0.1492  0.0325
  907MPD2     H13286   0.026   0.869  15.354 -0.4880 -1.6652 -0.8359
  907MPD2    H113287   4.536   1.195  15.529 -0.0899  0.9367 -1.0580
  907MPD2    H213288   4.338   0.967  15.252 -0.5628 -0.2714  2.3011
  907MPD2    H313289   4.344   1.138  15.410 -0.0024 -1.8756  1.4888
  907MPD2     N13290   0.048   1.057  15.519 -0.1211  0.2495  0.1236
  907MPD2    H513291   0.127   0.998  15.495 -0.3581  0.2223 -0.5941
  907MPD2    N113292   4.562   0.782  15.207 -0.2140 -0.1766 -0.2933
  907MPD2    H713293   4.643   0.722  15.221 -0.7326 -0.7209  0.3246
  908MPD2     C13294   2.241   1.906   9.415  0.0863  0.0709 -0.1051
  908MPD2    C113295   2.329   1.847   9.504  0.0154  0.1021 -0.2869
  908MPD2    C213296   2.412   1.930   9.567 -0.5763 -0.6448 -0.5892
  908MPD2    C313297   2.395   2.065   9.566 -0.1282  0.8711  0.0730
  908MPD2    C413298   2.303   2.127   9.486  0.0367 -0.0233 -0.1281
  908MPD2    C513299   2.235   2.044   9.403  0.3843 -0.6919 -0.2397
  908MPD2     H13300   2.480   1.878   9.633 -1.5563 -0.2821  0.7116
  908MPD2    H113301   2.291   2.235   9.478  0.6769  0.0899  0.4093
  908MPD2    H213302   2.189   1.839   9.348  0.6509 -0.5543  0.0772
  908MPD2    H313303   2.173   2.080   9.322  1.0166  2.3317  0.6100
  908MPD2     N13304   2.464   2.135   9.666 -0.6881 -0.4168  0.8916
  908MPD2    H513305   2.535   2.085   9.719 -1.5864 -0.0136  2.4812
  908MPD2    N113306   2.353   1.713   9.516 -0.8567  0.2044 -0.3650
  908MPD2    H713307   2.431   1.687   9.575  0.0131 -0.2097 -1.7143
  909MPD2     C13308   2.923   4.482  11.404  0.0068 -0.6246 -0.2779
  909MPD2    C113309   2.893   4.616  11.378  0.0920  0.2324 -0.5331
  909MPD2    C213310   2.813   4.682  11.470 -0.0332 -0.2474  0.9903
  909MPD2    C313311   2.747   4.620  11.573 -0.1377 -0.4743 -0.2186
  909MPD2    C413312   2.765   4.486  11.594 -0.2842 -0.3235 -0.2538
  909MPD2    C513313   2.862   4.423  11.514  0.0954 -0.1472 -0.2627
  909MPD2     H13314   2.799   0.064  11.459 -0.7986 -0.6737 -2.2715
  909MPD2    H113315   2.729   4.422  11.673 -0.9317  0.5784  0.1788
  909MPD2    H213316   3.004   4.427  11.358 -0.4241 -1.1329 -0.4284
  909MPD2    H313317   2.894   4.323  11.541 -0.0634 -0.0210  0.3843
  909MPD2     N13318   2.642   4.692  11.643  0.0716  0.3046 -0.2977
  909MPD2    H513319   2.614   0.062  11.621 -2.3026  0.1617  2.1152
  909MPD2    N113320   2.944   4.687  11.266  0.5648 -0.6161 -0.4933
  909MPD2    H713321   2.935   0.064  11.261 -0.4123 -0.7615 -1.5386
  910MPD2     C13322   4.420   1.545  15.919  0.4790 -1.0172  0.3569
  910MPD2    C113323   4.497   1.472  15.832  0.2822  0.3788 -0.3682
  910MPD2    C213324   4.474   1.462  15.693  0.3008  0.2773 -0.5725
  910MPD2    C313325   4.361   1.531  15.645  0.4068 -0.2932  0.2730
  910MPD2    C413326   4.293   1.616  15.727  0.3118  0.4078 -0.3603
  910MPD2    C513327   4.320   1.620  15.863  0.3202  0.3599  0.4776
  910MPD2     H13328   4.527   1.401  15.621  0.4189 -2.1431  1.5765
  910MPD2    H113329   4.209   1.671  15.687  0.1271  0.2841 -0.1487
  910MPD2    H213330   4.427   1.551  16.027 -1.1919 -0.5631  0.4346
  910MPD2    H313331   4.255   1.672  15.933 -0.5655  0.4060 -0.3769
  910MPD2     N13332   4.307   1.517  15.513 -0.5778  0.0831  0.1776
  910MPD2    H513333   4.221   1.566  15.489 -0.7479 -0.2331  0.1319
  910MPD2    N113334   4.603   1.390  15.879  0.1937  0.0764  0.1223
  910MPD2    H713335   4.646   1.323  15.816 -2.1687  1.4526 -2.9590
  911MPD2     C13336   2.453   2.170  15.772  0.3039  0.4263  0.2194
  911MPD2    C113337   2.460   2.221  15.898  0.9020  0.1431  0.1624
  911MPD2    C213338   2.384   2.330  15.939 -0.1362  0.3678 -0.2508
  911MPD2    C313339   2.278   2.367  15.860  0.6769  0.6519 -0.1189
  911MPD2    C413340   2.259   2.303  15.742 -0.3571  0.0375  0.7644
  911MPD2    C513341   2.347   2.207  15.692 -0.2317 -0.0028  0.0848
  911MPD2     H13342   2.386   2.369  16.040  1.0030  0.9796 -0.5131
  911MPD2    H113343   2.174   2.335  15.682 -2.0476 -3.5159  1.2498
  911MPD2    H213344   2.514   2.083  15.749 -0.7491 -0.6066  1.3570
  911MPD2    H313345   2.338   2.158  15.597  1.2847 -0.0122 -0.0632
  911MPD2     N13346   2.183   2.467  15.903  0.0891 -0.4314 -0.4937
  911MPD2    H513347   2.096   2.469  15.851 -0.2882 -1.4045  0.1024
  911MPD2    N113348   2.555   2.140  15.973 -0.5053 -0.2918 -0.5587
  911MPD2    H713349   2.610   2.070  15.923  1.1087  0.7559 -0.2639
  912MPD2     C13350   1.942   2.369  15.451  0.2117 -0.2443  0.8403
  912MPD2    C113351   1.927   2.352  15.584 -0.0200  0.5550 -0.1946
  912MPD2    C213352   1.949   2.227  15.640  0.2435  0.1670 -0.1929
  912MPD2    C313353   2.011   2.126  15.564 -0.6820  0.2969  0.6211
  912MPD2    C413354   2.024   2.146  15.425  0.2268 -0.4876  0.6663
  912MPD2    C513355   1.999   2.266  15.371 -0.6258 -0.5673  0.6814
  912MPD2     H13356   1.936   2.207  15.746 -1.3645 -0.5202 -0.5211
  912MPD2    H113357   2.071   2.069  15.365  0.4497  0.8834 -0.9115
  912MPD2    H213358   1.911   2.462  15.405 -2.6586 -0.5150  2.1715
  912MPD2    H313359   2.020   2.274  15.265  1.5481 -0.4951  1.1226
  912MPD2     N13360   2.046   2.013  15.642  0.6250  0.2390  0.4032
  912MPD2    H513361   2.054   2.027  15.742  2.3384  1.0442  0.1432
  912MPD2    N113362   1.892   2.465  15.665  0.0643 -0.6504 -0.2553
  912MPD2    H713363   1.902   2.557  15.624  0.7734  0.0887  1.5600
  913MPD2     C13364   2.294   2.751  11.163 -1.0870 -0.0001 -0.5553
  913MPD2    C113365   2.361   2.873  11.176 -0.1827  0.8230  0.1594
  913MPD2    C213366   2.386   2.956  11.073 -0.3230 -0.0273 -0.5070
  913MPD2    C313367   2.333   2.918  10.948 -1.1292 -0.1536 -0.2880
  913MPD2    C413368   2.273   2.790  10.938  0.4033 -0.1293  0.4749
  913MPD2    C513369   2.248   2.704  11.040  0.0641 -0.1236  0.6981
  913MPD2     H13370   2.442   3.046  11.090  0.4507 -0.8127  1.0452
  913MPD2    H113371   2.235   2.755  10.843 -0.5057 -2.3447  1.6462
  913MPD2    H213372   2.275   2.685  11.247 -1.3475  1.5918  0.6219
  913MPD2    H313373   2.178   2.621  11.039  0.3320 -0.3475  0.3074
  913MPD2     N13374   2.341   2.998  10.830 -0.5141 -0.1049  0.3537
  913MPD2    H513375   2.295   2.962  10.747  2.3204 -0.6592 -0.9961
  913MPD2    N113376   2.392   2.915  11.311  0.0648 -0.4363  0.6934
  913MPD2    H713377   2.356   2.849  11.379  2.6216 -2.8266 -0.2800
  914MPD2     C13378   0.146   3.436  11.803  0.0751  0.2265 -0.0700
  914MPD2    C113379   0.149   3.573  11.828 -0.3092  0.3591 -0.0333
  914MPD2    C213380   0.207   3.620  11.947 -0.3760  0.3773  0.1733
  914MPD2    C313381   0.242   3.534  12.052 -0.2480 -1.4039  0.2059
  914MPD2    C413382   0.224   3.398  12.027  1.1519  0.4737 -0.0967
  914MPD2    C513383   0.189   3.349  11.903  0.6255 -0.1515  0.0647
  914MPD2     H13384   0.218   3.726  11.964 -0.9047  0.4156  0.2774
  914MPD2    H113385   0.254   3.327  12.102 -0.8919 -0.1637  0.1173
  914MPD2    H213386   0.105   3.397  11.710  2.2925 -2.8618  0.2540
  914MPD2    H313387   0.186   3.243  11.881  0.8076 -0.6388  2.3329
  914MPD2     N13388   0.297   3.593  12.173 -0.1920  0.1512  0.1418
  914MPD2    H513389   0.304   3.694  12.176  2.9835 -0.0010 -1.5275
  914MPD2    N113390   0.095   3.658  11.728  0.5115  0.1269 -0.6846
  914MPD2    H713391   0.074   3.623  11.635  1.8072 -0.0070 -0.9226
  915MPD2     C13392   3.522   3.154  15.276 -0.1726 -0.4039  0.1196
  915MPD2    C113393   3.384   3.165  15.249 -0.1979 -0.5362 -0.2409
  915MPD2    C213394   3.309   3.241  15.343 -0.3536  0.4617  0.3030
  915MPD2    C313395   3.364   3.290  15.455  0.1496 -0.3385  0.5143
  915MPD2    C413396   3.503   3.290  15.466 -0.4024 -0.8140 -0.1170
  915MPD2    C513397   3.575   3.223  15.379 -0.5551  0.4347 -0.4089
  915MPD2     H13398   3.204   3.256  15.324 -0.6329 -0.2073  1.2744
  915MPD2    H113399   3.551   3.326  15.556  2.1323 -0.7170 -1.5190
  915MPD2    H213400   3.586   3.097  15.210  0.3072 -0.9639  1.0780
  915MPD2    H313401   3.678   3.213  15.412  0.5339 -0.4942 -4.0498
  915MPD2     N13402   3.283   3.363  15.543  0.2618  0.5450 -0.0654
  915MPD2    H513403   3.183   3.361  15.528  0.4036  1.2300 -1.0260
  915MPD2    N113404   3.331   3.090  15.138 -0.7727 -0.5759  0.4254
  915MPD2    H713405   3.392   3.045  15.071 -1.5182 -1.0916  0.0940
  916MPD2     C13406   1.687   1.935  15.598 -0.1781 -0.2855  0.1362
  916MPD2    C113407   1.683   1.831  15.687 -0.3067  0.5731 -0.5702
  916MPD2    C213408   1.700   1.703  15.640 -0.0100  0.3672  0.3338
  916MPD2    C313409   1.708   1.670  15.507 -0.5340 -0.8497  0.5475
  916MPD2    C413410   1.692   1.777  15.418 -0.3274  0.0394 -0.2323
  916MPD2    C513411   1.680   1.906  15.466 -0.5201 -0.0773 -0.4687
  916MPD2     H13412   1.720   1.621  15.709  1.0922  0.2591 -0.1078
  916MPD2    H113413   1.701   1.775  15.310  0.7471 -2.1425 -0.1016
  916MPD2    H213414   1.694   2.040  15.625 -0.8268 -0.4119  0.7982
  916MPD2    H313415   1.672   1.984  15.391  0.0253  0.7610  0.3447
  916MPD2     N13416   1.765   1.543  15.465  0.1435  0.2432 -0.4622
  916MPD2    H513417   1.792   1.477  15.537 -3.2775  0.8908  1.4348
  916MPD2    N113418   1.681   1.861  15.826  0.8314 -0.2030  0.2241
  916MPD2    H713419   1.677   1.962  15.839  0.8124  0.0218 -1.4501
  917MPD2     C13420   1.267   4.603  10.717 -0.0847 -1.1130 -0.3967
  917MPD2    C113421   1.353   4.604  10.823 -0.2836 -0.0312  0.7805
  917MPD2    C213422   1.483   4.643  10.794 -0.8228  0.4011  0.1808
  917MPD2    C313423   1.529   4.658  10.656 -0.2246  1.0717  0.6961
  917MPD2    C413424   1.433   4.650  10.552  0.6020 -0.3864 -0.2935
  917MPD2    C513425   1.304   4.625  10.588 -0.4959 -0.4657 -0.1474
  917MPD2     H13426   1.556   4.655  10.873 -2.3964  1.4114  1.4672
  917MPD2    H113427   1.462   4.665  10.449 -2.3030 -0.1282 -1.0686
  917MPD2    H213428   1.163   4.573  10.724 -0.1159 -0.6144  1.1998
  917MPD2    H313429   1.226   4.613  10.514  0.7120 -1.9033 -1.2162
  917MPD2     N13430   1.670   4.683  10.624  0.2787  0.5735 -0.6496
  917MPD2    H513431   1.683   4.703  10.525  0.6919  2.4988 -0.2019
  917MPD2    N113432   1.299   4.584  10.957 -0.3015  0.5342 -0.1242
  917MPD2    H713433   1.206   4.544  10.967 -1.2255  2.4225 -1.1902
  918MPD2     C13434   1.374   4.550  12.052  1.4352  0.7951 -0.1172
  918MPD2    C113435   1.475   4.536  11.959  0.6488  0.8621  0.7204
  918MPD2    C213436   1.447   4.555  11.825  0.1056 -1.1898  0.9574
  918MPD2    C313437   1.319   4.587  11.781 -0.2563  0.5407 -0.0395
  918MPD2    C413438   1.224   4.605  11.878  0.1016  0.9203 -0.6379
  918MPD2    C513439   1.250   4.592  12.015 -0.3428 -0.3844  0.4443
  918MPD2     H13440   1.527   4.541  11.754 -1.4974  0.1258 -1.1184
  918MPD2    H113441   1.123   4.635  11.854  0.5816  1.7574 -1.6265
  918MPD2    H213442   1.387   4.539  12.160  0.8416  0.2202 -0.1020
  918MPD2    H313443   1.168   4.605  12.084  1.7557 -1.4826  3.1565
  918MPD2     N13444   1.283   4.591  11.647 -0.5884  0.3162  0.4436
  918MPD2    H513445   1.184   4.592  11.624 -0.3552 -0.3142 -0.5543
  918MPD2    N113446   1.610   4.509  11.988 -0.5237  0.3360  0.5512
  918MPD2    H713447   1.665   4.492  11.904  0.1410  0.9806  0.8547
  919MPD2     C13448   2.182   3.263  11.663  0.5649  0.0481  0.9925
  919MPD2    C113449   2.113   3.151  11.622 -0.2267  0.2682 -0.5218
  919MPD2    C213450   2.105   3.121  11.489 -0.5814  1.3910 -0.5762
  919MPD2    C313451   2.160   3.199  11.398  0.1833 -0.2710 -0.6047
  919MPD2    C413452   2.237   3.312  11.430 -0.2768  0.3308  0.1073
  919MPD2    C513453   2.241   3.338  11.566  0.3121 -0.9303  0.2323
  919MPD2     H13454   2.050   3.034  11.457 -0.7556  1.4812 -0.5275
  919MPD2    H113455   2.278   3.379  11.356  1.3873  0.5218  1.2207
  919MPD2    H213456   2.187   3.290  11.768  0.4185 -1.0899  1.2909
  919MPD2    H313457   2.284   3.435  11.590  0.0548 -0.5898 -0.6658
  919MPD2     N13458   2.143   3.178  11.256 -0.2820 -0.9117  0.2560
  919MPD2    H513459   2.187   3.249  11.198 -1.8167 -1.8102 -1.9809
  919MPD2    N113460   2.039   3.067  11.714 -0.8503 -0.4735 -0.4850
  919MPD2    H713461   1.983   2.995  11.670  0.1199 -0.9930 -0.8516
  920MPD2     C13462   2.019   3.834  10.577 -0.0243 -0.3368  0.1006
  920MPD2    C113463   1.960   3.726  10.515  0.5951  0.6023  0.6097
  920MPD2    C213464   1.973   3.597  10.573 -0.1330  0.3156  0.1711
  920MPD2    C313465   2.046   3.576  10.688 -0.1021 -0.2643  0.2926
  920MPD2    C413466   2.118   3.681  10.740 -0.2911 -0.0376  0.3755
  920MPD2    C513467   2.104   3.806  10.684 -0.6511  0.1728 -0.1134
  920MPD2     H13468   1.922   3.514  10.525  0.3375 -0.7069  1.4409
  920MPD2    H113469   2.182   3.682  10.827  1.2419  0.5025 -0.7572
  920MPD2    H213470   2.025   3.930  10.526  0.8123 -0.8846 -0.8194
  920MPD2    H313471   2.166   3.883  10.727 -0.2081 -0.0884 -0.2809
  920MPD2     N13472   2.054   3.442  10.739  0.3487 -0.4594 -0.1341
  920MPD2    H513473   1.990   3.372  10.703 -0.8306  1.5812 -2.0015
  920MPD2    N113474   1.881   3.735  10.401  0.0108 -0.1821  0.6905
  920MPD2    H713475   1.851   3.643  10.372  1.8303 -0.0846 -1.4876
  921MPD2     C13476   3.243   2.380  16.648  0.3592  0.8030  0.8773
  921MPD2    C113477   3.272   2.292  16.541  0.0477  0.0854  0.2123
  921MPD2    C213478   3.161   2.213  16.493  0.0540  0.3692  0.2081
  921MPD2    C313479   3.031   2.232  16.537 -0.1352  0.3054  0.5631
  921MPD2    C413480   3.009   2.319  16.637 -0.5787  0.7080  0.1229
  921MPD2    C513481   3.114   2.390  16.692  0.7428 -0.6185 -0.4503
  921MPD2     H13482   3.179   2.145  16.410 -2.4302 -1.1538  0.9407
  921MPD2    H113483   2.913   2.328  16.686 -1.5970  1.5508 -2.0113
  921MPD2    H213484   3.313   2.459  16.672 -1.1815  1.7802  2.0831
  921MPD2    H313485   3.099   2.454  16.778  0.2641 -1.3663  0.0156
  921MPD2     N13486   2.922   2.156  16.475  0.1405  0.0291 -0.1541
  921MPD2    H513487   2.825   2.167  16.502 -0.0679 -1.2398 -0.4093
  921MPD2    N113488   3.403   2.280  16.491  0.2734  0.2526  0.1956
  921MPD2    H713489   3.463   2.352  16.530  0.8346 -1.1981  2.0419
  922MPD2     C13490   3.670   0.166   0.421 -0.4192  0.0044  0.3779
  922MPD2    C113491   3.632   0.284   0.361 -0.1579 -0.0724  0.0344
  922MPD2    C213492   3.575   0.287   0.231  0.5592  0.4642  0.3056
  922MPD2    C313493   3.548   0.164   0.175  0.0089 -0.2169 -0.0451
  922MPD2    C413494   3.560   0.043   0.250 -0.0868 -0.0623 -0.0610
  922MPD2    C513495   3.629   0.046   0.367 -0.0921 -0.0835  0.7076
  922MPD2     H13496   3.555   0.378   0.176  0.3093 -1.3257 -2.5409
  922MPD2    H113497   3.530   4.671   0.211  2.7955  0.1099 -2.7309
  922MPD2    H213498   3.717   0.169   0.519 -0.7418 -2.3803  0.5980
  922MPD2    H313499   3.655   4.674   0.410 -2.2067 -0.2429  1.6687
  922MPD2     N13500   3.502   0.162   0.041  0.2708 -0.2161 -0.2840
  922MPD2    H513501   3.493   0.253  17.694 -0.2701  1.4487  3.1438
  922MPD2    N113502   3.650   0.414   0.414  0.0684 -0.0952  0.0815
  922MPD2    H713503   3.599   0.481   0.357  1.3404  0.4017 -0.4700
  923MPD2     C13504   0.725   2.377   8.963 -0.3415  0.1661  0.2944
  923MPD2    C113505   0.665   2.474   9.042  0.0380 -0.4044 -0.2522
  923MPD2    C213506   0.729   2.547   9.139 -0.2405 -0.4512  0.2492
  923MPD2    C313507   0.869   2.534   9.152  0.4149  0.4193 -0.4131
  923MPD2    C413508   0.928   2.441   9.075  0.0239  1.0429  1.1908
  923MPD2    C513509   0.858   2.366   8.986 -0.5756  0.2088  0.5707
  923MPD2     H13510   0.675   2.621   9.197 -1.7003  1.2370 -3.2065
  923MPD2    H113511   1.035   2.425   9.086 -0.0304 -0.6240 -0.7157
  923MPD2    H213512   0.684   2.316   8.884  0.7920  1.1384 -1.0520
  923MPD2    H313513   0.907   2.285   8.934 -0.9617 -0.8686  1.8649
  923MPD2     N13514   0.946   2.595   9.248  0.1403  0.1024 -0.2906
  923MPD2    H513515   1.027   2.542   9.278  0.1755  0.2675 -0.0943
  923MPD2    N113516   0.522   2.480   9.025 -0.6850 -0.3419  0.1374
  923MPD2    H713517   0.492   2.425   8.946 -3.6321  0.2088  0.8409
  924MPD2     C13518   0.723   0.592  15.379 -0.2368  0.7695  0.3122
  924MPD2    C113519   0.763   0.666  15.484 -0.7014 -0.4302  0.6469
  924MPD2    C213520   0.703   0.786  15.511  0.0771  0.5589  0.5700
  924MPD2    C313521   0.595   0.830  15.435  0.7655  0.1848  0.4236
  924MPD2    C413522   0.555   0.757  15.319  0.4155 -0.5590 -0.6626
  924MPD2    C513523   0.625   0.643  15.297  0.3553 -0.3489 -0.3731
  924MPD2     H13524   0.723   0.840  15.603  0.3250 -0.1928  0.9568
  924MPD2    H113525   0.479   0.788  15.248  0.6136  0.1448 -0.5583
  924MPD2    H213526   0.765   0.495  15.355 -2.5677 -0.0586 -0.4584
  924MPD2    H313527   0.596   0.581  15.213  0.5915  0.0301 -0.7347
  924MPD2     N13528   0.511   0.943  15.465  0.2140  0.3363 -0.4517
  924MPD2    H513529   0.436   0.967  15.401 -0.4251 -0.3489  0.0454
  924MPD2    N113530   0.854   0.597  15.568  0.4891  0.2044 -0.2327
  924MPD2    H713531   0.860   0.498  15.547 -1.4170 -0.1269  0.8298
  925MPD2     C13532   4.236   2.848  14.650 -0.1653  0.2002 -0.4836
  925MPD2    C113533   4.121   2.786  14.617  0.3227 -0.3012  0.3627
  925MPD2    C213534   4.025   2.757  14.713  0.1684  0.1336 -0.1595
  925MPD2    C313535   4.058   2.773  14.848  0.7633  0.4102  0.2833
  925MPD2    C413536   4.180   2.820  14.878  0.7692  0.1378 -0.1253
  925MPD2    C513537   4.267   2.863  14.784 -0.0017 -0.6897  0.0738
  925MPD2     H13538   3.927   2.715  14.689 -0.5707  0.2454  2.6575
  925MPD2    H113539   4.215   2.828  14.980  1.2396 -0.8328 -0.2069
  925MPD2    H213540   4.305   2.885  14.575 -0.1073  1.5719  0.2579
  925MPD2    H313541   4.364   2.902  14.811 -0.9796  0.8395  1.3925
  925MPD2     N13542   3.971   2.751  14.962  0.9901  0.2831 -0.3649
  925MPD2    H513543   4.007   2.763  15.056  1.6143 -0.4429 -0.5092
  925MPD2    N113544   4.098   2.750  14.480  0.4512 -1.0842  0.5089
  925MPD2    H713545   4.009   2.708  14.455 -0.0935  0.1878  0.3457
  926MPD2     C13546   2.585   1.204  13.578  0.1049  0.6718 -0.5038
  926MPD2    C113547   2.588   1.340  13.584  0.0487  0.6776  0.1407
  926MPD2    C213548   2.655   1.410  13.485  0.6180 -0.6387 -0.2744
  926MPD2    C313549   2.734   1.335  13.395 -0.0075 -0.3592  0.1529
  926MPD2    C413550   2.719   1.200  13.385  0.1764  0.4876  0.1156
  926MPD2    C513551   2.646   1.136  13.477 -0.4722  0.1351 -0.8291
  926MPD2     H13552   2.648   1.519  13.480 -1.0923 -0.8690 -3.0654
  926MPD2    H113553   2.774   1.138  13.316 -2.2842 -0.8605 -0.6175
  926MPD2    H213554   2.517   1.143  13.637  3.4093 -1.0220  1.5110
  926MPD2    H313555   2.649   1.028  13.479  1.8572  0.2437  2.4683
  926MPD2     N13556   2.824   1.394  13.306 -0.0277 -0.0079 -0.2247
  926MPD2    H513557   2.857   1.336  13.231 -1.1842 -1.5700  0.4790
  926MPD2    N113558   2.507   1.418  13.671 -0.3443  1.0669 -0.1379
  926MPD2    H713559   2.490   1.512  13.637  0.5115  1.4219  0.4238
  927MPD2     C13560   1.896   3.719  17.503  0.6832 -0.0142 -0.3494
  927MPD2    C113561   1.946   3.849  17.502  0.2808  0.1065  0.7492
  927MPD2    C213562   2.051   3.871  17.420 -0.1765 -0.0038  0.0581
  927MPD2    C313563   2.099   3.778  17.334 -0.0502 -0.4260 -0.1932
  927MPD2    C413564   2.039   3.656  17.323 -0.4960  0.1019 -1.0011
  927MPD2    C513565   1.939   3.628  17.410  0.5863 -0.0542 -0.8162
  927MPD2     H13566   2.096   3.969  17.420  0.0158 -0.0927 -0.0459
  927MPD2    H113567   2.068   3.577  17.255  1.1722 -2.4863  2.6624
  927MPD2    H213568   1.815   3.685  17.566  0.3336 -0.6794 -1.1714
  927MPD2    H313569   1.882   3.536  17.399 -0.8776  0.6630  0.7538
  927MPD2     N13570   2.213   3.818  17.261  0.2518 -0.2205 -0.1662
  927MPD2    H513571   2.253   3.908  17.284  0.4143 -0.2895 -0.1785
  927MPD2    N113572   1.885   3.943  17.585  0.5321  0.1499 -0.0144
  927MPD2    H713573   1.811   3.910  17.646  1.7883  0.3181  1.6247
  928MPD2     C13574   0.706   1.501   0.810  1.0499  0.0735  0.7553
  928MPD2    C113575   0.749   1.630   0.810 -0.4615 -0.8614  0.1582
  928MPD2    C213576   0.769   1.685   0.684  0.5179  0.3239  0.6794
  928MPD2    C313577   0.767   1.614   0.565  0.1011 -0.8439  0.1929
  928MPD2    C413578   0.721   1.489   0.569 -0.0261  0.0557  0.0403
  928MPD2    C513579   0.689   1.429   0.692  0.6535  0.0577 -0.2577
  928MPD2     H13580   0.806   1.787   0.679  1.0262  0.1881  1.5899
  928MPD2    H113581   0.718   1.431   0.477  2.2810 -1.4702  0.9475
  928MPD2    H213582   0.685   1.455   0.906  0.1859  0.7707  0.8988
  928MPD2    H313583   0.656   1.325   0.690 -2.9462  1.1372  3.3154
  928MPD2     N13584   0.818   1.672   0.452 -0.7274 -0.0581 -0.0885
  928MPD2    H513585   0.829   1.772   0.465  0.7470 -0.1524 -0.6998
  928MPD2    N113586   0.770   1.697   0.931 -0.7542  0.0206  0.4153
  928MPD2    H713587   0.775   1.640   1.015  0.8448  0.5917  0.6963
  929MPD2     C13588   0.563   2.257   9.974  0.0860 -1.0613  0.1851
  929MPD2    C113589   0.430   2.215   9.978 -0.0704 -0.3053 -0.1058
  929MPD2    C213590   0.334   2.308   9.942  0.1537  0.2488 -0.6594
  929MPD2    C313591   0.370   2.430   9.880  0.1596 -0.0622  0.1947
  929MPD2    C413592   0.508   2.456   9.868 -0.2892  0.7428  0.3291
  929MPD2    C513593   0.608   2.378   9.926  0.7165 -0.7102 -0.3009
  929MPD2     H13594   0.229   2.286   9.956  0.6398 -0.7948  1.4768
  929MPD2    H113595   0.538   2.555   9.834  0.3305 -0.3062 -2.1857
  929MPD2    H213596   0.630   2.177  10.002  1.1240 -0.0275  0.6246
  929MPD2    H313597   0.711   2.410   9.925  0.3140  0.5670 -0.5992
  929MPD2     N13598   0.282   2.521   9.817  0.0327  0.6102  0.2105
  929MPD2    H513599   0.327   2.594   9.761 -0.1655  0.4468 -0.1572
  929MPD2    N113600   0.402   2.081  10.028 -0.5196 -0.8419 -0.0737
  929MPD2    H713601   0.478   2.039  10.081 -0.1811  0.1966  0.2638
  930MPD2     C13602   1.796   3.952  13.750 -0.1806 -0.2331 -0.8453
  930MPD2    C113603   1.926   3.935  13.697 -0.8207 -0.9534 -0.3969
  930MPD2    C213604   1.941   3.836  13.603 -0.3974 -0.0778  0.0853
  930MPD2    C313605   1.830   3.765  13.557 -0.5466  0.5084  1.0318
  930MPD2    C413606   1.707   3.778  13.614  0.9480  0.9080  0.6877
  930MPD2    C513607   1.689   3.870  13.712  0.4141  0.0290  0.2862
  930MPD2     H13608   2.045   3.823  13.575 -0.4492 -0.6731  0.1600
  930MPD2    H113609   1.629   3.708  13.587  0.8612  0.6642  1.5744
  930MPD2    H213610   1.772   4.022  13.829 -0.1588 -1.9250  0.6591
  930MPD2    H313611   1.596   3.895  13.762 -0.5799 -2.0272 -0.5522
  930MPD2     N13612   1.850   3.663  13.464 -0.1076  0.2837 -0.1158
  930MPD2    H513613   1.785   3.585  13.467  0.5789 -0.2778  0.1963
  930MPD2    N113614   2.034   4.020  13.741  0.8800  0.2541 -0.3120
  930MPD2    H713615   2.015   4.091  13.811 -1.9035 -0.1760 -0.6073
  931MPD2     C13616   2.306   4.225   0.368  0.1876 -0.3902  0.2357
  931MPD2    C113617   2.185   4.188   0.432 -0.1207 -0.0813 -0.2632
  931MPD2    C213618   2.180   4.152   0.561 -0.7473  0.2465  0.5369
  931MPD2    C313619   2.301   4.124   0.626  0.4924 -0.8321 -0.0005
  931MPD2    C413620   2.420   4.154   0.563  0.1176  0.4468  0.1904
  931MPD2    C513621   2.426   4.203   0.436 -0.3268 -0.4773 -0.7000
  931MPD2     H13622   2.087   4.127   0.611 -1.5838  1.0403 -0.5947
  931MPD2    H113623   2.513   4.130   0.612  0.1636 -0.3863 -0.3023
  931MPD2    H213624   2.311   4.258   0.265 -0.2036  1.3785  0.7907
  931MPD2    H313625   2.527   4.219   0.400 -0.3139 -1.9722 -1.2954
  931MPD2     N13626   2.312   4.062   0.749 -0.1632 -0.5777  0.1326
  931MPD2    H513627   2.407   4.040   0.774 -0.7047 -1.3644  1.4457
  931MPD2    N113628   2.071   4.191   0.347  0.1023  0.0910  0.2835
  931MPD2    H713629   2.095   4.210   0.250 -0.4604  2.0961  0.5363
  932MPD2     C13630   3.741   3.400  11.511 -0.4704 -0.1345  0.2375
  932MPD2    C113631   3.851   3.366  11.438  0.0589  0.1995 -0.1545
  932MPD2    C213632   3.891   3.235  11.437  0.1194 -0.3375 -0.4564
  932MPD2    C313633   3.824   3.132  11.495 -0.8578 -0.6613 -0.3995
  932MPD2    C413634   3.718   3.167  11.575 -0.0074  0.2700 -0.3870
  932MPD2    C513635   3.681   3.293  11.583  0.2152 -0.2346 -1.4266
  932MPD2     H13636   3.980   3.219  11.378  1.8882 -0.3746  2.1926
  932MPD2    H113637   3.664   3.089  11.628  3.1725 -1.9713 -0.4274
  932MPD2    H213638   3.696   3.498  11.520 -1.5951 -0.4900 -1.6057
  932MPD2    H313639   3.594   3.315  11.645 -0.1481  0.6173 -2.2410
  932MPD2     N13640   3.850   3.001  11.466  0.0241  0.5821 -0.1055
  932MPD2    H513641   3.775   2.933  11.477 -0.0217  0.4508 -1.2097
  932MPD2    N113642   3.920   3.464  11.356  0.8324 -0.4920 -0.1951
  932MPD2    H713643   3.981   3.435  11.280  1.4332  2.0591 -0.6700
  933MPD2     C13644   0.661   2.270   1.663  0.0770 -0.4682 -0.2957
  933MPD2    C113645   0.630   2.258   1.532  0.0748  0.6254 -0.5649
  933MPD2    C213646   0.542   2.347   1.477 -0.3048  0.4626  0.7006
  933MPD2    C313647   0.492   2.455   1.551  0.1367  0.0234 -0.1391
  933MPD2    C413648   0.529   2.467   1.685  0.3896 -0.5237  0.1445
  933MPD2    C513649   0.616   2.375   1.743  1.3509 -0.5447 -0.8067
  933MPD2     H13650   0.504   2.333   1.377 -1.1528  0.1969  1.0576
  933MPD2    H113651   0.500   2.557   1.737 -1.2422 -0.9438 -0.0272
  933MPD2    H213652   0.723   2.204   1.723  1.0213  1.6241  1.0119
  933MPD2    H313653   0.644   2.378   1.847 -0.3631  0.7787 -0.3680
  933MPD2     N13654   0.399   2.537   1.495 -0.5573  0.1159  0.0405
  933MPD2    H513655   0.378   2.525   1.397  2.5830 -1.9233 -0.3690
  933MPD2    N113656   0.680   2.142   1.461 -0.2471 -0.2391 -0.6120
  933MPD2    H713657   0.715   2.067   1.520 -1.1175  2.6398  3.5238
  934MPD2     C13658   0.717   4.431   1.898 -0.3601 -0.7071 -0.0445
  934MPD2    C113659   0.823   4.369   1.835  0.0106 -0.2240 -0.0335
  934MPD2    C213660   0.792   4.305   1.718  0.3541  0.3182  0.6933
  934MPD2    C313661   0.675   4.280   1.668  0.1256 -0.3655  0.6959
  934MPD2    C413662   0.569   4.359   1.717 -0.2481  0.3422  0.2957
  934MPD2    C513663   0.592   4.429   1.833  0.0978 -0.5315  0.1984
  934MPD2     H13664   0.877   4.257   1.670 -0.5742  1.2390 -1.8189
  934MPD2    H113665   0.470   4.348   1.676 -0.0024  1.4263 -0.5986
  934MPD2    H213666   0.716   4.499   1.982  1.1436  0.2732 -0.8038
  934MPD2    H313667   0.507   4.476   1.881 -1.3956 -1.2570 -1.7367
  934MPD2     N13668   0.654   4.202   1.554 -0.0250 -0.1654  0.0323
  934MPD2    H513669   0.561   4.203   1.514 -0.6713 -1.5610  1.5177
  934MPD2    N113670   0.951   4.359   1.898  0.1081 -0.3502 -0.5603
  934MPD2    H713671   1.027   4.317   1.845  2.1818  1.4900  0.9648
  935MPD2     C13672   1.184   3.472   1.204 -0.0774  0.2745 -0.3438
  935MPD2    C113673   1.115   3.522   1.097 -0.1470 -0.2408 -0.1939
  935MPD2    C213674   1.001   3.596   1.126  0.2224 -0.2787 -0.2760
  935MPD2    C313675   0.965   3.622   1.259 -0.4824  0.1068 -1.2510
  935MPD2    C413676   1.045   3.566   1.361  0.3823 -0.5781 -0.0310
  935MPD2    C513677   1.153   3.493   1.335  0.1286  0.9237 -0.2835
  935MPD2     H13678   0.947   3.640   1.043  0.9088 -0.8645 -1.0404
  935MPD2    H113679   1.027   3.596   1.464 -1.4997 -0.1890 -0.4906
  935MPD2    H213680   1.273   3.414   1.185 -0.6045  0.1483 -2.4344
  935MPD2    H313681   1.222   3.459   1.412 -0.5983 -2.7543 -1.2393
  935MPD2     N13682   0.856   3.699   1.297  0.4072 -0.3068  0.2756
  935MPD2    H513683   0.854   3.734   1.393 -1.1441 -1.7097  0.7577
  935MPD2    N113684   1.149   3.495   0.964  0.2814 -0.3998  0.5586
  935MPD2    H713685   1.087   3.531   0.891  0.0428 -3.5529 -0.7774
  936MPD2     C13686   4.388   1.130  12.207  0.8771 -0.4033 -0.1800
  936MPD2    C113687   4.491   1.123  12.297 -0.2423 -0.3874 -0.5645
  936MPD2    C213688   4.614   1.176  12.265 -0.0646 -0.0719 -0.2427
  936MPD2    C313689   4.639   1.232  12.143 -0.2582 -0.7838 -0.4775
  936MPD2    C413690   4.538   1.231  12.046  0.4966  0.3048  0.1200
  936MPD2    C513691   4.420   1.175  12.080 -0.2673 -0.3708  0.7908
  936MPD2     H13692   4.689   1.167  12.343 -0.5083 -0.2456  0.1567
  936MPD2    H113693   4.550   1.278  11.949  1.2940  0.9097  0.5030
  936MPD2    H213694   4.293   1.091  12.241  1.6100 -2.2316 -0.2214
  936MPD2    H313695   4.340   1.182  12.007  0.3476  1.7024  0.3314
  936MPD2     N13696   0.039   1.283  12.106 -0.9099 -0.8121 -0.1603
  936MPD2    H513697   0.028   1.347  12.029 -0.5001  3.6194  3.4659
  936MPD2    N113698   4.491   1.073  12.431  0.5899 -0.6387 -0.2102
  936MPD2    H713699   4.575   1.091  12.486  1.4652 -0.5431 -1.5617
  937MPD2     C13700   1.925   2.386  11.678 -1.1204  0.1367  0.2455
  937MPD2    C113701   2.039   2.462  11.695  0.2254 -1.1507  0.8431
  937MPD2    C213702   2.138   2.450  11.597  0.3083 -0.1523  0.1227
  937MPD2    C313703   2.121   2.361  11.495  0.5909 -1.0865 -0.0184
  937MPD2    C413704   2.016   2.274  11.495  0.3879  0.2567  0.4889
  937MPD2    C513705   1.924   2.279  11.593 -0.0752  0.2475 -0.4326
  937MPD2     H13706   2.220   2.520  11.584  0.0490  0.0676 -0.3420
  937MPD2    H113707   1.989   2.212  11.410 -0.4057  2.4117 -0.8272
  937MPD2    H213708   1.832   2.398  11.731 -0.9041  0.9655  0.4368
  937MPD2    H313709   1.831   2.224  11.584  0.2888 -0.5091  0.4510
  937MPD2     N13710   2.211   2.363  11.389 -0.3004 -0.1579 -0.3280
  937MPD2    H513711   2.307   2.392  11.407  0.5572 -2.6223 -1.0115
  937MPD2    N113712   2.022   2.575  11.775  0.1036 -0.4291 -0.2093
  937MPD2    H713713   2.097   2.641  11.757  1.5540 -1.5193  1.8094
  938MPD2     C13714   0.578   3.367   0.451 -0.3499  0.0493  0.6573
  938MPD2    C113715   0.530   3.459   0.534 -0.2265 -0.2039  0.2070
  938MPD2    C213716   0.498   3.420   0.664  0.8762 -0.0343 -0.9978
  938MPD2    C313717   0.494   3.286   0.701  0.1267 -0.7593  0.1986
  938MPD2    C413718   0.539   3.187   0.610  0.1117  0.5886  0.3014
  938MPD2    C513719   0.586   3.229   0.492 -0.7686  0.0589 -0.6460
  938MPD2     H13720   0.469   3.502   0.729 -2.2539 -1.3119 -0.7581
  938MPD2    H113721   0.541   3.080   0.624  2.7411  0.4362 -1.2626
  938MPD2    H213722   0.624   3.389   0.355 -1.0639  0.9191  0.5109
  938MPD2    H313723   0.637   3.157   0.429  1.3972  3.4876 -2.8171
  938MPD2     N13724   0.453   3.245   0.830  0.3555 -0.7384  0.2026
  938MPD2    H513725   0.475   3.151   0.859  1.3756 -0.0150  1.7567
  938MPD2    N113726   0.495   3.591   0.498 -0.0755 -0.4275  0.3907
  938MPD2    H713727   0.452   3.652   0.567 -0.5696  1.1050 -1.2580
  939MPD2     C13728   2.373   0.092   0.751 -0.2469  0.5598  0.3001
  939MPD2    C113729   2.294   0.122   0.646 -0.2889 -0.2551 -0.4863
  939MPD2    C213730   2.358   0.145   0.523  0.4876  0.0331  0.7182
  939MPD2    C313731   2.500   0.153   0.506  0.7088  0.4472 -0.5158
  939MPD2    C413732   2.573   0.119   0.614  0.3619  0.1844 -0.8138
  939MPD2    C513733   2.511   0.086   0.732  0.0865 -0.3260 -1.1225
  939MPD2     H13734   2.299   0.184   0.441  0.4051 -0.1668  0.6817
  939MPD2    H113735   2.681   0.111   0.614  0.4462  1.2803 -0.8873
  939MPD2    H213736   2.327   0.071   0.846  1.6673 -0.1960  1.0609
  939MPD2    H313737   2.585   0.073   0.811  0.4945  0.6854 -1.3333
  939MPD2     N13738   2.548   0.201   0.381 -0.1738  0.0194 -0.2575
  939MPD2    H513739   2.480   0.222   0.309  2.3127  0.4651 -2.5181
  939MPD2    N113740   2.151   0.123   0.660  0.0459 -0.3046 -0.3382
  939MPD2    H713741   2.123   0.152   0.753  1.4327 -2.8446  0.8593
  940MPD2     C13742   0.954   1.376  12.867 -0.0590  0.2384  0.6996
  940MPD2    C113743   0.901   1.252  12.895  0.4426 -0.6836 -0.5309
  940MPD2    C213744   0.838   1.179  12.789  0.4336  0.3520  0.4320
  940MPD2    C313745   0.828   1.234  12.661  0.3937 -0.0393 -0.4232
  940MPD2    C413746   0.872   1.363  12.643 -0.0837  0.5795  0.2664
  940MPD2    C513747   0.950   1.424  12.742 -0.3980  0.4828  0.0014
  940MPD2     H13748   0.802   1.080  12.812  1.4975  0.0738  0.8995
  940MPD2    H113749   0.873   1.416  12.549  0.7500 -0.5364 -0.3590
  940MPD2    H213750   1.013   1.438  12.934  0.1060  2.2275 -1.2975
  940MPD2    H313751   0.995   1.518  12.711 -1.5154  0.9790 -0.1368
  940MPD2     N13752   0.778   1.179  12.542  0.2300  0.2078  0.4650
  940MPD2    H513753   0.778   1.240  12.461 -1.5507  0.5941  0.7660
  940MPD2    N113754   0.895   1.198  13.023  0.6638  0.3058  0.8937
  940MPD2    H713755   0.857   1.104  13.035 -0.1965  0.2361 -2.5025
  941MPD2     C13756   4.069   1.225   9.322 -0.7573 -0.0890 -0.5355
  941MPD2    C113757   4.164   1.148   9.386  0.2234 -0.2171  0.5590
  941MPD2    C213758   4.133   1.018   9.426 -1.0809  0.1872  0.5348
  941MPD2    C313759   3.997   0.976   9.423 -0.1940  0.6653 -0.7069
  941MPD2    C413760   3.904   1.061   9.364  0.8320 -0.2470 -0.2854
  941MPD2    C513761   3.937   1.187   9.311 -0.1528  0.3020 -0.3390
  941MPD2     H13762   4.206   0.950   9.466  0.6893  1.4580 -0.5224
  941MPD2    H113763   3.798   1.041   9.360  0.4816  0.6750  3.9751
  941MPD2    H213764   4.094   1.322   9.282  0.0934  0.5519  1.5161
  941MPD2    H313765   3.854   1.242   9.267 -0.9521 -0.1482  0.6127
  941MPD2     N13766   3.951   0.853   9.481  0.2354  0.3254  0.4093
  941MPD2    H513767   3.850   0.844   9.482  0.1753  1.0191  2.7563
  941MPD2    N113768   4.302   1.186   9.390 -0.5992 -0.6213 -0.0673
  941MPD2    H713769   4.370   1.123   9.432 -1.1885  0.3230  2.3179
  942MPD2     C13770   3.328   1.819   9.492  0.8746  0.0398  0.0318
  942MPD2    C113771   3.366   1.955   9.505  0.4686  0.0422  0.5617
  942MPD2    C213772   3.495   1.990   9.557 -0.1938  0.0634  0.1585
  942MPD2    C313773   3.583   1.891   9.588 -0.4528  0.0933  0.6259
  942MPD2    C413774   3.541   1.764   9.587  0.2544 -0.5932 -0.4302
  942MPD2    C513775   3.413   1.726   9.543 -0.4354 -0.2303 -1.1724
  942MPD2     H13776   3.515   2.096   9.563 -0.5208  0.0550  1.4866
  942MPD2    H113777   3.599   1.686   9.635  1.2345  0.8845  0.7986
  942MPD2    H213778   3.231   1.781   9.461  0.1099  2.6471 -0.7627
  942MPD2    H313779   3.376   1.624   9.543 -3.2088  0.7769 -2.6521
  942MPD2     N13780   3.723   1.918   9.627 -0.5629  0.4099  0.1289
  942MPD2    H513781   3.769   1.834   9.661  1.0729  0.7545 -1.2457
  942MPD2    N113782   3.279   2.061   9.473  0.3027 -0.0385 -0.5556
  942MPD2    H713783   3.325   2.147   9.501  0.1542 -0.3664  0.6977
  943MPD2     C13784   2.053   4.133   9.907 -0.5123  0.5229  0.2983
  943MPD2    C113785   2.170   4.195   9.888  0.2636  0.2872  0.0996
  943MPD2    C213786   2.195   4.253   9.763 -0.1623  0.5171 -0.7245
  943MPD2    C313787   2.097   4.274   9.671 -0.8002 -0.5267 -0.1826
  943MPD2    C413788   1.981   4.210   9.695 -0.3173  0.3372  0.5397
  943MPD2    C513789   1.963   4.131   9.804 -0.4442 -0.0240 -0.2367
  943MPD2     H13790   2.291   4.302   9.746  0.0442  0.5717  0.5825
  943MPD2    H113791   1.899   4.204   9.623  0.9624  2.7530 -1.1235
  943MPD2    H213792   2.023   4.077   9.995  0.6643 -0.5080  0.0358
  943MPD2    H313793   1.869   4.079   9.819 -0.0217 -0.3191  1.4058
  943MPD2     N13794   2.116   4.335   9.544  0.0078  0.5147  0.2363
  943MPD2    H513795   2.036   4.330   9.482 -0.4358 -1.0995  0.9586
  943MPD2    N113796   2.256   4.198   9.993 -0.0753  0.4523 -0.4830
  943MPD2    H713797   2.227   4.160  10.083 -0.6660 -0.5289 -1.0832
  944MPD2     C13798   2.815   3.684  10.997 -0.0099 -0.5820 -0.1383
  944MPD2    C113799   2.808   3.784  10.902 -0.2877  0.2239 -0.2975
  944MPD2    C213800   2.796   3.917  10.949  0.1543 -0.2428  0.2614
  944MPD2    C313801   2.789   3.942  11.084  0.0221 -0.4887 -0.4759
  944MPD2    C413802   2.817   3.845  11.178  0.4607 -0.5040  0.0651
  944MPD2    C513803   2.827   3.717  11.132 -0.9239 -0.2048  0.7467
  944MPD2     H13804   2.775   3.992  10.874 -0.5427 -0.1334  0.5628
  944MPD2    H113805   2.831   3.867  11.283  1.1098  0.8214 -0.2983
  944MPD2    H213806   2.830   3.580  10.973  0.8999 -0.0434 -1.9074
  944MPD2    H313807   2.837   3.634  11.200 -3.3468 -1.6390 -0.6540
  944MPD2     N13808   2.760   4.078  11.124  0.3667 -0.2410  0.1219
  944MPD2    H513809   2.750   4.144  11.048 -0.6181  0.1269  0.5618
  944MPD2    N113810   2.805   3.748  10.768  0.3893 -0.1200 -0.5650
  944MPD2    H713811   2.809   3.649  10.745 -1.1219 -0.4354  0.5867
    1TCq1    O113812   0.624   0.216  14.701 -0.0954 -0.5159 -0.6008
    1TCq1    C113813   0.744   0.157  14.687 -0.0154  0.1979 -0.3011
    1TCq1    O213814   0.781   0.073  14.765  0.2793 -0.1484 -0.3753
    1TCq1    C213815   0.843   0.264  14.666 -0.5612  0.1925  0.5897
    1TCq1    C313816   0.923   0.299  14.769  0.5207  0.3438  0.9086
    1TCq1    C413817   1.029   0.379  14.736 -0.0939  0.1906 -0.2727
    1TCq1    C513818   1.049   0.431  14.609  0.5629  0.0323  0.5408
    1TCq1    C613819   0.962   0.398  14.510 -0.1542  0.1723  0.3908
    1TCq1    C713820   0.864   0.301  14.535 -0.2695  0.4578  1.1376
    1TCq1    C813821   0.949   0.478  14.386  0.2073  0.3029 -0.2950
    1TCq1    O413822   0.908   0.423  14.286 -0.5251  0.0300 -0.1516
    1TCq1    C913823   1.119   0.416  14.843  0.5438 -0.2216  0.6970
    1TCq1    O513824   1.081   0.367  14.955 -0.5842 -0.1015  0.2522
    1TCq1    O613825   1.191   0.515  14.823 -0.5840 -0.2067  0.0121
    1TCq1    H113826   0.603   0.288  14.638  3.1711 -0.0849 -1.2365
    1TCq1    H213827   0.912   0.259  14.869  0.8884  0.0939  0.8460
    1TCq1    H313828   1.140   0.489  14.603 -0.6582  1.9420  0.6350
    1TCq1    H413829   0.789   0.278  14.459  0.5610  0.7619  0.2326
    2MPD2     C13830   1.118   0.891  14.093 -0.7545 -0.5678  0.1361
    2MPD2    C113831   1.183   0.888  14.215 -0.3799  0.2278 -0.1513
    2MPD2    C213832   1.154   0.785  14.303 -0.4518  0.7212 -0.4774
    2MPD2    C313833   1.054   0.690  14.281 -0.3880 -0.2059  0.1524
    2MPD2    C413834   0.991   0.692  14.154 -0.1928 -0.0954  0.1471
    2MPD2    C513835   1.029   0.799  14.066 -0.1453 -0.3114 -0.2946
    2MPD2     H13836   1.203   0.770  14.398 -2.7311 -0.8122  0.4639
    2MPD2    H113837   0.923   0.618  14.114  0.5866 -1.1601  0.7858
    2MPD2    H213838   1.147   0.964  14.019  1.0839 -1.6669 -0.2243
    2MPD2    H313839   0.985   0.790  13.968  2.8627  0.8172 -1.7365
    2MPD2     N13840   1.023   0.600  14.387 -0.3063 -1.1085  0.0340
    2MPD2    H513841   1.070   0.628  14.473 -0.1398 -0.2598 -0.3427
    2MPD2    N113842   1.281   0.987  14.235 -0.5183  0.2245  0.0981
    2MPD2    H713843   1.286   1.049  14.155 -0.2095 -0.0268 -0.0762
    3TMC2    C113844   1.427   1.132  14.356 -0.0954  0.2377  0.8512
    3TMC2    C213845   1.406   1.202  14.467 -0.2649 -0.4323  0.1989
    3TMC2    C313846   1.428   1.336  14.461  0.3586  0.6953  0.9692
    3TMC2    C413847   1.473   1.182  14.234  0.6564 -0.7111  0.3356
    3TMC2    C513848   1.478   1.322  14.233 -0.1440 -0.3529 -0.4017
    3TMC2    C613849   1.462   1.396  14.348 -0.0231  0.1436 -0.6436
    3TMC2     C13850   1.347   1.014  14.356  0.4785  0.3420 -0.3589
    3TMC2     O13851   1.318   0.966  14.462  0.3159  0.2960 -0.3287
    3TMC2     H13852   1.353   1.164  14.554 -1.3460 -0.9062 -0.6823
    3TMC2    H113853   1.489   1.135  14.138 -0.9469  1.8741 -1.1861
    3TMC2    H213854   1.470   1.504  14.348 -1.3042  0.2391  0.3470
    3TMC2    C713855   1.536   1.394  14.121 -0.0453  0.8642 -0.2417
    3TMC2    C813856   1.385   1.421  14.572 -0.1667  1.2074  0.0223
    3TMC2    O113857   1.630   1.343  14.057  0.3631 -0.0398 -0.4902
    3TMC2    O213858   1.331   1.529  14.566  0.2188 -0.8854 -0.2519
    3TMC2    O513859   1.412   1.355  14.685 -0.2765 -0.0445 -0.3340
    3TMC2    H513860   1.472   1.278  14.677 -0.3179 -0.3150  2.0431
    4MPD2     C13861   0.200   1.677  13.459  0.2845  0.0484 -0.7470
    4MPD2    C113862   0.266   1.721  13.350 -0.1545 -0.4676 -0.2423
    4MPD2    C213863   0.402   1.744  13.364  0.7194  0.2656 -0.3265
    4MPD2    C313864   0.466   1.737  13.490  0.5520  0.2954 -0.1555
    4MPD2    C413865   0.393   1.699  13.597 -0.4916  0.9902  0.4919
    4MPD2    C513866   0.263   1.667  13.575  0.0129 -0.4960 -0.0123
    4MPD2     H13867   0.464   1.772  13.279  0.6079  1.0962 -0.1360
    4MPD2    H113868   0.428   1.690  13.699  1.1628 -0.7299 -0.2137
    4MPD2    H213869   0.094   1.659  13.465  0.3145 -0.1280 -0.7476
    4MPD2    H313870   0.208   1.635  13.663  1.8289 -1.3080  0.8380
    4MPD2     N13871   0.606   1.761  13.507 -0.1909  0.2086 -0.0283
    4MPD2    H513872   0.656   1.781  13.420  1.2983 -1.7437  0.3732
    4MPD2    N113873   0.194   1.746  13.227  0.0714  0.4494  0.0765
    4MPD2    H713874   0.093   1.731  13.228 -0.0865  1.6085  0.6751
    5TCq2    C113875   0.685   1.744  13.617  0.6298 -0.3074  0.0989
    5TCq2    O213876   0.652   1.719  13.728 -0.4731  0.4454 -0.2052
    5TCq2    C213877   0.814   1.804  13.596 -0.2357  0.2399 -0.0479
    5TCq2    C313878   0.856   1.872  13.484 -0.6889 -0.6456 -0.1502
    5TCq2    C413879   0.973   1.942  13.496  0.5112 -1.0074  0.3412
    5TCq2    C513880   1.062   1.915  13.601  0.7932 -0.2720  0.3480
    5TCq2    C613881   1.024   1.825  13.699 -0.1440 -0.4741  0.1818
    5TCq2    C713882   0.898   1.782  13.698 -0.1389  0.4791  0.3256
    5TCq2    C813883   1.121   1.755  13.779 -0.2346  0.0166  0.3108
    5TCq2    O413884   1.071   1.673  13.857  0.3837  0.1815 -0.2135
    5TCq2    C913885   1.004   2.047  13.398 -0.2126 -0.1114 -0.7483
    5TCq2    O513886   1.106   2.121  13.406  1.0398  0.3725 -0.3794
    5TCq2    O613887   0.922   2.062  13.301 -0.1154  0.3067 -0.0046
    5TCq2    H213888   0.797   1.906  13.400 -1.7681 -3.8288 -0.6721
    5TCq2    H313889   1.160   1.961  13.591  0.7213  0.4219  2.6244
    5TCq2    H413890   0.862   1.735  13.789  0.0081  0.1906  0.2372
    6MPD1     C13891   4.308   3.255  12.121  0.0826  0.6086 -0.6267
    6MPD1    C113892   4.381   3.305  12.221  0.3351  0.4913  0.5555
    6MPD1    C213893   4.454   3.220  12.303  0.3198 -0.9178 -0.1183
    6MPD1    C313894   4.454   3.082  12.276 -0.1099  0.3346 -0.2421
    6MPD1    C413895   4.376   3.030  12.176  0.1925  0.0681  0.4372
    6MPD1    C513896   4.304   3.120  12.101 -0.0112  0.4526  0.0702
    6MPD1     H13897   4.503   3.259  12.392 -0.5079  0.4799 -0.2768
    6MPD1    H113898   4.366   2.925  12.149  1.1606  0.2877 -0.7926
    6MPD1    H213899   4.245   3.320  12.061  0.6027  1.3947 -0.3132
    6MPD1    H313900   4.229   3.088  12.030  2.0072 -0.1164 -1.7841
    6MPD1     N13901   4.522   2.983  12.346 -0.3881  0.1339  0.0209
    6MPD1    H513902   4.501   2.888  12.316 -0.1024  0.5506 -1.5226
    6MPD1    N113903   4.400   3.438  12.232 -0.1006 -0.8196 -0.0279
    6MPD1    H613904   4.310   3.483  12.215 -1.1281 -2.0948  2.0017
    6MPD1    H713905   4.427   3.465  12.326  1.7917  1.5145 -1.2681
    7MPD2     C13906   4.542   2.532  13.081  0.4825  0.2946 -0.3492
    7MPD2    C113907   4.582   2.493  12.954 -0.0561  0.4992 -0.4516
    7MPD2    C213908   4.594   2.355  12.929 -0.0903  0.7030  1.0147
    7MPD2    C313909   4.570   2.272  13.033 -0.2427  0.4362 -0.4218
    7MPD2    C413910   4.547   2.316  13.162 -0.1324  0.3287  0.2797
    7MPD2    C513911   4.529   2.446  13.185 -0.6070  0.9639  0.1954
    7MPD2     H13912   4.608   2.321  12.827 -1.8084  1.7011  0.4462
    7MPD2    H113913   4.547   2.250  13.249  1.9820 -0.1678 -0.0958
    7MPD2    H213914   4.529   2.635  13.113  1.5084  0.4935 -0.5681
    7MPD2    H313915   4.511   2.485  13.284 -3.0000  1.1289 -0.2999
    7MPD2     N13916   4.583   2.138  12.991  0.3657 -0.6691 -0.1590
    7MPD2    H513917   4.621   2.131  12.897  1.6131  1.4810  0.1811
    7MPD2    N113918   4.628   2.582  12.856 -0.1826  0.3026  0.1106
    7MPD2    H713919   4.651   2.539  12.767 -2.7553 -0.4496 -0.1862
    8TMC3    C113920   4.620   1.910  13.010  0.5667  0.6012 -0.3505
    8TMC3    C213921   4.723   1.870  13.091  0.6040  0.2221  0.3873
    8TMC3    C313922   0.121   1.852  13.029  0.1552 -0.0218 -0.1933
    8TMC3    C413923   4.641   1.919  12.873 -0.1178  0.4832 -0.6358
    8TMC3    C513924   0.039   1.922  12.818  0.5214  0.1903 -0.6762
    8TMC3    C613925   0.149   1.889  12.897 -0.1625  0.0321  0.0569
    8TMC3     C13926   4.560   2.029  13.068  0.8122 -1.0249 -0.2682
    8TMC3     O13927   4.519   2.023  13.181 -0.3418  0.3995  0.6428
    8TMC3     H13928   4.703   1.854  13.196 -0.7125 -0.8955 -0.0220
    8TMC3    H113929   4.559   1.940  12.805 -1.1995  1.3145  0.9131
    8TMC3    H213930   0.249   1.869  12.858 -0.0042  2.4521 -0.7936
    8TMC3    C713931   0.064   2.040  12.743 -0.0990  0.0732  0.2229
    8TMC3    C813932   0.233   1.796  13.109 -0.3239 -0.3268 -0.2313
    8TMC3    O113933   4.702   2.124  12.731 -0.4032  0.2095 -0.4661
    8TMC3    O213934   0.346   1.808  13.069 -0.5705 -0.8661  0.0125
    9TMC3    C113935   4.609   2.874  12.530 -0.1412  0.0630  0.1402
    9TMC3    C213936   4.700   2.791  12.458 -0.4846  0.4841  0.5878
    9TMC3    C313937   0.060   2.708  12.527  0.4303  0.3160 -0.8263
    9TMC3    C413938   4.600   2.851  12.670 -0.1764  0.9936  0.4710
    9TMC3    C513939   4.684   2.761  12.728 -0.0118  0.0680 -0.2892
    9TMC3    C613940   0.042   2.683  12.663  0.6579 -0.3493  0.0723
    9TMC3     C13941   4.575   3.002  12.473  0.1930  0.3909 -0.3518
    9TMC3     O13942   4.588   3.106  12.539 -0.1128 -0.1070  0.3988
    9TMC3     H13943   4.718   2.814  12.354 -0.5614 -3.0500 -0.1944
    9TMC3    H113944   4.527   2.910  12.726 -1.8851  1.2173 -1.9746
    9TMC3    H213945   0.100   2.610  12.717 -0.7792 -1.3213  0.3213
    9TMC3    C713946   4.638   2.720  12.856 -0.0065 -0.0314 -0.1901
    9TMC3    C813947   0.139   2.610  12.456  0.6195 -0.2772  0.8297
    9TMC3    O113948   4.598   2.796  12.943 -0.6205  0.1588 -0.7334
    9TMC3    O213949   0.210   2.653  12.367  0.4491 -0.8282  0.2674
   10MPD2     C13950   0.325   2.125  12.497 -0.4628  0.3979  0.3640
   10MPD2    C113951   0.227   2.143  12.588 -0.1885  0.1739  0.2338
   10MPD2    C213952   0.174   2.271  12.598  0.1007 -0.6447 -0.1922
   10MPD2    C313953   0.208   2.370  12.513  0.2584  0.0122 -0.5078
   10MPD2    C413954   0.308   2.351  12.421  0.3929 -0.2731 -0.1485
   10MPD2    C513955   0.370   2.225  12.414 -0.2229 -0.0800 -0.8185
   10MPD2     H13956   0.087   2.302  12.655 -0.7526 -1.0245 -1.2901
   10MPD2    H113957   0.322   2.429  12.347 -0.3899  0.1960  0.1999
   10MPD2    H213958   0.379   2.031  12.498 -0.5301  0.3677  2.3573
   10MPD2    H313959   0.448   2.194  12.345 -1.0291 -2.0573 -0.8614
   10MPD2     N13960   0.132   2.489  12.526 -0.0149 -0.6913  0.3348
   10MPD2    H513961   0.054   2.479  12.589 -1.3446 -2.2100 -1.5443
   10MPD2    N113962   0.187   2.038  12.680 -0.0464  0.0361 -0.3447
   10MPD2    H713963   0.245   1.955  12.674  0.3060  0.3871 -1.6408
   11MPD2     C13964   1.595   1.581  13.901  0.4062 -0.1256  0.7072
   11MPD2    C113965   1.472   1.566  13.962 -0.0505 -0.1684 -0.4607
   11MPD2    C213966   1.358   1.638  13.915 -0.0688  0.2706 -0.1410
   11MPD2    C313967   1.367   1.714  13.802 -0.2910  0.5492  0.1299
   11MPD2    C413968   1.492   1.730  13.743  0.3085  0.8207  0.3857
   11MPD2    C513969   1.610   1.667  13.790  0.5552 -0.3257  0.0325
   11MPD2     H13970   1.260   1.621  13.960  0.0224  2.5340  0.9323
   11MPD2    H113971   1.510   1.791  13.655  1.0630 -1.9519 -1.3785
   11MPD2    H213972   1.681   1.544  13.954  1.1049  0.8018  0.2369
   11MPD2    H313973   1.709   1.681  13.749  0.7402 -0.0208  0.5812
   11MPD2     N13974   1.253   1.778  13.743  0.4872 -0.5585 -0.1297
   11MPD2    H513975   1.278   1.842  13.668 -1.2659 -0.3062 -0.5182
   11MPD2    N113976   1.460   1.500  14.086 -0.3327  0.5239  0.4736
   11MPD2    H713977   1.371   1.519  14.130 -0.5549  0.0150  0.2413
    1MPD1     C13978   3.104   2.324  17.211 -0.8163  0.1999  0.8420
    1MPD1    C113979   3.190   2.411  17.266  0.6033 -0.0654 -0.9049
    1MPD1    C213980   3.310   2.437  17.200  0.1074 -0.9022 -0.8716
    1MPD1    C313981   3.340   2.382  17.081 -0.1515 -0.5152 -0.7012
    1MPD1    C413982   3.242   2.305  17.016 -0.5381  0.6803  0.5768
    1MPD1    C513983   3.125   2.280  17.085  0.1457 -0.5530 -0.1232
    1MPD1     H13984   3.373   2.504  17.258 -0.3039  0.5360 -2.0830
    1MPD1    H113985   3.244   2.274  16.912  2.9600 -0.8641  1.0986
    1MPD1    H213986   3.017   2.287  17.264 -1.2085 -0.5076 -0.2855
    1MPD1    H313987   3.060   2.203  17.044 -0.8086 -0.3365  0.9732
    1MPD1     N13988   3.454   2.424  17.013  0.0080 -0.2885  0.0426
    1MPD1    H513989   3.458   2.375  16.924 -0.6265  1.9692 -1.2113
    1MPD1    N113990   3.160   2.468  17.394 -0.0814  0.2321 -0.4102
    1MPD1    H613991   3.187   2.565  17.410 -3.1009  1.2256 -1.2847
    1MPD1    H713992   3.064   2.479  17.425 -0.3449 -0.0340 -1.1381
    2MPD1     C13993   4.497   2.189  16.888  0.0266  0.2583 -0.5578
    2MPD1    C113994   4.435   2.207  16.767  0.2342  0.0215 -0.3816
    2MPD1    C213995   4.305   2.247  16.763 -0.6516 -0.3335  0.0294
    2MPD1    C313996   4.238   2.291  16.871 -0.6757 -0.0250 -0.7030
    2MPD1    C413997   4.306   2.281  16.989  0.3028 -1.3067  0.3208
    2MPD1    C513998   4.430   2.235  17.000 -0.2401 -0.4065 -0.2829
    2MPD1     H13999   4.254   2.260  16.668 -1.7592  0.9716  0.8035
    2MPD1    H114000   4.261   2.321  17.080 -0.3465 -0.9519 -0.1527
    2MPD1    H214001   4.601   2.159  16.894 -0.4659 -1.4364 -0.3896
    2MPD1    H314002   4.487   2.243  17.092 -1.4502  0.0989  0.4155
    2MPD1     N14003   4.107   2.341  16.849  0.5509  0.4699  0.0693
    2MPD1    H514004   4.073   2.326  16.755  0.7647  0.1029  0.0507
    2MPD1    N114005   4.504   2.196  16.648  0.2866 -0.3052 -0.2973
    2MPD1    H614006   4.578   2.126  16.648  0.4402 -0.1414  1.4447
    2MPD1    H714007   4.450   2.182  16.563 -2.0123 -0.6675  1.2429
    3TMC3    C114008   3.882   2.424  16.907 -0.3789 -0.8600  0.1051
    3TMC3    C214009   3.856   2.438  16.778 -0.0174  0.0590 -0.6056
    3TMC3    C314010   3.729   2.478  16.746  0.2948 -0.5691  0.0313
    3TMC3    C414011   3.794   2.445  17.012 -0.1096 -0.4872 -0.0672
    3TMC3    C514012   3.669   2.476  16.971  0.4202  0.0695 -0.3486
    3TMC3    C614013   3.631   2.493  16.840  0.5649 -0.5147 -0.2241
    3TMC3     C14014   4.023   2.390  16.949 -0.1834  0.4431 -0.0904
    3TMC3     O14015   4.045   2.400  17.069  0.2145 -1.0084 -0.0510
    3TMC3     H14016   3.933   2.428  16.703 -1.2107  1.8890 -2.0574
    3TMC3    H114017   3.822   2.416  17.112  1.0904 -2.6761 -1.0361
    3TMC3    H214018   3.530   2.515  16.805  1.0589  1.6551 -0.2978
    3TMC3    C714019   3.566   2.471  17.070 -0.1506  0.2708  0.1332
    3TMC3    C814020   3.697   2.501  16.612 -0.3781 -0.3448  0.2403
    3TMC3    O114021   3.602   2.464  17.185 -0.4877  0.0376  0.0904
    3TMC3    O214022   3.578   2.505  16.578 -0.0080 -0.3212  0.3121
    4MPD1     C14023   3.798   2.627  16.121 -0.1239 -0.5106 -0.1348
    4MPD1    C114024   3.914   2.619  16.195 -0.3472 -0.1374  0.1567
    4MPD1    C214025   3.907   2.577  16.326  0.5089 -0.5959  0.7404
    4MPD1    C314026   3.788   2.552  16.386 -0.4124 -0.0212 -0.9499
    4MPD1    C414027   3.667   2.561  16.313  0.8866  0.0450 -0.4671
    4MPD1    C514028   3.676   2.593  16.182 -0.0517  0.5154  0.2699
    4MPD1     H14029   3.995   2.580  16.388  2.6642 -2.8508 -2.1978
    4MPD1    H114030   3.573   2.555  16.367  0.2811 -0.3135 -1.5578
    4MPD1    H214031   3.784   2.659  16.018  0.9312  2.6363  0.6897
    4MPD1    H314032   3.586   2.617  16.126  0.9789 -2.1824 -2.5857
    4MPD1     N14033   3.797   2.525  16.526  0.0486  0.2229  0.2155
    4MPD1    H514034   3.896   2.517  16.548 -0.4286 -3.3912  1.1715
    4MPD1    N114035   4.027   2.699  16.158  0.0942 -0.3070  0.3907
    4MPD1    H614036   4.036   2.709  16.057 -1.7926 -0.2012  0.2470
    4MPD1    H714037   4.113   2.655  16.190  0.1374 -0.4329  0.1057
    1TCq1    O114038   4.651   2.370  11.631 -0.3616  0.3009 -0.3746
    1TCq1    C114039   4.617   2.239  11.618 -0.0198  0.1003 -0.0391
    1TCq1    O214040   4.674   2.136  11.654 -0.0990  0.6964  0.4526
    1TCq1    C214041   4.480   2.238  11.554  1.4507 -0.2983 -0.0753
    1TCq1    C314042   4.382   2.151  11.590 -0.1638  0.5391 -0.0332
    1TCq1    C414043   4.261   2.161  11.529  0.0948 -0.5275  0.1114
    1TCq1    C514044   4.240   2.240  11.423 -0.2361  0.0652 -0.5630
    1TCq1    C614045   4.333   2.332  11.392  0.2396  0.0430  0.0856
    1TCq1    C714046   4.444   2.341  11.471  0.5729  0.3225  0.1305
    1TCq1    C814047   4.311   2.442  11.296 -0.1815 -0.5720 -0.3466
    1TCq1    O414048   4.384   2.543  11.305 -0.2758  0.6540  0.3801
    1TCq1    C914049   4.170   2.045  11.547  0.8491 -0.7092  0.0871
    1TCq1    O514050   4.215   1.934  11.596  0.2026 -0.0974 -0.1056
    1TCq1    O614051   4.060   2.054  11.485  0.0075 -0.2142  0.3164
    1TCq1    H114052   4.569   2.422  11.619  0.5454  2.1570  1.6075
    1TCq1    H214053   4.398   2.065  11.654  3.2568  0.3282 -1.2005
    1TCq1    H314054   4.149   2.222  11.366 -0.7406  0.8219 -0.0025
    1TCq1    H414055   4.520   2.409  11.436 -0.2879  0.7655 -0.9091
    2MPD1     C14056   4.011   2.650  10.937  0.1072 -0.3669  0.5213
    2MPD1    C114057   3.959   2.524  10.975 -0.2254 -0.2906 -0.1229
    2MPD1    C214058   4.029   2.451  11.069  0.6408  0.1724 -0.1726
    2MPD1    C314059   4.142   2.501  11.125  0.3845  0.7814  0.3025
    2MPD1    C414060   4.192   2.623  11.086  0.3007  0.4016 -0.3551
    2MPD1    C514061   4.117   2.702  11.000 -0.5109 -0.2427 -0.2990
    2MPD1     H14062   4.005   2.352  11.105  2.2164 -0.6036 -1.3150
    2MPD1    H114063   4.291   2.657  11.117  0.6507 -2.4886  1.6866
    2MPD1    H214064   3.957   2.710  10.864  0.8541  0.6404  0.7847
    2MPD1    H314065   4.145   2.803  10.970  0.9020 -0.3671  0.6152
    2MPD1     N14066   4.203   2.413  11.220 -0.0548  0.4288  0.7181
    2MPD1    H514067   4.151   2.328  11.239 -0.8101  0.6120 -0.5382
    2MPD1    N114068   3.854   2.473  10.902 -0.0780  0.1901  0.1190
    2MPD1    H614069   3.805   2.390  10.934  1.2241  0.3682  2.5361
    2MPD1    H714070   3.782   2.545  10.910  0.4771  0.6714  0.8046
    1TCq1    O114071   0.254   1.521   0.563  0.4659  0.3301  0.0197
    1TCq1    C114072   0.350   1.427   0.585 -0.1165 -0.1651 -0.6272
    1TCq1    O214073   0.373   1.331   0.514 -0.2390 -0.4978 -0.1783
    1TCq1    C214074   0.349   1.424   0.728 -0.6902 -0.1908  0.5512
    1TCq1    C314075   0.349   1.301   0.783  0.1658 -0.7381  0.6289
    1TCq1    C414076   0.344   1.292   0.920  0.1970 -0.8922 -0.5194
    1TCq1    C514077   0.374   1.401   0.992 -0.3717  0.7644 -0.3354
    1TCq1    C614078   0.381   1.525   0.929  0.1833  0.1194 -0.0775
    1TCq1    C714079   0.377   1.537   0.796  0.0859  0.4643  0.2282
    1TCq1    C814080   0.388   1.656   0.996 -0.2076  0.1575  0.1146
    1TCq1    O414081   0.396   1.761   0.938  0.7650  0.1074  0.3553
    1TCq1    C914082   0.353   1.172   0.992 -0.2177 -0.0042  0.0274
    1TCq1    O514083   0.333   1.183   1.116  0.3304 -0.4207  0.7620
    1TCq1    O614084   0.367   1.068   0.928 -0.3825 -0.1053 -0.4922
    1TCq1    H114085   0.201   1.552   0.639  0.4770  0.5476 -0.0629
    1TCq1    H214086   0.328   1.216   0.719 -0.4929 -0.0066 -0.1259
    1TCq1    H314087   0.379   1.390   1.100  0.8332  2.7574 -0.1815
    1TCq1    H414088   0.381   1.633   0.746 -2.3083 -1.1954 -3.1533
    2MPD1     C14089   0.379   1.911   1.445 -0.0997  0.1869 -0.5391
    2MPD1    C114090   0.363   1.778   1.472  0.0432 -0.8600 -0.2448
    2MPD1    C214091   0.364   1.692   1.362 -0.5623 -0.4856  0.0431
    2MPD1    C314092   0.387   1.739   1.229  1.2702  0.0692 -0.1382
    2MPD1    C414093   0.408   1.873   1.209  0.1777  0.2347  0.6148
    2MPD1    C514094   0.399   1.958   1.314 -0.3262 -0.2629  0.7208
    2MPD1     H14095   0.350   1.585   1.368 -2.9634 -0.1770 -0.0287
    2MPD1    H114096   0.406   1.916   1.109 -1.6923 -1.1369  0.0699
    2MPD1    H214097   0.395   1.986   1.521 -2.1823  2.6501 -2.5490
    2MPD1    H314098   0.410   2.063   1.289 -2.7696 -0.4025 -0.9218
    2MPD1     N14099   0.376   1.641   1.131  0.2205 -0.6470 -0.0929
    2MPD1    H514100   0.366   1.546   1.166  0.6547 -0.7584 -0.2714
    2MPD1    N114101   0.369   1.737   1.609 -0.2390 -0.2693 -0.2834
    2MPD1    H614102   0.320   1.802   1.671 -2.0874 -0.3472 -1.6721
    2MPD1    H714103   0.313   1.652   1.607  0.9754 -1.0503 -0.8621
    1MPD1     C14104   1.349   2.354  11.901  0.3313 -0.4361  0.1838
    1MPD1    C114105   1.222   2.414  11.876 -0.0888  0.2084 -0.0146
    1MPD1    C214106   1.205   2.551  11.850 -0.3921  0.1689 -0.6923
    1MPD1    C314107   1.317   2.633  11.863  0.1732  0.8442 -0.0248
    1MPD1    C414108   1.441   2.574  11.872 -0.8874 -1.0536 -0.0057
    1MPD1    C514109   1.456   2.440  11.906  0.5995 -0.4471 -0.3173
    1MPD1     H14110   1.103   2.587  11.846  0.4705  2.4535 -2.0543
    1MPD1    H114111   1.530   2.635  11.884 -1.1210 -0.6383 -0.3561
    1MPD1    H214112   1.353   2.252  11.935  1.5582 -0.7555 -0.9297
    1MPD1    H314113   1.557   2.404  11.921  0.4430  0.1473  2.1015
    1MPD1     N14114   1.293   2.775  11.854  0.4834  0.6433 -0.3061
    1MPD1    H514115   1.198   2.806  11.840  0.0311 -0.6543 -0.1555
    1MPD1    N114116   1.113   2.322  11.891  0.0570 -0.3948 -0.7012
    1MPD1    H614117   1.030   2.364  11.850  0.1852  0.8289  0.2934
    1MPD1    H714118   1.143   2.239  11.841  1.1673 -0.6465  0.3737
    2MPD1     C14119   0.648   2.948  11.517 -0.5295 -0.5128 -0.3776
    2MPD1    C114120   0.632   2.915  11.386  0.2296 -0.5158  0.5598
    2MPD1    C214121   0.748   2.882  11.317  0.4088 -0.0889  0.5888
    2MPD1    C314122   0.871   2.891  11.378 -0.3051  0.1749  0.6943
    2MPD1    C414123   0.879   2.943  11.505  0.2426 -0.4300  0.8798
    2MPD1    C514124   0.766   2.971  11.576  0.3534  0.2015  0.1078
    2MPD1     H14125   0.745   2.849  11.214 -2.1529 -2.9023  1.5733
    2MPD1    H114126   0.976   2.936  11.555  1.2464  0.6233 -0.9140
    2MPD1    H214127   0.555   2.953  11.574  0.5747  0.7463  1.3392
    2MPD1    H314128   0.778   3.003  11.680 -0.4743  0.1251  0.2229
    2MPD1     N14129   0.987   2.870  11.307 -0.4651 -0.6302  0.0928
    2MPD1    H514130   1.072   2.897  11.355 -1.0709  1.5709 -0.1018
    2MPD1    N114131   0.507   2.891  11.322 -0.5314 -0.0030 -0.6078
    2MPD1    H614132   0.430   2.948  11.354  1.7611  1.4141  2.4116
    2MPD1    H714133   0.509   2.887  11.220 -0.2761 -1.0282 -0.5611
    3MPD1     C14134   1.103   2.405  10.405 -1.0186 -0.6341 -0.3957
    3MPD1    C114135   1.021   2.386  10.514  0.0099  0.9630 -0.5603
    3MPD1    C214136   1.046   2.461  10.629  0.0793  0.1747  0.1783
    3MPD1    C314137   1.148   2.556  10.642 -0.4544 -0.0997 -0.2635
    3MPD1    C414138   1.222   2.590  10.525 -0.4673  0.1259 -0.8492
    3MPD1    C514139   1.198   2.505  10.422  0.3084  0.0260 -0.2936
    3MPD1     H14140   0.991   2.435  10.719 -2.2526 -1.1503 -1.6274
    3MPD1    H114141   1.300   2.663  10.513 -0.3459 -0.0352 -1.0311
    3MPD1    H214142   1.090   2.355  10.310  0.2757 -2.5402  0.4371
    3MPD1    H314143   1.277   2.503  10.347  1.7615  0.7268  1.2213
    3MPD1     N14144   1.159   2.635  10.759  0.1682 -0.3454  0.2322
    3MPD1    H514145   1.083   2.622  10.826 -0.2937  2.0139  0.1440
    3MPD1    N114146   0.928   2.277  10.511  0.5567  0.5621 -0.2161
    3MPD1    H614147   0.909   2.257  10.413  0.7488  2.6343 -0.6841
    3MPD1    H714148   0.847   2.299  10.569  2.2939  0.9821  2.0769
    4MPD2     C14149   1.204   3.270  11.277 -0.3978 -0.8213 -0.2655
    4MPD2    C114150   1.277   3.312  11.386 -0.0237  0.0484  0.6106
    4MPD2    C214151   1.383   3.400  11.372 -0.2335 -0.0711  0.5366
    4MPD2    C314152   1.418   3.455  11.254 -0.1930  0.2259  0.4381
    4MPD2    C414153   1.346   3.415  11.142  0.0474 -0.4439 -0.1347
    4MPD2    C514154   1.240   3.323  11.157  0.1100 -0.5394 -0.3282
    4MPD2     H14155   1.440   3.415  11.463  1.3689  0.8138 -0.6308
    4MPD2    H114156   1.364   3.460  11.045 -0.2486 -0.2145 -0.0822
    4MPD2    H214157   1.121   3.201  11.283 -0.9764 -0.4281 -3.4940
    4MPD2    H314158   1.190   3.284  11.070  0.5312  0.6901 -1.1176
    4MPD2     N14159   1.536   3.532  11.251 -0.5992 -0.0653 -0.2123
    4MPD2    H514160   1.578   3.533  11.343 -1.5819  2.5239  0.2114
    4MPD2    N114161   1.261   3.256  11.515  0.1509  0.4392  0.2819
    4MPD2    H714162   1.309   3.302  11.591  0.0957  0.8641  0.0592
    5TMC3    C114163   1.192   3.121  11.685  0.1875  0.7155 -0.2948
    5TMC3    C214164   1.249   3.002  11.719 -0.0007 -0.7181  0.2764
    5TMC3    C314165   1.327   3.000  11.834 -0.5006 -0.1349 -0.6914
    5TMC3    C414166   1.219   3.233  11.765  0.0355  0.0251 -0.3794
    5TMC3    C514167   1.327   3.230  11.851 -0.6390 -0.7528 -0.6733
    5TMC3    C614168   1.374   3.110  11.890 -0.4622  0.2033 -0.0515
    5TMC3     C14169   1.192   3.140  11.546  1.0582  0.1572  0.5883
    5TMC3     O14170   1.145   3.053  11.475 -0.6528  0.3271  0.3090
    5TMC3     H14171   1.261   2.925  11.644  3.6034 -0.7585  0.8725
    5TMC3    H114172   1.170   3.327  11.743  1.5949  0.6218 -1.3320
    5TMC3    H214173   1.449   3.107  11.968  0.0268  1.5840 -0.4723
    5TMC3    C714174   1.421   3.337  11.824 -0.3200  0.4499 -0.3031
    5TMC3    C814175   1.384   2.877  11.871 -0.6245  0.0918  0.0651
    5TMC3    O114176   1.399   3.398  11.719 -0.0543  0.6090 -0.0146
    5TMC3    O214177   1.505   2.864  11.873  0.2750 -0.5206 -0.1455
    6TMC3    C114178   1.129   2.826  11.117  0.0853  0.7208  0.1243
    6TMC3    C214179   1.128   2.779  10.988  0.4260  0.0357 -0.8867
    6TMC3    C314180   1.252   2.766  10.933 -0.2684  0.5589 -0.2946
    6TMC3    C414181   1.234   2.862  11.196 -0.3811 -0.4562  0.4072
    6TMC3    C514182   1.352   2.861  11.128 -0.2177 -0.5442 -0.1652
    6TMC3    C614183   1.365   2.808  10.997  0.5037 -0.0748  0.8063
    6TMC3     C14184   0.990   2.816  11.177 -0.7189 -0.1061 -0.0654
    6TMC3     O14185   0.913   2.743  11.118  0.2768  0.0371 -0.0294
    6TMC3     H14186   1.038   2.756  10.933 -0.0062 -0.7354  0.1434
    6TMC3    H114187   1.234   2.916  11.290 -1.3115 -0.1233  0.2149
    6TMC3    H214188   1.461   2.809  10.948  0.8138 -0.9743  1.3954
    6TMC3    C714189   1.466   2.936  11.175  0.1211  0.4165  0.9222
    6TMC3    C814190   1.258   2.711  10.796  0.2229 -0.1108  0.4685
    6TMC3    O114191   1.570   2.955  11.111 -0.0381  0.1380  0.1811
    6TMC3    O214192   1.362   2.739  10.738 -0.4133 -0.8378 -0.6828
    7MPD2     C14193   1.905   3.445  11.830 -0.1509 -0.0753  0.0188
    7MPD2    C114194   1.808   3.494  11.736  0.4371  0.2819 -0.1646
    7MPD2    C214195   1.680   3.471  11.773  0.0774 -0.7630  0.1260
    7MPD2    C314196   1.649   3.377  11.869  0.1157 -0.6531 -0.7619
    7MPD2    C414197   1.744   3.316  11.947 -0.2717  0.2787 -0.3989
    7MPD2    C514198   1.871   3.366  11.940 -0.8912 -0.2138  0.0336
    7MPD2     H14199   1.596   3.506  11.715  2.8299  1.2793 -2.6703
    7MPD2    H114200   1.722   3.263  12.038  2.6428  0.7876  0.6117
    7MPD2    H214201   2.009   3.469  11.814  0.2618 -1.8722  0.0303
    7MPD2    H314202   1.948   3.335  12.010 -2.3198 -1.0598  1.2368
    7MPD2     N14203   1.527   3.326  11.905 -0.3080 -0.1309 -0.0667
    7MPD2    H514204   1.525   3.258  11.980  1.3057  0.4603  0.5039
    7MPD2    N114205   1.842   3.557  11.622  0.1089  0.2644  0.0111
    7MPD2    H714206   1.942   3.576  11.616  0.0398  0.8576  0.6578
    8TMC3    C114207   1.832   3.625  11.405 -0.0973 -0.1378 -0.0685
    8TMC3    C214208   1.911   3.519  11.369 -0.3240 -0.6608 -0.0949
    8TMC3    C314209   1.890   3.470  11.244  0.0940 -0.7307 -0.0924
    8TMC3    C414210   1.739   3.676  11.315  0.4644  0.7681  0.4740
    8TMC3    C514211   1.736   3.623  11.185  0.3847 -0.2679 -0.1273
    8TMC3    C614212   1.825   3.532  11.149 -0.3958  1.0261  0.7061
    8TMC3     C14213   1.762   3.590  11.523 -0.0907  0.4218 -0.4784
    8TMC3     O14214   1.643   3.583  11.502  0.2776  0.3865  0.0895
    8TMC3     H14215   1.975   3.470  11.442  0.6173 -2.4050 -2.0846
    8TMC3    H114216   1.670   3.755  11.340 -0.9920 -0.5878  0.7877
    8TMC3    H214217   1.817   3.486  11.051  0.2941  0.6602  0.8249
    8TMC3    C714218   1.605   3.573  11.143  0.3833 -0.3150  0.1564
    8TMC3    C814219   1.841   3.327  11.249 -0.1073  0.3691 -0.2835
    8TMC3    O114220   1.584   3.536  11.028  0.0633 -0.0101  0.2058
    8TMC3    O214221   1.809   3.281  11.141 -0.5334  0.0683  0.0065
    9MPD2     C14222   1.728   3.157  11.558 -0.1105 -0.4134 -0.3631
    9MPD2    C114223   1.732   3.183  11.424 -0.0148 -0.8935  0.1731
    9MPD2    C214224   1.635   3.125  11.339 -0.5884 -0.1817 -0.0169
    9MPD2    C314225   1.545   3.038  11.392  0.2225  0.4658 -0.2780
    9MPD2    C414226   1.541   3.011  11.527  0.3070  0.4496  0.3180
    9MPD2    C514227   1.632   3.066  11.609  0.2182  1.0115 -0.7547
    9MPD2     H14228   1.635   3.141  11.232 -0.6985  1.0328  0.1684
    9MPD2    H114229   1.466   2.938  11.557 -0.2199  0.4924 -0.8690
    9MPD2    H214230   1.802   3.193  11.629 -1.0652  1.7937 -0.4988
    9MPD2    H314231   1.638   3.025  11.710  1.7780  4.3491  0.4975
    9MPD2     N14232   1.464   2.954  11.311  0.1247  0.2470 -0.2889
    9MPD2    H514233   1.394   2.898  11.359  0.6231  1.7962  2.2453
    9MPD2    N114234   1.819   3.284  11.378 -0.3825  0.4104 -0.0491
    9MPD2    H714235   1.868   3.320  11.459 -1.5547  0.2893  0.7083
    1MPD1     C14236   2.445   1.800  16.361 -0.5857  0.0227 -1.2034
    1MPD1    C114237   2.418   1.690  16.277 -0.5446 -0.3463 -0.2441
    1MPD1    C214238   2.287   1.635  16.279  0.7540  0.3687  0.6448
    1MPD1    C314239   2.188   1.681  16.363 -0.5732 -0.2581  0.8177
    1MPD1    C414240   2.220   1.794  16.435 -0.7753 -0.2313  0.1429
    1MPD1    C514241   2.342   1.852  16.432  0.0657  0.2049 -0.5730
    1MPD1     H14242   2.272   1.540  16.228 -0.4282  1.3207 -0.7786
    1MPD1    H114243   2.135   1.835  16.489 -0.0395  0.1175  1.0195
    1MPD1    H214244   2.544   1.839  16.377 -0.9967 -0.2768  2.2698
    1MPD1    H314245   2.358   1.943  16.489  1.9383 -0.6559  0.2740
    1MPD1     N14246   2.061   1.622  16.374  0.0625 -0.2121  0.1701
    1MPD1    H514247   1.994   1.673  16.431  1.0078  1.6004 -0.3481
    1MPD1    N114248   2.527   1.641  16.205 -0.6162  0.1450  0.8114
    1MPD1    H614249   2.513   1.542  16.185  0.5232  0.1924 -0.2665
    1MPD1    H714250   2.617   1.655  16.251 -1.2394  0.9990  1.7378
    2MPD1     C14251   1.206   1.404  15.854  0.2816  0.1915  0.1417
    2MPD1    C114252   1.319   1.464  15.813 -0.3583 -0.1043 -0.1865
    2MPD1    C214253   1.436   1.461  15.888  0.3622 -0.6455 -0.1927
    2MPD1    C314254   1.424   1.413  16.019  1.0183 -0.7648 -0.1903
    2MPD1    C414255   1.303   1.362  16.066 -0.3031 -0.2327  0.0773
    2MPD1    C514256   1.192   1.370  15.984 -0.2399 -0.4197 -0.7718
    2MPD1     H14257   1.535   1.484  15.851  0.4286  1.5175  1.3715
    2MPD1    H114258   1.286   1.327  16.167  1.5938 -1.6349 -0.0782
    2MPD1    H214259   1.113   1.403  15.799  0.3003 -0.8703  0.1363
    2MPD1    H314260   1.096   1.332  16.017 -0.3235  0.6207  0.1767
    2MPD1     N14261   1.541   1.423  16.105 -0.6408  1.2574 -0.2006
    2MPD1    H514262   1.619   1.479  16.072  0.1744  0.0629 -0.3100
    2MPD1    N114263   1.333   1.499  15.676  0.0860  0.0827  0.4595
    2MPD1    H614264   1.394   1.580  15.677  0.2557 -0.0316 -0.2110
    2MPD1    H714265   1.244   1.527  15.635  0.1861  0.2196  0.3321
    3TCq2    C114266   1.558   1.348  16.218  0.3781 -0.0290 -0.5426
    3TCq2    O214267   1.497   1.247  16.247  0.1005 -0.0786 -0.4726
    3TCq2    C214268   1.676   1.382  16.296 -0.3703  0.1995 -0.3054
    3TCq2    C314269   1.671   1.344  16.433 -0.0591 -0.9609 -0.2081
    3TCq2    C414270   1.783   1.363  16.510  0.2360  0.3970 -0.3341
    3TCq2    C514271   1.892   1.435  16.463  0.8849  0.2795  0.3338
    3TCq2    C614272   1.880   1.481  16.335  0.0473 -0.5783  0.1589
    3TCq2    C714273   1.780   1.452  16.245 -0.1047 -0.5504  0.4625
    3TCq2    C814274   1.996   1.543  16.282  0.3988 -0.4586 -0.4586
    3TCq2    O414275   2.039   1.507  16.174 -0.3786  0.6693 -0.1448
    3TCq2    C914276   1.790   1.309  16.643  0.3879  0.1259  0.6168
    3TCq2    O514277   1.865   1.364  16.733  0.7528 -0.1256  0.1807
    3TCq2    O614278   1.697   1.228  16.675  0.0246 -0.0293  1.2627
    3TCq2    H214279   1.588   1.281  16.464 -0.2821  0.0915  1.3124
    3TCq2    H314280   1.977   1.455  16.528  0.7403  0.0179  0.6037
    3TCq2    H414281   1.786   1.487  16.143 -1.3949  1.4393  1.0852
    1TCq1    O114282   3.614   0.368  12.718  1.1910 -0.3189  0.0929
    1TCq1    C114283   3.721   0.443  12.696  0.0463 -0.2292  0.1764
    1TCq1    O214284   3.729   0.530  12.609  0.2570 -0.2939  0.8333
    1TCq1    C214285   3.822   0.409  12.796 -0.1324  0.0155 -0.3015
    1TCq1    C314286   3.771   0.416  12.927 -0.0286  0.3922  0.1946
    1TCq1    C414287   3.857   0.446  13.031 -0.3922 -0.8194 -0.4224
    1TCq1    C514288   3.990   0.487  13.006 -0.5339 -0.3746  0.2247
    1TCq1    C614289   4.029   0.489  12.874 -0.2404 -0.2536  0.1224
    1TCq1    C714290   3.952   0.448  12.768 -0.2149 -0.4624  0.1309
    1TCq1    C814291   4.153   0.553  12.835  0.2538  0.5833 -0.4591
    1TCq1    O414292   4.169   0.614  12.731  0.5862  0.1261  0.2243
    1TCq1    C914293   3.799   0.441  13.167  0.1275 -0.0822 -0.0466
    1TCq1    O514294   3.678   0.409  13.177 -0.2196 -0.6234 -0.4963
    1TCq1    O614295   3.883   0.457  13.256  0.0212 -0.0790  0.0317
    1TCq1    H114296   3.630   0.288  12.773  2.4042 -0.3219 -0.2562
    1TCq1    H214297   3.666   0.405  12.948 -0.3216 -0.8588 -2.0005
    1TCq1    H314298   4.051   0.516  13.091 -0.4962 -0.4561  0.2250
    1TCq1    H414299   3.992   0.464  12.669 -0.1003 -0.8374  0.1171
    2MPD2     C14300   4.445   0.648  12.828 -0.1562  0.5783 -0.5931
    2MPD2    C114301   4.380   0.604  12.942 -0.3719  0.2735  0.1169
    2MPD2    C214302   4.454   0.584  13.055 -0.2416  0.8841 -0.2617
    2MPD2    C314303   4.581   0.627  13.071  0.2067 -0.8358 -0.4939
    2MPD2    C414304   4.640   0.686  12.962  0.1394 -0.2848 -0.2863
    2MPD2    C514305   4.574   0.694  12.842  0.1227 -0.2400 -0.1291
    2MPD2     H14306   4.405   0.549  13.145  2.7719  0.4854  1.1943
    2MPD2    H114307   0.014   0.732  12.964 -1.1490  2.3439  1.7907
    2MPD2    H214308   4.398   0.647  12.730  0.3826 -0.5342 -0.8383
    2MPD2    H314309   4.610   0.739  12.750 -1.1842  0.9641 -0.0572
    2MPD2     N14310   4.644   0.601  13.193  0.0404  0.0618  0.3808
    2MPD2    H514311   4.595   0.539  13.257  0.4209  1.4115  1.9782
    2MPD2    N114312   4.246   0.551  12.939 -0.1524  0.1835  0.5621
    2MPD2    H714313   4.219   0.494  13.019 -1.3661  1.9637  1.4183
    3TCq1    O114314   4.718   0.737  13.678  0.1645 -0.1684 -0.1901
    3TCq1    C114315   4.715   0.595  13.699  0.3771  0.3078 -0.2965
    3TCq1    O214316   0.000   0.541  13.807 -0.2159  1.1065  0.2332
    3TCq1    C214317   0.055   0.551  13.572 -0.7439 -0.2887  0.3537
    3TCq1    C314318   0.178   0.489  13.582  0.6100  0.2568 -0.1190
    3TCq1    C414319   0.258   0.477  13.468  0.1338 -0.2513 -0.2017
    3TCq1    C514320   0.207   0.528  13.351  0.1628  0.3325  0.0149
    3TCq1    C614321   0.087   0.587  13.349 -0.0759  0.0685 -0.0004
    3TCq1    C714322   0.003   0.600  13.455 -0.2811  0.2258 -0.0196
    3TCq1    C814323   0.049   0.631  13.223 -0.2521  0.0729  1.1353
    3TCq1    O414324   0.132   0.680  13.155 -0.1182 -0.7959 -0.0802
    3TCq1    C914325   0.394   0.433  13.486  0.5211 -0.3181 -0.5317
    3TCq1    O514326   0.469   0.419  13.390 -0.1513 -0.3718  0.3801
    3TCq1    O614327   0.437   0.397  13.597  0.3276  0.1301 -0.2942
    3TCq1    H114328   0.023   0.768  13.589 -0.3970  1.1272  0.0927
    3TCq1    H214329   0.216   0.467  13.681  0.1775  0.5009  0.1025
    3TCq1    H314330   0.277   0.521  13.269  0.0374 -0.7314 -0.0063
    3TCq1    H414331   4.627   0.642  13.454 -0.5202 -0.4054 -1.7054
    1MPD2     C14332   4.025   1.196  14.765 -0.2203  0.2237  0.4960
    1MPD2    C114333   3.906   1.146  14.713 -0.3534  0.1423  0.1095
    1MPD2    C214334   3.910   1.036  14.623  0.0162  0.2344  0.1547
    1MPD2    C314335   4.031   0.981  14.589 -0.1900  1.2037  0.2995
    1MPD2    C414336   4.147   1.036  14.634  0.3646  0.0662 -0.1552
    1MPD2    C514337   4.141   1.135  14.730 -0.3191 -0.2411 -0.5270
    1MPD2     H14338   3.818   1.000  14.579  0.8984 -0.1616 -1.3325
    1MPD2    H114339   4.239   0.986  14.607 -1.3398 -2.3371 -1.5057
    1MPD2    H214340   4.026   1.278  14.836 -0.6611  1.7993 -1.3018
    1MPD2    H314341   4.234   1.160  14.780 -0.6561 -1.0697  0.5198
    1MPD2     N14342   4.019   0.870  14.500 -0.3453 -1.1669  0.6465
    1MPD2    H514343   3.929   0.825  14.508 -0.3410 -1.2195  0.4061
    1MPD2    N114344   3.785   1.216  14.739 -0.4708  0.1503  0.0983
    1MPD2    H714345   3.793   1.311  14.775 -1.4990  1.2437 -2.5310
    2TMC3    C114346   3.542   1.244  14.713 -0.0652 -0.0615 -0.4816
    2TMC3    C214347   3.430   1.165  14.724  0.0519 -0.5425  0.4295
    2TMC3    C314348   3.325   1.185  14.638 -0.6491  0.7920  0.3293
    2TMC3    C414349   3.549   1.345  14.626 -0.5382  0.0950 -0.2801
    2TMC3    C514350   3.446   1.355  14.536  0.1053 -0.2786  0.5053
    2TMC3    C614351   3.338   1.281  14.543 -0.4247  0.4168 -0.2348
    2TMC3     C14352   3.663   1.165  14.707 -0.0455  0.2527  0.3024
    2TMC3     O14353   3.636   1.045  14.692  0.6196  0.1083  0.1162
    2TMC3     H14354   3.424   1.092  14.804  0.7319 -0.0042  0.9696
    2TMC3    H114355   3.646   1.391  14.610  0.4318 -1.2969  1.6032
    2TMC3    H214356   3.247   1.290  14.484  0.3742  1.1106 -1.3510
    2TMC3    C714357   3.424   1.485  14.471 -0.1415  0.5123  0.8064
    2TMC3    C814358   3.268   1.064  14.582 -0.0130  0.7260 -0.1071
    2TMC3    O114359   3.310   1.517  14.435 -0.2183  0.0443 -0.4464
    2TMC3    O214360   3.159   1.068  14.520  0.4426  0.4271  0.3428
    3TCq1    O114361   4.197   2.402  14.335 -0.1714 -0.0945 -0.1870
    3TCq1    C114362   4.279   2.290  14.346  0.3249  0.3820 -0.3143
    3TCq1    O214363   4.371   2.263  14.272  0.1446 -0.2516  0.2069
    3TCq1    C214364   4.201   2.189  14.410 -0.5750 -0.2063  0.1330
    3TCq1    C314365   4.274   2.091  14.465 -0.5909 -0.3107  0.5277
    3TCq1    C414366   4.214   1.974  14.512 -0.1809  0.2144  0.3353
    3TCq1    C514367   4.077   1.955  14.501  0.2956  0.3392  1.0886
    3TCq1    C614368   4.010   2.052  14.439 -0.0951 -0.0243  0.8125
    3TCq1    C714369   4.067   2.167  14.396 -0.1901  0.3090 -0.8548
    3TCq1    C814370   3.875   2.039  14.397 -0.3171  0.3345  0.1741
    3TCq1    O414371   3.814   2.137  14.359 -0.0981  0.6533 -0.0756
    3TCq1    C914372   4.296   1.882  14.579 -0.1633 -0.0757  0.1367
    3TCq1    O514373   4.409   1.916  14.622 -0.6057 -0.4655 -0.3787
    3TCq1    O614374   4.250   1.763  14.573  0.5995 -0.3489  0.1575
    3TCq1    H114375   4.129   2.400  14.406  2.0610 -1.1739  1.9022
    3TCq1    H214376   4.382   2.095  14.451 -0.5976 -0.0152  0.5489
    3TCq1    H314377   4.034   1.865  14.544  1.8613 -0.7261  0.4222
    3TCq1    H414378   4.020   2.229  14.321  0.4501 -0.6099 -2.0120
    4MPD2     C14379   3.600   1.946  14.331  0.1301  0.2163 -0.1934
    4MPD2    C114380   3.703   1.866  14.381  0.7766  0.8652 -0.1340
    4MPD2    C214381   3.671   1.734  14.408 -0.7855 -0.3342  0.0508
    4MPD2    C314382   3.545   1.681  14.397  0.5232 -1.0226  0.1400
    4MPD2    C414383   3.447   1.765  14.351  0.3672 -0.5860  0.2977
    4MPD2    C514384   3.475   1.893  14.309  0.3650 -0.1578 -0.0202
    4MPD2     H14385   3.747   1.670  14.452 -0.3360 -0.0281 -0.2727
    4MPD2    H114386   3.345   1.729  14.348  0.6153 -1.5003  2.7447
    4MPD2    H214387   3.618   2.048  14.301 -0.7199  0.4303  0.0175
    4MPD2    H314388   3.402   1.962  14.267  1.0714  0.9809  0.6195
    4MPD2     N14389   3.533   1.563  14.466 -0.3072  0.3246  0.5522
    4MPD2    H514390   3.616   1.541  14.520 -0.7475  1.4161  1.6663
    4MPD2    N114391   3.835   1.912  14.410 -0.2153  0.2861 -0.8034
    4MPD2    H714392   3.898   1.843  14.450 -1.3193 -0.0388  0.3527
    5TMC2    C114393   3.871   0.575  14.290 -0.6795 -0.2045  0.3760
    5TMC2    C214394   3.938   0.460  14.256 -0.3382 -0.9944 -0.6082
    5TMC2    C314395   4.070   0.469  14.285 -0.2622  0.1246  0.1533
    5TMC2    C414396   3.919   0.685  14.350  0.0528  0.5090  0.4400
    5TMC2    C514397   4.052   0.691  14.368  0.8442 -0.3346  0.0478
    5TMC2    C614398   4.132   0.580  14.340 -0.2267 -0.1255  0.5860
    5TMC2     C14399   3.723   0.583  14.274  0.2604  0.3421  0.4374
    5TMC2     O14400   3.670   0.534  14.172  0.1234  0.6126  0.6118
    5TMC2     H14401   3.891   0.375  14.208  0.6996 -0.9209 -1.7394
    5TMC2    H114402   3.860   0.775  14.361 -2.0291 -1.0105  1.7627
    5TMC2    H214403   4.237   0.577  14.366  0.2167 -0.0264 -1.1905
    5TMC2    C714404   4.111   0.815  14.415 -0.4333 -0.0899 -0.0111
    5TMC2    C814405   4.162   0.363  14.256  0.5074 -0.7829  0.6251
    5TMC2    O114406   4.234   0.822  14.417 -0.2539 -0.0396  0.0822
    5TMC2    O214407   4.264   0.345  14.320 -0.3018  0.0872  0.0483
    5TMC2    O514408   4.149   0.347  14.124  0.0953  0.6393  0.4733
    5TMC2    H514409   4.064   0.377  14.083 -0.4892 -0.6583  0.7335
    6MPD2     C14410   3.269   0.813  14.404 -0.3318 -0.0477 -0.3091
    6MPD2    C114411   3.374   0.859  14.483  0.5167  0.2872 -0.9869
    6MPD2    C214412   3.503   0.799  14.474  0.1598  0.2223 -0.5085
    6MPD2    C314413   3.527   0.705  14.376 -0.5838 -0.0632 -0.1252
    6MPD2    C414414   3.424   0.659  14.298 -0.5160 -0.0628 -0.4942
    6MPD2    C514415   3.295   0.707  14.316 -0.0438  0.5576  0.0169
    6MPD2     H14416   3.580   0.827  14.546 -0.5386  0.1380  0.2652
    6MPD2    H114417   3.439   0.575  14.233  1.5437 -0.4200  0.4467
    6MPD2    H214418   3.171   0.858  14.410 -0.1986  0.1751  0.1368
    6MPD2    H314419   3.214   0.666  14.257  1.1394  0.3593 -1.4765
    6MPD2     N14420   3.660   0.662  14.368  0.1652  0.1494  0.2716
    6MPD2    H514421   3.717   0.686  14.448  0.7284  0.1582 -0.1301
    6MPD2    N114422   3.363   0.967  14.569 -0.5005  0.7489  0.4308
    6MPD2    H714423   3.448   0.976  14.623  0.1102 -1.4889 -0.1720
  945NH3     N114424   0.118   1.151   2.288 -0.5667 -0.1613 -0.4577
  945NH3     H214425   0.137   1.238   2.336  1.7183 -0.6390 -0.4486
  945NH3     H314426   0.047   1.117   2.351  2.8036  1.9889  4.5042
  945NH3     H414427   0.062   1.201   2.220 -1.6056 -1.5285 -0.5961
  946SOD     NA14428   4.118   1.634  14.696  0.5380  0.4556  0.2947
  947SOD     NA14429   0.767   1.495  15.587  0.0198  0.0187 -0.3088
  948SOD     NA14430   3.063   4.479  17.532 -0.0825  0.0007  0.1402
  949SOD     NA14431   3.990   0.706  10.244  0.2871 -0.4985  0.2817
  950SOD     NA14432   3.066   4.137  10.109  0.0900  0.1494 -0.2611
  951SOD     NA14433   3.744   2.033   0.599  0.4805 -0.1330  0.1051
  952SOD     NA14434   2.861   0.695  12.067  0.0457 -0.1693 -0.5775
  953SOD     NA14435   4.335   0.278   7.472 -0.4730  0.2502  0.2242
  954SOD     NA14436   3.536   2.481  11.114 -0.0334  0.0309 -0.2675
  955SOD     NA14437   1.645   0.574  14.924  0.3602 -0.3535 -0.1948
  956SOD     NA14438   2.380   1.934   1.265 -0.1376  0.3429  0.0073
  957SOD     NA14439   2.579   0.149  10.353  0.4263 -0.8381  0.0379
  958SOD     NA14440   1.652   1.280  16.879 -0.2941  0.1963  0.0595
  959SOD     NA14441   0.481   0.391  13.832  0.3309 -0.6631 -0.6047
  960SOD     NA14442   1.146   2.314  13.308  0.1489 -0.2177 -0.2584
  961SOD     NA14443   0.820   1.227   8.742 -0.1466 -0.3697  0.1750
  962SOD     NA14444   0.129   0.256  10.786  0.1690  0.6216  0.0117
  963SOD     NA14445   4.311   1.057  11.171 -0.1441  0.0285  0.2258
  964SOD     NA14446   3.727   0.640  10.045  0.2197  0.6560 -0.5148
  965SOD     NA14447   1.758   4.359   0.878  0.0779  0.0628 -0.2277
  966SOD     NA14448   0.906   0.495  15.045 -0.1074  0.0447 -0.3054
  967SOD     NA14449   3.182   2.786   2.212  0.8574  0.2233  0.0106
  968SOD     NA14450   2.467   0.414  10.514 -0.4774  0.3819  0.1618
  969SOD     NA14451   2.891   1.201  10.468 -0.0654 -0.0522 -0.3157
  970SOD     NA14452   2.735   4.047   6.748  0.1782 -0.0838  0.5008
  971SOD     NA14453   4.472   1.306  11.611  0.3820 -0.2073  0.1179
  972SOD     NA14454   2.352   2.523   3.753  0.0181  0.3230 -0.2779
  973SOD     NA14455   2.905   4.182  14.804 -0.2484 -0.2852 -0.1419
  974SOD     NA14456   3.494   4.609  12.673  0.3688 -0.7096 -0.1704
  975SOD     NA14457   1.122   0.809   2.117  0.0351  0.0053 -0.1896
  976SOD     NA14458   3.518   0.542  13.234  0.4967 -0.5288  0.3417
  977SOD     NA14459   1.654   4.383   7.800  0.0183 -0.2098 -0.6574
  978SOD     NA14460   2.238   3.919   4.185 -0.4472 -0.1100  0.2688
  979SOD     NA14461   0.647   0.439  13.566  0.2736 -0.0897  0.5739
  980SOD     NA14462   1.506   4.535  12.758  0.6017 -0.3865 -0.4304
  981SOD     NA14463   4.335   2.820  10.145 -0.5856  0.0945 -0.4619
  982SOD     NA14464   3.112   2.013   9.901 -0.4500 -0.3548 -0.4178
  983SOD     NA14465   0.603   0.526  13.255 -0.4442 -0.3846  0.3626
  984SOD     NA14466   0.762   3.627  10.995 -0.4079  0.3287 -0.4453
  985SOD     NA14467   2.969   1.494  10.507 -0.1871  0.2974  0.3298
  986SOD     NA14468   3.868   2.301   0.768  0.1847 -0.2194  0.5170
  987SOD     NA14469   1.633   1.525  15.051 -0.3711 -0.3301 -0.0143
  988SOD     NA14470   3.700   0.262   9.949 -0.0075  0.1824 -0.1957
  989SOD     NA14471   1.071   3.597  16.048  0.1215 -0.0677  0.4602
  990SOD     NA14472   2.587   2.140   1.347 -0.1613 -0.3041 -0.4428
  991SOD     NA14473   0.582   3.936  15.999  0.2511 -0.2490  0.1452
  992SOD     NA14474   3.686   2.278  13.688 -0.0419  0.1078 -0.2243
  993SOD     NA14475   1.545   2.839   2.334 -0.2429 -0.2430 -0.0518
  994SOD     NA14476   3.769   2.241  11.261 -0.3649 -0.2885  0.4401
  995SOD     NA14477   0.670   1.864  11.645 -0.4022  0.5274  0.7334
  996SOD     NA14478   1.951   1.356   2.358 -0.0654  0.4023 -0.2353
  997SOD     NA14479   2.842   4.418  10.109  0.6594 -0.2731  0.0426
  998SOD     NA14480   2.435   0.608  17.433  0.2506  0.1359  0.0751
  999SOD     NA14481   2.661   0.797   8.834  0.1402 -0.0553 -0.5216
 1000SOD     NA14482   0.056   1.857  16.320 -0.0521 -0.5503 -0.0557
 1001SOD     NA14483   0.348   0.714  11.278 -0.4160 -0.3242  0.1024
 1002SOD     NA14484   1.741   1.187  12.961 -0.6274 -0.3642 -0.2923
 1003SOD     NA14485   4.591   4.649  12.199 -0.1969  0.5578 -0.2736
 1004SOD     NA14486   2.698   2.846  12.704  0.2984 -0.6950  0.3832
 1005SOD     NA14487   3.251   4.047  14.705 -0.2042  0.0805 -0.2328
 1006SOD     NA14488   0.724   1.368   1.721  0.0396 -0.1121  0.6696
 1007SOD     NA14489   4.416   2.456   2.268 -0.0843 -0.3641 -0.1525
 1008SOD     NA14490   1.214   0.929  14.860  0.1644 -0.3029  0.1698
 1009SOD     NA14491   0.704   0.334  14.138 -0.3753 -0.2950 -0.0576
 1010SOD     NA14492   2.242   0.695   0.004 -0.6530  0.2703  0.4082
 1011SOD     NA14493   0.131   2.700  15.821  0.2453 -0.0055 -0.5255
 1012SOL     OW14494   0.484   3.784   1.854 -0.0282  0.1306 -0.0960
 1012SOL    HW114495   0.431   3.756   1.928  3.6192  0.7748  2.8026
 1012SOL    HW214496   0.509   3.698   1.820  0.7559 -0.5273  2.0611
 1013SOL     OW14497   2.990   2.942  16.929  0.2816  0.5515 -0.2809
 1013SOL    HW114498   3.061   2.952  16.866  0.5956  2.0037  0.3096
 1013SOL    HW214499   2.977   3.035  16.947 -0.0690  0.6493 -1.0353
 1014SOL     OW14500   0.615   3.813  16.173 -0.0737  0.6857  0.1644
 1014SOL    HW114501   0.564   3.751  16.226 -0.4826  0.9130  0.0305
 1014SOL    HW214502   0.699   3.802  16.219  0.3627  0.9774 -0.5708
 1015SOL     OW14503   1.281   0.425   8.244 -0.2622  0.5298 -0.0075
 1015SOL    HW114504   1.355   0.385   8.289  0.8514  1.7448 -0.7399
 1015SOL    HW214505   1.320   0.512   8.233  3.0286 -0.9352 -0.1680
 1016SOL     OW14506   1.185   0.799  12.777  0.3201  0.5888  0.1117
 1016SOL    HW114507   1.261   0.856  12.776  0.3049  0.5216 -3.1267
 1016SOL    HW214508   1.128   0.850  12.720  0.6159  2.4071  1.4429
 1017SOL     OW14509   2.399   0.630   5.632 -0.1772 -0.2801  0.5013
 1017SOL    HW114510   2.479   0.611   5.583 -0.8578 -1.4366 -0.1728
 1017SOL    HW214511   2.334   0.667   5.573  0.4638  1.3540  0.8131
 1018SOL     OW14512   1.987   3.818   6.113 -0.6685 -0.7139  0.7093
 1018SOL    HW114513   1.914   3.757   6.127 -0.7528 -0.9352 -0.6747
 1018SOL    HW214514   1.940   3.871   6.049  1.1666  0.0385 -0.0103
 1019SOL     OW14515   2.556   3.727   9.336 -0.2105 -0.1344 -0.7774
 1019SOL    HW114516   2.633   3.707   9.390 -1.1997 -1.7552  0.0349
 1019SOL    HW214517   2.499   3.786   9.386  0.1628  0.4678 -1.0538
 1020SOL     OW14518   2.403   0.166   1.354 -0.3941  0.2062  0.5988
 1020SOL    HW114519   2.433   0.114   1.429  0.6587  0.5445  0.4121
 1020SOL    HW214520   2.388   0.245   1.406 -2.8398  0.5698 -0.6824
 1021SOL     OW14521   2.326   0.262   6.691 -0.0774  0.3998 -0.0830
 1021SOL    HW114522   2.415   0.247   6.725  0.5880  1.6258 -1.3086
 1021SOL    HW214523   2.282   0.273   6.775 -0.4361 -1.8636  0.0464
 1022SOL     OW14524   2.517   0.346   3.502 -0.5623  0.2674 -0.1580
 1022SOL    HW114525   2.506   0.282   3.572 -3.2442  1.1496  0.2262
 1022SOL    HW214526   2.445   0.324   3.443 -0.8238 -0.2550  0.3604
 1023SOL     OW14527   0.552   2.435   7.616  0.1800  0.3505 -0.5834
 1023SOL    HW114528   0.627   2.414   7.561 -0.6296  0.7047 -1.8225
 1023SOL    HW214529   0.482   2.430   7.550  1.6547  1.7364 -2.2502
 1024SOL     OW14530   2.701   2.631   3.481 -0.1158  0.3296  0.3265
 1024SOL    HW114531   2.660   2.572   3.418  1.2728  0.2685 -0.5059
 1024SOL    HW214532   2.739   2.698   3.424 -0.8618  2.7990  2.7326
 1025SOL     OW14533   1.934   1.452   6.420 -0.3423 -0.1789 -0.4294
 1025SOL    HW114534   1.988   1.381   6.383 -0.5168 -0.2028 -0.6380
 1025SOL    HW214535   1.984   1.478   6.498  2.2708 -1.9088 -1.5086
 1026SOL     OW14536   1.680   3.247   2.445 -0.0384  0.0284  0.6888
 1026SOL    HW114537   1.711   3.335   2.424  0.9854 -0.4513  0.2187
 1026SOL    HW214538   1.755   3.189   2.460  0.7919  0.6991 -0.8357
 1027SOL     OW14539   1.655   0.383   5.336  0.2160 -0.0595 -0.4209
 1027SOL    HW114540   1.604   0.458   5.367  0.1500 -1.4400  2.8383
 1027SOL    HW214541   1.747   0.401   5.357  0.2771 -0.2146 -0.5600
 1028SOL     OW14542   3.610   4.048   6.753  0.3204  0.1060 -0.2091
 1028SOL    HW114543   3.704   4.046   6.772  0.3181  1.5209  0.0005
 1028SOL    HW214544   3.594   4.129   6.704  2.2116  0.9113  0.5100
 1029SOL     OW14545   3.105   0.739   6.786 -0.7067  0.0843  0.3753
 1029SOL    HW114546   3.131   0.667   6.729 -0.7398 -0.0100  0.4802
 1029SOL    HW214547   3.059   0.796   6.724 -1.1379 -1.2888 -0.5815
 1030SOL     OW14548   2.629   3.936   5.616 -0.3863 -0.3964  0.1804
 1030SOL    HW114549   2.643   3.918   5.709  0.0043  1.6110  0.5140
 1030SOL    HW214550   2.610   4.030   5.620 -3.2676 -0.9645 -0.6873
 1031SOL     OW14551   0.496   2.489   6.371  0.0013 -0.0410  0.1824
 1031SOL    HW114552   0.545   2.451   6.444  1.0895  0.1077 -0.4768
 1031SOL    HW214553   0.562   2.514   6.307 -1.3402  0.1850 -1.1202
 1032SOL     OW14554   3.056   0.837   5.905 -0.1115  0.3336 -0.2875
 1032SOL    HW114555   3.135   0.784   5.919 -1.2310 -1.9324 -2.5295
 1032SOL    HW214556   3.091   0.926   5.909  0.6945  0.0965 -1.8473
 1033SOL     OW14557   3.444   3.683   2.509 -0.6301 -0.0561 -0.9034
 1033SOL    HW114558   3.524   3.632   2.518 -0.3378  0.3378 -1.2891
 1033SOL    HW214559   3.423   3.665   2.417 -0.6950  0.0447 -0.9084
 1034SOL     OW14560   4.498   0.789   2.720  0.6580 -0.1949  0.1223
 1034SOL    HW114561   4.564   0.829   2.663  0.2718  0.7850  0.3667
 1034SOL    HW214562   4.559   0.766   2.790 -0.1819  0.3387  1.0346
 1035SOL     OW14563   1.757   0.132   1.183  0.5170 -1.0046  0.0095
 1035SOL    HW114564   1.769   0.092   1.096 -0.7686  0.3806 -0.7889
 1035SOL    HW214565   1.797   0.061   1.233  1.5719 -0.4799 -0.0816
 1036SOL     OW14566   2.488   3.279   7.194 -0.4021 -0.5260 -0.0910
 1036SOL    HW114567   2.407   3.313   7.231 -0.4053 -0.6551  0.0208
 1036SOL    HW214568   2.560   3.317   7.243 -0.7481  0.2708 -0.1951
 1037SOL     OW14569   3.105   1.069   0.211  0.0335  0.6569  0.0187
 1037SOL    HW114570   3.085   1.112   0.128  1.3115  2.0042  0.3975
 1037SOL    HW214571   3.143   0.986   0.183 -2.3085 -0.0117 -1.1843
 1038SOL     OW14572   3.953   2.787   3.080 -0.5327  0.5838  0.1547
 1038SOL    HW114573   3.986   2.715   3.026  0.2700  0.4144  0.8628
 1038SOL    HW214574   3.969   2.861   3.021  1.8750  0.7430  1.0004
 1039SOL     OW14575   2.633   0.381  12.400 -0.1787  0.4602 -0.4024
 1039SOL    HW114576   2.691   0.355  12.328  1.7119  0.7506  1.0091
 1039SOL    HW214577   2.573   0.307  12.407 -0.4409  0.7791  0.8522
 1040SOL     OW14578   0.670   2.197   5.641  0.2112 -0.4070 -0.7397
 1040SOL    HW114579   0.706   2.285   5.634 -1.5798  0.4370  0.7908
 1040SOL    HW214580   0.636   2.195   5.551  0.2375 -2.1149 -0.7082
 1041SOL     OW14581   4.688   3.296   2.801 -0.7499 -0.0869 -0.4208
 1041SOL    HW114582   4.623   3.254   2.745 -1.7831  0.5151  0.3326
 1041SOL    HW214583   4.640   3.373   2.831  0.3983 -0.6106  2.8183
 1042SOL     OW14584   3.147   3.906  11.059  0.2062 -0.5440 -0.1878
 1042SOL    HW114585   3.053   3.905  11.042 -0.1770  0.5827  1.7627
 1042SOL    HW214586   3.185   3.904  10.971  2.2996 -0.5107  0.7069
 1043SOL     OW14587   1.542   0.190   8.039  0.3349  0.0130  0.4487
 1043SOL    HW114588   1.586   0.252   7.981  0.3401 -0.4912 -0.0918
 1043SOL    HW214589   1.486   0.256   8.080  0.9310  0.5255  0.4350
 1044SOL     OW14590   0.927   1.777   2.683  0.4181  0.1286  0.3850
 1044SOL    HW114591   0.972   1.801   2.765  1.6894 -0.7016 -0.0540
 1044SOL    HW214592   0.881   1.857   2.660 -0.5131  0.2296  2.5527
 1045SOL     OW14593   0.059   4.170   3.625 -0.0041 -0.4517  0.2499
 1045SOL    HW114594   0.141   4.124   3.605  0.2232 -0.6230  1.5943
 1045SOL    HW214595   0.054   4.237   3.556 -2.4470 -0.1072  0.7806
 1046SOL     OW14596   1.264   0.627  11.437  0.0779  0.1696  0.0588
 1046SOL    HW114597   1.339   0.571  11.418 -0.6088 -0.6319 -0.3164
 1046SOL    HW214598   1.286   0.672  11.519 -0.6749 -1.2329  1.0321
 1047SOL     OW14599   4.194   2.820   8.423  0.0018  0.3909 -0.2703
 1047SOL    HW114600   4.223   2.909   8.446 -0.5325  0.1909  1.1809
 1047SOL    HW214601   4.160   2.844   8.337 -0.6328  1.2546  0.2115
 1048SOL     OW14602   4.207   4.518   6.398 -0.2345  0.1626 -0.0056
 1048SOL    HW114603   4.286   4.478   6.435  2.0410  2.1721 -2.6746
 1048SOL    HW214604   4.181   4.582   6.464 -2.1505 -0.6027 -0.0116
 1049SOL     OW14605   2.372   2.059   0.136  0.1770  0.3922 -0.9786
 1049SOL    HW114606   2.450   2.059   0.081  1.1154 -1.5259  0.3710
 1049SOL    HW214607   2.348   2.152   0.142 -1.1959  0.0933 -1.9154
 1050SOL     OW14608   4.682   2.795   3.410 -0.6014  0.3495 -0.5119
 1050SOL    HW114609   4.666   2.823   3.500  0.5249 -2.2647  0.4838
 1050SOL    HW214610   4.664   2.873   3.357  2.9508  0.3375 -1.7681
 1051SOL     OW14611   0.811   0.093   4.138 -0.2530  0.3181  0.0649
 1051SOL    HW114612   0.835   0.178   4.100 -1.4407  1.3863  1.6776
 1051SOL    HW214613   0.846   0.029   4.076  0.6004  1.4010 -0.5726
 1052SOL     OW14614   0.650   3.640   8.277 -0.4932  0.4775 -0.3358
 1052SOL    HW114615   0.615   3.667   8.192  0.9943  1.5113 -0.6161
 1052SOL    HW214616   0.642   3.719   8.331  0.1174 -0.2197  0.7573
 1053SOL     OW14617   0.161   1.889  16.526  0.3981  0.8038 -0.6927
 1053SOL    HW114618   0.114   1.950  16.582  0.7470 -0.1303  0.6198
 1053SOL    HW214619   0.250   1.906  16.556  0.9650  0.0861 -1.9488
 1054SOL     OW14620   3.810   4.330  13.503  0.6704  0.2184  0.4990
 1054SOL    HW114621   3.718   4.317  13.528  0.1882  0.4291 -1.1604
 1054SOL    HW214622   3.860   4.303  13.580  0.5196  1.1547  0.9206
 1055SOL     OW14623   1.125   1.795   2.896 -0.6076 -0.5432 -0.6191
 1055SOL    HW114624   1.136   1.883   2.933 -0.8297 -1.3813  1.4185
 1055SOL    HW214625   1.084   1.746   2.968  0.6440  0.7077  0.9323
 1056SOL     OW14626   2.912   2.720   7.472  0.2324  0.2874 -0.6839
 1056SOL    HW114627   2.935   2.643   7.419  0.6239 -0.5934  0.7503
 1056SOL    HW214628   2.821   2.739   7.451 -0.0603 -1.2293 -0.7567
 1057SOL     OW14629   3.773   3.687   5.211 -0.2947 -0.2754  0.1636
 1057SOL    HW114630   3.750   3.639   5.291 -0.1188  1.2942  1.1620
 1057SOL    HW214631   3.803   3.773   5.241 -0.5436 -0.1040 -0.0850
 1058SOL     OW14632   3.971   1.562  15.945  0.4073  0.0306  0.2284
 1058SOL    HW114633   3.884   1.586  15.977 -0.6448 -0.3827 -2.2701
 1058SOL    HW214634   4.038   1.607  15.997  1.4106 -0.9404 -0.2269
 1059SOL     OW14635   0.798   1.230  10.751 -0.1371  0.0000 -0.0463
 1059SOL    HW114636   0.810   1.137  10.773  1.9419  0.5273  1.0650
 1059SOL    HW214637   0.822   1.263  10.838  0.7685  1.2688 -0.7835
 1060SOL     OW14638   3.890   4.319   4.269 -0.0539  0.3976 -0.5810
 1060SOL    HW114639   3.928   4.232   4.259 -0.0502  0.2881  0.3978
 1060SOL    HW214640   3.953   4.374   4.315 -1.1501  1.6515 -0.5718
 1061SOL     OW14641   3.304   3.821   6.694  0.4443  0.3006  0.0048
 1061SOL    HW114642   3.359   3.808   6.617  1.0069 -0.6693  0.5651
 1061SOL    HW214643   3.241   3.876   6.649 -2.5248 -3.4615 -0.4620
 1062SOL     OW14644   4.139   3.442   1.978 -0.0609  0.2872 -0.1266
 1062SOL    HW114645   4.110   3.423   1.889 -3.6603  2.7227  0.5135
 1062SOL    HW214646   4.099   3.362   2.013  1.6525 -0.5204 -0.0020
 1063SOL     OW14647   1.952   1.296   8.004  0.5202  0.2294 -0.2709
 1063SOL    HW114648   1.989   1.333   7.924 -1.8897  0.2195 -1.3852
 1063SOL    HW214649   2.009   1.319   8.077  1.3017 -2.3231 -0.0646
 1064SOL     OW14650   3.146   4.700   4.397  0.9504 -0.0867  0.1758
 1064SOL    HW114651   3.105   4.616   4.380  1.5982 -0.3183 -0.2494
 1064SOL    HW214652   3.150   4.700   4.493 -1.9591  1.8618  0.3015
 1065SOL     OW14653   1.987   4.087   8.575  0.3502 -0.1156 -0.9615
 1065SOL    HW114654   2.034   4.096   8.658 -0.5518  2.2536 -0.6888
 1065SOL    HW214655   1.937   4.005   8.578  2.7202 -1.5157 -0.1089
 1066SOL     OW14656   2.183   3.559   6.317 -0.3233 -0.2934 -0.1436
 1066SOL    HW114657   2.258   3.534   6.371 -0.0569 -0.5802 -0.6453
 1066SOL    HW214658   2.160   3.645   6.352  1.5282  0.8835 -1.8707
 1067SOL     OW14659   4.645   1.792  16.121 -0.0091 -0.3495 -0.6595
 1067SOL    HW114660   4.624   1.701  16.098 -2.4101 -0.2733  1.2608
 1067SOL    HW214661   4.562   1.838  16.122 -0.5837 -1.4112  0.6635
 1068SOL     OW14662   1.718   4.304   8.256  0.1068 -0.4158 -0.1111
 1068SOL    HW114663   1.664   4.257   8.192  0.5402  0.6160 -1.2294
 1068SOL    HW214664   1.749   4.226   8.301 -0.5327 -0.3448  0.4609
 1069SOL     OW14665   3.835   1.529   9.784 -0.1747  0.3246  0.5224
 1069SOL    HW114666   3.924   1.554   9.761  0.3314 -1.3249  0.7386
 1069SOL    HW214667   3.838   1.529   9.880  1.3156  0.8303  0.4686
 1070SOL     OW14668   3.793   2.581   5.351 -0.7826 -0.1212  0.4928
 1070SOL    HW114669   3.786   2.527   5.273  1.5382  0.6273 -0.2587
 1070SOL    HW214670   3.736   2.536   5.412 -1.0142 -0.5090 -0.0138
 1071SOL     OW14671   1.490   1.720   0.268 -0.3406  0.6690  0.0864
 1071SOL    HW114672   1.425   1.652   0.253 -0.6255  0.9943 -0.1568
 1071SOL    HW214673   1.446   1.796   0.230 -0.4381  1.0294  0.9212
 1072SOL     OW14674   1.482   4.302   2.813 -0.1783  0.6007 -0.2241
 1072SOL    HW114675   1.454   4.383   2.857 -2.7530 -0.2829 -0.2262
 1072SOL    HW214676   1.497   4.338   2.726  0.1292  0.2166 -0.3297
 1073SOL     OW14677   3.947   2.030   5.139 -0.2564  0.1429  0.0918
 1073SOL    HW114678   4.025   1.998   5.185  0.6092  1.0749 -0.7193
 1073SOL    HW214679   3.966   2.123   5.125  2.4288 -0.2289  1.1494
 1074SOL     OW14680   3.767   0.612   7.788  0.0646  0.0567  0.3998
 1074SOL    HW114681   3.762   0.572   7.702  0.6989 -0.3613  0.5521
 1074SOL    HW214682   3.689   0.667   7.786  0.6863  0.8931 -1.1026
 1075SOL     OW14683   3.718   3.375   6.817  0.0394 -0.0844 -0.6499
 1075SOL    HW114684   3.678   3.433   6.753  1.6689  3.2044  1.2927
 1075SOL    HW214685   3.784   3.326   6.768 -0.0364 -0.2732 -0.5616
 1076SOL     OW14686   2.077   0.686   8.208  0.1168  0.0031  0.1920
 1076SOL    HW114687   2.047   0.715   8.294 -3.2082  0.7133 -1.1996
 1076SOL    HW214688   2.169   0.664   8.223 -0.1553 -0.0459  1.8189
 1077SOL     OW14689   2.379   0.407  11.474  0.7149  0.3307 -0.1696
 1077SOL    HW114690   2.308   0.393  11.412 -0.6526  2.3055  0.9476
 1077SOL    HW214691   2.359   0.487  11.523  2.6926  1.5556 -1.3980
 1078SOL     OW14692   4.329   2.239   1.902 -0.1662 -0.7230  0.2413
 1078SOL    HW114693   4.373   2.300   1.962  0.4115 -1.9870  1.1082
 1078SOL    HW214694   4.403   2.196   1.859 -0.8208 -0.1894 -1.4300
 1079SOL     OW14695   1.496   0.178   1.217  0.1910  0.0743  0.2759
 1079SOL    HW114696   1.486   0.098   1.165 -1.1458  1.9599 -2.3789
 1079SOL    HW214697   1.591   0.173   1.216  0.2835  1.7033 -0.1239
 1080SOL     OW14698   1.411   0.925   3.354  0.0137  0.4662 -0.1706
 1080SOL    HW114699   1.402   0.966   3.268  0.7713  0.2577 -0.3486
 1080SOL    HW214700   1.323   0.945   3.384 -0.3460  1.5596 -1.9723
 1081SOL     OW14701   3.001   1.726  10.604  0.2660  0.1034 -0.5313
 1081SOL    HW114702   2.911   1.730  10.635  0.5058 -1.7475  0.4525
 1081SOL    HW214703   3.047   1.765  10.678 -0.3019  2.1037 -1.2479
 1082SOL     OW14704   1.412   4.704  13.261  0.6516 -0.1663  0.3607
 1082SOL    HW114705   1.376   4.714  13.349 -0.2568  1.0182 -0.1542
 1082SOL    HW214706   1.350   4.645  13.218 -0.7181  0.3537  1.6170
 1083SOL     OW14707   2.891   1.828   4.934  0.3284  0.2987 -0.4233
 1083SOL    HW114708   2.852   1.831   4.847 -1.5936 -0.3747  0.4047
 1083SOL    HW214709   2.943   1.747   4.938 -2.2335 -1.4222 -2.0160
 1084SOL     OW14710   2.532   2.612   6.446 -0.8386  0.2428  0.2135
 1084SOL    HW114711   2.618   2.635   6.409 -0.9116 -1.8408 -1.2853
 1084SOL    HW214712   2.505   2.552   6.377  0.3356  0.2798 -0.2824
 1085SOL     OW14713   1.011   2.502   6.043  0.3041 -0.1995  0.3825
 1085SOL    HW114714   1.079   2.518   6.108  0.3991 -0.9762  0.4742
 1085SOL    HW214715   1.028   2.575   5.984 -0.9969  0.5180  0.8914
 1086SOL     OW14716   2.028   0.747   8.500 -0.0777  0.0172  0.0251
 1086SOL    HW114717   2.074   0.671   8.534 -1.9153 -2.2308 -2.5951
 1086SOL    HW214718   2.007   0.788   8.584  2.8659 -0.8846  1.2070
 1087SOL     OW14719   1.610   1.117   5.753  0.9234 -0.3294 -0.1767
 1087SOL    HW114720   1.536   1.134   5.695  2.1173  0.5516 -1.4479
 1087SOL    HW214721   1.580   1.144   5.840  0.7658 -4.0259  0.8978
 1088SOL     OW14722   1.951   3.919  11.309 -0.3335 -0.0252 -0.1479
 1088SOL    HW114723   2.024   3.933  11.249 -2.4544 -0.0979 -2.7604
 1088SOL    HW214724   1.996   3.921  11.393  1.2587  0.2040 -1.0058
 1089SOL     OW14725   3.335   1.860   5.895 -0.3962 -0.3217 -0.1065
 1089SOL    HW114726   3.380   1.777   5.880  1.5628  1.1890 -2.4898
 1089SOL    HW214727   3.410   1.918   5.878  0.2566  0.1029  4.1668
 1090SOL     OW14728   3.206   4.537   2.172  0.5088 -0.1923 -0.0409
 1090SOL    HW114729   3.111   4.521   2.169  0.4527  0.1373 -0.0568
 1090SOL    HW214730   3.211   4.614   2.114 -0.3519 -0.6356 -0.7216
 1091SOL     OW14731   0.881   4.443  10.614 -0.3355  0.0678  0.8031
 1091SOL    HW114732   0.878   4.538  10.620 -1.6587 -0.0167  1.4529
 1091SOL    HW214733   0.943   4.430  10.542  1.3770  0.3927  2.2270
 1092SOL     OW14734   2.417   4.248  11.921 -0.6415  0.1000  0.0239
 1092SOL    HW114735   2.344   4.305  11.895 -0.8781  0.0948  0.6653
 1092SOL    HW214736   2.364   4.177  11.958  3.1212 -1.9292  1.4435
 1093SOL     OW14737   2.548   3.472   5.762  0.0063 -0.1903 -0.3375
 1093SOL    HW114738   2.551   3.556   5.716  0.6239 -0.2483 -0.4077
 1093SOL    HW214739   2.600   3.420   5.700  1.8707  0.6027  0.5457
 1094SOL     OW14740   1.848   3.503   8.123  0.1436 -0.2847  0.6634
 1094SOL    HW114741   1.840   3.419   8.078  2.6762 -0.9787  1.5046
 1094SOL    HW214742   1.808   3.560   8.058 -0.3323 -2.1589 -0.7054
 1095SOL     OW14743   2.043   0.005   8.749  0.0997 -0.4661  0.3270
 1095SOL    HW114744   2.009   4.685   8.671 -0.5557 -0.2594  0.4954
 1095SOL    HW214745   2.023   4.664   8.816  1.3724 -0.2384  0.9216
 1096SOL     OW14746   3.411   2.780   6.568 -0.0670 -0.4744 -0.0201
 1096SOL    HW114747   3.475   2.849   6.549  1.3216 -1.3735  1.4255
 1096SOL    HW214748   3.341   2.836   6.603  1.7502  0.9202  1.3547
 1097SOL     OW14749   2.517   2.599   2.861 -0.3736 -0.0364  0.3264
 1097SOL    HW114750   2.599   2.647   2.870  0.0325 -0.7834  0.7074
 1097SOL    HW214751   2.566   2.524   2.827  0.2433  1.0461 -1.1621
 1098SOL     OW14752   3.218   3.139   7.496 -0.2295 -0.1497  0.1377
 1098SOL    HW114753   3.255   3.153   7.408 -0.4673  0.3495  0.1153
 1098SOL    HW214754   3.196   3.046   7.492 -2.1791  0.2757  0.7577
 1099SOL     OW14755   4.045   4.404   0.773  0.0226 -0.1021  0.1357
 1099SOL    HW114756   4.133   4.438   0.789 -1.4899  3.6934  0.5927
 1099SOL    HW214757   4.045   4.320   0.818  0.0909  0.0646  0.4480
 1100SOL     OW14758   3.509   1.682   3.791  0.6878  0.0224  0.6996
 1100SOL    HW114759   3.580   1.618   3.799  1.0566  0.2443 -0.6742
 1100SOL    HW214760   3.448   1.626   3.839  0.3629 -2.5042 -2.6313
 1101SOL     OW14761   2.546   4.708  10.494 -0.4054  0.1086  0.1004
 1101SOL    HW114762   2.477   4.690  10.558 -0.2444  0.8644  0.4923
 1101SOL    HW214763   2.601   4.631  10.508  0.3926  0.8184  0.8989
 1102SOL     OW14764   0.648   1.428  12.411 -0.2057  0.3212 -0.4582
 1102SOL    HW114765   0.674   1.511  12.451 -3.5384  1.2485 -0.2084
 1102SOL    HW214766   0.692   1.441  12.327 -2.2026 -0.3138 -1.5955
 1103SOL     OW14767   0.255   2.297   2.523  0.2201  0.3777 -0.2142
 1103SOL    HW114768   0.228   2.209   2.496  1.5475 -0.8430  2.3812
 1103SOL    HW214769   0.344   2.287   2.557  1.0382 -2.1661 -3.1220
 1104SOL     OW14770   0.698   4.254   6.483 -0.3405  0.2579 -0.4108
 1104SOL    HW114771   0.617   4.282   6.440 -0.7834  0.2838  0.4520
 1104SOL    HW214772   0.734   4.332   6.525 -0.8943  0.3402 -0.1007
 1105SOL     OW14773   4.299   3.595   3.170  0.1491 -0.0718  0.4042
 1105SOL    HW114774   4.387   3.616   3.203 -0.0452 -0.8106  1.4137
 1105SOL    HW214775   4.312   3.593   3.075 -2.0978  2.2929  0.0561
 1106SOL     OW14776   4.447   1.608   6.267  0.1737  1.0562 -0.9922
 1106SOL    HW114777   4.500   1.606   6.346 -0.1266 -0.6238 -0.8307
 1106SOL    HW214778   4.478   1.692   6.232  0.6892  0.3172 -2.3066
 1107SOL     OW14779   4.294   3.341   5.942  0.1904 -0.2066  0.9149
 1107SOL    HW114780   4.348   3.375   6.013  0.5062 -0.2201  0.6785
 1107SOL    HW214781   4.208   3.371   5.973  1.0595  3.1663  0.0648
 1108SOL     OW14782   1.626   3.121   7.470  0.0223  0.5439 -0.0530
 1108SOL    HW114783   1.716   3.127   7.437 -1.2936  0.4609 -3.6983
 1108SOL    HW214784   1.642   3.157   7.557  0.4926  0.9171 -0.2923
 1109SOL     OW14785   4.354   3.344  11.369 -0.1757  0.9674  0.5002
 1109SOL    HW114786   4.336   3.269  11.425  0.7453  0.4385  0.0999
 1109SOL    HW214787   4.446   3.357  11.394  0.0794  1.0851 -0.5016
 1110SOL     OW14788   3.996   1.085   4.119  0.7104 -0.1678 -0.1151
 1110SOL    HW114789   4.007   1.008   4.175 -0.3152 -0.2272  0.0077
 1110SOL    HW214790   3.902   1.095   4.137  0.2494 -0.4886 -2.2781
 1111SOL     OW14791   1.157   1.221   8.042  0.0639  0.4009 -0.1692
 1111SOL    HW114792   1.114   1.150   8.090  0.1429 -0.8338 -1.9403
 1111SOL    HW214793   1.230   1.238   8.102 -0.4749  1.0513  0.3057
 1112SOL     OW14794   4.615   1.520  10.686  0.3007  0.3009 -0.5273
 1112SOL    HW114795   4.609   1.610  10.717 -1.6361  0.0326 -0.1641
 1112SOL    HW214796   4.601   1.525  10.592  0.2708 -2.9655 -0.7067
 1113SOL     OW14797   2.762   4.125   6.528  0.3250  0.3859 -0.5010
 1113SOL    HW114798   2.787   4.190   6.463  0.4486 -0.1337 -0.9681
 1113SOL    HW214799   2.815   4.047   6.512  3.1757  1.9441  1.3194
 1114SOL     OW14800   1.895   4.643   7.121  0.3958 -0.1914  0.0871
 1114SOL    HW114801   1.989   4.632   7.139  0.4652  0.1154 -0.0994
 1114SOL    HW214802   1.877   4.569   7.063  0.3704 -1.1818  1.3599
 1115SOL     OW14803   2.959   2.680   0.326 -0.3691  0.2316 -0.5690
 1115SOL    HW114804   3.016   2.756   0.314 -0.7980  0.8942  1.6433
 1115SOL    HW214805   3.007   2.610   0.282  2.4827  0.8464  1.5660
 1116SOL     OW14806   3.818   4.406  15.914  0.2208 -0.1647 -0.0531
 1116SOL    HW114807   3.764   4.449  15.980 -2.6531  1.8655 -3.8033
 1116SOL    HW214808   3.910   4.421  15.936  0.4362  0.0787 -1.1512
 1117SOL     OW14809   3.436   1.188   9.076  0.5872  0.0725 -0.5021
 1117SOL    HW114810   3.473   1.275   9.060 -1.5016  1.4299  2.1885
 1117SOL    HW214811   3.353   1.196   9.029  0.4435 -0.7439 -0.3910
 1118SOL     OW14812   1.636   3.856   1.410  0.0282 -0.4112 -0.7612
 1118SOL    HW114813   1.690   3.827   1.337 -1.1861  0.2959 -1.9521
 1118SOL    HW214814   1.549   3.820   1.395 -1.4160  2.4276  0.6740
 1119SOL     OW14815   3.343   0.622   7.557  0.4025  0.1579 -0.0145
 1119SOL    HW114816   3.274   0.668   7.508  2.5205  2.8299 -0.4776
 1119SOL    HW214817   3.302   0.535   7.556  1.4765 -0.3515  1.8708
 1120SOL     OW14818   4.128   3.689  15.775 -0.0852 -0.1899 -0.7720
 1120SOL    HW114819   4.066   3.679  15.848  1.2538 -0.0507  0.3940
 1120SOL    HW214820   4.215   3.677  15.812  0.8800  0.1690 -2.9282
 1121SOL     OW14821   3.527   3.124  14.793 -0.0359  0.2316  0.2683
 1121SOL    HW114822   3.562   3.041  14.758 -0.5551  0.0965  0.0664
 1121SOL    HW214823   3.597   3.143  14.855  1.6209  1.9017 -2.0930
 1122SOL     OW14824   2.908   4.175   0.197  0.0393  0.4441 -0.3631
 1122SOL    HW114825   2.906   4.079   0.203 -1.1057  0.6010  2.0070
 1122SOL    HW214826   2.927   4.207   0.285 -1.0880  0.2446 -0.0413
 1123SOL     OW14827   3.868   4.241   7.361  0.6604 -0.0748  0.7922
 1123SOL    HW114828   3.950   4.263   7.404  1.5728 -1.4028 -0.2624
 1123SOL    HW214829   3.803   4.241   7.431  1.2154 -0.5115  1.3078
 1124SOL     OW14830   2.506   3.581   9.127  0.3240  0.5986  0.4550
 1124SOL    HW114831   2.533   3.646   9.191  0.1942  0.4845  0.6252
 1124SOL    HW214832   2.464   3.514   9.181 -0.4056  2.1090  1.7456
 1125SOL     OW14833   4.641   1.552   3.581  0.3564  0.2884  0.0572
 1125SOL    HW114834   4.578   1.495   3.626  0.4421 -0.5209 -0.8434
 1125SOL    HW214835   4.583   1.623   3.554 -0.9031 -0.6491  0.2763
 1126SOL     OW14836   4.376   4.584  17.080  0.1001  0.5595  0.6069
 1126SOL    HW114837   4.307   4.537  17.033 -0.5103  1.7024  0.3601
 1126SOL    HW214838   4.426   4.514  17.121 -0.8344 -1.8061 -2.2865
 1127SOL     OW14839   1.436   3.880   9.269 -0.5861 -0.2483  0.1433
 1127SOL    HW114840   1.482   3.841   9.196 -0.4480  1.4141 -0.6541
 1127SOL    HW214841   1.395   3.802   9.307  2.2034 -1.9172 -0.3602
 1128SOL     OW14842   3.778   0.832   4.050 -0.4583 -0.1749  1.0669
 1128SOL    HW114843   3.857   0.809   4.000 -2.1887  1.9290 -2.6042
 1128SOL    HW214844   3.720   0.780   3.994 -2.1766  1.2844  1.4950
 1129SOL     OW14845   3.271   1.783   4.505  0.3861  0.1408 -0.6639
 1129SOL    HW114846   3.193   1.771   4.560  1.3792  0.6018  0.8145
 1129SOL    HW214847   3.230   1.767   4.419 -1.4581  0.7513  0.1040
 1130SOL     OW14848   3.566   2.419  10.896 -0.0316 -0.1447  0.3302
 1130SOL    HW114849   3.507   2.343  10.888 -0.3194 -0.0151  1.2116
 1130SOL    HW214850   3.564   2.449  10.805  1.0160 -0.8502  0.0812
 1131SOL     OW14851   0.661   3.883  13.201 -0.3593 -0.3551 -0.1358
 1131SOL    HW114852   0.739   3.906  13.253  0.7989  1.5860 -2.7193
 1131SOL    HW214853   0.647   3.797  13.240  1.5740 -0.3766  0.5372
 1132SOL     OW14854   2.247   3.624  11.131 -0.0938 -0.2694  0.2469
 1132SOL    HW114855   2.267   3.569  11.055 -1.1624 -2.3492  1.4794
 1132SOL    HW214856   2.305   3.587  11.197  1.1168  1.3042  0.0389
 1133SOL     OW14857   2.861   1.402  12.691 -0.0016  0.4144  0.1952
 1133SOL    HW114858   2.850   1.436  12.602  2.1820 -0.7700 -0.5272
 1133SOL    HW214859   2.868   1.484  12.740 -1.3851  0.1415  0.8496
 1134SOL     OW14860   2.660   0.429  11.429 -0.3898 -0.2507  0.1629
 1134SOL    HW114861   2.566   0.442  11.415 -0.1234  0.0614 -1.4091
 1134SOL    HW214862   2.689   0.520  11.417 -2.1488  0.4482  1.1524
 1135SOL     OW14863   2.481   0.621   3.767  0.6393 -0.0828  0.0979
 1135SOL    HW114864   2.474   0.531   3.734 -1.2872  0.0810  0.0708
 1135SOL    HW214865   2.540   0.667   3.707 -1.2261  2.1148 -0.0477
 1136SOL     OW14866   0.088   0.455  12.786  0.2092 -0.1169  0.4546
 1136SOL    HW114867   0.010   0.506  12.807  0.2663  0.4962 -0.8215
 1136SOL    HW214868   0.064   0.379  12.839 -1.2744 -0.1563 -0.2654
 1137SOL     OW14869   1.927   3.802  11.005  0.1614 -0.5579  0.1162
 1137SOL    HW114870   1.917   3.814  11.099 -0.3610  0.7986 -0.1219
 1137SOL    HW214871   2.013   3.844  11.003  0.1340 -0.6046 -2.4542
 1138SOL     OW14872   2.818   0.130   7.574  0.0450 -0.7250  0.0493
 1138SOL    HW114873   2.860   0.202   7.529 -0.9576  0.2765  0.7163
 1138SOL    HW214874   2.893   0.077   7.600 -2.0244 -3.1446  1.2064
 1139SOL     OW14875   1.380   2.291   9.165 -0.1734  0.1053 -0.1554
 1139SOL    HW114876   1.473   2.311   9.155 -0.4342  1.1572 -0.3875
 1139SOL    HW214877   1.355   2.327   9.081 -0.4245  0.7791  0.2093
 1140SOL     OW14878   2.775   0.027   1.515  0.1570  0.3686 -0.1035
 1140SOL    HW114879   2.690   0.050   1.554  0.6187  1.4143  0.2812
 1140SOL    HW214880   2.772   4.658   1.494 -1.4192 -0.0230  1.8232
 1141SOL     OW14881   2.157   0.289   7.596  0.9574  0.0982 -0.9142
 1141SOL    HW114882   2.137   0.343   7.520 -0.8730 -0.4072 -0.7792
 1141SOL    HW214883   2.173   0.343   7.673  0.7610 -2.3927  0.8589
 1142SOL     OW14884   4.375   1.141   7.767 -0.1363 -0.4939  0.0820
 1142SOL    HW114885   4.388   1.233   7.788 -1.6309  0.4982 -3.3836
 1142SOL    HW214886   4.377   1.104   7.856  0.4414  1.2030  0.7780
 1143SOL     OW14887   2.761   1.234   3.135 -0.0387  0.1865  0.1156
 1143SOL    HW114888   2.773   1.159   3.077 -3.4685 -0.7666  0.6204
 1143SOL    HW214889   2.842   1.235   3.187  1.0716 -0.6880 -1.5935
 1144SOL     OW14890   0.535   0.229   8.375 -0.4038  1.1150 -0.1943
 1144SOL    HW114891   0.569   0.241   8.286  0.7194 -2.2846 -0.2259
 1144SOL    HW214892   0.496   0.142   8.364  2.6969 -0.1895 -0.8435
 1145SOL     OW14893   4.563   1.113  11.693  0.1409 -0.8436  0.1595
 1145SOL    HW114894   4.570   1.049  11.764  1.4759 -1.6422 -0.6811
 1145SOL    HW214895   4.656   1.136  11.686  0.0439 -0.3851  0.4275
 1146SOL     OW14896   3.731   2.718   9.499 -0.3018  0.6708  0.2172
 1146SOL    HW114897   3.719   2.803   9.541 -0.4023  0.9742 -0.4373
 1146SOL    HW214898   3.691   2.658   9.562 -2.1443  2.2335  0.5396
 1147SOL     OW14899   2.187   4.104  12.007  0.2356  0.1835  0.0579
 1147SOL    HW114900   2.232   4.033  12.053  0.6471  1.4005  1.5001
 1147SOL    HW214901   2.110   4.062  11.967 -0.2583  2.1948 -1.0791
 1148SOL     OW14902   3.196   1.409   6.470  0.0696 -0.1008  0.0684
 1148SOL    HW114903   3.235   1.495   6.453 -0.0229 -0.1960 -0.6331
 1148SOL    HW214904   3.168   1.421   6.560 -1.7160  0.0875 -0.5217
 1149SOL     OW14905   2.953   3.178  17.052 -0.6594  0.1663  0.1480
 1149SOL    HW114906   2.880   3.216  17.003  1.1469 -1.5168 -3.8043
 1149SOL    HW214907   3.023   3.243  17.057 -0.5806  0.0108  1.1589
 1150SOL     OW14908   2.388   3.255   5.890  0.1664  0.7367 -0.3846
 1150SOL    HW114909   2.334   3.311   5.945  0.3119 -0.3434  0.8632
 1150SOL    HW214910   2.424   3.310   5.820 -1.8054  1.7250 -0.6057
 1151SOL     OW14911   0.449   3.511   4.626 -0.4889  0.5357 -0.1703
 1151SOL    HW114912   0.396   3.444   4.582  1.7027 -0.9245 -0.5494
 1151SOL    HW214913   0.525   3.519   4.569 -0.9730 -1.5201 -1.0896
 1152SOL     OW14914   1.161   1.692   8.137  0.0506 -0.1788  0.1411
 1152SOL    HW114915   1.166   1.612   8.084 -2.5139  1.0286 -1.9031
 1152SOL    HW214916   1.203   1.758   8.081 -1.1987  0.3474 -0.1682
 1153SOL     OW14917   0.232   0.811   7.905 -0.4389  0.1129 -0.1040
 1153SOL    HW114918   0.162   0.753   7.936 -0.3170 -0.0685 -0.1669
 1153SOL    HW214919   0.237   0.884   7.967  2.7627 -0.0818 -0.1211
 1154SOL     OW14920   1.091   1.862  11.846  0.6445 -0.1190 -0.1265
 1154SOL    HW114921   1.117   1.951  11.820 -0.9448  0.5009  0.4032
 1154SOL    HW214922   1.128   1.803  11.780 -1.8741 -2.7257  0.8458
 1155SOL     OW14923   4.013   1.525   7.514 -0.1467  0.4423  0.0907
 1155SOL    HW114924   3.931   1.572   7.525 -0.9012 -0.4256 -1.7402
 1155SOL    HW214925   4.056   1.608   7.490  1.9711 -0.5530  0.4532
 1156SOL     OW14926   2.420   1.934   3.122 -0.0068  0.0811 -0.0125
 1156SOL    HW114927   2.461   1.894   3.046  1.5356  2.2505 -0.3211
 1156SOL    HW214928   2.333   1.895   3.124  0.3726 -0.7419  0.4733
 1157SOL     OW14929   0.964   1.174  17.548 -0.5540  0.6780 -0.1715
 1157SOL    HW114930   0.964   1.083  17.575  0.2190  1.1480  1.4233
 1157SOL    HW214931   0.927   1.175  17.460 -0.7913  0.1555 -0.0727
 1158SOL     OW14932   1.186   3.289  13.016  0.0430  0.3439  0.4215
 1158SOL    HW114933   1.172   3.195  13.006 -1.5797  0.7735 -1.2442
 1158SOL    HW214934   1.188   3.290  13.112  0.7073  0.2838  0.4074
 1159SOL     OW14935   0.141   0.599   4.244 -0.3420 -0.0916 -0.4334
 1159SOL    HW114936   0.168   0.562   4.329  0.0681  2.5998  0.6076
 1159SOL    HW214937   0.073   0.660   4.273 -1.1295 -2.2828  2.4198
 1160SOL     OW14938   0.127   0.550   5.257  0.4162 -0.5335 -0.5035
 1160SOL    HW114939   0.217   0.581   5.258  0.3170 -0.1127 -3.0885
 1160SOL    HW214940   0.081   0.610   5.198  0.1439 -0.5556 -0.3170
 1161SOL     OW14941   0.126   1.757  14.569  0.1026 -0.0868 -0.2074
 1161SOL    HW114942   0.058   1.693  14.591  1.1985 -0.7502  1.2531
 1161SOL    HW214943   0.131   1.814  14.646 -0.5573 -1.7951  1.1040
 1162SOL     OW14944   3.634   0.198   7.546  0.9473  0.5297 -0.2240
 1162SOL    HW114945   3.548   0.197   7.589  1.3813  0.4546  0.6229
 1162SOL    HW214946   3.600   0.162   7.463 -0.7627  0.1276  0.6544
 1163SOL     OW14947   4.202   1.647   6.311  0.3808 -0.3115 -0.1411
 1163SOL    HW114948   4.293   1.639   6.285 -0.2955  0.6527 -2.7627
 1163SOL    HW214949   4.161   1.685   6.233 -0.7646 -1.3400 -0.0443
 1164SOL     OW14950   2.595   1.634   3.837 -0.2947 -0.0858 -0.6026
 1164SOL    HW114951   2.676   1.585   3.833  0.1119  0.7321 -2.3225
 1164SOL    HW214952   2.548   1.605   3.759 -1.3537  0.5454 -0.2053
 1165SOL     OW14953   1.565   1.393   2.237 -0.0568 -0.0818  0.3958
 1165SOL    HW114954   1.484   1.396   2.288 -0.1022 -0.6325  0.3598
 1165SOL    HW214955   1.581   1.486   2.222 -0.6881 -0.1071 -0.4166
 1166SOL     OW14956   4.040   2.508  10.187  0.1419 -0.3570 -0.0662
 1166SOL    HW114957   4.002   2.583  10.142  2.2129 -0.4727 -2.0280
 1166SOL    HW214958   4.132   2.524  10.167  0.2427  0.1900  0.8502
 1167SOL     OW14959   3.506   4.034   9.377 -0.2580 -0.3453  0.1683
 1167SOL    HW114960   3.485   4.056   9.286  1.4114 -0.2291 -0.1927
 1167SOL    HW214961   3.545   3.948   9.368 -1.0922 -0.5831 -1.0932
 1168SOL     OW14962   3.439   2.998   1.003 -0.0725 -0.2008 -0.3530
 1168SOL    HW114963   3.442   2.917   0.953 -0.8348  0.0378 -0.7824
 1168SOL    HW214964   3.392   3.062   0.949 -0.9594 -0.6456 -0.1091
 1169SOL     OW14965   3.441   1.786  16.683 -0.1440  0.4433  0.1803
 1169SOL    HW114966   3.408   1.841  16.755  0.2156  0.0160  0.6684
 1169SOL    HW214967   3.371   1.793  16.619  1.7748  0.5322 -1.8967
 1170SOL     OW14968   3.169   2.896   6.648 -0.0896  0.0002 -0.2854
 1170SOL    HW114969   3.206   2.961   6.708 -0.3126 -0.6964  0.6176
 1170SOL    HW214970   3.095   2.947   6.616  2.6965  2.8684 -2.1179
 1171SOL     OW14971   1.633   2.202  12.183 -0.1449 -0.5118 -0.3339
 1171SOL    HW114972   1.703   2.267  12.181  0.4970 -1.1941 -0.0207
 1171SOL    HW214973   1.584   2.232  12.260  0.4197 -0.5354  0.0311
 1172SOL     OW14974   0.508   2.496  13.757  0.4239  0.4035 -0.5777
 1172SOL    HW114975   0.421   2.513  13.720  0.2414  2.6715  0.8888
 1172SOL    HW214976   0.544   2.431  13.697  0.5002  0.1131 -0.2184
 1173SOL     OW14977   1.391   2.105   8.873  0.2824 -0.5667 -0.3248
 1173SOL    HW114978   1.312   2.118   8.820 -0.1798 -2.4259 -0.0820
 1173SOL    HW214979   1.458   2.157   8.829 -0.7031  1.7318  0.9101
 1174SOL     OW14980   1.842   2.018   7.010 -0.5842 -0.0854  0.2378
 1174SOL    HW114981   1.783   2.067   6.952 -0.2048 -0.0346 -0.1021
 1174SOL    HW214982   1.796   1.937   7.032  0.5845 -1.1479 -1.2278
 1175SOL     OW14983   0.067   2.197   2.980  0.1136  0.1581 -0.5972
 1175SOL    HW114984   0.052   2.114   2.935 -2.1775 -0.1805  0.8206
 1175SOL    HW214985   0.080   2.261   2.911  0.4061  0.9731  0.2101
 1176SOL     OW14986   0.753   2.297   2.482  0.1833  0.2012 -0.4893
 1176SOL    HW114987   0.731   2.355   2.409  0.5139 -0.4593 -1.1070
 1176SOL    HW214988   0.828   2.253   2.443  0.3303 -2.0529  2.2902
 1177SOL     OW14989   2.387   0.628   9.215 -0.3218 -0.7152 -0.7468
 1177SOL    HW114990   2.420   0.559   9.273 -1.4406  1.0397  1.9786
 1177SOL    HW214991   2.324   0.577   9.164  0.1724 -1.5147 -0.5582
 1178SOL     OW14992   1.691   2.113   8.537 -0.5691 -0.5754  0.3194
 1178SOL    HW114993   1.732   2.053   8.600 -0.0242  0.4104  0.9058
 1178SOL    HW214994   1.759   2.173   8.508  1.5567 -2.1549  1.9886
 1179SOL     OW14995   2.700   3.114   1.931  0.5551 -0.1066 -0.2285
 1179SOL    HW114996   2.746   3.041   1.888  0.2654 -0.5557  0.2239
 1179SOL    HW214997   2.768   3.139   1.994 -1.0458 -0.0551  1.4953
 1180SOL     OW14998   2.371   1.696   8.667  0.2679  0.0748  0.2716
 1180SOL    HW114999   2.426   1.758   8.714 -0.5159  0.3343  0.8471
 1180SOL    HW215000   2.438   1.627   8.657  1.1298  1.0726 -0.7820
 1181SOL     OW15001   0.473   2.972  13.211 -0.1278 -0.2812 -0.0572
 1181SOL    HW115002   0.504   3.040  13.271 -1.0726 -0.1081  0.2274
 1181SOL    HW215003   0.417   3.021  13.152 -0.1578 -0.6010 -0.2927
 1182SOL     OW15004   1.090   0.681   1.671  0.2475  0.6159 -0.0055
 1182SOL    HW115005   1.185   0.675   1.664  0.2016  0.8348 -0.9311
 1182SOL    HW215006   1.062   0.673   1.580 -1.5943 -1.8270  0.7913
 1183SOL     OW15007   4.575   1.494   8.628 -0.4612  0.2062  0.0649
 1183SOL    HW115008   4.623   1.420   8.590 -0.1988  2.2676 -3.5958
 1183SOL    HW215009   4.527   1.509   8.547  0.4977 -1.1836 -0.7597
 1184SOL     OW15010   0.530   3.550  16.065  0.6058  0.3838  0.1711
 1184SOL    HW115011   0.471   3.486  16.025 -0.6062  1.8335 -0.3765
 1184SOL    HW215012   0.603   3.548  16.004 -0.2356 -1.5921 -0.7731
 1185SOL     OW15013   0.456   2.514   5.474  0.3368 -0.4420  0.1924
 1185SOL    HW115014   0.542   2.552   5.490 -0.5385  1.2213  0.9409
 1185SOL    HW215015   0.408   2.587   5.513  2.7662 -0.2744  2.8586
 1186SOL     OW15016   1.503   1.667   7.366  0.1025  0.4912 -0.0623
 1186SOL    HW115017   1.482   1.698   7.278  0.0637 -1.7300 -0.8228
 1186SOL    HW215018   1.547   1.746   7.397  0.5901 -0.5895  2.0045
 1187SOL     OW15019   2.769   3.192   4.721 -0.0590  0.2252 -0.1528
 1187SOL    HW115020   2.864   3.202   4.724 -0.3374  1.6911  3.7125
 1187SOL    HW215021   2.750   3.194   4.815  0.4487 -0.0701 -0.0428
 1188SOL     OW15022   2.399   0.157   3.302 -0.3091 -0.2463  0.0346
 1188SOL    HW115023   2.460   0.084   3.291 -0.3093 -0.3513  0.7217
 1188SOL    HW215024   2.388   0.183   3.210  2.9181 -0.5714 -0.4342
 1189SOL     OW15025   0.046   4.704  16.438 -0.0569 -0.3516 -0.0434
 1189SOL    HW115026   0.023   0.068  16.466 -0.9867 -0.4417 -0.5180
 1189SOL    HW215027   4.706   4.650  16.483  0.3200  0.2012  1.1701
 1190SOL     OW15028   2.674   0.763  15.090 -0.0705 -0.3044  0.0295
 1190SOL    HW115029   2.632   0.679  15.104  1.6793 -1.5072 -1.8410
 1190SOL    HW215030   2.757   0.724  15.062  0.3990 -0.0322  1.0500
 1191SOL     OW15031   0.955   0.870   7.901  0.5115 -0.4557  0.2380
 1191SOL    HW115032   1.006   0.790   7.912 -0.6770 -1.4168 -1.1691
 1191SOL    HW215033   0.931   0.863   7.809 -0.7146 -0.8463  0.5841
 1192SOL     OW15034   3.283   3.239   3.628  0.4429  0.0271  0.3454
 1192SOL    HW115035   3.361   3.275   3.586 -0.4603  0.9035 -0.6069
 1192SOL    HW215036   3.327   3.187   3.695 -0.0345  0.2738  0.8529
 1193SOL     OW15037   0.346   1.743   7.541  0.2050 -0.1227 -0.0314
 1193SOL    HW115038   0.377   1.798   7.469 -0.8492 -0.9510 -1.1282
 1193SOL    HW215039   0.306   1.808   7.598  0.7583 -0.7243  1.0258
 1194SOL     OW15040   2.625   4.619   1.087  0.6089 -0.7516  0.2757
 1194SOL    HW115041   2.694   4.659   1.035  0.3947 -1.1385 -0.3053
 1194SOL    HW215042   2.555   4.684   1.087  0.3611 -1.0154 -0.0405
 1195SOL     OW15043   0.392   0.226   2.141  0.4375 -0.4162  0.4260
 1195SOL    HW115044   0.448   0.151   2.160  0.4910  0.1445  2.3921
 1195SOL    HW215045   0.324   0.177   2.093 -0.7875 -0.5303  2.2950
 1196SOL     OW15046   1.835   0.088  11.910 -0.3550  0.2905  0.0482
 1196SOL    HW115047   1.763   0.143  11.943 -0.1132  1.3690 -1.2217
 1196SOL    HW215048   1.833   0.113  11.818 -0.9976  2.3544  0.6257
 1197SOL     OW15049   0.301   2.706   4.408  0.4967  0.0302 -0.3348
 1197SOL    HW115050   0.244   2.732   4.336 -0.6643  0.8915  0.8855
 1197SOL    HW215051   0.280   2.785   4.458  1.8089  0.8853 -1.1480
 1198SOL     OW15052   3.597   2.060   1.890  0.0357 -0.6291  0.3405
 1198SOL    HW115053   3.594   2.021   1.803  0.6624  0.4748 -0.1625
 1198SOL    HW215054   3.683   2.098   1.904  0.3411 -0.9367 -0.6927
 1199SOL     OW15055   2.319   0.855   3.279 -0.2374  0.4907  0.2459
 1199SOL    HW115056   2.285   0.792   3.342 -0.7579  0.6134  0.0884
 1199SOL    HW215057   2.288   0.936   3.318  0.2787 -0.0029  1.6759
 1200SOL     OW15058   4.022   1.665   6.869 -0.2962 -0.6353 -0.1434
 1200SOL    HW115059   4.093   1.605   6.894 -0.2618 -0.0946  1.0619
 1200SOL    HW215060   4.030   1.728   6.940  1.6561  0.2832 -1.1618
 1201SOL     OW15061   2.251   3.067  15.130  0.0320  0.0912 -0.5014
 1201SOL    HW115062   2.165   3.048  15.168  0.2314  0.9156  0.3656
 1201SOL    HW215063   2.264   3.150  15.176 -0.9158  0.9016 -1.6825
 1202SOL     OW15064   3.539   1.117   2.072  0.4866  0.0911  0.2142
 1202SOL    HW115065   3.633   1.100   2.077  0.5652  0.3358 -0.4678
 1202SOL    HW215066   3.527   1.141   1.980  0.1016 -0.6464  0.0758
 1203SOL     OW15067   0.292   2.950   6.070  0.7012  0.8752  0.6505
 1203SOL    HW115068   0.217   2.907   6.029  2.1661 -0.5128 -0.5433
 1203SOL    HW215069   0.370   2.933   6.017 -0.0496 -0.2173 -0.0911
 1204SOL     OW15070   0.049   0.335  13.962  0.0723 -0.1401  0.5093
 1204SOL    HW115071   4.707   0.300  14.022 -0.1586 -1.1765 -0.3462
 1204SOL    HW215072   0.006   0.417  13.940 -0.2569 -0.0943  1.3190
 1205SOL     OW15073   1.613   0.102   3.161  0.1966 -0.5242 -0.1604
 1205SOL    HW115074   1.655   0.138   3.239 -2.6408 -1.0838  1.6145
 1205SOL    HW215075   1.522   0.124   3.182  0.3197 -0.5219  0.3692
 1206SOL     OW15076   3.027   2.389   5.197  0.3262  0.5237 -0.1525
 1206SOL    HW115077   2.958   2.341   5.150 -2.5261  3.3622  1.1728
 1206SOL    HW215078   3.001   2.373   5.288 -1.6676  3.3058 -0.2244
 1207SOL     OW15079   1.497   2.321   6.089 -0.4681  0.4158 -0.5739
 1207SOL    HW115080   1.504   2.239   6.041  0.1368  0.2871 -0.2740
 1207SOL    HW215081   1.497   2.382   6.015  1.7229  0.1454 -0.7948
 1208SOL     OW15082   3.685   4.598   5.706 -0.1487  0.3567  0.9579
 1208SOL    HW115083   3.708   4.665   5.642  0.8967 -2.4261 -1.5920
 1208SOL    HW215084   3.661   4.525   5.649 -1.1221  0.2536  1.4895
 1209SOL     OW15085   3.291   3.496   7.902  0.5889  0.5300  0.0365
 1209SOL    HW115086   3.213   3.440   7.904  0.6053  0.6039  2.5428
 1209SOL    HW215087   3.310   3.495   7.808  1.2194 -1.3863  0.1875
 1210SOL     OW15088   0.853   2.087  16.765  0.2944  0.8284  0.2208
 1210SOL    HW115089   0.832   2.000  16.733 -2.0358  1.0231  1.2358
 1210SOL    HW215090   0.937   2.074  16.810  0.9693  0.4701 -1.1621
 1211SOL     OW15091   3.913   1.554   7.960 -0.2534  0.2274 -0.4014
 1211SOL    HW115092   3.934   1.598   8.043 -1.2775 -0.9726  0.4886
 1211SOL    HW215093   3.887   1.621   7.898 -2.5150 -0.6918 -0.4466
 1212SOL     OW15094   4.331   0.051   7.445 -0.9080 -0.4063  0.3879
 1212SOL    HW115095   4.367   4.699   7.399 -0.5290  1.2709 -2.1329
 1212SOL    HW215096   4.310   0.009   7.528  1.3513 -0.4600  0.9135
 1213SOL     OW15097   4.706   2.861   5.638  0.1760  0.4952  0.1137
 1213SOL    HW115098   0.031   2.872   5.557 -0.5637 -1.3826 -0.5756
 1213SOL    HW215099   4.621   2.823   5.618 -0.7396  2.7450 -0.2596
 1214SOL     OW15100   2.307   2.117   2.409  0.3519  0.0824 -0.1482
 1214SOL    HW115101   2.265   2.131   2.324 -1.8371 -0.4699  0.8543
 1214SOL    HW215102   2.396   2.099   2.379  0.5130 -1.3953  1.2347
 1215SOL     OW15103   2.054   3.261   7.255  0.4100  0.1880  0.2146
 1215SOL    HW115104   2.018   3.321   7.320 -0.0014  1.0967 -0.8449
 1215SOL    HW215105   2.088   3.184   7.300  1.5287  1.1701  1.0399
 1216SOL     OW15106   2.027   3.595   8.909  0.2380 -0.0836  0.0510
 1216SOL    HW115107   2.085   3.609   8.834 -0.4742 -0.0826 -0.5071
 1216SOL    HW215108   1.966   3.666   8.888 -0.0560  0.0882  1.5149
 1217SOL     OW15109   2.922   1.946   2.609 -0.6944  0.2469  0.0129
 1217SOL    HW115110   2.987   1.977   2.546 -2.5253  2.1708 -0.9095
 1217SOL    HW215111   2.950   1.854   2.612  1.1090  0.7584 -0.8334
 1218SOL     OW15112   1.387   2.443   2.029 -0.5168 -0.2461 -0.2755
 1218SOL    HW115113   1.440   2.389   1.971  0.3868 -1.6368  1.8774
 1218SOL    HW215114   1.444   2.469   2.101 -1.3131  2.6767 -0.6986
 1219SOL     OW15115   3.347   4.336   8.740  0.1299  0.3132  0.3524
 1219SOL    HW115116   3.305   4.420   8.755  1.2077  0.7520  0.9487
 1219SOL    HW215117   3.290   4.268   8.776  1.1349 -2.8447 -3.9818
 1220SOL     OW15118   0.820   1.054   8.892  0.3209  0.0572 -0.4646
 1220SOL    HW115119   0.800   1.029   8.983  0.2822 -2.3040 -1.1156
 1220SOL    HW215120   0.873   0.980   8.863 -0.0017  0.1663 -1.3219
 1221SOL     OW15121   2.596   0.036  10.163 -0.0329 -0.0443 -0.3542
 1221SOL    HW115122   2.647   0.048  10.083  0.6166 -0.1713  0.0385
 1221SOL    HW215123   2.624   4.671  10.185  1.0211  0.5270  0.6307
 1222SOL     OW15124   1.549   3.326   3.933  0.2177 -0.8482 -0.2268
 1222SOL    HW115125   1.542   3.415   3.966 -0.6005 -1.9184  2.4676
 1222SOL    HW215126   1.531   3.282   4.016  0.7963 -0.3048  0.1883
 1223SOL     OW15127   4.536   4.228   8.211 -0.4574  0.6023  0.0758
 1223SOL    HW115128   4.624   4.191   8.204 -0.3332  0.4646  2.3764
 1223SOL    HW215129   4.539   4.255   8.302  0.8368  0.8330 -0.0371
 1224SOL     OW15130   2.736   0.561   9.406 -0.0620 -0.3353 -0.0996
 1224SOL    HW115131   2.726   0.656   9.406 -0.5543 -0.3975 -2.3807
 1224SOL    HW215132   2.821   0.539   9.368 -0.0861 -1.3731  0.4511
 1225SOL     OW15133   0.087   3.218   3.198  0.3277  0.0459  0.3253
 1225SOL    HW115134   0.134   3.300   3.214  0.0969  0.2610 -0.0989
 1225SOL    HW215135   0.010   3.237   3.251  1.5169  0.4145  1.9024
 1226SOL     OW15136   2.670   2.058  11.930 -0.5709  0.8213  0.9160
 1226SOL    HW115137   2.610   2.088  11.862 -0.4632  0.9244  0.8664
 1226SOL    HW215138   2.750   2.076  11.880  0.9609 -1.0792  2.6813
 1227SOL     OW15139   2.699   3.820  15.912 -0.0845  0.0561 -0.5282
 1227SOL    HW115140   2.609   3.797  15.936 -0.6091  2.2247 -0.4633
 1227SOL    HW215141   2.744   3.828  15.996 -2.9577  1.2139  0.8798
 1228SOL     OW15142   0.690   1.058  14.222  0.0993 -0.1336  0.7389
 1228SOL    HW115143   0.737   1.123  14.170  1.4235 -0.4898  1.4809
 1228SOL    HW215144   0.690   0.980  14.168  2.0453  0.4558 -0.1076
 1229SOL     OW15145   3.370   1.593   7.965 -0.7919 -0.7051  0.4288
 1229SOL    HW115146   3.365   1.635   8.051 -0.5292 -0.8906  0.5359
 1229SOL    HW215147   3.434   1.524   7.982 -2.4970 -2.0467  1.5133
 1230SOL     OW15148   0.815   4.107   0.019  0.3961 -0.0689  0.0828
 1230SOL    HW115149   0.793   4.197  17.695  0.1413 -0.4703 -1.2533
 1230SOL    HW215150   0.732   4.089   0.062 -0.5737  0.5544 -1.5230
 1231SOL     OW15151   0.734   3.193  11.183 -0.6178  0.0670  0.3838
 1231SOL    HW115152   0.644   3.190  11.214 -0.4348 -2.4193  0.7229
 1231SOL    HW215153   0.729   3.141  11.103  1.1776  0.3261  0.1010
 1232SOL     OW15154   0.166   4.208   2.163  0.1288  0.5936  0.0515
 1232SOL    HW115155   0.259   4.212   2.187  0.3643 -0.3916 -0.6663
 1232SOL    HW215156   0.154   4.302   2.169  0.5540  0.6386  0.2408
 1233SOL     OW15157   3.072   0.613   4.253  0.2808  0.5618  0.5592
 1233SOL    HW115158   2.985   0.624   4.291 -0.5053 -2.3801 -0.4131
 1233SOL    HW215159   3.126   0.602   4.332  1.2647 -2.3568 -0.5466
 1234SOL     OW15160   2.395   2.578  17.661 -0.4336 -0.0797 -0.1952
 1234SOL    HW115161   2.344   2.598   0.041  2.7432 -0.2143  1.9191
 1234SOL    HW215162   2.480   2.623  17.668 -0.9456  0.6338  1.5081
 1235SOL     OW15163   1.243   1.199   1.233  0.1211 -0.1342 -0.1153
 1235SOL    HW115164   1.211   1.223   1.146 -2.0770 -1.0507  0.4544
 1235SOL    HW215165   1.208   1.110   1.237  0.1142 -0.2442 -2.4922
 1236SOL     OW15166   1.244   4.378   4.507 -0.7522  0.5037 -0.0899
 1236SOL    HW115167   1.174   4.377   4.442 -0.2916  2.0570 -0.5945
 1236SOL    HW215168   1.237   4.284   4.525 -1.8619  0.2045 -2.1469
 1237SOL     OW15169   1.205   2.030  15.067  0.3968 -0.4053 -0.2942
 1237SOL    HW115170   1.169   1.954  15.021  0.0980  0.6616 -1.8200
 1237SOL    HW215171   1.129   2.088  15.058  1.2496  0.7409 -0.1012
 1238SOL     OW15172   0.925   0.295   8.410 -0.5285 -0.2844  0.5374
 1238SOL    HW115173   0.901   0.387   8.404  1.0769  0.2050  1.4530
 1238SOL    HW215174   1.009   0.302   8.456 -0.1400 -0.3226 -0.1752
 1239SOL     OW15175   4.278   4.270  15.704  0.3260 -0.5922 -0.1117
 1239SOL    HW115176   4.348   4.265  15.769 -0.6392 -0.6676  0.9245
 1239SOL    HW215177   4.311   4.272  15.614  2.2273 -1.3149  0.5800
 1240SOL     OW15178   3.275   4.679   1.948  0.3476  0.2428 -0.8005
 1240SOL    HW115179   3.290   4.609   1.884  0.0352  1.3971 -2.1405
 1240SOL    HW215180   3.256   0.034   1.897 -0.1287  0.7133  0.1252
 1241SOL     OW15181   3.490   2.606  12.015 -0.3288 -0.5505  0.2800
 1241SOL    HW115182   3.546   2.535  12.044 -0.7566 -1.1613 -0.3846
 1241SOL    HW215183   3.433   2.629  12.089  0.2074  0.9730  0.2262
 1242SOL     OW15184   1.368   0.785  11.676 -0.1874 -0.2717  0.0359
 1242SOL    HW115185   1.411   0.809  11.758 -0.1660  0.7776 -0.2818
 1242SOL    HW215186   1.345   0.693  11.691  0.4273 -0.5282 -0.6069
 1243SOL     OW15187   0.894   4.074   8.482 -0.0653  0.2173 -0.4486
 1243SOL    HW115188   0.866   4.145   8.540 -2.1475  0.6659 -1.9871
 1243SOL    HW215189   0.816   4.055   8.429  0.5118  0.6957 -1.4575
 1244SOL     OW15190   2.200   0.121   2.421 -0.2228  0.1803 -0.0692
 1244SOL    HW115191   2.156   0.101   2.503  2.6276  1.3714  1.7503
 1244SOL    HW215192   2.236   0.037   2.390  0.2164  0.7928 -1.2327
 1245SOL     OW15193   1.840   3.370  14.881 -0.3678  0.0052 -0.5316
 1245SOL    HW115194   1.842   3.389  14.787 -1.3996  1.5879 -0.2326
 1245SOL    HW215195   1.777   3.299  14.888 -0.1399 -0.1829 -0.3993
 1246SOL     OW15196   3.076   3.617   5.456  0.0988 -0.2896 -0.0603
 1246SOL    HW115197   3.138   3.624   5.528 -1.4606  1.2260  1.1329
 1246SOL    HW215198   2.996   3.617   5.508  0.2300 -0.4255  0.1409
 1247SOL     OW15199   4.340   1.287   1.618  0.2946 -0.1191 -0.1308
 1247SOL    HW115200   4.384   1.325   1.694 -0.3973 -1.0253  0.7337
 1247SOL    HW215201   4.405   1.230   1.577 -1.4825 -1.2902 -1.3714
 1248SOL     OW15202   4.269   2.582   6.266 -0.4716 -0.2322  0.1964
 1248SOL    HW115203   4.277   2.491   6.235  0.9540 -0.1681  0.3448
 1248SOL    HW215204   4.349   2.586   6.319 -0.3694 -1.4367  0.1487
 1249SOL     OW15205   3.108   3.289   2.124 -0.1855 -0.2878 -0.1316
 1249SOL    HW115206   3.155   3.336   2.194 -1.6455 -0.1894  0.7911
 1249SOL    HW215207   3.114   3.346   2.047 -1.1318 -0.6318 -0.4534
 1250SOL     OW15208   2.126   3.196   9.185  0.3902 -0.2498 -0.1115
 1250SOL    HW115209   2.204   3.145   9.206 -0.6957 -1.5447  0.7558
 1250SOL    HW215210   2.166   3.278   9.158 -0.6244  0.0727 -0.6563
 1251SOL     OW15211   3.930   4.056  12.146 -0.3555  0.0379 -0.2781
 1251SOL    HW115212   3.949   4.086  12.235  1.6280  0.1941 -0.7645
 1251SOL    HW215213   3.950   4.136  12.097 -1.9881  1.6819  1.7316
 1252SOL     OW15214   1.555   0.196   6.398 -0.1051  0.2285  0.5573
 1252SOL    HW115215   1.541   0.260   6.328 -1.3514  1.0384  1.5576
 1252SOL    HW215216   1.649   0.195   6.417 -0.2090 -0.4233  1.0180
 1253SOL     OW15217   4.463   4.581   5.273 -0.8497 -0.1910 -0.1845
 1253SOL    HW115218   4.451   4.652   5.210 -2.6758 -0.7558 -0.4780
 1253SOL    HW215219   4.551   4.593   5.308 -1.5543  0.6745  1.2855
 1254SOL     OW15220   3.482   0.106   0.973 -0.1101  0.7246 -0.4224
 1254SOL    HW115221   3.494   0.116   0.879  3.6342  0.6191  0.0315
 1254SOL    HW215222   3.423   0.178   0.997  0.5444  1.4110 -0.8975
 1255SOL     OW15223   2.758   3.296   5.408 -0.1370  0.0512  0.2086
 1255SOL    HW115224   2.851   3.317   5.417 -0.5231  1.5785  0.5506
 1255SOL    HW215225   2.731   3.272   5.497 -0.7210 -1.6030 -0.4051
 1256SOL     OW15226   3.282   0.615  14.677 -0.6597  0.9999 -0.0561
 1256SOL    HW115227   3.304   0.537  14.626 -2.5562  0.7289 -0.4549
 1256SOL    HW215228   3.256   0.677  14.608  0.0670  1.0755 -0.2613
 1257SOL     OW15229   0.023   1.029   8.354  0.2168  0.1919 -0.1113
 1257SOL    HW115230   4.695   1.061   8.428 -0.1575  0.9432 -0.6918
 1257SOL    HW215231   0.107   1.019   8.399  0.3805  1.2100 -0.1772
 1258SOL     OW15232   0.211   3.450  13.198 -0.1696 -0.1079 -0.6131
 1258SOL    HW115233   0.120   3.428  13.214  0.0922 -0.4458  0.4254
 1258SOL    HW215234   0.236   3.512  13.266  1.4593 -1.2030 -0.1874
 1259SOL     OW15235   3.333   2.948   9.099 -0.2279  0.6590  0.3573
 1259SOL    HW115236   3.328   3.031   9.145  2.4515  0.8516  0.3094
 1259SOL    HW215237   3.415   2.919   9.139  1.0206  0.4336 -2.3314
 1260SOL     OW15238   2.961   1.124   9.445  0.0836  0.0151  0.4571
 1260SOL    HW115239   2.933   1.067   9.517  4.1657 -2.2020  0.2656
 1260SOL    HW215240   3.050   1.142   9.476  0.0893  0.9275 -0.0884
 1261SOL     OW15241   4.042   2.712   3.346 -0.2877 -0.3771 -0.1009
 1261SOL    HW115242   4.136   2.721   3.335  0.0027 -1.1179  1.9077
 1261SOL    HW215243   4.016   2.734   3.256  0.3785  0.3688 -0.1117
 1262SOL     OW15244   3.110   4.267   7.774  0.3236 -0.1910 -0.6052
 1262SOL    HW115245   3.074   4.262   7.685  1.1042 -0.9043 -0.8830
 1262SOL    HW215246   3.130   4.177   7.801  2.9616 -0.2345 -2.6677
 1263SOL     OW15247   3.895   4.569   3.842 -0.3578 -0.0002 -0.0864
 1263SOL    HW115248   3.834   4.640   3.824  2.2395  2.3333  0.3057
 1263SOL    HW215249   3.959   4.619   3.894  0.6206 -1.3198 -0.0058
 1264SOL     OW15250   1.017   3.649   5.077 -0.3029 -0.6757  0.0914
 1264SOL    HW115251   1.021   3.744   5.088  0.2954 -0.5178 -1.6172
 1264SOL    HW215252   1.103   3.631   5.038 -1.0226 -0.8110 -1.4048
 1265SOL     OW15253   0.800   0.060   8.427  0.3487  0.1985 -0.5886
 1265SOL    HW115254   0.731   0.099   8.480 -0.5837 -2.3264  0.0403
 1265SOL    HW215255   0.847   0.141   8.406 -2.5626  2.1105  0.2783
 1266SOL     OW15256   0.861   0.448   3.777  0.2951  0.0711 -0.0216
 1266SOL    HW115257   0.850   0.531   3.730 -0.8474  0.2977  0.6400
 1266SOL    HW215258   0.795   0.403   3.726  0.7485  0.7592 -1.2080
 1267SOL     OW15259   1.778   0.618   7.933 -0.4474  0.0495 -0.1936
 1267SOL    HW115260   1.838   0.591   7.863  1.8208  0.1254  1.7284
 1267SOL    HW215261   1.797   0.710   7.947  0.9463 -0.4709  1.3041
 1268SOL     OW15262   3.964   0.420  13.944  0.1175  0.1185  1.0034
 1268SOL    HW115263   3.968   0.432  13.850  3.5863 -0.1489  1.1229
 1268SOL    HW215264   3.925   0.333  13.951  1.1627 -0.4321 -0.2549
 1269SOL     OW15265   4.197   4.700   7.939  0.1064  0.5112  0.3750
 1269SOL    HW115266   4.180   4.626   7.997  2.0749 -0.1790  0.0505
 1269SOL    HW215267   4.216   0.051   7.995 -0.0217 -1.8583  3.5258
 1270SOL     OW15268   4.696   0.525   3.512  0.3709  0.5303 -0.0650
 1270SOL    HW115269   0.009   0.446   3.473  1.0506  0.3943  0.8641
 1270SOL    HW215270   4.691   0.500   3.604 -0.4571 -3.0572 -1.0989
 1271SOL     OW15271   4.098   0.919   5.701 -0.6239  0.1883  0.3571
 1271SOL    HW115272   4.032   0.968   5.652  1.6166  2.6268 -0.2207
 1271SOL    HW215273   4.156   0.891   5.630  0.0543  3.0726 -0.2193
 1272SOL     OW15274   3.910   4.592   9.067  0.1377  0.1647  0.4366
 1272SOL    HW115275   3.849   4.529   9.028  0.2859  0.5121 -0.3565
 1272SOL    HW215276   3.932   4.654   8.997  0.7844 -0.4877  0.0621
 1273SOL     OW15277   0.908   1.779   4.991 -0.6338 -0.4204 -0.0574
 1273SOL    HW115278   0.893   1.847   4.925 -0.0235 -0.2082  0.0176
 1273SOL    HW215279   0.889   1.704   4.935  2.8094 -1.0769 -0.3287
 1274SOL     OW15280   0.300   2.007   7.633 -0.1880  0.4675 -0.8856
 1274SOL    HW115281   0.375   2.030   7.578  0.3789  1.1359  0.1755
 1274SOL    HW215282   0.231   2.009   7.567 -0.9164  2.6646 -0.0587
 1275SOL     OW15283   4.471   2.068   2.972  0.3855 -0.3438  0.7647
 1275SOL    HW115284   4.397   2.038   2.920  1.0529 -1.1360  0.2715
 1275SOL    HW215285   4.548   2.048   2.918  1.2068  1.4426  1.2476
 1276SOL     OW15286   1.029   1.415   3.733  0.3335  0.1373  0.1755
 1276SOL    HW115287   0.940   1.380   3.745  0.8232 -1.3685 -0.4768
 1276SOL    HW215288   1.022   1.482   3.801  2.6799  0.4160  0.1423
 1277SOL     OW15289   0.595   2.855   3.774 -0.0179  0.5628 -0.0993
 1277SOL    HW115290   0.541   2.926   3.739 -0.6357  1.0061  1.7471
 1277SOL    HW215291   0.652   2.886   3.845  1.8703  0.2757 -1.5086
 1278SOL     OW15292   2.975   2.555  12.632  0.3968 -0.1948 -0.4498
 1278SOL    HW115293   3.028   2.519  12.703 -1.2354 -0.8300  0.4411
 1278SOL    HW215294   2.970   2.647  12.660 -0.4724  0.0273 -1.3278
 1279SOL     OW15295   1.098   4.437   9.431 -0.1016  0.2630 -0.3267
 1279SOL    HW115296   1.145   4.354   9.424 -0.2870  0.2546 -1.4626
 1279SOL    HW215297   1.169   4.496   9.457  0.7357  0.5725 -3.3787
 1280SOL     OW15298   3.113   1.317  13.493 -0.1480  0.0858 -0.4635
 1280SOL    HW115299   3.069   1.351  13.571  0.5311 -1.6368  0.6847
 1280SOL    HW215300   3.068   1.233  13.493 -0.3897  0.2061  0.5658
 1281SOL     OW15301   4.051   0.753   4.634 -0.2261  0.0319  0.0477
 1281SOL    HW115302   4.016   0.822   4.691  2.8956 -0.5709  2.6787
 1281SOL    HW215303   4.107   0.717   4.703 -1.0999 -0.6676  0.3915
 1282SOL     OW15304   3.652   3.895   6.297  0.5859  0.1449 -0.0010
 1282SOL    HW115305   3.646   3.911   6.203  0.2904 -0.6313 -0.1151
 1282SOL    HW215306   3.666   3.985   6.325  0.0870  0.5082 -0.9253
 1283SOL     OW15307   0.435   0.716   3.883  0.0658  0.4831 -0.8622
 1283SOL    HW115308   0.404   0.701   3.794  0.7483  2.9339 -1.5152
 1283SOL    HW215309   0.529   0.714   3.863  0.2129 -0.8913 -0.0590
 1284SOL     OW15310   1.293   1.385  13.394 -1.0045 -0.4314 -0.0895
 1284SOL    HW115311   1.297   1.366  13.488 -0.4938 -0.6695 -0.1592
 1284SOL    HW215312   1.363   1.332  13.356  0.6320  1.2846  0.5701
 1285SOL     OW15313   3.644   4.688   3.342  0.1756  0.2955  0.7612
 1285SOL    HW115314   3.552   4.680   3.369 -0.1773 -1.0007 -0.8032
 1285SOL    HW215315   3.637   0.049   3.299 -1.7730 -1.2743 -2.1141
 1286SOL     OW15316   2.564   3.379  11.345  0.0436 -0.6311  0.6666
 1286SOL    HW115317   2.512   3.338  11.276 -1.7409  1.4444  0.8067
 1286SOL    HW215318   2.515   3.460  11.356 -2.3732 -1.6700 -2.5785
 1287SOL     OW15319   1.848   0.494   7.430 -0.8884 -0.1093  0.3586
 1287SOL    HW115320   1.900   0.529   7.502  0.1823 -1.4430  0.2137
 1287SOL    HW215321   1.764   0.494   7.477 -0.5973 -2.3580  0.8514
 1288SOL     OW15322   1.363   3.731   1.389  0.1764  0.3543  0.4828
 1288SOL    HW115323   1.363   3.816   1.344  2.8163  0.3497  0.4387
 1288SOL    HW215324   1.300   3.674   1.344  0.0487  1.6673 -1.0027
 1289SOL     OW15325   1.795   4.487   9.701  0.2065  0.1287 -0.2375
 1289SOL    HW115326   1.854   4.493   9.777  1.2968 -2.0095 -0.9189
 1289SOL    HW215327   1.834   4.423   9.641  0.0621 -0.1130 -0.0735
 1290SOL     OW15328   0.666   2.388  13.950 -0.1492 -0.1107 -0.5822
 1290SOL    HW115329   0.605   2.434  13.893  0.3440  1.5968  0.2349
 1290SOL    HW215330   0.643   2.431  14.033 -0.8281 -1.3058 -0.1641
 1291SOL     OW15331   3.443   2.130   5.706 -0.3597  0.0094 -0.0981
 1291SOL    HW115332   3.523   2.101   5.750 -0.9214 -0.0354  0.9156
 1291SOL    HW215333   3.452   2.083   5.624 -3.3893 -0.2625 -0.2823
 1292SOL     OW15334   2.312   0.679  11.492  0.0318  0.3476  0.2842
 1292SOL    HW115335   2.287   0.694  11.583  0.9730 -0.6745  0.7055
 1292SOL    HW215336   2.230   0.673  11.444  0.0291  1.0503  0.2016
 1293SOL     OW15337   0.579   2.180   6.333 -0.6463 -0.2502  0.3807
 1293SOL    HW115338   0.569   2.147   6.243  0.8049  0.8784 -0.1876
 1293SOL    HW215339   0.660   2.230   6.324  0.6176 -2.6677 -1.7258
 1294SOL     OW15340   1.915   3.930   4.970  0.6497 -0.1542  0.0850
 1294SOL    HW115341   1.979   3.859   4.975 -1.4277 -2.1774 -1.9537
 1294SOL    HW215342   1.942   3.982   5.046  2.6052 -0.3632 -0.4471
 1295SOL     OW15343   3.192   3.787   3.644  0.2204  0.3949 -0.6529
 1295SOL    HW115344   3.257   3.731   3.685 -1.8868 -0.3252  1.6457
 1295SOL    HW215345   3.185   3.861   3.704 -3.5185 -1.0915  0.7022
 1296SOL     OW15346   2.742   4.032   9.813 -0.1296  0.2301  0.0586
 1296SOL    HW115347   2.833   4.028   9.842  0.4933  2.0195 -1.5910
 1296SOL    HW215348   2.693   3.977   9.873  2.0959  0.0773  1.7371
 1297SOL     OW15349   3.447   3.038   4.118 -0.3238  0.2625 -0.3548
 1297SOL    HW115350   3.398   3.007   4.194 -0.2289  1.1890  0.0979
 1297SOL    HW215351   3.385   3.016   4.049 -0.0249  1.7501 -1.1095
 1298SOL     OW15352   4.490   2.780  10.842 -0.0895 -0.1251 -0.1316
 1298SOL    HW115353   4.397   2.786  10.820  0.3191  2.8402 -1.1544
 1298SOL    HW215354   4.490   2.741  10.929 -0.5659  0.6446  0.2205
 1299SOL     OW15355   3.960   1.034   7.161  0.5822  0.1532 -0.1126
 1299SOL    HW115356   4.002   0.968   7.216 -0.6437 -0.5388 -0.0257
 1299SOL    HW215357   3.899   0.981   7.111 -0.5162 -1.4653  2.9595
 1300SOL     OW15358   2.173   1.723   3.652 -0.4080  0.3231 -0.6804
 1300SOL    HW115359   2.126   1.792   3.604 -2.5471 -0.1510  0.7407
 1300SOL    HW215360   2.256   1.723   3.604 -0.5120  0.7715 -0.8598
 1301SOL     OW15361   1.362   2.740  11.468  0.3332  0.7376  0.0494
 1301SOL    HW115362   1.393   2.690  11.543  1.2715  0.6147 -0.4300
 1301SOL    HW215363   1.420   2.720  11.395  1.6250 -0.2736  1.3739
 1302SOL     OW15364   2.669   3.004   9.726 -0.2697  0.0897 -0.7355
 1302SOL    HW115365   2.710   2.923   9.756 -1.3182 -0.3963 -0.6048
 1302SOL    HW215366   2.590   2.996   9.779 -0.8084  0.3444 -1.5036
 1303SOL     OW15367   4.704   3.521   1.987 -0.2269 -0.2617  0.5746
 1303SOL    HW115368   4.637   3.590   1.991  1.2896  1.2100  0.4929
 1303SOL    HW215369   4.658   3.451   2.032 -0.2484 -2.3824 -2.7101
 1304SOL     OW15370   2.221   2.279   4.111 -0.0122  0.9151  0.7219
 1304SOL    HW115371   2.258   2.211   4.166  0.5626 -1.7893 -3.0574
 1304SOL    HW215372   2.137   2.299   4.154 -1.0700 -0.1774 -0.8173
 1305SOL     OW15373   4.310   1.014  10.459 -0.4157 -0.2724  0.2942
 1305SOL    HW115374   4.263   0.932  10.470 -0.0958  0.1796  5.1016
 1305SOL    HW215375   4.288   1.046  10.372 -1.2070  0.9193  0.9247
 1306SOL     OW15376   3.666   0.004  15.508 -0.4106  0.5995 -0.4777
 1306SOL    HW115377   3.638   4.683  15.587  1.5054  2.0560  1.0294
 1306SOL    HW215378   3.728   0.063  15.552  0.4452  0.4825 -1.5278
 1307SOL     OW15379   2.359   4.289  10.644 -0.6407  0.2046  0.3633
 1307SOL    HW115380   2.270   4.270  10.673 -1.2658 -1.2552 -2.4660
 1307SOL    HW215381   2.352   4.382  10.626  1.0551  0.0248 -1.2666
 1308SOL     OW15382   0.311   2.666   3.951 -0.6720  0.1068 -0.0797
 1308SOL    HW115383   0.310   2.762   3.959 -1.4299  0.3833 -3.7810
 1308SOL    HW215384   0.404   2.642   3.949 -0.6036  0.0503  3.0800
 1309SOL     OW15385   1.537   3.360  14.706  0.1040  0.6499  0.2970
 1309SOL    HW115386   1.628   3.365  14.675 -0.2353  0.9770 -0.6551
 1309SOL    HW215387   1.535   3.266  14.724 -1.2505  0.4517 -0.9544
 1310SOL     OW15388   0.611   4.553   0.892  0.5085 -0.4571 -0.2746
 1310SOL    HW115389   0.691   4.604   0.879  0.9090 -1.3660 -1.2971
 1310SOL    HW215390   0.615   4.520   0.803 -1.0749 -1.3790 -0.0097
 1311SOL     OW15391   1.736   3.198   5.086 -0.2423  0.4709  0.1985
 1311SOL    HW115392   1.707   3.232   5.171  1.4183  1.2199  0.4721
 1311SOL    HW215393   1.653   3.154   5.069 -1.2360  2.1598  0.7059
 1312SOL     OW15394   1.509   4.478  12.445 -0.0875  0.1182  0.3989
 1312SOL    HW115395   1.566   4.487  12.368 -1.3233  1.8213 -0.3158
 1312SOL    HW215396   1.472   4.565  12.455  0.7585  0.6434 -1.0824
 1313SOL     OW15397   1.769   3.856   5.298  0.1705  0.0983 -0.0456
 1313SOL    HW115398   1.849   3.897   5.264  1.7706 -4.2527 -1.5324
 1313SOL    HW215399   1.805   3.774   5.330  1.4614  1.1653  1.2770
 1314SOL     OW15400   1.692   3.475   1.818 -0.0455  0.2912  0.0782
 1314SOL    HW115401   1.641   3.425   1.882  0.8599  1.1482  1.4680
 1314SOL    HW215402   1.773   3.461   1.866  0.7358  3.6028 -0.3150
 1315SOL     OW15403   2.122   1.331   7.436 -0.1971  0.0024 -0.1872
 1315SOL    HW115404   2.092   1.258   7.381  1.6936  0.0147 -1.2466
 1315SOL    HW215405   2.207   1.288   7.442 -0.8191 -1.1414  0.4195
 1316SOL     OW15406   0.058   2.562   7.126 -0.1050 -0.2131  0.6830
 1316SOL    HW115407   0.027   2.596   7.043 -0.6286  0.1230  1.0206
 1316SOL    HW215408   0.003   2.616   7.184  0.9199  0.4586  1.0360
 1317SOL     OW15409   0.095   3.540   7.769 -0.1272  0.0151 -0.5242
 1317SOL    HW115410   0.165   3.602   7.749  0.3589 -0.3465  0.0549
 1317SOL    HW215411   0.137   3.507   7.848 -1.3278  0.6061  0.3486
 1318SOL     OW15412   2.512   3.519   2.240 -0.2699  0.2429  0.6384
 1318SOL    HW115413   2.569   3.591   2.267 -0.7736  0.3671  1.4023
 1318SOL    HW215414   2.580   3.463   2.204 -1.4991  0.2372 -1.6958
 1319SOL     OW15415   1.410   0.162  14.162 -0.1584  1.0197 -0.2248
 1319SOL    HW115416   1.354   0.135  14.090 -0.3474 -0.2093  0.3842
 1319SOL    HW215417   1.360   0.235  14.199 -1.6831  0.5706 -1.4136
 1320SOL     OW15418   4.374   4.248   2.265 -0.2569  0.2014 -0.6827
 1320SOL    HW115419   4.282   4.269   2.282 -0.7444 -0.9423 -1.8854
 1320SOL    HW215420   4.388   4.302   2.187  1.2281  1.1675  0.2761
 1321SOL     OW15421   3.458   2.679  14.217  0.2464 -0.8802 -0.4755
 1321SOL    HW115422   3.434   2.747  14.279  1.4404 -2.0600  1.2604
 1321SOL    HW215423   3.407   2.613  14.262 -1.0124  0.5325  0.1460
 1322SOL     OW15424   0.916   1.160  15.973 -0.0131 -0.7174  0.4453
 1322SOL    HW115425   0.915   1.068  15.950 -0.2972 -0.1450 -1.8283
 1322SOL    HW215426   0.993   1.160  16.030  0.6870  1.3139 -0.4737
 1323SOL     OW15427   3.313   3.879  14.318  0.0870  0.2600 -0.3210
 1323SOL    HW115428   3.331   3.954  14.374 -1.3998  1.4108 -1.4085
 1323SOL    HW215429   3.294   3.923  14.235  0.9557  3.6331  1.2842
 1324SOL     OW15430   2.582   2.038   1.141 -0.2147 -0.6914  0.3906
 1324SOL    HW115431   2.617   2.121   1.106 -1.2440 -0.5296 -0.2340
 1324SOL    HW215432   2.651   1.980   1.108  0.0328  1.0779 -2.3019
 1325SOL     OW15433   2.314   2.359   6.041  0.3885  0.0430 -0.4376
 1325SOL    HW115434   2.298   2.454   6.046  1.3789  0.1642  0.4164
 1325SOL    HW215435   2.304   2.338   5.948 -1.1593 -2.0263  0.2271
 1326SOL     OW15436   2.476   0.092   5.207  0.3710 -0.0856  0.0773
 1326SOL    HW115437   2.529   0.121   5.134 -1.2579  2.5287 -0.0656
 1326SOL    HW215438   2.389   0.116   5.174  0.0900  0.3141  1.1077
 1327SOL     OW15439   3.368   0.870  13.013 -0.3481 -0.0769  0.1766
 1327SOL    HW115440   3.299   0.873  12.947  0.6713  2.2378 -0.7902
 1327SOL    HW215441   3.354   0.956  13.052  0.3921 -0.9723  2.4459
 1328SOL     OW15442   1.849   3.908   1.941 -0.5841 -0.1880  0.7655
 1328SOL    HW115443   1.887   3.922   1.854 -1.4907  1.2626  0.6035
 1328SOL    HW215444   1.928   3.923   1.993 -0.8890  2.6459  0.3912
 1329SOL     OW15445   4.575   0.329   1.705 -0.4425 -0.3752  0.2992
 1329SOL    HW115446   4.485   0.345   1.679 -0.2030 -2.2675 -1.7046
 1329SOL    HW215447   4.559   0.274   1.781 -3.3218 -0.7581 -0.5828
 1330SOL     OW15448   0.619   0.244   5.416  0.1966 -0.5998 -0.3312
 1330SOL    HW115449   0.581   0.235   5.503  2.6410 -2.8871  0.4668
 1330SOL    HW215450   0.628   0.339   5.414 -0.3735 -0.5351  0.1968
 1331SOL     OW15451   1.354   3.375  14.946  0.2024 -0.2373 -0.2299
 1331SOL    HW115452   1.371   3.449  15.004 -0.3383  1.4689 -2.2344
 1331SOL    HW215453   1.371   3.410  14.859  1.5760  0.0553  0.1531
 1332SOL     OW15454   3.732   1.056   6.679 -0.2457  0.2664  0.8956
 1332SOL    HW115455   3.761   1.139   6.717  1.0160  0.1767  0.1157
 1332SOL    HW215456   3.691   1.087   6.598  0.1660 -1.8508 -0.1277
 1333SOL     OW15457   0.397   1.413   6.597 -0.3261 -0.4677 -0.2439
 1333SOL    HW115458   0.350   1.333   6.573 -1.4969  0.4087 -0.8447
 1333SOL    HW215459   0.448   1.426   6.517  0.5828  1.5106  0.6543
 1334SOL     OW15460   2.300   2.357   2.882  0.1563 -0.4871  0.1056
 1334SOL    HW115461   2.258   2.273   2.899  2.1320 -1.7174 -1.0723
 1334SOL    HW215462   2.291   2.356   2.786 -0.3671  1.3797  0.1447
 1335SOL     OW15463   2.405   0.413   0.761  0.2137  0.4025  0.6624
 1335SOL    HW115464   2.358   0.463   0.695  4.5743 -0.8501 -3.4383
 1335SOL    HW215465   2.448   0.338   0.720 -1.3030 -2.6182  4.5435
 1336SOL     OW15466   0.433   1.522  14.960 -0.6751 -0.0752 -0.3867
 1336SOL    HW115467   0.484   1.527  15.041 -1.6097  0.3324  0.1837
 1336SOL    HW215468   0.356   1.477  14.994  0.9576 -0.6367  2.5510
 1337SOL     OW15469   2.931   0.850   2.825  0.2950  0.6333  0.3039
 1337SOL    HW115470   2.996   0.879   2.762 -0.4545 -0.3771 -0.9360
 1337SOL    HW215471   2.971   0.797   2.894  0.0321  2.7075  2.0729
 1338SOL     OW15472   0.179   3.013   9.354 -0.2520  0.0584 -0.0597
 1338SOL    HW115473   0.267   3.043   9.376 -0.4368  1.2885 -1.0181
 1338SOL    HW215474   0.188   2.919   9.336 -2.5588  0.0260 -1.0308
 1339SOL     OW15475   3.291   1.883  16.497 -0.0759  0.4423  0.2247
 1339SOL    HW115476   3.338   1.957  16.458 -0.6627  0.6962  0.0109
 1339SOL    HW215477   3.200   1.904  16.481  0.0177  0.7833  0.1443
 1340SOL     OW15478   2.254   3.364   4.006 -0.2676  0.4800  0.3032
 1340SOL    HW115479   2.206   3.311   3.942 -0.4479  0.3028  0.5819
 1340SOL    HW215480   2.269   3.294   4.069 -2.2004 -2.1289 -2.1217
 1341SOL     OW15481   3.892   2.590   7.191  0.0375 -0.1982 -0.0339
 1341SOL    HW115482   3.807   2.630   7.174  0.7367 -0.3198 -3.8825
 1341SOL    HW215483   3.885   2.495   7.196 -2.0671  0.0157  0.8125
 1342SOL     OW15484   0.216   0.144   9.595 -0.2336  0.3853  0.1510
 1342SOL    HW115485   0.195   0.053   9.575  0.5536  0.0801  0.7278
 1342SOL    HW215486   0.242   0.174   9.507  3.7397 -1.5082  0.6763
 1343SOL     OW15487   1.009   0.223   6.634  0.0443 -0.1354  0.6084
 1343SOL    HW115488   1.089   0.247   6.586 -1.0311  0.7680 -0.7479
 1343SOL    HW215489   0.941   0.253   6.573  3.6828  0.6915 -3.0540
 1344SOL     OW15490   0.911   4.500   3.533  0.6949  0.0685  0.6906
 1344SOL    HW115491   0.882   4.581   3.490  1.3309  1.0646  2.1117
 1344SOL    HW215492   0.953   4.534   3.612 -0.5563 -2.3061  2.3908
 1345SOL     OW15493   3.485   1.590   8.433  0.5238  0.3596  0.1952
 1345SOL    HW115494   3.553   1.533   8.398  0.2128 -0.6722  1.2931
 1345SOL    HW215495   3.454   1.639   8.357  0.7205 -0.7614 -0.6207
 1346SOL     OW15496   2.228   4.136  15.791  0.5104  0.1231 -0.2339
 1346SOL    HW115497   2.280   4.191  15.732  2.6279 -0.2287  1.3127
 1346SOL    HW215498   2.164   4.195  15.830 -1.3893 -1.0915 -1.4964
 1347SOL     OW15499   0.556   2.064   8.766 -0.4022  0.5770 -0.5094
 1347SOL    HW115500   0.557   2.067   8.862 -1.3441 -0.4354 -0.4689
 1347SOL    HW215501   0.472   2.106   8.749 -0.5837 -0.1211 -1.3177
 1348SOL     OW15502   0.902   4.534   2.794 -0.3142  0.1728  0.5159
 1348SOL    HW115503   0.956   4.488   2.859 -0.8607 -0.2218  0.6883
 1348SOL    HW215504   0.912   4.493   2.708  1.2691  1.4515  0.0927
 1349SOL     OW15505   3.347   3.479   7.621  0.0581  0.1517  0.1490
 1349SOL    HW115506   3.425   3.532   7.634  0.9878 -1.1520 -0.2203
 1349SOL    HW215507   3.321   3.487   7.529  0.8962 -0.2786 -0.1251
 1350SOL     OW15508   4.031   0.053   5.707 -0.2534 -0.3375  0.2816
 1350SOL    HW115509   4.099   0.027   5.768  1.0720  1.3988 -0.4653
 1350SOL    HW215510   3.966   0.086   5.769  2.2615  0.4476  2.4789
 1351SOL     OW15511   3.432   2.159  10.844 -0.1343  0.4152  0.4748
 1351SOL    HW115512   3.488   2.129  10.772  0.2343 -0.6745  1.2189
 1351SOL    HW215513   3.347   2.152  10.799 -0.0584 -0.4218  0.4651
 1352SOL     OW15514   2.826   0.155  10.801 -0.4420  0.7452 -0.4221
 1352SOL    HW115515   2.843   0.084  10.740  0.3900  3.3281 -3.2205
 1352SOL    HW215516   2.732   0.140  10.816 -0.2139  0.9488  1.3012
 1353SOL     OW15517   3.023   4.093   4.681  0.1827 -0.4407  0.4015
 1353SOL    HW115518   2.986   4.007   4.660 -0.1769 -0.3169  0.5393
 1353SOL    HW215519   2.978   4.146   4.615  1.2208  0.0269  0.0670
 1354SOL     OW15520   2.472   0.442   9.415 -0.2468  0.5492  0.9703
 1354SOL    HW115521   2.418   0.448   9.494  0.5697  0.2446  1.5575
 1354SOL    HW215522   2.559   0.475   9.438  0.7012 -1.1575 -0.1749
 1355SOL     OW15523   2.882   2.948  16.521 -0.0863  0.4492 -0.0788
 1355SOL    HW115524   2.968   2.911  16.541 -2.1173 -1.7538  4.4915
 1355SOL    HW215525   2.821   2.914  16.586  0.6934 -0.4885  0.1699
 1356SOL     OW15526   4.206   3.754   5.444  0.3352  0.4001  0.1001
 1356SOL    HW115527   4.290   3.789   5.412  0.7471 -0.3493  0.3562
 1356SOL    HW215528   4.144   3.823   5.422  1.1707  1.2303  0.3541
 1357SOL     OW15529   2.951   2.948  17.680  0.3088 -1.0980  0.0059
 1357SOL    HW115530   2.860   2.949  17.651  0.9455 -1.1760 -1.9822
 1357SOL    HW215531   2.999   2.969  17.600 -3.2956  1.7270 -1.4016
 1358SOL     OW15532   3.007   1.744   4.580 -0.0645  0.2343  0.1149
 1358SOL    HW115533   2.993   1.650   4.576  2.7389 -0.1323 -1.2763
 1358SOL    HW215534   2.939   1.771   4.641  0.3695  1.4392  0.0687
 1359SOL     OW15535   3.789   2.176   3.256 -0.1078  0.2009 -0.1484
 1359SOL    HW115536   3.701   2.138   3.254  0.3791 -0.7611 -4.1611
 1359SOL    HW215537   3.825   2.117   3.322  0.4653  1.6344  0.8252
 1360SOL     OW15538   1.934   0.113   2.288 -0.1884  0.6921 -0.0781
 1360SOL    HW115539   2.001   0.122   2.356 -0.4124 -0.3498  0.2826
 1360SOL    HW215540   1.894   0.026   2.297  3.0371 -0.7909 -0.1495
 1361SOL     OW15541   0.729   3.594  12.966  0.5741  0.3464 -0.3002
 1361SOL    HW115542   0.732   3.684  12.934 -2.0561 -0.2633 -2.2924
 1361SOL    HW215543   0.820   3.566  12.955  0.7313 -0.4544  2.9577
 1362SOL     OW15544   0.487   4.644  17.225  0.0784 -0.1645  0.0942
 1362SOL    HW115545   0.554   4.711  17.213  0.6306 -0.4584  1.6427
 1362SOL    HW215546   0.539   4.568  17.251 -0.7478 -0.9730 -0.5941
 1363SOL     OW15547   1.132   0.512   6.599 -0.0543  0.3860  0.2756
 1363SOL    HW115548   1.066   0.512   6.531 -0.3039  0.1001  0.5151
 1363SOL    HW215549   1.177   0.430   6.579  1.5237  1.2816  0.0962
 1364SOL     OW15550   1.983   3.919   6.744 -0.0091 -0.2446  0.2716
 1364SOL    HW115551   1.944   3.902   6.658 -1.2499  1.8182  0.4424
 1364SOL    HW215552   1.995   3.836   6.791 -2.7197  0.0232  1.4828
 1365SOL     OW15553   0.699   2.487  13.422  0.3578 -0.5654 -0.1321
 1365SOL    HW115554   0.634   2.550  13.390 -0.1398 -0.6003  0.8176
 1365SOL    HW215555   0.653   2.438  13.490  1.1694 -0.6271  0.3804
 1366SOL     OW15556   2.628   1.993   8.081 -0.8786 -0.3242  0.3214
 1366SOL    HW115557   2.625   1.921   8.144 -0.9361 -0.1972  0.4626
 1366SOL    HW215558   2.695   2.046   8.123 -0.2334 -0.3570 -0.6671
 1367SOL     OW15559   0.521   4.562   4.955  0.5775 -0.2936 -0.1616
 1367SOL    HW115560   0.603   4.604   4.928  0.9274 -1.8429 -1.5414
 1367SOL    HW215561   0.468   4.581   4.878  0.9328 -0.7109 -0.5083
 1368SOL     OW15562   0.813   2.191  12.264  0.0076  0.4153 -0.0631
 1368SOL    HW115563   0.895   2.227  12.296 -0.1218 -1.9634  2.9984
 1368SOL    HW215564   0.763   2.267  12.294  2.2142  1.5182  0.7758
 1369SOL     OW15565   0.674   2.671   6.523  0.1237  0.3795 -0.5322
 1369SOL    HW115566   0.585   2.702   6.506 -0.6159 -1.3976  0.1529
 1369SOL    HW215567   0.686   2.684   6.617  2.2090 -3.2433 -0.3202
 1370SOL     OW15568   4.415   2.521   8.755 -0.0894  0.2097 -0.3913
 1370SOL    HW115569   4.508   2.516   8.730 -0.7431 -1.1858 -2.4992
 1370SOL    HW215570   4.394   2.614   8.747 -3.8589 -0.5703  0.6872
 1371SOL     OW15571   0.057   0.048  14.618  0.5540 -0.1879  0.4487
 1371SOL    HW115572   4.717   0.051  14.547  1.5499  0.9934 -0.4030
 1371SOL    HW215573   0.014   0.122  14.662 -0.1729 -1.2036  1.4344
 1372SOL     OW15574   1.735   0.833   0.854 -0.2681  0.4341  0.1815
 1372SOL    HW115575   1.779   0.866   0.776 -1.3543  0.1615 -0.5434
 1372SOL    HW215576   1.647   0.811   0.825 -0.8996  2.2305  0.7355
 1373SOL     OW15577   4.514   2.781   4.378  0.4327 -0.3081 -0.1584
 1373SOL    HW115578   4.511   2.866   4.422  0.3698 -0.4798  0.1705
 1373SOL    HW215579   4.454   2.740   4.440  2.3128 -2.4126  0.2662
 1374SOL     OW15580   1.224   4.252  10.957  0.2241  0.8534 -0.1913
 1374SOL    HW115581   1.248   4.200  11.034 -2.2135 -0.2703 -0.1922
 1374SOL    HW215582   1.298   4.238  10.898 -0.4678 -2.1742 -0.2994
 1375SOL     OW15583   2.780   1.098   3.467 -0.1602 -0.3324  0.1225
 1375SOL    HW115584   2.852   1.035   3.464  1.4213  1.3509  3.1293
 1375SOL    HW215585   2.704   1.046   3.441  1.2509 -1.7221 -1.3017
 1376SOL     OW15586   3.982   0.930   4.826  0.0136 -0.2376 -0.3606
 1376SOL    HW115587   3.897   0.925   4.869 -0.5472 -0.0354 -1.4276
 1376SOL    HW215588   4.031   0.924   4.907  0.7970  0.5640 -0.7778
 1377SOL     OW15589   3.083   4.132   4.235  0.3141 -0.2902  0.1294
 1377SOL    HW115590   3.165   4.082   4.228 -0.3559 -1.8830  3.6927
 1377SOL    HW215591   3.115   4.219   4.209  0.7607 -0.4037  0.2878
 1378SOL     OW15592   2.628   3.703  14.762  0.3358 -0.7789  0.4492
 1378SOL    HW115593   2.650   3.623  14.715  1.8507  0.3928 -0.8603
 1378SOL    HW215594   2.543   3.727  14.726  1.3570 -0.1500 -1.5662
 1379SOL     OW15595   2.392   0.057  11.174  0.0758  0.0649 -0.0458
 1379SOL    HW115596   2.321   0.010  11.130  1.5112 -0.0963 -2.2076
 1379SOL    HW215597   2.380   0.140  11.129  0.9791 -1.0983 -2.4039
 1380SOL     OW15598   3.372   0.869   1.670  0.2858  0.6039 -0.5875
 1380SOL    HW115599   3.305   0.926   1.631 -1.3884 -0.5701  0.5191
 1380SOL    HW215600   3.363   0.878   1.765 -1.2723  0.5097 -0.7209
 1381SOL     OW15601   3.311   0.969   4.604 -0.1882 -0.2376 -0.3064
 1381SOL    HW115602   3.346   0.985   4.691 -0.5481 -0.8042 -0.0587
 1381SOL    HW215603   3.228   0.924   4.620 -1.0372  1.4738  0.0799
 1382SOL     OW15604   2.802   3.242   8.308 -0.3034  0.5107  0.0755
 1382SOL    HW115605   2.733   3.257   8.243 -0.8159  0.7430  0.6729
 1382SOL    HW215606   2.836   3.153   8.303  0.5925  0.8880 -0.6634
 1383SOL     OW15607   2.083   1.077  13.841  0.6323 -0.2221  0.1110
 1383SOL    HW115608   2.162   1.089  13.894  0.4256  3.2073 -0.3817
 1383SOL    HW215609   2.053   0.998  13.885 -2.5455  0.1169 -1.4507
 1384SOL     OW15610   2.973   2.967   4.186  0.2444  0.1474  0.4184
 1384SOL    HW115611   3.019   2.886   4.205 -1.1199 -1.2306 -2.2097
 1384SOL    HW215612   2.883   2.937   4.197  1.1635 -2.5597  0.3716
 1385SOL     OW15613   2.776   3.123   4.368 -0.2481  0.3111 -0.5426
 1385SOL    HW115614   2.752   3.212   4.341 -2.3975 -0.1397 -0.1524
 1385SOL    HW215615   2.851   3.146   4.423  0.5609 -0.3905 -1.3535
 1386SOL     OW15616   4.016   4.188   8.955  0.3483 -0.3672  0.0326
 1386SOL    HW115617   4.107   4.217   8.969 -0.0780  0.2786  1.4311
 1386SOL    HW215618   4.011   4.180   8.860  0.1621  0.1623  0.0004
 1387SOL     OW15619   4.111   3.073   8.571 -0.4330  0.0769  0.0909
 1387SOL    HW115620   4.037   3.069   8.632  0.8773  1.9055  1.7913
 1387SOL    HW215621   4.066   3.107   8.493 -1.4702  0.1129  0.7077
 1388SOL     OW15622   3.613   2.829   2.795 -0.3844 -0.4388  0.2957
 1388SOL    HW115623   3.646   2.779   2.870  1.3326 -0.2352 -0.3398
 1388SOL    HW215624   3.595   2.906   2.849 -1.4363  1.3120 -2.5587
 1389SOL     OW15625   3.721   1.282   6.005  0.3452 -0.4790  0.4018
 1389SOL    HW115626   3.715   1.371   6.039 -1.0343 -0.8201  1.0667
 1389SOL    HW215627   3.634   1.250   6.029  0.4402 -1.8702 -1.1279
 1390SOL     OW15628   2.949   0.275   1.153 -0.0658 -0.1276 -0.4492
 1390SOL    HW115629   2.949   0.371   1.160 -0.2920 -0.1587  0.0198
 1390SOL    HW215630   3.043   0.265   1.142  0.0298  0.8479 -0.5161
 1391SOL     OW15631   1.547   4.197   3.056  0.3650  0.1129  0.6335
 1391SOL    HW115632   1.524   4.104   3.052  0.0699  0.2389 -0.5327
 1391SOL    HW215633   1.523   4.221   2.967 -1.6816 -1.8489  0.6540
 1392SOL     OW15634   3.767   4.355   8.992  0.0659 -0.1579  0.1236
 1392SOL    HW115635   3.707   4.322   8.924  0.5206 -1.2156  0.2354
 1392SOL    HW215636   3.852   4.314   8.976  0.8828  1.3676  0.5321
 1393SOL     OW15637   3.991   4.143   4.956  0.3968 -0.6005 -0.3948
 1393SOL    HW115638   4.067   4.200   4.967 -2.1106  2.5889  0.3955
 1393SOL    HW215639   3.928   4.213   4.974  0.2373 -0.5425 -1.2026
 1394SOL     OW15640   4.395   1.308  10.331 -0.6503  0.3592  0.2326
 1394SOL    HW115641   4.422   1.253  10.257 -0.2307 -0.9887  1.3740
 1394SOL    HW215642   4.312   1.269  10.358 -1.6165  1.4726 -1.1035
 1395SOL     OW15643   0.351   4.209   8.118  0.4118 -0.3891  0.5623
 1395SOL    HW115644   0.344   4.120   8.082 -1.2772 -0.8374  2.0294
 1395SOL    HW215645   0.410   4.237   8.048 -0.1961 -1.5795 -0.4390
 1396SOL     OW15646   0.083   3.429  13.812 -0.2051 -0.1396  0.0552
 1396SOL    HW115647   0.001   3.380  13.810 -1.2376  1.5382  0.9151
 1396SOL    HW215648   0.084   3.481  13.731  1.6692  1.2594  0.9679
 1397SOL     OW15649   4.534   3.851   7.928 -0.3241  0.2966  0.3015
 1397SOL    HW115650   4.509   3.881   8.015  1.5351 -0.9592  1.2598
 1397SOL    HW215651   4.485   3.912   7.872 -0.5339  0.0849  0.2567
 1398SOL     OW15652   1.165   4.655   3.531 -0.0071 -0.1077 -0.3966
 1398SOL    HW115653   1.260   4.647   3.534 -0.1267 -0.7428  2.5087
 1398SOL    HW215654   1.157   0.002   3.594  1.0663  0.2261 -0.6522
 1399SOL     OW15655   1.763   4.495  15.270 -0.2161  0.3640 -0.3814
 1399SOL    HW115656   1.782   4.420  15.326 -0.4985  1.0680  0.6454
 1399SOL    HW215657   1.845   4.498  15.220  0.4764 -1.5620  0.6092
 1400SOL     OW15658   0.299   1.646   9.412 -0.2099 -0.7140 -0.2450
 1400SOL    HW115659   0.250   1.564   9.405  0.0529 -0.8228 -0.7702
 1400SOL    HW215660   0.228   1.683   9.466  0.1279  0.1844 -0.4179
 1401SOL     OW15661   0.935   0.791  17.267  1.0385 -0.4659  0.0275
 1401SOL    HW115662   0.971   0.862  17.214  1.6679 -0.9479 -0.1917
 1401SOL    HW215663   0.928   0.718  17.206 -0.0537 -0.6934  0.4224
 1402SOL     OW15664   4.234   2.142   2.592  0.1413 -0.0438 -0.1949
 1402SOL    HW115665   4.272   2.207   2.651 -1.0290 -0.6096  1.1740
 1402SOL    HW215666   4.260   2.175   2.506 -0.1153 -0.8072 -0.5677
 1403SOL     OW15667   1.740   3.786   4.613 -0.4992 -0.1779  0.1073
 1403SOL    HW115668   1.669   3.774   4.551  0.7804 -1.8167 -1.0522
 1403SOL    HW215669   1.720   3.714   4.673  0.5734  0.5239  1.3237
 1404SOL     OW15670   4.183   0.831   6.188 -0.0475 -0.0012 -0.7178
 1404SOL    HW115671   4.172   0.837   6.283  0.8284  1.0429 -0.6835
 1404SOL    HW215672   4.184   0.735   6.192 -1.0712  0.0460  0.5985
 1405SOL     OW15673   3.897   0.162   2.266  0.3481  0.4923 -0.2672
 1405SOL    HW115674   3.950   0.172   2.187 -0.4310  0.9309 -0.7322
 1405SOL    HW215675   3.832   0.108   2.222  0.3553  0.1186  0.1830
 1406SOL     OW15676   4.356   1.118  10.714  0.5330  0.0810  0.9705
 1406SOL    HW115677   4.384   1.203  10.682 -0.3773 -0.3139 -0.8901
 1406SOL    HW215678   4.341   1.070  10.632  1.7359  0.0628  0.7550
 1407SOL     OW15679   3.864   3.387   0.540 -0.1344  0.1000  0.2120
 1407SOL    HW115680   3.910   3.333   0.476  1.0022  0.3226  0.8514
 1407SOL    HW215681   3.779   3.383   0.497  0.0761  1.7493 -0.3648
 1408SOL     OW15682   4.489   2.627  11.580  0.6812 -0.2152  0.1223
 1408SOL    HW115683   4.474   2.648  11.673 -0.0050  1.4178 -0.3556
 1408SOL    HW215684   4.398   2.623  11.551  0.4365 -0.3592  0.9182
 1409SOL     OW15685   2.353   0.592  17.177  0.4284 -0.3463 -0.7393
 1409SOL    HW115686   2.260   0.577  17.193  0.4706 -0.1609 -0.3324
 1409SOL    HW215687   2.384   0.502  17.170 -0.9339 -0.8788  0.0992
 1410SOL     OW15688   0.207   1.866   3.082 -0.9057 -0.3084  0.1599
 1410SOL    HW115689   0.214   1.906   3.169 -1.6536  4.2409 -1.8554
 1410SOL    HW215690   0.278   1.801   3.085 -1.4426 -0.9136 -0.4230
 1411SOL     OW15691   2.388   2.316  17.608 -0.6193  0.5316  0.3956
 1411SOL    HW115692   2.316   2.303  17.671 -0.6321 -1.3078  0.0072
 1411SOL    HW215693   2.391   2.412  17.604 -1.4298  0.5784  0.7947
 1412SOL     OW15694   3.210   4.498   8.120 -0.1722 -0.0377 -0.6462
 1412SOL    HW115695   3.242   4.410   8.138 -0.1802 -0.4732 -2.7518
 1412SOL    HW215696   3.171   4.512   8.206 -0.4664 -1.4327 -0.5534
 1413SOL     OW15697   3.389   4.358   4.415  0.4101  0.3859 -0.3767
 1413SOL    HW115698   3.360   4.271   4.440  2.0372  0.1685  0.8056
 1413SOL    HW215699   3.433   4.338   4.332 -0.0441  0.4143 -0.6207
 1414SOL     OW15700   0.332   2.322   6.197 -0.2008 -0.2120  0.3596
 1414SOL    HW115701   0.320   2.389   6.130 -0.5649  0.7578  1.3885
 1414SOL    HW215702   0.372   2.375   6.266  0.8800  1.5108 -1.6097
 1415SOL     OW15703   0.952   3.090   2.842  1.0059 -0.0512 -0.2256
 1415SOL    HW115704   0.964   3.119   2.752 -1.3183  2.1411  0.1710
 1415SOL    HW215705   0.857   3.104   2.850  0.6110 -1.7522 -2.1197
 1416SOL     OW15706   1.950   2.085   2.114  0.0721  0.1649  0.2700
 1416SOL    HW115707   1.917   2.173   2.095 -0.7527  0.2504  2.0343
 1416SOL    HW215708   1.897   2.033   2.054  0.9882  0.8852 -1.1454
 1417SOL     OW15709   0.533   4.240   2.851  0.7560 -0.4440  0.6367
 1417SOL    HW115710   0.552   4.326   2.888 -2.6381  0.4176  0.4420
 1417SOL    HW215711   0.621   4.207   2.836  0.7406 -1.3005  2.3618
 1418SOL     OW15712   3.477   3.570   1.589 -0.3194  0.2204  0.2767
 1418SOL    HW115713   3.479   3.653   1.541 -1.7992 -0.0562 -0.2462
 1418SOL    HW215714   3.571   3.553   1.599 -0.4946  0.0853  1.5831
 1419SOL     OW15715   3.166   4.079   6.943 -0.0447  0.1677  0.1432
 1419SOL    HW115716   3.158   4.045   7.032 -0.0702  1.8296  0.7674
 1419SOL    HW215717   3.261   4.074   6.932 -0.2349  1.0699 -1.9700
 1420SOL     OW15718   2.600   1.548  13.134 -0.2671  0.2490 -0.0731
 1420SOL    HW115719   2.521   1.499  13.157 -0.8176  0.9700 -0.4265
 1420SOL    HW215720   2.647   1.546  13.217  0.0254  0.0149 -0.2493
 1421SOL     OW15721   4.096   3.272   5.331 -0.5600  0.0878  0.4833
 1421SOL    HW115722   4.169   3.331   5.347  0.7059 -1.6695  1.2216
 1421SOL    HW215723   4.062   3.251   5.418 -2.6614  0.3954 -0.2639
 1422SOL     OW15724   4.302   2.415  15.787 -0.1640  0.1941  0.6908
 1422SOL    HW115725   4.232   2.350  15.786 -0.1123  0.1163  3.8504
 1422SOL    HW215726   4.255   2.494  15.762 -0.4187 -0.1771  0.0020
 1423SOL     OW15727   1.175   2.616   2.822  0.0930  0.0833 -0.0024
 1423SOL    HW115728   1.085   2.635   2.850  0.3042  1.5637 -0.3666
 1423SOL    HW215729   1.165   2.633   2.728 -0.3381  1.7702  0.3460
 1424SOL     OW15730   1.974   0.379  12.498  0.2051 -0.0955 -0.4590
 1424SOL    HW115731   1.984   0.320  12.572 -1.7703  0.0661 -0.0842
 1424SOL    HW215732   1.879   0.374  12.492  0.0744  0.8614  0.9058
 1425SOL     OW15733   0.564   3.020  12.452 -0.2959 -0.0657 -0.0394
 1425SOL    HW115734   0.598   2.954  12.512 -1.1756  1.2630  1.9194
 1425SOL    HW215735   0.630   3.005  12.384  0.5252 -0.4596  0.8536
 1426SOL     OW15736   1.117   2.096   8.223  0.1182  0.1227  0.9619
 1426SOL    HW115737   1.063   2.040   8.279  0.8097 -0.6407  0.8627
 1426SOL    HW215738   1.204   2.070   8.251  0.8527 -0.8826 -2.1880
 1427SOL     OW15739   3.681   1.342   5.600  0.3057 -0.8743  0.8063
 1427SOL    HW115740   3.743   1.317   5.532  0.4212  1.4416  0.0676
 1427SOL    HW215741   3.743   1.355   5.673 -0.6550  0.7391  1.3352
 1428SOL     OW15742   3.014   0.661  11.902 -0.5960  0.3346 -0.5218
 1428SOL    HW115743   3.050   0.735  11.853 -1.9251 -0.0369 -2.0538
 1428SOL    HW215744   2.982   0.613  11.826  0.7795  0.0136 -0.9037
 1429SOL     OW15745   2.460   4.439   6.236  0.4919  0.0858  0.0856
 1429SOL    HW115746   2.545   4.405   6.208  0.7208  0.9274 -0.2352
 1429SOL    HW215747   2.457   4.528   6.202  0.6777 -0.2351 -0.7834
 1430SOL     OW15748   1.719   1.683   4.039 -0.3589  0.0466 -0.3498
 1430SOL    HW115749   1.801   1.654   4.079  0.5229 -2.1319 -3.7562
 1430SOL    HW215750   1.751   1.686   3.949 -0.4257  0.9597 -0.3457
 1431SOL     OW15751   2.369   4.099   4.171  0.2127 -0.4191 -0.2116
 1431SOL    HW115752   2.366   4.188   4.138  1.0909 -0.5629 -0.6857
 1431SOL    HW215753   2.422   4.108   4.250 -2.6121  0.5821  1.5699
 1432SOL     OW15754   3.733   4.303  15.679 -0.4859 -0.5418 -0.0276
 1432SOL    HW115755   3.773   4.337  15.759 -0.4519 -0.5215 -0.0537
 1432SOL    HW215756   3.810   4.293  15.623 -1.2472 -1.2438 -0.9516
 1433SOL     OW15757   4.321   1.398   6.637  0.3049  0.4183 -0.4254
 1433SOL    HW115758   4.373   1.342   6.581  0.3112  0.2269 -0.2271
 1433SOL    HW215759   4.367   1.421   6.718  0.8620 -2.1253 -0.0429
 1434SOL     OW15760   0.004   4.720   6.844  0.2439  0.0382  0.5001
 1434SOL    HW115761   4.695   0.069   6.896  0.1576 -0.2319  0.8283
 1434SOL    HW215762   0.078   4.692   6.898 -0.3087 -1.8412  0.2715
 1435SOL     OW15763   2.762   1.910  12.939  0.2101 -0.0102 -0.4492
 1435SOL    HW115764   2.761   1.913  12.843 -0.7697 -2.0977 -0.5029
 1435SOL    HW215765   2.842   1.959  12.958  0.6322  0.2132 -2.7587
 1436SOL     OW15766   2.486   1.839   6.531  0.1671 -0.9498  0.1643
 1436SOL    HW115767   2.566   1.866   6.577  1.4577  0.1530 -2.7551
 1436SOL    HW215768   2.472   1.915   6.474  2.3099  0.7671  1.9265
 1437SOL     OW15769   0.615   1.028   1.525 -0.2385 -0.2190 -0.2806
 1437SOL    HW115770   0.587   0.940   1.499 -0.4773  0.2063 -1.5198
 1437SOL    HW215771   0.632   1.064   1.438 -1.2093  0.4883 -0.1759
 1438SOL     OW15772   1.292   4.556  17.152  0.0284  0.6243  0.1332
 1438SOL    HW115773   1.203   4.520  17.156  0.2570 -0.1096 -1.3296
 1438SOL    HW215774   1.337   4.488  17.202 -0.2524  1.1462  1.1096
 1439SOL     OW15775   1.248   0.789   6.386  0.4417 -0.4172 -0.4398
 1439SOL    HW115776   1.310   0.837   6.331  1.5949 -1.5283 -0.1214
 1439SOL    HW215777   1.204   0.749   6.311  1.3928  1.6565 -2.0863
 1440SOL     OW15778   4.616   2.260   8.066 -0.2203  0.0617  0.4391
 1440SOL    HW115779   4.542   2.317   8.045  1.8089  2.5462  0.0063
 1440SOL    HW215780   4.673   2.328   8.102 -0.9696  0.0475  1.6380
 1441SOL     OW15781   2.701   3.926   5.878  0.2782 -0.1391  0.0272
 1441SOL    HW115782   2.716   3.957   5.967 -0.7986  1.0612 -0.2109
 1441SOL    HW215783   2.760   3.851   5.883 -0.0246 -0.3878 -0.1288
 1442SOL     OW15784   1.913   1.355  17.210 -0.0789 -0.1131  0.4448
 1442SOL    HW115785   1.977   1.286  17.196 -0.1498  0.0658 -0.7194
 1442SOL    HW215786   1.920   1.361  17.306 -1.5117  1.3176  0.4637
 1443SOL     OW15787   0.035   4.031   2.756  0.7253  0.4235 -0.0541
 1443SOL    HW115788   0.117   3.985   2.736  2.5137  4.5303 -2.0378
 1443SOL    HW215789   0.025   4.018   2.850  0.2153  3.5123  0.3137
 1444SOL     OW15790   2.852   0.247  11.310  0.3765 -0.0195  0.2726
 1444SOL    HW115791   2.785   0.211  11.251 -2.2996  1.8998  2.1562
 1444SOL    HW215792   2.805   0.321  11.347 -0.1001 -0.2279  0.0968
 1445SOL     OW15793   4.498   4.622   2.420 -0.2437  0.7681 -0.0131
 1445SOL    HW115794   4.545   4.657   2.344 -0.3835  1.2639  0.1260
 1445SOL    HW215795   4.445   4.700   2.440 -1.9315 -0.3527 -0.1818
 1446SOL     OW15796   2.587   2.986   2.388  0.0599 -0.2935 -0.0449
 1446SOL    HW115797   2.565   2.961   2.298  1.8861  0.0718 -0.5858
 1446SOL    HW215798   2.498   3.017   2.404 -0.2244 -1.3439  0.4137
 1447SOL     OW15799   3.709   3.030   6.875  0.5309 -0.1514 -0.5419
 1447SOL    HW115800   3.679   3.073   6.795  1.4366  1.6082  0.0707
 1447SOL    HW215801   3.787   2.989   6.838  2.3884  0.7281  2.4762
 1448SOL     OW15802   0.705   0.775   1.685  0.3681  0.2000 -0.1102
 1448SOL    HW115803   0.753   0.721   1.748 -0.4106 -1.0295 -0.5707
 1448SOL    HW215804   0.774   0.828   1.645  1.3463 -0.7428  0.3387
 1449SOL     OW15805   3.489   1.943   2.861 -0.4788 -0.1571  0.0662
 1449SOL    HW115806   3.455   1.902   2.781  1.0097 -0.8865 -0.1919
 1449SOL    HW215807   3.565   1.986   2.822 -1.2248  0.0361 -1.1843
 1450SOL     OW15808   3.952   4.231   0.065  0.3973  0.4907 -0.2990
 1450SOL    HW115809   3.978   4.270  17.680  2.4765  1.6348  0.8876
 1450SOL    HW215810   3.954   4.312   0.116  0.2356  0.4079 -0.1604
 1451SOL     OW15811   1.624   0.665   1.441  0.2070  0.2579 -0.0499
 1451SOL    HW115812   1.591   0.577   1.422  0.5455  0.5583 -2.0032
 1451SOL    HW215813   1.693   0.679   1.376 -0.9036  0.1782 -1.2482
 1452SOL     OW15814   0.832   3.270  13.160 -1.0476  0.1038  0.2617
 1452SOL    HW115815   0.788   3.302  13.239 -0.1386 -0.0199  0.8192
 1452SOL    HW215816   0.772   3.204  13.124  1.0544 -0.4065 -2.3085
 1453SOL     OW15817   3.331   2.110   3.208  0.6501  0.5921  0.0883
 1453SOL    HW115818   3.334   2.035   3.149  0.6042  1.1475 -0.6224
 1453SOL    HW215819   3.239   2.136   3.198  1.0029  1.1740 -1.7140
 1454SOL     OW15820   3.097   3.694   6.320 -0.5592 -0.1158  0.0781
 1454SOL    HW115821   3.090   3.654   6.233  0.3417 -0.4218  0.1455
 1454SOL    HW215822   3.038   3.769   6.312  0.1016  0.7180  3.0419
 1455SOL     OW15823   2.485   0.753   4.423  0.2022 -0.2776 -0.3525
 1455SOL    HW115824   2.556   0.761   4.486 -0.8390  0.1624  0.7624
 1455SOL    HW215825   2.493   0.662   4.393  0.4860 -0.3637 -0.0209
 1456SOL     OW15826   3.777   0.093  11.357  0.2576 -0.0523 -0.4068
 1456SOL    HW115827   3.716   0.117  11.427  0.5470  0.7248 -0.4183
 1456SOL    HW215828   3.844   0.047  11.407  0.8940  1.5261  0.1830
 1457SOL     OW15829   0.147   4.212   2.538 -0.0683 -0.1232 -0.4537
 1457SOL    HW115830   0.105   4.165   2.610  0.2885 -1.1039 -0.8919
 1457SOL    HW215831   0.187   4.289   2.579 -1.1867 -0.0198  0.4530
 1458SOL     OW15832   3.452   1.602   5.884 -0.2359 -0.3342  0.0187
 1458SOL    HW115833   3.524   1.571   5.940 -0.1839 -0.1666  0.0436
 1458SOL    HW215834   3.497   1.617   5.801  1.7108 -1.7944  0.7994
 1459SOL     OW15835   2.159   4.223   7.112 -0.1247  0.1313 -0.6856
 1459SOL    HW115836   2.109   4.164   7.055 -1.2676 -1.3719  1.9096
 1459SOL    HW215837   2.167   4.166   7.188  1.3896  1.1710 -0.0672
 1460SOL     OW15838   4.240   2.117   7.222  0.3969 -0.6348 -0.4278
 1460SOL    HW115839   4.145   2.103   7.223  0.5467 -1.4402  1.6085
 1460SOL    HW215840   4.275   2.032   7.196  0.2300 -0.6683 -0.5423
 1461SOL     OW15841   2.814   0.979  11.523 -0.3140  0.5046 -0.2732
 1461SOL    HW115842   2.900   0.980  11.480  0.0132 -2.0786  0.3204
 1461SOL    HW215843   2.799   1.073  11.525 -0.6838  0.3967  2.1938
 1462SOL     OW15844   2.447   0.698   4.092 -0.3338  0.5080  0.3216
 1462SOL    HW115845   2.432   0.666   4.181 -1.3140  5.7203  2.0777
 1462SOL    HW215846   2.443   0.794   4.093 -1.7442  0.4603  0.1939
 1463SOL     OW15847   1.405   3.061   4.441  0.0963 -0.0944  0.3087
 1463SOL    HW115848   1.359   3.027   4.364  3.0740 -1.8964 -0.6761
 1463SOL    HW215849   1.324   3.072   4.492  0.5213 -0.5330  1.0713
 1464SOL     OW15850   0.722   0.563   7.828  0.2897 -0.4805  0.0916
 1464SOL    HW115851   0.778   0.494   7.791  2.7354  1.0655  0.8722
 1464SOL    HW215852   0.761   0.644   7.795  0.6613 -1.9011 -2.9157
 1465SOL     OW15853   0.450   0.822   5.038  0.2990  0.2968  0.2950
 1465SOL    HW115854   0.430   0.729   5.039 -0.4741  0.4962  1.7424
 1465SOL    HW215855   0.364   0.862   5.047  0.9377  1.3046  1.8879
 1466SOL     OW15856   0.689   1.407  14.195  0.3003 -0.3069  0.0508
 1466SOL    HW115857   0.708   1.475  14.131 -0.7892  0.1230  0.1925
 1466SOL    HW215858   0.594   1.412  14.200  0.3417 -0.1012  0.7258
 1467SOL     OW15859   4.460   2.107   3.819 -0.2624  0.4540 -0.5844
 1467SOL    HW115860   4.537   2.071   3.775 -0.2415 -1.9053  1.3842
 1467SOL    HW215861   4.476   2.195   3.785  0.2022  0.9161  0.8286
 1468SOL     OW15862   2.969   0.927   6.644  0.2954 -0.2799 -0.6360
 1468SOL    HW115863   2.985   1.000   6.704 -1.3213 -0.0265 -0.5339
 1468SOL    HW215864   2.878   0.935   6.617  0.2345 -1.3549 -0.7581
 1469SOL     OW15865   3.886   1.272   5.798 -0.0104 -0.3038  0.1223
 1469SOL    HW115866   3.972   1.312   5.807 -0.5872  1.1290 -0.7945
 1469SOL    HW215867   3.852   1.283   5.886  3.6233 -0.3448  1.5210
 1470SOL     OW15868   2.492   1.082   5.705  0.2716  0.1215  0.3363
 1470SOL    HW115869   2.504   1.170   5.739 -1.2399 -0.5457  2.5911
 1470SOL    HW215870   2.566   1.044   5.753  1.7488  1.5221 -0.8399
 1471SOL     OW15871   0.839   1.953   4.772  0.7640 -0.1044 -0.0295
 1471SOL    HW115872   0.857   1.981   4.683 -0.2738  0.1832 -0.1533
 1471SOL    HW215873   0.874   2.028   4.820 -2.4545  2.0725 -1.0861
 1472SOL     OW15874   3.486   4.282  15.949 -0.4759 -0.0912 -0.2631
 1472SOL    HW115875   3.542   4.359  15.940 -1.5604  0.6689 -0.5766
 1472SOL    HW215876   3.418   4.323  16.003 -0.0889 -0.6334  0.6408
 1473SOL     OW15877   0.670   0.384   6.933 -0.4121 -0.3527  0.7461
 1473SOL    HW115878   0.627   0.330   6.866  1.2823  0.9938 -1.4212
 1473SOL    HW215879   0.631   0.471   6.924 -1.4929 -0.7198  1.8071
 1474SOL     OW15880   1.662   3.243   7.723 -0.2094  0.0692 -0.1531
 1474SOL    HW115881   1.633   3.318   7.775  1.1437  0.4888  0.0063
 1474SOL    HW215882   1.591   3.181   7.737 -1.7539  2.1734  1.2758
 1475SOL     OW15883   2.307   3.782   9.482  0.3344  0.4145  0.7232
 1475SOL    HW115884   2.212   3.771   9.482  0.5662 -1.5396 -0.0315
 1475SOL    HW215885   2.322   3.873   9.508  0.2810  0.9149 -1.0068
 1476SOL     OW15886   1.959   3.508   1.877  0.5078 -0.1889  0.9016
 1476SOL    HW115887   2.041   3.465   1.855  0.2989 -0.0028 -0.2302
 1476SOL    HW215888   1.982   3.596   1.908 -0.9695  0.4087  0.3107
 1477SOL     OW15889   1.680   1.210   1.943  0.0074 -0.0786  0.0639
 1477SOL    HW115890   1.646   1.122   1.958 -1.8982  0.7316  0.5368
 1477SOL    HW215891   1.603   1.249   1.900  0.4827  0.4499 -0.3018
 1478SOL     OW15892   0.499   3.274  13.924 -0.4770 -0.4827 -0.1782
 1478SOL    HW115893   0.421   3.236  13.883 -2.5642  1.0473  2.3015
 1478SOL    HW215894   0.461   3.359  13.950  1.3949  0.7085 -1.3551
 1479SOL     OW15895   3.871   0.446   3.799  0.4477  0.1306  0.0144
 1479SOL    HW115896   3.838   0.415   3.715 -0.9490 -1.4170  1.1425
 1479SOL    HW215897   3.796   0.433   3.857  0.8405 -0.0183  0.4830
 1480SOL     OW15898   3.645   0.860   9.648  0.2729 -0.6501  0.0311
 1480SOL    HW115899   3.653   0.955   9.652  0.2765 -0.6249 -0.5925
 1480SOL    HW215900   3.572   0.855   9.586  1.1675  0.1303 -1.0743
 1481SOL     OW15901   3.833   0.248   6.382  0.3847  0.2189  0.7729
 1481SOL    HW115902   3.883   0.251   6.463 -0.9404  0.8109  1.5612
 1481SOL    HW215903   3.755   0.198   6.406  0.9589 -1.1572 -0.2043
 1482SOL     OW15904   4.097   1.891   5.801  0.2575  0.0974  0.2528
 1482SOL    HW115905   4.191   1.907   5.790 -0.2414  1.8457 -1.3933
 1482SOL    HW215906   4.076   1.938   5.882  1.7664 -0.6554  1.0699
 1483SOL     OW15907   2.087   4.300   5.165 -1.0244  0.9654  0.1540
 1483SOL    HW115908   2.148   4.282   5.093 -0.9083  1.0594  0.2278
 1483SOL    HW215909   2.005   4.332   5.129 -0.8840 -0.3796 -1.3649
 1484SOL     OW15910   2.508   3.010   3.977  0.4123 -0.5496  0.5054
 1484SOL    HW115911   2.497   3.011   3.882 -0.9010  1.1371  0.6861
 1484SOL    HW215912   2.424   3.042   4.008  0.0088 -0.2406 -0.9289
 1485SOL     OW15913   2.046   2.654   8.255 -0.1035  0.0993  0.0740
 1485SOL    HW115914   2.085   2.667   8.342  1.0454  0.4494 -0.4949
 1485SOL    HW215915   2.113   2.691   8.197  0.6470  1.4014  1.7671
 1486SOL     OW15916   2.747   2.869   0.931  0.2321  0.3245  0.8851
 1486SOL    HW115917   2.702   2.885   1.014 -1.6146 -0.0821 -0.0435
 1486SOL    HW215918   2.686   2.807   0.892 -2.0651  2.6691  0.7473
 1487SOL     OW15919   3.507   2.457   3.389 -0.6852  0.1702 -0.1456
 1487SOL    HW115920   3.487   2.548   3.413 -0.7522 -0.0719  0.7053
 1487SOL    HW215921   3.564   2.429   3.460  1.1228 -0.2191 -1.7416
 1488SOL     OW15922   1.207   4.343   8.811 -0.8804 -0.5698 -0.0544
 1488SOL    HW115923   1.247   4.380   8.890 -1.9869  2.2005 -0.7970
 1488SOL    HW215924   1.140   4.410   8.800 -0.2461  0.2721  1.1635
 1489SOL     OW15925   0.673   0.988  17.524  0.7426  0.0054  0.1314
 1489SOL    HW115926   0.640   0.915  17.576 -1.6927 -0.0573 -1.4796
 1489SOL    HW215927   0.648   1.061  17.581  1.6965  0.1540  0.3584
 1490SOL     OW15928   3.302   0.052   8.925  0.0176  0.2205  0.0106
 1490SOL    HW115929   3.215   0.078   8.957 -0.1118 -2.4426  1.7853
 1490SOL    HW215930   3.324   0.137   8.885 -2.0204  0.8147  0.1257
 1491SOL     OW15931   3.381   1.854   7.256  0.3203  0.2189 -0.7268
 1491SOL    HW115932   3.466   1.898   7.257  0.3783  0.0341  1.1391
 1491SOL    HW215933   3.382   1.799   7.334  0.6913 -0.7565 -1.4192
 1492SOL     OW15934   2.859   1.622  17.547  0.5873  0.1788  0.5701
 1492SOL    HW115935   2.863   1.682  17.623 -1.5747  2.0298 -0.7600
 1492SOL    HW215936   2.801   1.555  17.584  1.9600 -0.4863  1.5084
 1493SOL     OW15937   3.633   4.240   2.921  0.1178  0.0680  0.3808
 1493SOL    HW115938   3.541   4.261   2.937  0.5034  1.5976  0.6536
 1493SOL    HW215939   3.658   4.306   2.857 -3.8455  1.4769  0.2992
 1494SOL     OW15940   3.994   4.145  12.427 -0.1251 -0.3126 -0.1257
 1494SOL    HW115941   3.904   4.114  12.440 -0.7479  1.0425 -1.3089
 1494SOL    HW215942   4.040   4.090  12.490 -1.9540 -0.1640  1.3537
 1495SOL     OW15943   2.803   1.453  14.908  0.2487  0.5479  0.0689
 1495SOL    HW115944   2.802   1.539  14.867  0.4120  0.7216  0.4280
 1495SOL    HW215945   2.783   1.479  14.998 -1.9206  0.0787 -0.2931
 1496SOL     OW15946   0.514   1.005   4.069  0.2361 -0.3527 -0.2863
 1496SOL    HW115947   0.429   1.008   4.025  0.7366 -1.8771 -1.3717
 1496SOL    HW215948   0.525   0.912   4.090 -0.1418 -0.5069 -0.7396
 1497SOL     OW15949   3.768   4.583   7.510 -0.7379 -0.4680  0.0854
 1497SOL    HW115950   3.715   4.585   7.590  1.2155  1.1283  1.3596
 1497SOL    HW215951   3.806   4.670   7.522 -1.3962 -0.2420  0.5057
 1498SOL     OW15952   1.480   3.819   8.589 -0.1411 -0.2938  0.1051
 1498SOL    HW115953   1.559   3.794   8.637  0.3053  0.9831  0.0198
 1498SOL    HW215954   1.495   3.796   8.498  0.3698 -1.0725  0.3879
 1499SOL     OW15955   3.461   4.239  15.133  0.2082 -0.4213 -0.1626
 1499SOL    HW115956   3.542   4.214  15.088 -0.0725  1.3033 -1.6671
 1499SOL    HW215957   3.496   4.271  15.215 -1.2142 -0.2434  0.3770
 1500SOL     OW15958   3.780   2.693   6.546 -0.4542 -0.3547  0.0893
 1500SOL    HW115959   3.848   2.753   6.576  0.8196 -1.0384 -1.4115
 1500SOL    HW215960   3.734   2.668   6.626 -0.6287  0.9684  0.3906
 1501SOL     OW15961   2.228   3.514   9.065 -0.4326 -0.5684  0.3599
 1501SOL    HW115962   2.156   3.567   9.034  1.1117  1.2894 -0.0478
 1501SOL    HW215963   2.277   3.592   9.092 -1.5798  0.1370  0.3668
 1502SOL     OW15964   2.034   2.018   2.660 -0.4821 -0.7161 -0.7773
 1502SOL    HW115965   1.965   1.972   2.708 -1.2829 -0.7644 -1.9708
 1502SOL    HW215966   2.077   2.050   2.739 -0.6190  2.3528 -1.9655
 1503SOL     OW15967   1.518   4.590   4.891 -0.2056 -0.2280  0.0876
 1503SOL    HW115968   1.488   4.616   4.978 -2.7024 -0.7904 -0.6084
 1503SOL    HW215969   1.529   4.497   4.911  3.2717  0.3444  0.7960
 1504SOL     OW15970   0.399   3.593   6.283  0.1333 -0.0945 -0.0422
 1504SOL    HW115971   0.381   3.520   6.343  1.4977  0.1126  0.6273
 1504SOL    HW215972   0.494   3.593   6.290  0.1216 -0.4579  0.1262
 1505SOL     OW15973   0.052   3.119  14.083 -0.5960 -0.6953  0.3950
 1505SOL    HW115974   0.004   3.099  14.163  0.3225 -0.9777  0.8701
 1505SOL    HW215975   0.035   3.213  14.086 -0.5841 -0.5460 -3.3993
 1506SOL     OW15976   4.526   1.745  10.246 -0.2418 -0.1268  0.4507
 1506SOL    HW115977   4.536   1.675  10.310 -1.5931  0.0241  0.8282
 1506SOL    HW215978   4.513   1.813  10.312  2.1625 -0.4883  1.2807
 1507SOL     OW15979   3.784   0.446   8.628 -0.2614  0.0711 -0.3991
 1507SOL    HW115980   3.833   0.527   8.616  1.5802 -1.3420 -2.4902
 1507SOL    HW215981   3.833   0.381   8.578 -0.9892 -0.7676 -0.0269
 1508SOL     OW15982   3.049   3.955  16.827 -0.4236  0.2813 -0.7723
 1508SOL    HW115983   3.091   4.009  16.760  1.3712 -0.1447  0.0157
 1508SOL    HW215984   2.989   4.014  16.873  2.7537  2.5047  0.4629
 1509SOL     OW15985   1.011   4.626   5.809 -0.6685 -0.4430  0.0965
 1509SOL    HW115986   0.953   4.574   5.865 -0.9698 -0.7132 -0.4613
 1509SOL    HW215987   1.084   4.639   5.870  0.5856 -2.4531 -0.9704
 1510SOL     OW15988   2.185   3.097   3.473 -0.0078 -0.1898 -0.0093
 1510SOL    HW115989   2.129   3.159   3.519 -0.2598 -1.3017  1.1825
 1510SOL    HW215990   2.113   3.042   3.443 -1.0027  0.9599  0.2796
 1511SOL     OW15991   4.108   3.921   7.812  0.0829  0.0390 -0.2492
 1511SOL    HW115992   4.036   3.968   7.856  0.2600  0.6290 -0.5899
 1511SOL    HW215993   4.087   3.930   7.719  2.6318 -0.9779 -0.9168
 1512SOL     OW15994   1.402   0.237  11.225 -0.7458 -0.0827 -0.0668
 1512SOL    HW115995   1.403   0.330  11.248 -0.5054 -0.2554  0.6297
 1512SOL    HW215996   1.343   0.198  11.290 -0.5080 -0.3748 -0.0268
 1513SOL     OW15997   4.288   2.565   0.939  0.2973 -0.8216  0.1022
 1513SOL    HW115998   4.352   2.636   0.928 -0.3822 -0.2243 -0.0157
 1513SOL    HW215999   4.214   2.604   0.986  1.0016  2.6258 -1.6624
 1514SOL     OW16000   3.959   2.350   0.561 -0.4525  0.3901 -0.4346
 1514SOL    HW116001   4.014   2.293   0.507 -0.7419 -1.2154  0.9462
 1514SOL    HW216002   3.966   2.436   0.520  1.3537  0.5709  0.2330
 1515SOL     OW16003   0.810   3.366   5.510 -0.4300 -0.4848  0.0679
 1515SOL    HW116004   0.858   3.401   5.434  0.0768  1.3985  1.2677
 1515SOL    HW216005   0.880   3.380   5.575  0.8178 -0.1279 -1.3365
 1516SOL     OW16006   1.731   1.225   5.222  0.7030  0.0175 -0.6622
 1516SOL    HW116007   1.639   1.250   5.212  0.6999  0.4953  0.5804
 1516SOL    HW216008   1.784   1.295   5.185 -0.7671  1.5801  0.2079
 1517SOL     OW16009   4.090   0.189  17.622 -0.2692 -0.4196 -0.3261
 1517SOL    HW116010   4.106   0.248  17.696 -0.2287  1.3656 -1.7689
 1517SOL    HW216011   3.995   0.177  17.632 -0.4539 -0.1631 -1.9240
 1518SOL     OW16012   3.861   0.777   8.196 -0.4444  0.2620 -0.3813
 1518SOL    HW116013   3.947   0.743   8.172 -0.3682 -0.3206  0.7026
 1518SOL    HW216014   3.866   0.780   8.292 -0.7731 -2.6332 -0.2790
 1519SOL     OW16015   2.948   4.384   1.474 -0.1195  0.6214  0.4454
 1519SOL    HW116016   2.873   4.436   1.502  0.1315  0.7018  0.9746
 1519SOL    HW216017   2.898   4.317   1.429  2.6669 -0.5361 -0.9528
 1520SOL     OW16018   0.808   4.051  17.307 -0.9755  0.8420 -0.0382
 1520SOL    HW116019   0.819   4.001  17.387  0.6344 -0.7502 -1.2509
 1520SOL    HW216020   0.720   4.084  17.322 -0.4992  1.0061  2.2884
 1521SOL     OW16021   4.646   1.054   2.754  0.6749 -0.0101  0.7103
 1521SOL    HW116022   4.711   1.047   2.824  0.3305 -0.9877  0.9202
 1521SOL    HW216023   4.707   1.086   2.687  0.3316  1.6464  1.1946
 1522SOL     OW16024   2.057   2.176   6.052  0.0925  0.6561  0.6834
 1522SOL    HW116025   2.145   2.209   6.032  0.7808 -0.2689  2.2016
 1522SOL    HW216026   2.004   2.251   6.080 -1.1532  0.1154 -0.2341
 1523SOL     OW16027   2.546   4.387  12.111  0.3837  0.1289 -0.0960
 1523SOL    HW116028   2.523   4.348  12.027  0.4616 -0.9278  0.3790
 1523SOL    HW216029   2.465   4.370  12.159  0.6911 -5.0351 -1.3679
 1524SOL     OW16030   4.119   3.375   4.455 -0.3798 -0.0086 -0.0943
 1524SOL    HW116031   4.061   3.399   4.528 -0.2850 -0.9228  0.2800
 1524SOL    HW216032   4.205   3.388   4.495  0.9847 -2.6013 -2.2491
 1525SOL     OW16033   4.335   2.741   3.342 -0.3031 -0.2356 -0.9077
 1525SOL    HW116034   4.349   2.647   3.338  0.5008 -0.1193 -0.7878
 1525SOL    HW216035   4.386   2.767   3.265  0.7516  1.0707  0.2196
 1526SOL     OW16036   1.758   2.266   3.142 -0.0281  0.1907  0.1300
 1526SOL    HW116037   1.669   2.258   3.109  0.5441 -2.3691 -0.7679
 1526SOL    HW216038   1.739   2.293   3.231 -2.7598  1.3544 -0.8125
 1527SOL     OW16039   2.283   4.389   2.105 -0.3880 -0.7205  0.0605
 1527SOL    HW116040   2.371   4.351   2.113 -0.3833 -0.3344  1.9356
 1527SOL    HW216041   2.255   4.368   2.016 -0.7289 -0.0672  0.0177
 1528SOL     OW16042   3.856   2.987   5.213 -0.5122  0.6052 -0.0792
 1528SOL    HW116043   3.840   3.035   5.131 -3.2917  1.1494  0.7722
 1528SOL    HW216044   3.941   2.945   5.205 -0.9332  0.0931 -1.9557
 1529SOL     OW16045   1.234   2.296   3.575 -0.3170 -0.5062  0.5088
 1529SOL    HW116046   1.278   2.381   3.577 -0.3731 -0.4584 -0.5484
 1529SOL    HW216047   1.151   2.323   3.535  0.7014  1.6222 -0.2101
 1530SOL     OW16048   2.141   2.941  16.152 -0.5768  0.4230 -0.0541
 1530SOL    HW116049   2.048   2.962  16.141 -0.9475 -0.5819  1.1843
 1530SOL    HW216050   2.155   2.987  16.235  2.8711 -0.5495 -0.0888
 1531SOL     OW16051   1.313   2.080   7.526  0.1941  0.1354  0.8288
 1531SOL    HW116052   1.231   2.119   7.497  1.2917  0.6851 -1.5476
 1531SOL    HW216053   1.371   2.114   7.457 -0.4601 -0.2201  0.1052
 1532SOL     OW16054   3.632   4.259  16.433 -0.0099 -0.0449  0.0147
 1532SOL    HW116055   3.572   4.212  16.375  1.2537 -1.4345 -0.1452
 1532SOL    HW216056   3.571   4.328  16.460 -0.4311 -0.0985 -0.7920
 1533SOL     OW16057   0.354   4.485  16.293 -0.2382 -0.0861 -0.2991
 1533SOL    HW116058   0.304   4.434  16.357 -0.9644 -0.2101 -0.9754
 1533SOL    HW216059   0.375   4.566  16.339 -0.9976 -0.4609  0.7015
 1534SOL     OW16060   2.594   4.233  11.718 -0.0589  0.0922 -0.1192
 1534SOL    HW116061   2.549   4.210  11.799  2.2237  2.7618  1.9050
 1534SOL    HW216062   2.549   4.315  11.695 -2.5993 -1.5590 -1.0531
 1535SOL     OW16063   2.163   0.123   7.252 -0.4550  0.3766 -0.5384
 1535SOL    HW116064   2.092   0.186   7.260 -1.3996 -0.9154  1.4645
 1535SOL    HW216065   2.135   0.059   7.318  0.5642  1.0228  0.5158
 1536SOL     OW16066   1.587   1.566   5.068 -0.7075  0.4870  0.1752
 1536SOL    HW116067   1.668   1.590   5.114  0.1999 -0.0232 -1.1689
 1536SOL    HW216068   1.546   1.652   5.066  0.3346  0.9286 -2.0582
 1537SOL     OW16069   3.539   2.498   6.135 -0.2370  0.1925  0.4939
 1537SOL    HW116070   3.557   2.553   6.212  1.1195 -1.1760  1.1704
 1537SOL    HW216071   3.522   2.570   6.075  0.3537  1.0462  1.3406
 1538SOL     OW16072   0.259   2.341   1.259  0.0676 -0.0037 -0.2740
 1538SOL    HW116073   0.221   2.418   1.217  2.6034  1.6156  0.3941
 1538SOL    HW216074   0.328   2.322   1.195  0.3254 -1.1543  0.3477
 1539SOL     OW16075   3.179   2.755   6.044  0.3128  0.3030  0.0469
 1539SOL    HW116076   3.209   2.783   6.130  1.0757 -2.4284  0.6781
 1539SOL    HW216077   3.221   2.822   5.990 -0.8881 -0.4105 -1.7794
 1540SOL     OW16078   2.127   0.989   6.854  0.4570 -0.4638 -0.8479
 1540SOL    HW116079   2.166   1.061   6.806  1.6464 -1.2209 -1.0333
 1540SOL    HW216080   2.206   0.957   6.898  0.3067  0.1054 -0.1633
 1541SOL     OW16081   0.626   2.635   2.821 -0.4313  0.4831  0.6269
 1541SOL    HW116082   0.621   2.576   2.895 -1.7953 -1.8520 -1.3385
 1541SOL    HW216083   0.651   2.576   2.750  2.8628 -0.4639  2.5741
 1542SOL     OW16084   0.611   1.126  15.096 -0.2457  0.6579  0.3547
 1542SOL    HW116085   0.668   1.152  15.169 -0.6533 -2.0300  1.6434
 1542SOL    HW216086   0.606   1.202  15.038 -0.3346  0.7905  0.5375
 1543SOL     OW16087   0.044   0.158   9.022  0.0522  0.2336  0.0540
 1543SOL    HW116088   0.050   0.101   9.099 -0.8298 -1.4316 -1.1207
 1543SOL    HW216089   0.069   0.101   8.949 -1.7177  0.9434 -1.1000
 1544SOL     OW16090   3.770   0.698   1.525  0.3064 -0.6237 -0.1349
 1544SOL    HW116091   3.826   0.624   1.503  0.8902  0.4942 -2.4620
 1544SOL    HW216092   3.773   0.744   1.441 -1.5748  0.1123  0.1938
 1545SOL     OW16093   2.763   2.023   4.455  1.0372  0.2842 -0.1716
 1545SOL    HW116094   2.699   2.095   4.456 -0.8349 -1.3842  0.5401
 1545SOL    HW216095   2.731   1.960   4.390  0.3833 -0.8508  1.2557
 1546SOL     OW16096   4.054   2.453  12.550 -0.3426  0.2399 -0.8907
 1546SOL    HW116097   4.144   2.422  12.541  0.1902  1.3551  0.6668
 1546SOL    HW216098   4.008   2.388  12.497 -3.4072  0.2516  1.7504
 1547SOL     OW16099   3.750   0.869   1.317 -0.2364 -0.2346  0.0180
 1547SOL    HW116100   3.705   0.952   1.333  1.0248  0.2684  0.9972
 1547SOL    HW216101   3.742   0.864   1.221  1.6376 -2.5116 -0.0335
 1548SOL     OW16102   0.116   2.330  15.414  0.6915  0.2413  0.2281
 1548SOL    HW116103   0.101   2.266  15.344 -1.3695 -0.8287  1.6614
 1548SOL    HW216104   0.041   2.387  15.395  1.5688  1.0340 -0.9002
 1549SOL     OW16105   2.865   4.718   2.386 -0.5189 -1.0914  0.1887
 1549SOL    HW116106   2.850   4.628   2.414  1.9269 -1.9609 -1.3233
 1549SOL    HW216107   2.812   0.045   2.447  0.0990  1.8500 -1.7492
 1550SOL     OW16108   0.672   2.797   5.415  0.2487 -0.0317 -0.0042
 1550SOL    HW116109   0.658   2.736   5.487  2.0791 -0.2248  0.1901
 1550SOL    HW216110   0.766   2.799   5.393  0.3470  0.3457  0.4491
 1551SOL     OW16111   4.581   2.191  17.400  0.6305  0.3398  0.0954
 1551SOL    HW116112   4.511   2.256  17.387 -1.7663 -2.5502 -1.4716
 1551SOL    HW216113   4.630   2.192  17.318 -1.2352  1.1548 -1.0120
 1552SOL     OW16114   0.552   4.225   5.222 -0.1400 -0.1828 -0.4119
 1552SOL    HW116115   0.562   4.175   5.141 -0.3407  0.3538 -0.7691
 1552SOL    HW216116   0.461   4.254   5.213  0.1857  0.8032 -0.6073
 1553SOL     OW16117   1.980   2.331   7.969  0.4021 -0.3543 -0.5027
 1553SOL    HW116118   1.897   2.317   7.924  0.8634 -2.7467 -0.6100
 1553SOL    HW216119   2.038   2.268   7.925  1.9926  0.6503  0.1390
 1554SOL     OW16120   3.660   0.694  16.924  0.2509 -0.4340  0.4608
 1554SOL    HW116121   3.677   0.722  16.834  2.2389 -0.5140  0.8049
 1554SOL    HW216122   3.744   0.714  16.965 -0.0165  0.9685  0.3309
 1555SOL     OW16123   2.979   2.287   3.703 -0.4471  0.0861 -0.5149
 1555SOL    HW116124   2.903   2.240   3.668  0.6475 -2.5392  0.6858
 1555SOL    HW216125   3.041   2.275   3.632 -2.1745 -1.4361 -1.7768
 1556SOL     OW16126   2.030   2.362   8.215  0.4310  0.2424  0.1756
 1556SOL    HW116127   2.003   2.335   8.127 -0.2255  0.6251  0.2654
 1556SOL    HW216128   2.016   2.457   8.207  1.1767  0.4021  0.7642
 1557SOL     OW16129   0.540   3.035   3.482 -0.2879  0.2590  0.3448
 1557SOL    HW116130   0.563   2.953   3.438 -1.2708 -1.2129  2.5707
 1557SOL    HW216131   0.621   3.081   3.461 -0.5244 -0.7684 -2.8252
 1558SOL     OW16132   4.041   4.588   5.038  0.1199 -0.0440 -0.5037
 1558SOL    HW116133   3.964   4.610   4.986 -0.8942  2.5194  2.0967
 1558SOL    HW216134   4.049   4.673   5.081  1.3633  0.5492 -1.8847
 1559SOL     OW16135   3.868   0.619  10.415  0.0920 -0.0339 -0.9881
 1559SOL    HW116136   3.786   0.662  10.439 -0.3098 -2.5552  2.1470
 1559SOL    HW216137   3.891   0.585  10.502  0.3145  0.2985 -0.9204
 1560SOL     OW16138   3.779   3.314   6.278 -0.0717 -0.5628  0.4913
 1560SOL    HW116139   3.837   3.387   6.260  0.3287 -1.6725 -2.7091
 1560SOL    HW216140   3.788   3.303   6.373  1.4431 -0.3787  0.3572
 1561SOL     OW16141   0.321   2.079   4.412 -0.9217  0.1818  0.0656
 1561SOL    HW116142   0.399   2.030   4.385 -0.2906  2.6369 -2.5857
 1561SOL    HW216143   0.299   2.115   4.327 -1.2987 -2.1484 -0.8379
 1562SOL     OW16144   4.438   3.979   8.142 -0.0124 -0.3362  0.1981
 1562SOL    HW116145   4.356   3.993   8.190  1.2604  0.0441  2.2554
 1562SOL    HW216146   4.488   4.059   8.160 -1.6042  0.3818  1.3763
 1563SOL     OW16147   4.400   1.972  12.613 -0.2530 -0.3053 -0.3880
 1563SOL    HW116148   4.324   1.982  12.556 -0.4541 -1.2880 -0.2975
 1563SOL    HW216149   4.433   1.885  12.593 -1.3948 -0.7109 -0.5252
 1564SOL     OW16150   3.165   0.789   1.398 -0.1265 -0.2239  0.1508
 1564SOL    HW116151   3.118   0.872   1.387  0.3110  0.0065  0.0345
 1564SOL    HW216152   3.251   0.826   1.379  0.3531 -0.5148  1.8161
 1565SOL     OW16153   0.203   3.329   5.745 -0.5937  0.0457 -0.4107
 1565SOL    HW116154   0.152   3.248   5.736  0.4940 -0.7039  0.0725
 1565SOL    HW216155   0.256   3.323   5.665  1.2233 -3.3673  1.0183
 1566SOL     OW16156   3.552   4.694   2.066 -1.0275  0.2804 -0.2097
 1566SOL    HW116157   3.461   4.699   2.038 -0.2113  0.1326 -2.8758
 1566SOL    HW216158   3.566   0.057   2.102 -1.6834  0.9527 -1.5863
 1567SOL     OW16159   1.518   0.674   4.189  0.6675  0.3252 -0.0778
 1567SOL    HW116160   1.572   0.599   4.166  0.5493 -0.6452  2.8723
 1567SOL    HW216161   1.582   0.745   4.196 -0.4831  1.0978  2.8093
 1568SOL     OW16162   2.704   3.412  10.892 -0.6832  0.3535 -0.2611
 1568SOL    HW116163   2.732   3.327  10.859  2.1813  1.4096 -0.5472
 1568SOL    HW216164   2.730   3.411  10.984  0.1868 -1.7837 -0.5310
 1569SOL     OW16165   1.569   0.048   5.473 -0.0618 -0.3457 -0.1139
 1569SOL    HW116166   1.563   0.101   5.394  0.5419 -0.6060 -0.3285
 1569SOL    HW216167   1.589   4.690   5.429  0.4497 -0.5969  0.5929
 1570SOL     OW16168   0.245   3.335   4.560  0.1972  0.8021  0.1376
 1570SOL    HW116169   0.279   3.254   4.522 -4.1890 -1.3175  0.7278
 1570SOL    HW216170   0.177   3.365   4.499 -1.1342  0.4092  1.4273
 1571SOL     OW16171   0.622   4.199   4.697  0.2407 -0.0571  0.0942
 1571SOL    HW116172   0.626   4.261   4.624 -3.7592  1.4610  1.1694
 1571SOL    HW216173   0.671   4.251   4.761 -0.8534  0.2931  0.6403
 1572SOL     OW16174   2.736   3.878   7.705  0.2799 -0.4772 -0.4319
 1572SOL    HW116175   2.728   3.913   7.794  0.5030 -1.2698 -0.1051
 1572SOL    HW216176   2.671   3.809   7.694  0.2589 -0.4457 -0.5130
 1573SOL     OW16177   0.751   3.037  13.350  0.0817 -0.3627 -0.0327
 1573SOL    HW116178   0.731   3.008  13.439  0.7794  1.2675  0.6593
 1573SOL    HW216179   0.724   3.126  13.371  0.7925 -0.5410  1.6682
 1574SOL     OW16180   4.459   2.924  15.624 -0.3762 -0.0826 -0.3619
 1574SOL    HW116181   4.453   2.851  15.686 -1.3389 -0.0037 -0.3520
 1574SOL    HW216182   4.419   2.997  15.671  0.3344 -0.0906  0.2349
 1575SOL     OW16183   2.356   3.779   2.719 -0.5161 -0.6096 -0.8626
 1575SOL    HW116184   2.361   3.871   2.694  2.2151 -0.7022 -0.5904
 1575SOL    HW216185   2.443   3.751   2.690  1.0240  1.4687  1.7599
 1576SOL     OW16186   3.368   0.017   9.420  0.0380  0.5894 -0.6253
 1576SOL    HW116187   3.366   0.110   9.398  1.0170  0.2718 -2.0293
 1576SOL    HW216188   3.464   0.008   9.414 -0.1526 -0.8469 -1.4187
 1577SOL     OW16189   2.788   1.081   4.080 -0.0131 -0.1698  0.1840
 1577SOL    HW116190   2.752   1.001   4.116  0.2744 -1.0544 -1.4910
 1577SOL    HW216191   2.817   1.040   3.998 -0.2395 -1.0850  0.5650
 1578SOL     OW16192   1.575   0.277   4.781  0.2709  0.6981  0.2770
 1578SOL    HW116193   1.656   0.234   4.809 -0.1092  0.8043  1.5507
 1578SOL    HW216194   1.561   0.342   4.850  1.6060 -0.4651  1.6485
 1579SOL     OW16195   4.100   0.001   1.986 -0.2264 -0.6754  0.1203
 1579SOL    HW116196   4.004   4.719   1.987 -0.2532 -0.4591 -1.0464
 1579SOL    HW216197   4.120   4.701   1.895  3.1818  0.2449  0.6479
 1580SOL     OW16198   2.665   4.281  17.506 -0.0192  0.0991  0.4715
 1580SOL    HW116199   2.570   4.289  17.511  0.1187  1.3339  1.1290
 1580SOL    HW216200   2.682   4.280  17.600 -1.0201 -1.6880  0.6373
 1581SOL     OW16201   2.965   4.578   8.913 -0.0142 -0.0174  0.5959
 1581SOL    HW116202   2.952   4.524   8.991 -3.5703 -0.0867 -0.0298
 1581SOL    HW216203   3.000   4.658   8.953  0.5221 -0.0341  0.1605
 1582SOL     OW16204   3.851   0.609   4.505  0.0209  0.0766 -0.6202
 1582SOL    HW116205   3.921   0.661   4.545  0.9033 -0.5167 -1.4172
 1582SOL    HW216206   3.811   0.671   4.444  0.3246 -1.6667 -2.5764
 1583SOL     OW16207   2.652   4.511   2.340  0.7856 -0.0324 -0.1784
 1583SOL    HW116208   2.624   4.585   2.286 -1.1862 -0.7785 -0.1904
 1583SOL    HW216209   2.573   4.457   2.341  0.8937 -0.1939 -0.3949
 1584SOL     OW16210   0.706   4.336  15.344 -0.0675 -0.8030  0.4863
 1584SOL    HW116211   0.679   4.389  15.269  1.1788  0.2154  0.7607
 1584SOL    HW216212   0.782   4.382  15.380 -0.1126 -0.5194  0.2144
 1585SOL     OW16213   4.275   3.561   8.610  0.7971 -0.2644 -0.0300
 1585SOL    HW116214   4.361   3.543   8.571  0.4695 -2.1235  0.1372
 1585SOL    HW216215   4.210   3.536   8.545  1.3116 -0.4941 -0.4575
 1586SOL     OW16216   3.935   3.874   3.582  0.1290  0.2073 -0.0222
 1586SOL    HW116217   3.853   3.923   3.571 -0.8435 -1.4634 -0.0879
 1586SOL    HW216218   3.989   3.934   3.531 -0.1434 -2.0594 -2.9668
 1587SOL     OW16219   1.354   1.254   4.492 -0.4781  0.3986 -0.1038
 1587SOL    HW116220   1.316   1.330   4.536  0.0257  0.1531  0.7464
 1587SOL    HW216221   1.441   1.286   4.468 -0.5381  0.6034 -0.0448
 1588SOL     OW16222   1.118   1.259   6.744 -0.5894  0.2466  0.5013
 1588SOL    HW116223   1.096   1.351   6.736 -1.4652  0.1341  1.5760
 1588SOL    HW216224   1.054   1.224   6.682  3.0597  0.8212 -3.5827
 1589SOL     OW16225   2.707   0.735   8.197 -0.3284 -0.3797  0.0654
 1589SOL    HW116226   2.616   0.718   8.223  0.2110  0.5977  2.6549
 1589SOL    HW216227   2.726   0.820   8.237 -0.4481 -0.8671  1.1659
 1590SOL     OW16228   2.962   3.570  13.138 -0.3543  0.1326 -0.3962
 1590SOL    HW116229   2.980   3.476  13.132  1.0836  0.3971 -0.1118
 1590SOL    HW216230   2.957   3.580  13.233 -1.6359 -0.4871 -0.3919
 1591SOL     OW16231   4.097   1.086   2.508  0.3892 -0.3422 -0.3147
 1591SOL    HW116232   4.118   1.113   2.597 -1.1777  0.4742 -0.2036
 1591SOL    HW216233   4.133   0.998   2.515  0.2552 -0.4636 -1.2214
 1592SOL     OW16234   3.953   2.559   2.179 -0.3507  0.5720 -0.4130
 1592SOL    HW116235   3.915   2.497   2.241 -0.4829  0.7319 -0.3327
 1592SOL    HW216236   4.044   2.530   2.173 -0.6647 -0.3746 -0.6041
 1593SOL     OW16237   3.502   0.519   3.463 -0.3333  1.0092  0.0971
 1593SOL    HW116238   3.482   0.596   3.409  1.3411  0.3574 -1.4568
 1593SOL    HW216239   3.505   0.560   3.549 -0.3046  2.0158 -0.3824
 1594SOL     OW16240   3.302   1.107  12.836 -0.1704  0.7908  0.6209
 1594SOL    HW116241   3.391   1.073  12.830 -1.2233 -1.7221 -0.6737
 1594SOL    HW216242   3.247   1.040  12.877 -1.7553  0.9052 -1.3156
 1595SOL     OW16243   3.659   2.621   8.983 -0.2685 -1.0135  0.5099
 1595SOL    HW116244   3.628   2.594   9.069 -0.5165  0.5273  0.9149
 1595SOL    HW216245   3.752   2.604   8.994  0.3344 -0.2331 -3.3098
 1596SOL     OW16246   0.464   1.325   5.619 -0.0976 -0.6343  0.0659
 1596SOL    HW116247   0.394   1.389   5.608  0.8968  0.4814  0.0971
 1596SOL    HW216248   0.523   1.356   5.550 -0.8955 -0.7407 -0.6506
 1597SOL     OW16249   0.744   4.671  13.356  0.6632  0.0629 -0.1622
 1597SOL    HW116250   0.652   4.694  13.365  1.4112  2.6927  0.8723
 1597SOL    HW216251   0.771   4.674  13.448  1.5901 -0.8462 -0.4059
 1598SOL     OW16252   2.709   2.810   2.857 -0.3251 -0.1467 -0.3282
 1598SOL    HW116253   2.758   2.877   2.905  3.1014 -1.8367 -1.5373
 1598SOL    HW216254   2.665   2.858   2.786 -2.2170  2.3091  2.5075
 1599SOL     OW16255   3.793   3.666   2.681  0.0050  0.3467  0.1981
 1599SOL    HW116256   3.774   3.588   2.629  0.8482  0.4794 -0.3020
 1599SOL    HW216257   3.825   3.726   2.614 -0.1784  0.7519  0.4713
 1600SOL     OW16258   0.098   1.504  17.187  0.1609  0.0526 -0.2865
 1600SOL    HW116259   0.070   1.503  17.096  1.0345 -0.3121 -0.5505
 1600SOL    HW216260   0.055   1.583  17.218 -0.1160  0.9536 -2.9929
 1601SOL     OW16261   0.670   3.817   4.416  0.2438  0.0543 -0.4556
 1601SOL    HW116262   0.719   3.885   4.463  0.9284 -1.0964  0.5006
 1601SOL    HW216263   0.645   3.866   4.337 -0.1024  2.1267  0.9313
 1602SOL     OW16264   4.443   0.453   4.338  0.5377 -0.2401  0.2400
 1602SOL    HW116265   4.412   0.514   4.406  1.4632  2.4789 -1.7740
 1602SOL    HW216266   4.363   0.424   4.293 -0.0285  0.6054  0.6864
 1603SOL     OW16267   0.697   0.689   1.036 -0.6456 -0.4285  0.1686
 1603SOL    HW116268   0.618   0.740   1.018  0.8286  1.0048 -2.2354
 1603SOL    HW216269   0.756   0.743   0.983  1.5148 -2.6053  0.3950
 1604SOL     OW16270   2.594   1.663  12.893  0.0587 -0.2087 -0.1909
 1604SOL    HW116271   2.605   1.640  12.985  2.3171  0.8165 -0.1867
 1604SOL    HW216272   2.680   1.703  12.881  1.1618 -1.9557  1.9921
 1605SOL     OW16273   0.843   4.041   2.509  0.4327 -0.0377  0.1976
 1605SOL    HW116274   0.765   3.985   2.517  0.0511  0.2102 -1.7006
 1605SOL    HW216275   0.907   3.971   2.519  1.1346  0.8436  1.9015
 1606SOL     OW16276   2.308   0.930   6.558 -0.4949  0.1325  0.1120
 1606SOL    HW116277   2.236   0.993   6.554 -0.6628 -0.1138 -0.8696
 1606SOL    HW216278   2.274   0.883   6.481 -1.6003 -0.3006  0.8609
 1607SOL     OW16279   3.687   4.445   1.667 -0.0117  0.1004  0.4050
 1607SOL    HW116280   3.613   4.505   1.652  0.3486 -0.1326 -2.3778
 1607SOL    HW216281   3.724   4.451   1.578  1.8230 -2.1092  1.0224
 1608SOL     OW16282   4.515   0.768   1.319  0.2116  0.1320 -0.4580
 1608SOL    HW116283   4.585   0.834   1.314 -1.7065  2.2965  1.5453
 1608SOL    HW216284   4.466   0.782   1.238 -1.6693  1.4516  0.9313
 1609SOL     OW16285   3.565   0.578   8.551 -0.2296 -0.3040 -0.7098
 1609SOL    HW116286   3.660   0.584   8.545  0.0501 -1.1888  3.1332
 1609SOL    HW216287   3.546   0.485   8.566 -1.6472 -0.2430 -2.0872
 1610SOL     OW16288   2.268   1.069  17.663 -0.1718  0.3956  0.7960
 1610SOL    HW116289   2.328   1.002  17.694 -2.2770 -0.6872  2.5493
 1610SOL    HW216290   2.259   1.121   0.044 -1.2411  1.4287  0.0114
 1611SOL     OW16291   3.698   0.460   4.776 -0.0425  0.1221  0.3468
 1611SOL    HW116292   3.785   0.433   4.803 -0.2830 -0.7801  0.2122
 1611SOL    HW216293   3.697   0.553   4.751 -0.6335  0.0642  0.1452
 1612SOL     OW16294   4.283   2.430   5.115 -0.3278  0.1746  0.1105
 1612SOL    HW116295   4.271   2.525   5.115 -2.7949 -0.1679 -1.8443
 1612SOL    HW216296   4.378   2.425   5.127 -0.1167 -1.1113 -2.1677
 1613SOL     OW16297   2.490   2.535   0.986 -0.2505 -0.0859  0.5231
 1613SOL    HW116298   2.485   2.623   1.023  0.4112 -0.2923  1.0968
 1613SOL    HW216299   2.533   2.549   0.902  1.6062  1.0232  1.6717
 1614SOL     OW16300   2.177   1.843   3.086  0.8058 -0.3025  0.0642
 1614SOL    HW116301   2.169   1.788   3.164  0.2764 -0.3481 -0.0206
 1614SOL    HW216302   2.101   1.821   3.032  0.5458  0.4182  0.1414
 1615SOL     OW16303   1.465   3.927   4.815 -0.2093 -0.0412 -0.7796
 1615SOL    HW116304   1.529   3.979   4.863  1.2762 -1.4873 -1.2115
 1615SOL    HW216305   1.510   3.843   4.816 -0.5112 -0.1893  0.1908
 1616SOL     OW16306   1.069   2.667   1.551 -0.4503 -0.2786  0.4464
 1616SOL    HW116307   1.043   2.577   1.568 -0.3912 -0.2803  0.5279
 1616SOL    HW216308   1.043   2.704   1.636 -1.3564  0.6269 -0.2155
 1617SOL     OW16309   0.921   0.406   5.033 -0.4114 -0.2080 -0.2615
 1617SOL    HW116310   0.913   0.316   5.066  0.4824 -0.4775 -0.7778
 1617SOL    HW216311   0.986   0.393   4.964 -1.3595  2.1108 -1.5769
 1618SOL     OW16312   1.309   2.755   6.519  0.0478  0.2671 -0.0936
 1618SOL    HW116313   1.222   2.736   6.554 -0.4339  2.5781 -0.0195
 1618SOL    HW216314   1.344   2.831   6.567  1.4266 -0.1741 -0.4011
 1619SOL     OW16315   0.727   1.043   6.830 -0.3679  0.0080  0.2186
 1619SOL    HW116316   0.696   1.096   6.903  0.8562  0.3745  0.4704
 1619SOL    HW216317   0.810   1.006   6.860  0.1222  1.4164  0.5721
 1620SOL     OW16318   0.772   0.392  12.444 -0.0319 -0.3020 -0.4876
 1620SOL    HW116319   0.786   0.487  12.450  0.3354 -0.3574 -0.5024
 1620SOL    HW216320   0.679   0.394  12.420  0.5950 -1.0839 -2.9115
 1621SOL     OW16321   0.706   3.209   2.953  0.0138 -0.3925 -0.3836
 1621SOL    HW116322   0.618   3.197   2.989  1.5162 -0.8316  3.1783
 1621SOL    HW216323   0.750   3.256   3.024 -1.1864  0.7099 -0.3847
 1622SOL     OW16324   2.310   2.335   5.772 -0.4572  0.0633  0.4950
 1622SOL    HW116325   2.222   2.373   5.782 -1.5683 -2.4047  0.1404
 1622SOL    HW216326   2.366   2.412   5.764  1.0570 -1.0738  0.1619
 1623SOL     OW16327   4.580   3.514   3.608 -0.1009  0.2281 -0.1271
 1623SOL    HW116328   4.559   3.440   3.666  0.5640  0.4341  0.3799
 1623SOL    HW216329   4.499   3.552   3.575 -1.1735 -2.5706 -0.7212
 1624SOL     OW16330   1.828   3.656   0.887  0.0318 -0.3444 -0.2501
 1624SOL    HW116331   1.744   3.643   0.931  0.1699 -1.1684 -0.2273
 1624SOL    HW216332   1.815   3.604   0.807 -1.3194 -0.9136  0.3386
 1625SOL     OW16333   0.294   0.064   5.620  0.0139  0.1078  0.0471
 1625SOL    HW116334   0.274   4.703   5.581  0.7991  0.1871 -0.5217
 1625SOL    HW216335   0.387   0.048   5.637  0.4666  2.3015 -0.3185
 1626SOL     OW16336   0.062   4.564  12.780  0.1246  0.6542 -0.3900
 1626SOL    HW116337   0.010   4.565  12.699  0.2259  2.5204 -0.4170
 1626SOL    HW216338   0.136   4.617  12.753  0.2827  1.4330  1.5874
 1627SOL     OW16339   1.139   3.035  13.057 -0.0920 -0.9958  0.6214
 1627SOL    HW116340   1.200   2.976  13.013  2.4473  1.0913  1.3924
 1627SOL    HW216341   1.119   2.977  13.130 -0.2314 -0.0649  1.3296
 1628SOL     OW16342   4.357   1.944   5.745 -0.0090 -0.1062  0.5709
 1628SOL    HW116343   4.394   2.030   5.725  0.0982 -0.1937  0.3905
 1628SOL    HW216344   4.403   1.888   5.682  0.0350  0.6465 -0.0811
 1629SOL     OW16345   3.556   3.170   5.937 -0.1607 -0.1718 -0.1802
 1629SOL    HW116346   3.561   3.222   6.017  2.3031 -0.9020  0.1390
 1629SOL    HW216347   3.624   3.214   5.887  1.1447  0.7506  2.4187
 1630SOL     OW16348   0.082   2.450  15.132 -0.4871  0.4281 -0.1359
 1630SOL    HW116349   4.712   2.465  15.124 -0.8556 -2.7669 -2.0576
 1630SOL    HW216350   0.113   2.502  15.058  0.9626  1.9912  1.5747
 1631SOL     OW16351   4.133   1.194   8.033  0.1009 -0.4175 -0.1386
 1631SOL    HW116352   4.044   1.189   8.000 -0.3392 -0.6923  1.1111
 1631SOL    HW216353   4.181   1.230   7.959 -1.0808  1.6168  0.0927
 1632SOL     OW16354   3.588   1.416   9.527  0.2340  0.2791  0.0421
 1632SOL    HW116355   3.528   1.447   9.459 -0.9978 -0.6261  0.7254
 1632SOL    HW216356   3.665   1.452   9.482  0.6128  0.9127  1.2118
 1633SOL     OW16357   1.535   4.040  13.403  0.4206  0.5933 -0.4635
 1633SOL    HW116358   1.616   4.061  13.357  1.0823 -2.0582 -0.4964
 1633SOL    HW216359   1.496   4.128  13.403 -1.3966 -0.1973  1.4221
 1634SOL     OW16360   1.772   3.475  15.435  1.0101  0.0978  0.0290
 1634SOL    HW116361   1.784   3.425  15.516 -1.1076 -0.6536 -0.1163
 1634SOL    HW216362   1.838   3.540  15.460  1.8920 -0.7531 -0.1024
 1635SOL     OW16363   2.723   2.233   7.859 -0.0005  0.3838  0.2510
 1635SOL    HW116364   2.647   2.266   7.811 -0.1096  0.1707  0.2794
 1635SOL    HW216365   2.733   2.140   7.837 -0.3198  0.6635 -1.1110
 1636SOL     OW16366   2.322   1.937   6.146  0.1097  0.7575 -0.6876
 1636SOL    HW116367   2.316   1.850   6.187  1.0492  0.8118 -0.4546
 1636SOL    HW216368   2.415   1.954   6.135  0.3201 -1.0854 -1.6766
 1637SOL     OW16369   0.333   4.296   3.530  0.4239  0.4688  0.3076
 1637SOL    HW116370   0.252   4.347   3.522  1.7362  2.4194 -0.5791
 1637SOL    HW216371   0.313   4.239   3.456 -0.2292  0.8811  0.1652
 1638SOL     OW16372   3.691   3.263  14.979 -0.4010 -0.1493  0.0214
 1638SOL    HW116373   3.628   3.241  15.048 -1.0139  1.9390  0.1201
 1638SOL    HW216374   3.697   3.358  14.981  3.0840 -0.4205  0.9687
 1639SOL     OW16375   3.849   0.065   1.304 -0.4538 -0.1134 -0.3142
 1639SOL    HW116376   3.799   0.146   1.301  0.2154  0.2475 -1.7514
 1639SOL    HW216377   3.799   0.026   1.232 -2.6789  1.2878  0.4838
 1640SOL     OW16378   0.192   0.350   3.866 -0.4751  0.2845 -0.2459
 1640SOL    HW116379   0.157   0.295   3.937  2.3755 -0.6812  0.3995
 1640SOL    HW216380   0.241   0.404   3.928  1.2003 -0.5753 -0.8249
 1641SOL     OW16381   2.005   1.494   7.756  0.2361  0.0693  0.1434
 1641SOL    HW116382   2.053   1.576   7.744 -2.9891  1.9113 -0.0592
 1641SOL    HW216383   1.914   1.518   7.741  0.6104  0.1087 -2.0741
 1642SOL     OW16384   1.977   3.284   5.025 -0.1223 -0.0208  0.4280
 1642SOL    HW116385   2.013   3.264   5.112  1.6825  0.6158 -0.1832
 1642SOL    HW216386   1.889   3.249   5.038 -0.6858  0.6535 -1.5690
 1643SOL     OW16387   3.919   3.121   3.431 -0.3083 -0.1066  0.7488
 1643SOL    HW116388   3.900   3.027   3.432  0.5346 -0.3021 -1.0384
 1643SOL    HW216389   3.831   3.157   3.415 -0.1827 -0.7273 -1.2811
 1644SOL     OW16390   4.468   2.586  14.513 -0.8334  0.3351 -0.0895
 1644SOL    HW116391   4.421   2.657  14.469  0.1337  0.9833 -0.0845
 1644SOL    HW216392   4.398   2.531  14.547  0.6899 -3.0919 -2.3771
 1645SOL     OW16393   4.191   1.000   5.071 -0.5124 -0.2402 -0.2573
 1645SOL    HW116394   4.138   1.076   5.097 -1.2509 -0.6880 -0.4628
 1645SOL    HW216395   4.259   1.049   5.024 -1.9833  0.4058 -1.7015
 1646SOL     OW16396   4.027   1.403   2.180 -0.0347 -0.2101 -0.1050
 1646SOL    HW116397   4.041   1.446   2.096 -2.8479  1.3751  0.2136
 1646SOL    HW216398   4.098   1.441   2.233 -0.8908  0.4229  0.5915
 1647SOL     OW16399   4.713   3.752   2.306  0.3792 -0.2195 -0.0741
 1647SOL    HW116400   4.639   3.718   2.256  0.3992  0.8000 -0.8125
 1647SOL    HW216401   4.669   3.780   2.386  0.3479 -1.0948  0.2115
 1648SOL     OW16402   2.779   1.221   1.745 -0.4026 -0.2255 -0.2301
 1648SOL    HW116403   2.847   1.282   1.775  0.3107 -0.1583 -1.9559
 1648SOL    HW216404   2.704   1.280   1.749 -1.2402 -1.3317  0.3827
 1649SOL     OW16405   4.691   3.783   3.664 -0.0629  0.0136 -0.3464
 1649SOL    HW116406   4.646   3.846   3.608 -0.6465 -0.8045 -0.8045
 1649SOL    HW216407   4.637   3.704   3.659  0.6402 -0.4513 -0.4626
 1650SOL     OW16408   2.338   3.237   8.162 -0.1429  0.2322  0.2385
 1650SOL    HW116409   2.308   3.266   8.248  1.5075  0.5263  0.7228
 1650SOL    HW216410   2.325   3.142   8.166  0.1727  0.2590  1.7606
 1651SOL     OW16411   0.912   0.245  13.233  0.3926  0.1507 -0.4261
 1651SOL    HW116412   0.851   0.180  13.198  0.6485 -1.3157  1.8453
 1651SOL    HW216413   0.991   0.195  13.220  1.5128  1.3141  1.7661
 1652SOL     OW16414   0.023   0.266  16.850  0.3182  0.1408 -0.0382
 1652SOL    HW116415   0.002   0.260  16.944  0.8846 -0.3161  0.0600
 1652SOL    HW216416   0.020   0.361  16.844 -0.0300  0.1059 -0.4382
 1653SOL     OW16417   3.926   2.392   9.368  0.3544 -0.3095  0.3527
 1653SOL    HW116418   4.006   2.347   9.396  0.6259 -1.0667 -1.5548
 1653SOL    HW216419   3.933   2.390   9.272 -2.6177  0.2464  0.1346
 1654SOL     OW16420   0.496   2.765   8.223 -0.1817  0.5706 -0.7919
 1654SOL    HW116421   0.423   2.788   8.165  0.6081  0.8091 -1.6992
 1654SOL    HW216422   0.570   2.769   8.163 -0.1524  0.5679 -0.7556
 1655SOL     OW16423   3.261   4.297   5.728  0.5255 -0.8077  0.0182
 1655SOL    HW116424   3.302   4.382   5.747 -0.4324 -0.5548  0.9934
 1655SOL    HW216425   3.276   4.291   5.634 -1.9151 -0.6421 -0.3839
 1656SOL     OW16426   3.587   4.587  15.725  0.7537 -0.0539  0.0645
 1656SOL    HW116427   3.575   4.503  15.681  1.1735 -0.3653  0.5326
 1656SOL    HW216428   3.599   4.559  15.816 -3.3893  1.0495  0.9649
 1657SOL     OW16429   2.653   1.365  11.846  0.1409  0.0318  0.3057
 1657SOL    HW116430   2.713   1.405  11.784 -0.0796  0.0606  0.1096
 1657SOL    HW216431   2.586   1.433  11.854 -0.1491 -0.1367 -0.7083
 1658SOL     OW16432   1.020   3.380   8.432  0.2283  0.4505 -0.0697
 1658SOL    HW116433   1.106   3.408   8.400 -0.0158  0.5565 -0.6390
 1658SOL    HW216434   0.960   3.451   8.408  0.7871  1.1623  0.6294
 1659SOL     OW16435   3.531   1.445   9.786  0.5777 -0.1303 -0.1604
 1659SOL    HW116436   3.519   1.431   9.692 -2.2422  1.6163 -0.0576
 1659SOL    HW216437   3.619   1.484   9.783  0.3691  0.3066 -0.6263
 1660SOL     OW16438   0.511   2.960   7.705  0.0101 -0.2350  0.1000
 1660SOL    HW116439   0.528   2.870   7.735 -0.8021 -0.6656 -0.7201
 1660SOL    HW216440   0.523   2.947   7.611 -0.7571 -1.2189  0.1336
 1661SOL     OW16441   1.446   3.212   7.164  0.5030 -0.6786 -0.5828
 1661SOL    HW116442   1.459   3.204   7.258 -3.2998 -0.0925 -0.0133
 1661SOL    HW216443   1.537   3.212   7.134  0.7921  1.4883  0.3369
 1662SOL     OW16444   3.464   0.320   4.273  0.4798 -0.3911 -0.0220
 1662SOL    HW116445   3.372   0.295   4.275  0.3586  0.0631  0.2427
 1662SOL    HW216446   3.505   0.250   4.323 -0.1310 -0.6522  0.1156
 1663SOL     OW16447   0.792   1.160   1.694  0.4076  0.4186 -0.1710
 1663SOL    HW116448   0.866   1.104   1.671 -0.7570 -0.8617 -0.7667
 1663SOL    HW216449   0.725   1.104   1.655 -0.2455  0.9664  0.1652
 1664SOL     OW16450   2.061   2.383   9.495 -0.3875  0.3152 -0.2008
 1664SOL    HW116451   2.015   2.446   9.550 -1.1395  1.4776 -2.1613
 1664SOL    HW216452   2.054   2.307   9.553 -0.9076  0.2856 -0.2980
 1665SOL     OW16453   0.924   0.823   2.243  0.5230 -0.0908 -0.5330
 1665SOL    HW116454   0.850   0.881   2.227 -0.4830 -1.7898 -2.0708
 1665SOL    HW216455   0.906   0.813   2.336 -3.0019  0.6425 -1.1282
 1666SOL     OW16456   3.623   0.398  16.901 -0.1964 -0.5799  0.6933
 1666SOL    HW116457   3.675   0.478  16.905 -0.1511 -0.4816 -2.0160
 1666SOL    HW216458   3.566   0.425  16.829  1.6050  0.8707 -0.1968
 1667SOL     OW16459   3.746   1.018  12.585 -0.0043  0.0902 -0.2652
 1667SOL    HW116460   3.813   1.051  12.646 -1.9366  0.3306  1.7550
 1667SOL    HW216461   3.782   0.930  12.574  1.0272  0.4346  0.3245
 1668SOL     OW16462   2.651   2.542   5.929 -0.0450 -0.3381  0.4133
 1668SOL    HW116463   2.729   2.573   5.975 -0.2903  1.4246 -0.3376
 1668SOL    HW216464   2.653   2.449   5.952 -0.0419 -0.4171  0.0871
 1669SOL     OW16465   4.516   1.648   8.399  0.7724  0.2372  0.5725
 1669SOL    HW116466   4.448   1.691   8.348 -0.7425 -2.6947  0.1593
 1669SOL    HW216467   4.576   1.619   8.330 -3.0804 -0.9277 -2.2500
 1670SOL     OW16468   3.695   2.566   0.001 -0.1095 -0.2633 -0.0394
 1670SOL    HW116469   3.766   2.521   0.048 -0.1297 -0.2459  0.0077
 1670SOL    HW216470   3.740   2.578  17.616  1.9572 -0.8150  0.9920
 1671SOL     OW16471   3.477   1.391  17.191  0.1738  0.1434 -0.7193
 1671SOL    HW116472   3.503   1.446  17.118  1.8431 -1.3814 -1.2963
 1671SOL    HW216473   3.448   1.451  17.260  2.3828 -0.4524  0.7524
 1672SOL     OW16474   2.597   1.271   4.152  0.2328 -0.0727  0.4423
 1672SOL    HW116475   2.661   1.211   4.113 -0.5219 -0.8830  0.4470
 1672SOL    HW216476   2.640   1.356   4.141  1.4649 -0.3174  3.4847
 1673SOL     OW16477   1.500   4.352  13.144  0.3339  0.2594 -0.2929
 1673SOL    HW116478   1.538   4.267  13.123  2.5990  0.8297  1.5368
 1673SOL    HW216479   1.491   4.357  13.240  1.3931 -0.3450 -0.1568
 1674SOL     OW16480   4.305   0.887   2.267  0.4870 -0.2279  0.8786
 1674SOL    HW116481   4.393   0.923   2.271 -0.0691  1.4209 -1.6356
 1674SOL    HW216482   4.255   0.965   2.240  0.0680 -1.1363 -0.9803
 1675SOL     OW16483   1.129   0.055  14.376 -0.4993  0.3869 -0.0930
 1675SOL    HW116484   1.073   4.717  14.330  0.3016 -1.1626  1.0355
 1675SOL    HW216485   1.129   0.130  14.316 -0.5069  0.4046 -0.0709
 1676SOL     OW16486   1.238   0.086   8.780 -0.3441 -0.0625 -0.3233
 1676SOL    HW116487   1.175   0.028   8.737  2.3076 -1.5731 -2.2048
 1676SOL    HW216488   1.187   0.116   8.855  1.0606 -1.8901  1.3725
 1677SOL     OW16489   3.496   0.938  17.079  0.0165  0.0227  0.6249
 1677SOL    HW116490   3.518   0.977  16.994  0.1314 -1.8507 -0.2124
 1677SOL    HW216491   3.401   0.942  17.085 -0.0609  2.2608 -2.3435
 1678SOL     OW16492   3.897   0.182   5.907  0.8939 -0.1949 -0.1550
 1678SOL    HW116493   3.935   0.169   5.994  0.6483  2.5948  0.3801
 1678SOL    HW216494   3.848   0.262   5.928  1.4826  0.0648  0.2101
 1679SOL     OW16495   0.267   3.833   3.486 -0.6339 -0.3964  0.0545
 1679SOL    HW116496   0.348   3.782   3.485 -1.1633 -1.2334 -0.2863
 1679SOL    HW216497   0.233   3.807   3.572  1.7761  0.7435  1.3328
 1680SOL     OW16498   2.085   1.756  12.737 -0.3188 -0.0995 -0.1236
 1680SOL    HW116499   2.175   1.771  12.765 -1.2832  2.2565  1.7246
 1680SOL    HW216500   2.045   1.783  12.819 -0.8957 -0.5161 -0.2658
 1681SOL     OW16501   0.222   1.211   6.516  0.2566 -0.1411  0.2417
 1681SOL    HW116502   0.199   1.186   6.606 -2.4240  3.3938  0.5411
 1681SOL    HW216503   0.134   1.223   6.480  0.3627 -0.0523  0.0119
 1682SOL     OW16504   4.525   4.397  17.215 -0.3552  0.1280  0.4882
 1682SOL    HW116505   4.513   4.331  17.283 -1.7035 -1.5087 -1.3390
 1682SOL    HW216506   4.607   4.365  17.178 -1.3065  0.0288 -1.5132
 1683SOL     OW16507   2.626   2.379   5.593 -0.7800  0.1738 -0.5058
 1683SOL    HW116508   2.557   2.381   5.526  0.0018  0.8975 -1.2842
 1683SOL    HW216509   2.608   2.445   5.659  1.4870 -0.7465  1.0342
 1684SOL     OW16510   1.281   1.541   7.040  0.2165 -0.3184  0.7361
 1684SOL    HW116511   1.215   1.485   7.081  1.1330 -1.5736  0.5041
 1684SOL    HW216512   1.255   1.542   6.948  3.1197  0.2524 -0.0873
 1685SOL     OW16513   0.350   1.278   8.258 -0.7598  0.3850  0.1435
 1685SOL    HW116514   0.431   1.323   8.285 -0.5949 -0.9192  1.8405
 1685SOL    HW216515   0.318   1.271   8.348 -0.3180 -1.4494  0.1692
 1686SOL     OW16516   2.107   4.421   4.105  0.2167 -0.1421  0.4133
 1686SOL    HW116517   2.189   4.394   4.147 -0.0507  1.1572  1.8040
 1686SOL    HW216518   2.063   4.337   4.097 -0.6079  0.1966  1.3655
 1687SOL     OW16519   4.088   4.309   7.508 -0.1997 -0.1564  0.1783
 1687SOL    HW116520   4.159   4.371   7.492  0.6254 -1.4432 -1.1130
 1687SOL    HW216521   4.134   4.235   7.468  1.2737  0.5596  0.5685
 1688SOL     OW16522   1.944   2.497   9.704  0.2056 -0.3274 -0.6125
 1688SOL    HW116523   1.947   2.488   9.799  1.2703  0.7738 -0.5478
 1688SOL    HW216524   1.861   2.533   9.674  0.9736 -0.1300 -2.5059
 1689SOL     OW16525   1.389   3.513   9.025  0.0234  0.1830  0.1643
 1689SOL    HW116526   1.347   3.470   9.099  2.8821 -2.0670  0.4986
 1689SOL    HW216527   1.480   3.500   9.052 -0.7036  0.8707  2.8923
 1690SOL     OW16528   3.945   0.533  15.180 -0.3405  0.2909  0.6514
 1690SOL    HW116529   4.038   0.540  15.160 -0.7737 -1.7187 -2.1555
 1690SOL    HW216530   3.950   0.588  15.258 -0.1445  1.9510 -0.5263
 1691SOL     OW16531   2.280   3.160   6.282  0.0221  0.3289  0.2231
 1691SOL    HW116532   2.301   3.068   6.263  0.4669  0.7308 -1.2055
 1691SOL    HW216533   2.352   3.211   6.245 -0.2466 -1.2008 -2.3656
 1692SOL     OW16534   4.575   0.286  14.160  0.4735 -0.0451 -0.2787
 1692SOL    HW116535   4.497   0.231  14.161 -1.1277  2.2073 -0.3087
 1692SOL    HW216536   4.580   0.307  14.253 -0.6248  0.0171 -0.2327
 1693SOL     OW16537   1.724   1.273   6.113  0.6771 -0.0230 -0.3423
 1693SOL    HW116538   1.679   1.287   6.197 -1.7513 -1.2890 -1.4244
 1693SOL    HW216539   1.756   1.363   6.106  0.9884  0.0544  2.2700
 1694SOL     OW16540   4.055   1.166   3.836 -0.2436  0.0236 -0.1471
 1694SOL    HW116541   4.051   1.093   3.774  0.6276  0.1904 -0.3964
 1694SOL    HW216542   4.064   1.113   3.915  0.1237 -1.7584 -1.3720
 1695SOL     OW16543   4.511   4.310   8.476 -0.2552  0.2093  0.6620
 1695SOL    HW116544   4.586   4.303   8.536 -1.1531  1.9843  1.9924
 1695SOL    HW216545   4.453   4.239   8.502 -1.8143  1.2787  0.1072
 1696SOL     OW16546   0.892   4.104   6.577  0.2534  0.3057  0.6203
 1696SOL    HW116547   0.810   4.136   6.539  0.4765 -0.6317 -0.6734
 1696SOL    HW216548   0.958   4.166   6.546 -1.8277  1.2462 -2.0368
 1697SOL     OW16549   2.907   4.136   3.411  0.3513 -0.2941 -0.0328
 1697SOL    HW116550   2.966   4.174   3.346  2.6026 -1.8982  1.0828
 1697SOL    HW216551   2.963   4.145   3.488  0.3091  1.3989 -0.1919
 1698SOL     OW16552   3.369   1.435   9.293  0.5918 -0.1478 -0.4242
 1698SOL    HW116553   3.358   1.528   9.275  4.0813 -0.0990 -2.1570
 1698SOL    HW216554   3.279   1.401   9.294  0.1143  1.0900 -1.7087
 1699SOL     OW16555   4.692   1.833   7.367  0.1594 -0.1197  0.1868
 1699SOL    HW116556   4.648   1.886   7.300 -0.3743 -0.4762  0.2597
 1699SOL    HW216557   0.012   1.776   7.305  1.6927  0.1901  1.0046
 1700SOL     OW16558   3.268   0.813   5.277 -0.1055 -0.0240 -0.0689
 1700SOL    HW116559   3.341   0.793   5.336 -0.9711 -0.7661  0.7345
 1700SOL    HW216560   3.198   0.776   5.330  0.3825 -2.2448 -0.9957
 1701SOL     OW16561   0.951   4.264  16.529  0.4359  0.1604  0.3293
 1701SOL    HW116562   1.001   4.304  16.600 -2.7115  2.6590  1.1149
 1701SOL    HW216563   0.922   4.184  16.573 -2.5239 -0.6853 -3.1773
 1702SOL     OW16564   2.629   0.095   6.510  0.1599 -0.1931 -0.3737
 1702SOL    HW116565   2.568   0.028   6.540 -0.7550  0.6161 -0.4507
 1702SOL    HW216566   2.633   0.154   6.586 -3.6546  0.1360 -0.4266
 1703SOL     OW16567   1.355   4.646  17.438  1.0161 -0.2164  0.2766
 1703SOL    HW116568   1.322   4.627  17.350  2.4441  2.0606 -0.7539
 1703SOL    HW216569   1.416   4.717  17.415 -0.2291  0.9993  0.7623
 1704SOL     OW16570   3.670   4.569   7.774 -0.5107 -0.0594 -0.5840
 1704SOL    HW116571   3.704   4.653   7.805 -0.0756  0.5461 -2.6688
 1704SOL    HW216572   3.577   4.568   7.795 -0.5661  0.8552 -0.8158
 1705SOL     OW16573   2.383   4.578   8.670  0.5083  0.1969 -0.4385
 1705SOL    HW116574   2.371   4.671   8.690 -2.6780  0.2910 -2.7107
 1705SOL    HW216575   2.369   4.591   8.576  1.7663  3.9750 -0.1091
 1706SOL     OW16576   2.984   2.378   0.341  0.0226 -0.4400 -0.4389
 1706SOL    HW116577   2.975   2.288   0.374 -0.3231  0.2943  1.5203
 1706SOL    HW216578   3.039   2.372   0.264  0.8023  0.2222  0.0689
 1707SOL     OW16579   1.933   1.762   6.520  0.3029 -0.0176  0.0286
 1707SOL    HW116580   2.022   1.739   6.547  0.0085 -1.6239 -0.3504
 1707SOL    HW216581   1.955   1.818   6.446 -0.4307 -2.6546 -2.2011
 1708SOL     OW16582   4.046   4.093   4.223 -0.0373  0.2033 -0.6051
 1708SOL    HW116583   4.128   4.094   4.273  0.1640  0.8639 -0.9508
 1708SOL    HW216584   4.021   4.002   4.238  3.0865 -0.2223  1.9812
 1709SOL     OW16585   4.261   2.291   4.855 -0.1371  0.6530  0.2224
 1709SOL    HW116586   4.286   2.320   4.942  0.5336 -1.0195  0.5936
 1709SOL    HW216587   4.332   2.333   4.806 -0.0271  1.1780  0.8419
 1710SOL     OW16588   4.515   0.549   3.910 -0.1101 -0.3664 -0.7869
 1710SOL    HW116589   4.492   0.621   3.969 -0.5815 -0.6775 -0.5874
 1710SOL    HW216590   4.430   0.512   3.886 -0.6106 -0.4831  1.1888
 1711SOL     OW16591   1.690   3.274  10.909 -0.0931 -0.1329 -0.9861
 1711SOL    HW116592   1.651   3.360  10.926 -0.5097 -0.7384  1.1469
 1711SOL    HW216593   1.730   3.267  10.996 -2.3015  2.7665  0.2711
 1712SOL     OW16594   0.416   3.960  13.326  0.3293 -0.1416  0.0047
 1712SOL    HW116595   0.486   3.944  13.263  1.0182 -1.7065  1.1554
 1712SOL    HW216596   0.461   4.013  13.392  1.2417  1.0657 -1.5947
 1713SOL     OW16597   1.795   4.679   3.930 -0.7867 -0.3582  0.2299
 1713SOL    HW116598   1.874   4.655   3.978 -0.7062  2.2910  1.4220
 1713SOL    HW216599   1.771   4.601   3.881  1.5824 -1.0982  0.2737
 1714SOL     OW16600   3.732   2.308   6.069  0.1021 -0.1362 -0.1806
 1714SOL    HW116601   3.678   2.291   5.993 -1.0317 -1.8041  1.0004
 1714SOL    HW216602   3.670   2.348   6.130 -0.3362  2.0310 -2.0538
 1715SOL     OW16603   1.032   1.754   4.361 -0.6115 -0.3152  0.4915
 1715SOL    HW116604   0.948   1.774   4.319 -0.0718 -2.3873 -1.5473
 1715SOL    HW216605   1.100   1.792   4.305 -0.4660  0.4342  1.1626
 1716SOL     OW16606   4.363   0.818   1.721  0.5927  0.1148  0.4727
 1716SOL    HW116607   4.378   0.889   1.783 -1.4674  2.0948 -1.2847
 1716SOL    HW216608   4.326   0.859   1.642 -1.3459 -0.1399  1.2365
 1717SOL     OW16609   3.555   0.395   9.137 -0.3311 -0.2279 -0.1791
 1717SOL    HW116610   3.593   0.447   9.067 -1.0145  2.0738  1.1733
 1717SOL    HW216611   3.594   0.426   9.219 -0.2366  1.2270 -0.7945
 1718SOL     OW16612   2.702   4.437   7.088  0.0665 -0.2402 -0.1054
 1718SOL    HW116613   2.618   4.397   7.110  0.7421 -0.1335  2.6361
 1718SOL    HW216614   2.687   4.532   7.085 -0.6846 -0.4304 -2.2093
 1719SOL     OW16615   0.588   3.145   5.812  0.1832  0.5846  0.2985
 1719SOL    HW116616   0.510   3.159   5.866 -1.1329 -2.6678 -0.7522
 1719SOL    HW216617   0.575   3.231   5.771 -0.6670 -1.1828 -3.2153
 1720SOL     OW16618   2.459   0.722  16.954  0.0558  0.3419 -0.1958
 1720SOL    HW116619   2.412   0.654  17.001  2.1738 -0.6634  0.4542
 1720SOL    HW216620   2.417   0.803  16.985  1.9466  0.8124  1.0885
 1721SOL     OW16621   1.038   0.076  13.779  0.0385 -0.5426  0.6921
 1721SOL    HW116622   1.004   0.051  13.864  1.0790 -0.8409  1.0233
 1721SOL    HW216623   1.133   0.083  13.789  0.3050 -1.3966 -1.2484
 1722SOL     OW16624   4.524   3.799   5.450  0.2651 -0.7274  0.5958
 1722SOL    HW116625   4.482   3.754   5.524 -1.1323 -2.0877 -1.0344
 1722SOL    HW216626   4.573   3.725   5.416 -0.8208 -1.3117  0.3014
 1723SOL     OW16627   1.170   1.421   3.457 -0.1538 -0.3844 -0.5718
 1723SOL    HW116628   1.106   1.418   3.386 -0.3321 -3.1864 -0.2944
 1723SOL    HW216629   1.116   1.432   3.536  1.1526  1.2770  0.0908
 1724SOL     OW16630   3.306   0.529  13.973  0.1481 -0.4416  0.4980
 1724SOL    HW116631   3.265   0.448  13.944 -1.2233  1.1687 -2.0386
 1724SOL    HW216632   3.226   0.580  13.987 -0.3505 -0.9938 -0.3424
 1725SOL     OW16633   2.270   0.637   3.447  0.1624  0.5053  0.2533
 1725SOL    HW116634   2.365   0.637   3.457  0.3434  1.5523 -1.5561
 1725SOL    HW216635   2.257   0.569   3.382  1.1267 -2.1126  2.7920
 1726SOL     OW16636   3.992   1.679   5.421  0.2435 -0.3763 -0.0850
 1726SOL    HW116637   3.996   1.772   5.441 -3.2592 -0.1957 -0.1525
 1726SOL    HW216638   3.993   1.646   5.511 -0.9256 -2.6703 -0.9197
 1727SOL     OW16639   1.409   4.602   3.645 -0.3610 -0.1071  0.0316
 1727SOL    HW116640   1.503   4.585   3.643 -0.1068  1.4541 -1.3365
 1727SOL    HW216641   1.384   4.542   3.716  1.3820  0.6835  1.3306
 1728SOL     OW16642   4.371   0.543   1.673  0.4337  0.4010  0.0894
 1728SOL    HW116643   4.375   0.638   1.681 -0.9061  0.3980  0.9124
 1728SOL    HW216644   4.334   0.519   1.759  0.7535  1.4118  0.5055
 1729SOL     OW16645   3.511   0.406  17.583 -0.3647  0.6879 -0.0198
 1729SOL    HW116646   3.544   0.485  17.624 -0.5362  0.4572  0.5667
 1729SOL    HW216647   3.546   0.407  17.494  0.8214 -1.1084  0.4096
 1730SOL     OW16648   2.812   0.033  14.243 -0.1819  0.1347 -0.5558
 1730SOL    HW116649   2.749   0.045  14.172  0.5685 -1.3285 -1.4494
 1730SOL    HW216650   2.874   0.098  14.209  0.6644  0.2028  1.1251
 1731SOL     OW16651   4.305   0.614  16.386 -0.3201 -0.2027 -0.8406
 1731SOL    HW116652   4.220   0.621  16.429 -0.1919 -2.6818 -0.1953
 1731SOL    HW216653   4.288   0.684  16.323 -0.4489  0.4549 -0.0804
 1732SOL     OW16654   4.424   2.404   7.932  0.6067 -0.2925  0.0568
 1732SOL    HW116655   4.439   2.456   7.853  1.7221  0.8078  1.0045
 1732SOL    HW216656   4.346   2.452   7.961  0.2537 -0.6058 -0.3692
 1733SOL     OW16657   1.275   3.940   8.269  0.5976 -0.2971  0.3746
 1733SOL    HW116658   1.273   3.923   8.175 -1.1150 -0.3848  0.4178
 1733SOL    HW216659   1.352   3.888   8.293  0.4529 -0.7958 -0.2371
 1734SOL     OW16660   3.197   2.887   2.996 -0.0532 -0.0615  0.1102
 1734SOL    HW116661   3.230   2.949   3.061  1.2431 -1.0253  0.3516
 1734SOL    HW216662   3.190   2.944   2.918  1.4371 -0.8946 -0.6305
 1735SOL     OW16663   0.803   0.067   6.932 -0.5097 -0.1241  0.3609
 1735SOL    HW116664   0.727   0.123   6.949 -1.0186 -0.6581 -0.1634
 1735SOL    HW216665   0.769   0.020   6.856  1.9971 -1.9120  0.3453
 1736SOL     OW16666   0.819   3.032  13.011  0.0803 -0.3490  0.0560
 1736SOL    HW116667   0.819   2.954  13.066  0.4066 -0.1410  0.3536
 1736SOL    HW216668   0.904   3.074  13.023 -0.4468  0.4812  0.9204
 1737SOL     OW16669   1.896   1.478  11.459  0.2766  0.2579 -0.9800
 1737SOL    HW116670   1.968   1.454  11.517 -0.0860 -1.8643 -1.4243
 1737SOL    HW216671   1.904   1.572  11.442  0.4010  0.4473  0.0930
 1738SOL     OW16672   1.414   1.383  13.623  0.3180 -0.2233 -0.1570
 1738SOL    HW116673   1.403   1.461  13.677 -1.3070  0.1626 -1.0448
 1738SOL    HW216674   1.497   1.352  13.659  0.3319 -0.0839 -0.0702
 1739SOL     OW16675   2.631   1.309   8.252  0.2154 -0.3641  0.3594
 1739SOL    HW116676   2.690   1.299   8.327  0.5342 -1.1418  0.0088
 1739SOL    HW216677   2.550   1.329   8.297 -0.2575  0.6012 -0.9412
 1740SOL     OW16678   1.422   1.422   5.872  0.0677 -0.4399  0.1526
 1740SOL    HW116679   1.396   1.357   5.806 -2.8394  0.7222  0.1659
 1740SOL    HW216680   1.363   1.398   5.943 -0.2920  0.2063  0.0735
 1741SOL     OW16681   0.687   0.786   6.715 -0.4450 -0.0514  0.3500
 1741SOL    HW116682   0.685   0.877   6.745  1.2081 -0.5196  1.8581
 1741SOL    HW216683   0.775   0.757   6.737 -0.3369 -1.5888 -2.0856
 1742SOL     OW16684   4.547   0.143   3.592  0.6130  0.3020 -0.0792
 1742SOL    HW116685   4.616   0.084   3.624  1.1700 -0.0812 -1.9860
 1742SOL    HW216686   4.578   0.216   3.645 -0.8812 -0.7701  2.3045
 1743SOL     OW16687   2.058   0.625  11.254 -0.2682  0.2287  0.0258
 1743SOL    HW116688   1.981   0.597  11.205  0.6172  1.9697 -2.2964
 1743SOL    HW216689   2.086   0.700  11.202  1.4410 -0.2652  0.2334
 1744SOL     OW16690   1.497   3.183   3.286 -0.4254  0.3874  0.2946
 1744SOL    HW116691   1.540   3.155   3.366  1.4568  1.9279 -0.1719
 1744SOL    HW216692   1.558   3.160   3.216 -0.1279  0.4838  0.5254
 1745SOL     OW16693   3.230   2.445   8.665 -0.2252  0.2476  0.2949
 1745SOL    HW116694   3.198   2.443   8.755 -0.2795 -1.3350  0.2393
 1745SOL    HW216695   3.323   2.454   8.686 -0.9000  4.1576  1.6350
 1746SOL     OW16696   4.172   1.068  10.240  0.0884  0.6737  0.0852
 1746SOL    HW116697   4.108   1.021  10.187  0.9210  1.6258 -1.7271
 1746SOL    HW216698   4.121   1.115  10.306  0.6784  2.2059 -0.5668
 1747SOL     OW16699   1.032   0.397  15.485 -0.2706  0.4460  0.1358
 1747SOL    HW116700   0.961   0.345  15.446  0.7434 -1.7321  1.2134
 1747SOL    HW216701   1.042   0.458  15.411  1.5828 -0.3272 -0.2516
 1748SOL     OW16702   1.868   1.466   9.082 -0.3704  0.2465  0.1504
 1748SOL    HW116703   1.890   1.415   9.004 -3.7171 -0.1476 -0.5304
 1748SOL    HW216704   1.774   1.449   9.078 -0.4774  1.2875 -1.8612
 1749SOL     OW16705   3.771   2.427   2.590  0.4906 -0.4428  0.2736
 1749SOL    HW116706   3.683   2.413   2.556  0.3701 -0.4101  0.5747
 1749SOL    HW216707   3.759   2.435   2.685  0.2574  0.2427  0.1912
 1750SOL     OW16708   3.205   2.020   7.587 -0.1848  0.2051  0.0491
 1750SOL    HW116709   3.266   2.067   7.530 -0.8373 -0.5248 -1.2724
 1750SOL    HW216710   3.156   1.969   7.522  2.1316 -1.3203 -0.4937
 1751SOL     OW16711   0.542   2.986   8.425  0.0660  0.2355  0.5809
 1751SOL    HW116712   0.638   2.991   8.431  0.2062 -1.2541 -0.3373
 1751SOL    HW216713   0.507   3.065   8.466  5.0941  2.2295  1.0950
 1752SOL     OW16714   2.948   0.703  14.983  0.2910 -0.4982  0.1611
 1752SOL    HW116715   2.995   0.753  14.917  0.5793 -0.3368  0.4838
 1752SOL    HW216716   3.016   0.648  15.021 -0.4257 -0.6585  1.2325
 1753SOL     OW16717   4.171   0.733   0.002 -0.1770 -0.4702  0.2470
 1753SOL    HW116718   4.225   0.807  17.676  1.6022 -1.3901  1.3980
 1753SOL    HW216719   4.235   0.664  17.685 -1.0472 -1.1662 -0.2487
 1754SOL     OW16720   2.735   3.452   0.406 -0.5535 -0.0301  0.7731
 1754SOL    HW116721   2.647   3.441   0.371  0.2602  1.1093 -1.6036
 1754SOL    HW216722   2.772   3.367   0.430 -0.6705 -0.4771 -0.6303
 1755SOL     OW16723   0.495   4.276   2.100 -0.7026 -0.4864 -0.1658
 1755SOL    HW116724   0.586   4.251   2.112 -0.8794 -1.6714 -1.2586
 1755SOL    HW216725   0.468   4.313   2.184  0.5760  1.9019 -0.7951
 1756SOL     OW16726   0.486   4.600   6.980  0.4734 -0.4760 -0.3492
 1756SOL    HW116727   0.524   4.542   6.913  2.5793  1.0320 -0.4566
 1756SOL    HW216728   0.538   4.568   7.054 -2.0968  0.8630  2.0529
 1757SOL     OW16729   1.489   2.546   0.653 -0.3180 -0.2936  0.6824
 1757SOL    HW116730   1.581   2.521   0.661 -0.3621 -0.6879 -0.0525
 1757SOL    HW216731   1.487   2.604   0.729  0.5161 -1.8833  1.9195
 1758SOL     OW16732   1.104   3.223   0.153  0.0314 -0.0742 -0.1476
 1758SOL    HW116733   1.107   3.258   0.242  0.4727 -0.2512 -0.0933
 1758SOL    HW216734   1.134   3.133   0.164  0.1229 -0.2907 -2.1226
 1759SOL     OW16735   4.459   0.289   0.014 -0.1766 -0.6579  0.3838
 1759SOL    HW116736   4.513   0.299  17.634 -1.4610  1.3462 -0.2441
 1759SOL    HW216737   4.412   0.211  17.682 -1.8288  0.0671  1.0380
 1760SOL     OW16738   3.401   3.517   5.948 -0.4401  0.3999  0.3343
 1760SOL    HW116739   3.452   3.449   5.991  0.1774  0.5414 -0.1729
 1760SOL    HW216740   3.440   3.588   5.999  1.5047 -1.2964  1.2474
 1761SOL     OW16741   4.299   3.866   3.510  0.4414  0.3873 -0.7946
 1761SOL    HW116742   4.285   3.937   3.447  0.7667  1.4227  0.2962
 1761SOL    HW216743   4.368   3.906   3.562  1.3433 -2.5862  0.3015
 1762SOL     OW16744   1.806   1.260   2.766 -0.1139 -0.0974 -0.3213
 1762SOL    HW116745   1.871   1.196   2.797  2.2376  1.2953 -2.3982
 1762SOL    HW216746   1.860   1.338   2.774  0.6752 -0.5557 -1.1401
 1763SOL     OW16747   1.524   4.139   6.460  0.3566 -0.0675  0.0603
 1763SOL    HW116748   1.597   4.177   6.509  0.9149 -1.5836  0.4218
 1763SOL    HW216749   1.443   4.153   6.509  0.3920  0.9451 -0.1784
 1764SOL     OW16750   0.394   4.695   3.553 -0.1561 -0.0792 -0.2346
 1764SOL    HW116751   0.323   0.031   3.533  0.5120  0.6607 -0.3820
 1764SOL    HW216752   0.450   4.717   3.478  1.1669 -2.4105  0.0645
 1765SOL     OW16753   2.998   0.642   1.583 -0.7189 -0.2045  0.1213
 1765SOL    HW116754   3.032   0.559   1.549  1.0056  0.2333  0.7756
 1765SOL    HW216755   3.040   0.707   1.526  0.5874 -0.3217  0.9619
 1766SOL     OW16756   2.101   0.524   7.119 -0.4704  0.4578 -0.3506
 1766SOL    HW116757   2.014   0.551   7.148 -1.7957 -2.2877 -1.6503
 1766SOL    HW216758   2.138   0.498   7.203  0.2151  0.1057 -0.7594
 1767SOL     OW16759   4.094   2.946   0.013  0.2884 -0.5120 -0.1108
 1767SOL    HW116760   4.086   3.039  17.691 -1.5169 -0.7744 -0.5860
 1767SOL    HW216761   4.006   2.910   0.002 -0.5912  1.9845 -1.3854
 1768SOL     OW16762   3.062   0.617  12.831  0.0627 -0.2223 -0.1585
 1768SOL    HW116763   2.996   0.568  12.881 -1.4685  0.8633 -1.1248
 1768SOL    HW216764   3.118   0.543  12.807  1.4801  0.5207  0.8674
 1769SOL     OW16765   4.486   0.182  16.423  0.6641 -0.1802  0.0100
 1769SOL    HW116766   4.558   0.164  16.483 -0.3133  0.9975  1.5440
 1769SOL    HW216767   4.478   0.277  16.425  1.3315 -0.1869  2.7338
 1770SOL     OW16768   4.020   3.387   3.910  0.4681  0.3155 -0.1929
 1770SOL    HW116769   4.086   3.434   3.858  0.4197 -0.8746 -1.3432
 1770SOL    HW216770   4.026   3.299   3.872  0.8726  0.4319 -0.3983
 1771SOL     OW16771   0.282   2.289   7.416 -0.0606  0.1423 -0.1477
 1771SOL    HW116772   0.220   2.302   7.487 -0.9874 -1.5774 -0.6382
 1771SOL    HW216773   0.225   2.257   7.345  0.5262  1.6003 -1.2842
 1772SOL     OW16774   0.962   2.391   2.646 -0.0595  0.1517  0.1365
 1772SOL    HW116775   0.988   2.469   2.598 -0.2201  0.5535  0.7168
 1772SOL    HW216776   0.871   2.382   2.617 -0.5467 -1.7117  2.2347
 1773SOL     OW16777   0.660   3.985   7.935 -0.0638  0.0411  0.4252
 1773SOL    HW116778   0.594   4.042   7.974  0.8651  1.1724  0.3332
 1773SOL    HW216779   0.732   4.039   7.902 -0.5817  0.6586  0.3046
 1774SOL     OW16780   2.965   1.586   8.169 -0.5190  0.3906  0.2910
 1774SOL    HW116781   3.028   1.520   8.198  0.3597  0.2806 -1.8592
 1774SOL    HW216782   2.924   1.541   8.095  1.1035 -0.8166  0.1407
 1775SOL     OW16783   0.256   4.473   2.000  0.2353  0.2087  0.5457
 1775SOL    HW116784   0.323   4.407   2.016 -1.1562 -0.6720  2.7422
 1775SOL    HW216785   0.226   4.495   2.088 -2.5620  0.3302 -0.4327
 1776SOL     OW16786   4.316   1.372   4.591  0.2815  0.0056  0.0035
 1776SOL    HW116787   4.314   1.452   4.539 -2.1028  0.9149  1.5220
 1776SOL    HW216788   4.288   1.307   4.526 -0.3523 -0.5440  0.8212
 1777SOL     OW16789   3.547   3.575   8.428  0.4939  0.0327  0.3223
 1777SOL    HW116790   3.480   3.608   8.368  1.8355  0.3337 -1.0153
 1777SOL    HW216791   3.512   3.492   8.461  1.8336 -0.5434  0.3067
 1778SOL     OW16792   1.472   2.341   8.373 -0.1974 -0.6930 -0.3352
 1778SOL    HW116793   1.483   2.249   8.349 -1.0173 -1.3679  1.8924
 1778SOL    HW216794   1.489   2.387   8.291  0.3506  0.0902  0.2050
 1779SOL     OW16795   4.036   0.486   3.085 -0.0047  0.2204  0.6240
 1779SOL    HW116796   3.965   0.534   3.043  1.7426  1.0425 -1.3913
 1779SOL    HW216797   4.109   0.518   3.033 -0.4040 -1.9717 -1.2846
 1780SOL     OW16798   1.000   2.462  12.936 -0.5758 -0.2551  0.4304
 1780SOL    HW116799   1.009   2.373  12.902 -0.5847  0.3826 -1.2451
 1780SOL    HW216800   1.083   2.475  12.982  2.1339  0.1030 -4.5557
 1781SOL     OW16801   2.870   1.772   8.320  0.6645  0.2709  0.3651
 1781SOL    HW116802   2.909   1.703   8.267 -0.1752  0.9199 -1.1045
 1781SOL    HW216803   2.930   1.846   8.308  2.1745 -0.5437  3.0461
 1782SOL     OW16804   4.058   2.429  14.580  0.0094  0.1979  0.5012
 1782SOL    HW116805   4.027   2.517  14.602 -1.0065 -0.0491  0.0352
 1782SOL    HW216806   3.998   2.376  14.632 -0.5509 -0.9179 -1.2870
 1783SOL     OW16807   3.266   0.614   1.084 -0.1199  0.7325  0.6970
 1783SOL    HW116808   3.273   0.700   1.043  0.3298 -0.2070 -1.1641
 1783SOL    HW216809   3.347   0.605   1.134 -1.0137 -0.1660  1.9833
 1784SOL     OW16810   0.946   0.514   0.036 -0.1943 -0.0298  0.2571
 1784SOL    HW116811   0.885   0.570  17.686  1.6365 -1.0663 -3.2049
 1784SOL    HW216812   0.943   0.444  17.670  0.3883 -0.6673  0.9364
 1785SOL     OW16813   3.803   2.548  15.811 -0.5441 -0.0567 -0.2626
 1785SOL    HW116814   3.782   2.464  15.850  2.0284  0.2932  1.8639
 1785SOL    HW216815   3.793   2.538  15.716  0.5111  1.8522 -0.5819
 1786SOL     OW16816   3.582   0.935   3.732 -0.2906  0.0117 -0.0769
 1786SOL    HW116817   3.632   0.868   3.778  1.7749  2.3223  1.0354
 1786SOL    HW216818   3.638   1.013   3.737 -0.9997  0.7169 -3.0349
 1787SOL     OW16819   0.981   2.659   6.997 -0.1086 -0.1668 -0.7345
 1787SOL    HW116820   0.919   2.653   7.070 -0.3966  0.6739 -0.9099
 1787SOL    HW216821   0.955   2.584   6.944 -1.5381 -0.5563  0.4999
 1788SOL     OW16822   3.571   1.053  11.798 -0.3842 -0.3429  0.0620
 1788SOL    HW116823   3.536   1.000  11.726 -0.5931 -1.2689  0.8455
 1788SOL    HW216824   3.556   0.995  11.873 -0.4597 -0.7043 -0.2305
 1789SOL     OW16825   1.011   3.153   2.570 -0.5247 -0.7690  0.5634
 1789SOL    HW116826   1.039   3.100   2.495 -0.3423 -0.5885  0.5044
 1789SOL    HW216827   1.095   3.176   2.609 -0.8674  1.1838  0.1360
 1790SOL     OW16828   1.581   3.235   8.968 -0.5074 -0.3673 -0.6835
 1790SOL    HW116829   1.594   3.163   8.906 -0.0976 -0.9077  0.0210
 1790SOL    HW216830   1.491   3.219   8.995 -0.9750  3.6066  0.1316
 1791SOL     OW16831   0.893   0.351   4.034  0.2308 -0.6917  0.1973
 1791SOL    HW116832   0.866   0.357   3.942  1.0316  0.7362  0.0471
 1791SOL    HW216833   0.859   0.430   4.076  0.5556 -0.6004  0.2953
 1792SOL     OW16834   3.854   3.344   7.149  0.2713 -0.0649 -1.1157
 1792SOL    HW116835   3.912   3.396   7.204  0.6680 -0.4095 -1.2054
 1792SOL    HW216836   3.846   3.409   7.079 -0.2128 -0.0193 -1.0169
 1793SOL     OW16837   0.224   4.692   2.401 -0.3276 -0.1551 -0.4258
 1793SOL    HW116838   0.150   4.702   2.461 -0.4829  0.9902 -0.8078
 1793SOL    HW216839   0.270   0.047   2.428  0.8098 -1.4791  1.4858
 1794SOL     OW16840   0.556   1.616   7.674  0.0341  0.3296 -0.3034
 1794SOL    HW116841   0.534   1.638   7.765  0.5019 -1.3724  0.2173
 1794SOL    HW216842   0.490   1.675   7.639 -1.4707 -0.5534  1.0680
 1795SOL     OW16843   0.592   3.038   1.635 -0.0362  0.2047 -0.3524
 1795SOL    HW116844   0.565   3.045   1.543 -0.6409  1.1621 -0.0992
 1795SOL    HW216845   0.509   3.026   1.681 -2.1619 -1.3665 -4.6088
 1796SOL     OW16846   1.157   0.036   0.603  0.9162  0.1314 -0.0257
 1796SOL    HW116847   1.202   0.116   0.631  0.3613  0.5356 -0.2755
 1796SOL    HW216848   1.089   0.022   0.668  3.4563  3.5279  3.3801
 1797SOL     OW16849   3.563   0.522   2.310  0.0990  0.6039 -0.9658
 1797SOL    HW116850   3.627   0.555   2.373 -0.9770  0.2188  0.3245
 1797SOL    HW216851   3.606   0.550   2.230  2.8400 -1.1362 -0.1178
 1798SOL     OW16852   2.002   3.729   4.452  0.6157 -0.6131  0.7908
 1798SOL    HW116853   1.918   3.736   4.498  0.9371  0.7142  1.1659
 1798SOL    HW216854   2.058   3.675   4.509  2.7898  1.1283  0.3048
 1799SOL     OW16855   1.821   4.101   8.076 -0.3541 -0.0997  0.3905
 1799SOL    HW116856   1.803   4.153   7.998  2.4498 -3.0997 -2.2433
 1799SOL    HW216857   1.739   4.052   8.083 -0.1282 -0.5023  0.2044
 1800SOL     OW16858   2.443   3.784   4.134 -0.3189 -0.4992 -0.2323
 1800SOL    HW116859   2.520   3.802   4.189 -1.8315 -0.2266  1.7943
 1800SOL    HW216860   2.407   3.703   4.172  0.3936 -0.9257 -0.4630
 1801SOL     OW16861   0.643   1.788   5.445 -0.1750 -0.3549  0.2377
 1801SOL    HW116862   0.669   1.704   5.407  1.7445  0.6014 -0.5443
 1801SOL    HW216863   0.702   1.848   5.400 -1.1956 -0.6421 -1.4885
 1802SOL     OW16864   3.083   2.800   7.956  0.1473 -0.4523 -0.0273
 1802SOL    HW116865   3.023   2.791   7.882  0.2733  3.3288 -0.5767
 1802SOL    HW216866   3.131   2.717   7.945 -0.9391 -0.7697 -2.3922
 1803SOL     OW16867   4.628   0.602  11.859 -0.1447 -0.1124 -0.2182
 1803SOL    HW116868   4.623   0.601  11.954  0.4289 -1.1168 -0.1976
 1803SOL    HW216869   4.545   0.647  11.848 -0.1021  0.4202  1.6214
 1804SOL     OW16870   1.946   0.834   4.359  0.2670 -0.0328 -0.4575
 1804SOL    HW116871   2.021   0.815   4.302 -1.0475 -2.4241 -1.4060
 1804SOL    HW216872   1.949   0.756   4.415 -0.6851 -0.5607 -1.1427
 1805SOL     OW16873   2.959   2.661   3.219 -0.3061  0.7175  0.1152
 1805SOL    HW116874   2.914   2.741   3.244 -1.8045  0.7641 -2.7493
 1805SOL    HW216875   2.943   2.601   3.292  0.2204  0.7773  0.2772
 1806SOL     OW16876   0.426   1.621   3.502  0.0680  0.2394  0.2374
 1806SOL    HW116877   0.405   1.608   3.409  0.6344  0.0185  0.1433
 1806SOL    HW216878   0.359   1.686   3.524 -1.2664 -0.8051 -0.6828
 1807SOL     OW16879   3.774   4.310   4.958  0.4204  0.1332  0.5167
 1807SOL    HW116880   3.761   4.379   4.893 -0.2992  0.2830  0.8176
 1807SOL    HW216881   3.743   4.240   4.900 -1.6505 -0.3121  2.1563
 1808SOL     OW16882   4.015   2.804   4.145  0.2304 -0.5310 -0.6768
 1808SOL    HW116883   4.047   2.733   4.089  2.4824  0.1621 -0.2441
 1808SOL    HW216884   3.920   2.792   4.149  0.1726  0.8405  1.4014
 1809SOL     OW16885   0.520   3.261  12.618 -0.0621 -0.1239  0.1103
 1809SOL    HW116886   0.545   3.210  12.695 -0.5916 -1.6233 -0.7036
 1809SOL    HW216887   0.511   3.186  12.559  0.4412  0.2453 -0.4290
 1810SOL     OW16888   1.210   3.985   0.373 -0.1671 -0.1510  0.3040
 1810SOL    HW116889   1.244   4.056   0.427  0.4026 -0.6773  0.6464
 1810SOL    HW216890   1.138   4.031   0.331 -0.6563 -0.2349  1.0379
 1811SOL     OW16891   2.734   0.861  11.958  0.9545  0.3267 -0.0001
 1811SOL    HW116892   2.704   0.832  11.871  2.1201  1.3869 -0.7627
 1811SOL    HW216893   2.686   0.944  11.963 -0.9091 -0.8092  1.0078
 1812SOL     OW16894   2.946   3.730   4.339  0.6835 -0.4214 -0.2851
 1812SOL    HW116895   2.943   3.638   4.365 -1.4179 -0.6611 -1.3525
 1812SOL    HW216896   2.945   3.769   4.426 -0.2171  2.5357 -1.6105
 1813SOL     OW16897   1.939   1.483   2.168 -0.6300  0.2894 -0.5437
 1813SOL    HW116898   1.864   1.528   2.129 -0.9180  0.7882  0.5642
 1813SOL    HW216899   2.008   1.501   2.105 -0.0209 -0.2154 -0.0263
 1814SOL     OW16900   1.961   3.662   7.107 -0.2171 -0.2555 -0.4376
 1814SOL    HW116901   1.882   3.647   7.159 -0.5293 -1.5672 -1.2894
 1814SOL    HW216902   2.002   3.577   7.090  0.7298  0.0390  0.3536
 1815SOL     OW16903   4.436   0.724  10.237  0.0866 -0.2351 -0.4009
 1815SOL    HW116904   4.439   0.717  10.142  0.2142 -1.8991 -0.2799
 1815SOL    HW216905   4.521   0.761  10.264  0.6636 -1.4565 -0.5398
 1816SOL     OW16906   4.515   1.955   7.817  0.1292 -0.3122  0.0855
 1816SOL    HW116907   4.531   1.908   7.736  0.5284  2.6279 -1.5524
 1816SOL    HW216908   4.489   1.888   7.881 -0.5242 -0.7812 -0.6769
 1817SOL     OW16909   3.883   4.537  17.622  0.3509 -0.1274 -0.2760
 1817SOL    HW116910   3.923   4.456  17.592  0.5312 -0.6364  1.3523
 1817SOL    HW216911   3.906   4.539   0.016 -0.7529 -2.1409  0.0366
 1818SOL     OW16912   0.879   4.129   0.472  0.4623  0.1705 -0.1129
 1818SOL    HW116913   0.823   4.206   0.468 -1.9368 -1.6345 -1.3817
 1818SOL    HW216914   0.892   4.112   0.379  1.2050  0.8626 -0.1361
 1819SOL     OW16915   4.455   3.217   4.411  0.4717 -0.0854  0.3074
 1819SOL    HW116916   4.419   3.294   4.455 -0.9976 -0.2662 -0.5645
 1819SOL    HW216917   4.439   3.235   4.319 -4.4822 -0.6663  1.0631
 1820SOL     OW16918   3.448   2.090   4.606 -0.1246 -0.2773  0.6702
 1820SOL    HW116919   3.466   2.150   4.533  2.5934 -2.0090 -0.0840
 1820SOL    HW216920   3.520   2.114   4.664 -0.8052 -1.8645  2.1854
 1821SOL     OW16921   3.024   3.327   5.478 -0.3331 -0.0059 -0.3697
 1821SOL    HW116922   3.044   3.288   5.563 -1.3537  1.0975  0.3742
 1821SOL    HW216923   3.079   3.405   5.483  0.8848 -1.0137  2.3819
 1822SOL     OW16924   0.067   3.520   6.530 -0.4232 -0.1585  0.2240
 1822SOL    HW116925   0.122   3.580   6.580 -0.0126 -0.7935  0.5206
 1822SOL    HW216926   0.130   3.486   6.467  1.0294  2.6825  0.1165
 1823SOL     OW16927   3.135   1.983   7.197 -0.1766  0.2233 -0.2922
 1823SOL    HW116928   3.092   1.906   7.159  1.5014 -0.3594 -0.9926
 1823SOL    HW216929   3.215   1.937   7.222 -1.1592 -0.6889  1.1764
 1824SOL     OW16930   3.772   4.671   0.750  0.3508 -0.3375  0.1730
 1824SOL    HW116931   3.756   0.040   0.762 -4.8704 -1.2140  0.0649
 1824SOL    HW216932   3.865   4.666   0.771  0.2645 -2.0805  0.0988
 1825SOL     OW16933   1.435   3.351  13.637  0.1818  0.3966  0.0230
 1825SOL    HW116934   1.362   3.308  13.592  0.2357  1.1485 -0.7817
 1825SOL    HW216935   1.402   3.441  13.636  3.5822  1.6309  0.6147
 1826SOL     OW16936   1.706   0.270   2.427 -0.2627 -0.3020  0.2173
 1826SOL    HW116937   1.719   0.285   2.520  2.9206 -0.6017 -0.1804
 1826SOL    HW216938   1.777   0.328   2.399  1.1306 -2.0471  0.1607
 1827SOL     OW16939   4.578   1.687   2.287 -0.0498 -0.6954  0.4654
 1827SOL    HW116940   4.613   1.693   2.198  1.1285 -1.6671  0.8718
 1827SOL    HW216941   4.484   1.702   2.271  0.4486  0.8970 -1.0044
 1828SOL     OW16942   0.843   2.980   7.435 -0.0923  0.0993 -0.0704
 1828SOL    HW116943   0.887   2.973   7.350 -1.5270 -0.8138 -0.7417
 1828SOL    HW216944   0.871   2.896   7.472 -0.0812 -0.5388 -1.5221
 1829SOL     OW16945   2.565   0.775  11.432  0.0076 -0.1056  0.2728
 1829SOL    HW116946   2.472   0.779  11.455 -0.0528 -1.5832  0.3343
 1829SOL    HW216947   2.596   0.768  11.523  2.3226 -1.1991 -0.5855
 1830SOL     OW16948   3.064   0.858   4.652  0.8190 -0.0264  0.2813
 1830SOL    HW116949   3.018   0.934   4.617  1.5640  1.0332  1.5913
 1830SOL    HW216950   3.030   0.857   4.741  0.2027 -1.3008  0.0328
 1831SOL     OW16951   0.741   3.166   1.818 -0.5459  0.1497  0.1294
 1831SOL    HW116952   0.705   3.255   1.813 -0.3032  0.3324  1.6417
 1831SOL    HW216953   0.685   3.123   1.753 -0.6124 -0.3108  0.4909
 1832SOL     OW16954   2.643   3.175   0.064  0.1427 -0.0751  0.0010
 1832SOL    HW116955   2.613   3.222   0.142  1.6369  1.0359 -0.1037
 1832SOL    HW216956   2.575   3.108   0.078 -0.3458  0.3689 -0.2762
 1833SOL     OW16957   0.749   1.286   3.069 -0.0754  0.4945  0.2023
 1833SOL    HW116958   0.836   1.304   3.106  0.7161 -1.3143 -0.7321
 1833SOL    HW216959   0.784   1.225   3.003  1.2453  0.6810  0.7167
 1834SOL     OW16960   0.892   0.341   2.334 -0.2354 -0.4263 -0.2329
 1834SOL    HW116961   0.971   0.393   2.346 -1.0276  0.3520  1.5918
 1834SOL    HW216962   0.897   0.313   2.243 -0.4223  1.4471 -0.8077
 1835SOL     OW16963   2.618   4.598   5.314  0.1072 -0.4263  0.0984
 1835SOL    HW116964   2.565   4.532   5.359 -1.3746  0.0421 -0.9754
 1835SOL    HW216965   2.558   4.667   5.285  1.8343  0.6779 -0.8579
 1836SOL     OW16966   3.031   2.493   1.874 -0.3359  0.0651 -0.3543
 1836SOL    HW116967   3.068   2.496   1.786  2.1016  1.6796  0.7294
 1836SOL    HW216968   2.943   2.524   1.854 -0.1272  1.0269  0.2573
 1837SOL     OW16969   0.548   0.750   5.764  0.5665  0.4868  0.3296
 1837SOL    HW116970   0.533   0.821   5.827 -0.5922 -0.8599  1.5810
 1837SOL    HW216971   0.642   0.735   5.771  0.4831  0.1587  0.7608
 1838SOL     OW16972   3.964   3.819   4.257 -0.5873  0.4590  0.3418
 1838SOL    HW116973   3.942   3.776   4.340  0.5275 -1.1062 -0.1687
 1838SOL    HW216974   3.875   3.849   4.238 -0.4082  0.7946  0.0459
 1839SOL     OW16975   3.264   3.254   5.847  0.1211 -0.3818 -0.0770
 1839SOL    HW116976   3.279   3.244   5.753  0.6982  0.5334 -0.0864
 1839SOL    HW216977   3.354   3.265   5.876 -0.3785 -2.0701  2.0742
 1840SOL     OW16978   3.188   4.719  15.292 -0.2943 -0.0677  0.4234
 1840SOL    HW116979   3.160   4.636  15.330 -0.7055 -0.1274 -0.0183
 1840SOL    HW216980   3.280   0.003  15.319  0.6758 -0.6853 -2.7914
 1841SOL     OW16981   4.520   0.265   2.020  0.0793 -0.5808  0.6393
 1841SOL    HW116982   4.480   0.179   2.007  3.4455 -1.9233 -0.8388
 1841SOL    HW216983   4.443   0.320   2.004  0.0322 -0.6935  0.4828
 1842SOL     OW16984   3.294   3.093   0.328 -0.1360 -0.2642 -0.5314
 1842SOL    HW116985   3.253   3.179   0.323  0.0464 -0.1421  0.1562
 1842SOL    HW216986   3.314   3.077   0.236  0.4975 -0.0559 -0.4289
 1843SOL     OW16987   0.946   4.444   9.637 -0.0848  0.0416 -0.1495
 1843SOL    HW116988   0.985   4.495   9.566  0.2533  1.1186  0.8021
 1843SOL    HW216989   0.945   4.353   9.607  0.0366  0.1087 -0.3578
 1844SOL     OW16990   1.044   3.211   7.491  0.2657 -0.1868  0.0835
 1844SOL    HW116991   1.036   3.178   7.401  0.0410  4.0882 -1.4403
 1844SOL    HW216992   1.008   3.298   7.475 -0.9009 -0.8156 -0.7914
 1845SOL     OW16993   4.041   3.304   6.082  0.1504 -0.1669 -0.0568
 1845SOL    HW116994   4.040   3.372   6.150  0.8817  1.9023 -2.1119
 1845SOL    HW216995   3.984   3.238   6.122 -1.0932  1.3376  0.6349
 1846SOL     OW16996   3.151   1.908   7.852 -0.3604 -0.1328 -0.1891
 1846SOL    HW116997   3.163   1.914   7.757  1.5245 -2.8958 -0.1392
 1846SOL    HW216998   3.238   1.916   7.889 -0.3158  0.0058 -0.3244
 1847SOL     OW16999   1.574   0.249   7.331  0.5137 -0.3666  0.2502
 1847SOL    HW117000   1.479   0.235   7.326  0.4752  0.3941 -1.1761
 1847SOL    HW217001   1.613   0.166   7.304  1.6008  0.7232 -1.5983
 1848SOL     OW17002   1.421   3.578   4.276  0.5701 -0.1772  0.1733
 1848SOL    HW117003   1.445   3.569   4.184 -0.4679 -1.8126  0.0609
 1848SOL    HW217004   1.334   3.540   4.282  0.3221  0.2142 -0.9530
 1849SOL     OW17005   3.169   2.000   6.593 -0.0414 -0.4029  0.0043
 1849SOL    HW117006   3.202   2.025   6.506  0.1135  0.1525  0.2234
 1849SOL    HW217007   3.247   1.993   6.648  1.0051  0.5754 -1.3572
 1850SOL     OW17008   4.419   3.023   5.157 -0.1483  0.2453  0.1143
 1850SOL    HW117009   4.473   2.991   5.229  0.9144  1.5346 -0.1166
 1850SOL    HW217010   4.332   2.991   5.181  0.8339 -3.6880 -1.5782
 1851SOL     OW17011   2.662   3.838   4.590  0.2822 -0.1120  0.0526
 1851SOL    HW117012   2.615   3.756   4.610  1.6121 -0.3476  2.1965
 1851SOL    HW217013   2.655   3.848   4.495  2.6474  2.6165  0.1931
 1852SOL     OW17014   0.484   4.362   8.984 -0.3276 -0.1104 -0.4672
 1852SOL    HW117015   0.421   4.302   8.944 -0.2602  0.1961 -1.0288
 1852SOL    HW217016   0.472   4.326   9.072  1.1021 -0.3065 -0.3518
 1853SOL     OW17017   2.829   0.565  16.429 -0.0502  0.0635  0.0170
 1853SOL    HW117018   2.897   0.526  16.483 -0.2863 -2.4355 -1.4963
 1853SOL    HW217019   2.869   0.597  16.348  1.8154  0.1263  0.9794
 1854SOL     OW17020   3.249   0.403   5.768 -0.0652  0.1854 -0.4227
 1854SOL    HW117021   3.233   0.323   5.818  1.7313  0.3711  0.4604
 1854SOL    HW217022   3.272   0.356   5.688  0.6781 -0.3972  0.1332
 1855SOL     OW17023   1.082   3.010   6.901  0.1759  0.1240  0.3126
 1855SOL    HW117024   1.133   3.085   6.933  1.6961 -0.3261 -1.0333
 1855SOL    HW217025   1.029   3.052   6.834  0.2945 -2.5369 -1.4300
 1856SOL     OW17026   3.956   1.588   3.859 -0.5679 -0.5548 -0.2085
 1856SOL    HW117027   3.940   1.575   3.953 -1.1396 -1.6224 -0.4563
 1856SOL    HW217028   3.914   1.509   3.826  0.6324 -1.3855  0.2743
 1857SOL     OW17029   4.392   1.177  11.446 -0.2200 -0.0146  0.0524
 1857SOL    HW117030   4.305   1.154  11.414 -0.2316  2.0750 -1.4927
 1857SOL    HW217031   4.447   1.128  11.385  2.3718  2.5609  0.3165
 1858SOL     OW17032   3.386   3.144   1.669  0.1725 -0.0280  0.1803
 1858SOL    HW117033   3.315   3.200   1.636 -0.8162 -0.3225  1.8005
 1858SOL    HW217034   3.354   3.054   1.667  0.2580 -0.0390 -0.6226
 1859SOL     OW17035   4.615   3.432  12.841 -0.3506 -0.4499 -0.4236
 1859SOL    HW117036   4.583   3.344  12.819 -2.8386  0.9726 -2.4639
 1859SOL    HW217037   4.618   3.463  12.751  0.3662 -1.1886 -0.6588
 1860SOL     OW17038   0.736   2.427   3.677 -0.1642  0.0847  0.8663
 1860SOL    HW117039   0.688   2.509   3.674  0.0634  0.1189 -1.5405
 1860SOL    HW217040   0.726   2.404   3.585 -2.8683 -3.2203  1.9856
 1861SOL     OW17041   4.562   1.444   5.070 -0.1775 -0.0416 -0.3664
 1861SOL    HW117042   4.489   1.497   5.037  0.0083  0.5010  0.1019
 1861SOL    HW217043   4.616   1.424   4.993 -2.5002 -2.2104 -1.4262
 1862SOL     OW17044   4.580   3.585   8.458  0.0500 -0.2650  0.3996
 1862SOL    HW117045   4.614   3.501   8.426 -3.0417 -1.6557  0.7254
 1862SOL    HW217046   4.541   3.619   8.377  0.0865 -1.9458 -0.3321
 1863SOL     OW17047   3.154   4.488  17.294 -0.0274 -0.2642  0.6922
 1863SOL    HW117048   3.158   4.541  17.215 -1.9338 -2.4684 -0.8722
 1863SOL    HW217049   3.203   4.411  17.265 -0.2290 -0.1799  0.1404
 1864SOL     OW17050   3.670   0.366   5.590 -0.3185 -0.0499  0.5367
 1864SOL    HW117051   3.592   0.405   5.550  1.1414  1.1512 -1.1628
 1864SOL    HW217052   3.684   0.437   5.652 -1.0200 -0.3528  1.0353
 1865SOL     OW17053   0.656   0.179   5.023  0.5836  0.3276  0.3229
 1865SOL    HW117054   0.714   0.105   5.040 -2.7954 -2.2418  0.6848
 1865SOL    HW217055   0.650   0.167   4.928 -0.7376  1.0197  0.3258
 1866SOL     OW17056   4.176   2.516  13.220  0.0142 -0.1923 -0.0825
 1866SOL    HW117057   4.270   2.505  13.206  0.1410  1.7648 -0.7637
 1866SOL    HW217058   4.145   2.426  13.221  0.8916 -0.4993 -0.8252
 1867SOL     OW17059   0.607   3.952   8.682 -0.5795  0.5724  0.1643
 1867SOL    HW117060   0.671   3.881   8.685 -0.6322  0.5956  1.7117
 1867SOL    HW217061   0.595   3.969   8.775 -1.6576  0.0327  0.1197
 1868SOL     OW17062   2.173   2.631   6.148 -0.2294 -0.2119  0.0410
 1868SOL    HW117063   2.139   2.587   6.226 -2.1192  1.8593  0.3933
 1868SOL    HW217064   2.226   2.699   6.190 -0.8902  0.9344 -1.0090
 1869SOL     OW17065   2.532   4.711   0.064  0.8946 -0.5300 -0.0164
 1869SOL    HW117066   2.511   4.650   0.135 -1.2253 -0.0396 -0.2074
 1869SOL    HW217067   2.627   4.709   0.055  0.8418 -0.5004 -0.5532
 1870SOL     OW17068   2.905   2.650   0.584  0.1777  0.3194 -0.0678
 1870SOL    HW117069   2.953   2.573   0.613  0.1339  0.3564  0.1017
 1870SOL    HW217070   2.935   2.654   0.493  0.8472  0.3496  0.1526
 1871SOL     OW17071   1.166   2.607   1.312  0.7229 -0.6973  0.4141
 1871SOL    HW117072   1.135   2.638   1.397  1.5312  0.8259  0.1644
 1871SOL    HW217073   1.226   2.543   1.349 -0.7551 -1.9854  0.5689
 1872SOL     OW17074   0.096   0.312   8.721 -0.4389 -0.4573  0.2996
 1872SOL    HW117075   0.154   0.347   8.655  2.0207 -0.6584  2.3512
 1872SOL    HW217076   0.114   0.384   8.781 -1.7771 -2.6828  3.3911
 1873SOL     OW17077   0.380   2.424   3.358 -0.1315 -0.7842 -0.0221
 1873SOL    HW117078   0.442   2.351   3.362  0.8814  0.0779  0.0468
 1873SOL    HW217079   0.386   2.453   3.449  1.3582  0.0029 -0.3809
 1874SOL     OW17080   2.932   0.971   1.379 -0.1768  0.4973 -0.3633
 1874SOL    HW117081   2.907   0.952   1.289  1.5110  0.2099 -0.7570
 1874SOL    HW217082   2.842   0.974   1.412  0.9550  1.0560  2.6873
 1875SOL     OW17083   2.835   0.534   6.506 -0.2046 -0.3948 -0.2962
 1875SOL    HW117084   2.825   0.439   6.518 -1.5411 -0.2588 -0.2394
 1875SOL    HW217085   2.759   0.565   6.555 -0.1417  0.3484 -0.6654
 1876SOL     OW17086   2.698   1.635   6.286 -0.0984  0.2143  0.3394
 1876SOL    HW117087   2.660   1.556   6.324 -0.6778  0.6221  0.5993
 1876SOL    HW217088   2.777   1.594   6.250 -1.1176 -0.8946 -0.6002
 1877SOL     OW17089   1.508   3.023   8.786 -0.9854  0.1338 -0.2632
 1877SOL    HW117090   1.598   2.996   8.769  0.0296  2.2727  1.6327
 1877SOL    HW217091   1.469   3.001   8.702  2.6240 -1.5495 -1.4976
 1878SOL     OW17092   0.216   4.524   5.531  0.2702 -0.0040  0.0782
 1878SOL    HW117093   0.297   4.475   5.518 -0.1149 -0.7260  0.4168
 1878SOL    HW217094   0.150   4.462   5.561 -0.2049  0.6740  0.4227
 1879SOL     OW17095   4.269   0.964   7.571  0.1892 -0.0108  0.4180
 1879SOL    HW117096   4.330   0.946   7.499 -1.1943 -2.4414 -0.1710
 1879SOL    HW217097   4.325   1.019   7.625  0.6156  1.0150 -1.0608
 1880SOL     OW17098   4.317   0.972  10.974  0.1776  0.0215  0.0984
 1880SOL    HW117099   4.410   0.955  10.963 -0.2840 -0.2570 -3.3193
 1880SOL    HW217100   4.295   1.010  10.888  2.9675  4.2259  1.2247
 1881SOL     OW17101   1.438   0.928   7.036 -0.3506  0.1686  0.1993
 1881SOL    HW117102   1.348   0.899   7.016  0.4494 -1.5277 -0.9515
 1881SOL    HW217103   1.494   0.851   7.025 -0.1413  0.4915 -1.0454
 1882SOL     OW17104   2.801   1.512   3.539  0.7896  0.0938  0.4904
 1882SOL    HW117105   2.751   1.493   3.460  1.0609  1.5209 -0.0382
 1882SOL    HW217106   2.862   1.438   3.542 -0.8282 -1.2348  0.2935
 1883SOL     OW17107   3.010   4.255   9.928 -0.0065  0.5533 -0.1706
 1883SOL    HW117108   2.968   4.186   9.877 -0.8460  0.2638  0.9147
 1883SOL    HW217109   3.056   4.308   9.863  1.2020 -0.2805  0.0024
 1884SOL     OW17110   3.344   1.268   4.098  0.0915  0.6958 -0.2169
 1884SOL    HW117111   3.353   1.180   4.061 -0.5670 -0.0273  1.3474
 1884SOL    HW217112   3.324   1.238   4.187 -2.2369  1.4223 -0.5154
 1885SOL     OW17113   1.508   4.011   7.966  1.0633 -0.1325  0.7448
 1885SOL    HW117114   1.550   3.946   7.909 -1.5866 -0.3003 -0.9961
 1885SOL    HW217115   1.416   3.984   7.957  1.0784 -0.1259  0.5691
 1886SOL     OW17116   4.334   3.904  11.739  0.5652  0.4525  0.3625
 1886SOL    HW117117   4.315   3.826  11.790  0.0425 -1.5525 -2.8950
 1886SOL    HW217118   4.263   3.961  11.769 -0.3560 -0.6943  0.3773
 1887SOL     OW17119   0.142   1.967  17.424 -0.2323 -0.0927  0.0271
 1887SOL    HW117120   0.160   2.051  17.383  2.1975 -0.3721  0.5007
 1887SOL    HW217121   0.229   1.927  17.426 -0.8699 -1.3939  2.3750
 1888SOL     OW17122   1.838   1.135   6.671  0.3816 -0.0002  0.3641
 1888SOL    HW117123   1.782   1.092   6.735 -0.3172  1.0710  0.4641
 1888SOL    HW217124   1.777   1.191   6.622 -0.8572  0.2724  2.2263
 1889SOL     OW17125   4.606   3.082   5.962 -0.3211 -0.6480  0.6931
 1889SOL    HW117126   4.598   3.157   6.020 -1.3863  1.0720 -1.6857
 1889SOL    HW217127   4.515   3.052   5.970 -0.5550 -0.0576  0.2628
 1890SOL     OW17128   2.123   0.694   0.268 -0.1099 -0.1279  0.1332
 1890SOL    HW117129   2.074   0.628   0.220  1.0809 -0.5188 -0.5425
 1890SOL    HW217130   2.072   0.771   0.242  2.2913  1.5526  0.3492
 1891SOL     OW17131   4.373   2.852   4.851 -0.1186 -0.3050 -0.3156
 1891SOL    HW117132   4.313   2.907   4.801  1.5499  0.8805 -1.0517
 1891SOL    HW217133   4.312   2.802   4.904  1.4107 -2.1947 -0.3296
 1892SOL     OW17134   1.759   1.682  14.934 -0.1403 -0.3459 -0.0796
 1892SOL    HW117135   1.756   1.778  14.933  0.1570 -0.3697 -1.7285
 1892SOL    HW217136   1.842   1.646  14.903 -0.0191 -0.2506  0.1351
 1893SOL     OW17137   2.508   0.645  14.394  0.0395  0.2928  0.1399
 1893SOL    HW117138   2.586   0.698  14.405 -0.2517  0.8971 -0.6857
 1893SOL    HW217139   2.526   0.594  14.314 -2.1941 -0.6805  0.2364
 1894SOL     OW17140   1.036   2.686   4.809  0.0251  0.7084 -0.5245
 1894SOL    HW117141   1.076   2.773   4.808  0.8722  0.3064 -1.1579
 1894SOL    HW217142   1.096   2.646   4.872 -0.8532  0.3914  0.1089
 1895SOL     OW17143   2.969   2.883   2.179  0.3723 -0.3411  0.0989
 1895SOL    HW117144   2.929   2.970   2.169 -2.0754 -1.3924  0.6070
 1895SOL    HW217145   2.900   2.820   2.161  1.0560 -0.6127 -1.5452
 1896SOL     OW17146   2.561   1.845  10.526  0.1465 -0.0618 -0.5544
 1896SOL    HW117147   2.507   1.864  10.450 -0.6761 -0.3245 -0.0372
 1896SOL    HW217148   2.623   1.783  10.489  1.3750 -0.0562  1.4883
 1897SOL     OW17149   4.567   4.003   9.268 -0.1092 -0.7151  0.1891
 1897SOL    HW117150   4.518   3.980   9.346 -0.9195  0.8935  0.1547
 1897SOL    HW217151   4.546   4.096   9.256 -0.6957 -0.9709 -0.7777
 1898SOL     OW17152   1.156   1.339   1.456  0.0330  0.0044 -0.3539
 1898SOL    HW117153   1.200   1.334   1.371  0.3840  2.2721 -0.3004
 1898SOL    HW217154   1.068   1.368   1.434  0.0972  0.7021  0.3162
 1899SOL     OW17155   1.618   0.748   3.257  0.1567 -0.3474 -0.3738
 1899SOL    HW117156   1.640   0.807   3.186 -1.6347  0.5687 -0.1641
 1899SOL    HW217157   1.533   0.786   3.280  0.7304  0.4813  0.3700
 1900SOL     OW17158   1.706   0.991   7.804  0.7410  0.5159 -0.0658
 1900SOL    HW117159   1.631   0.977   7.861  0.1930  0.1860 -0.8667
 1900SOL    HW217160   1.775   0.959   7.862  0.1577 -1.9025 -0.7089
 1901SOL     OW17161   3.440   2.330   9.582  0.4502 -0.0399 -0.1043
 1901SOL    HW117162   3.522   2.369   9.550 -0.6591  1.8413 -0.6575
 1901SOL    HW217163   3.373   2.398   9.575 -0.6778 -1.0309  1.2216
 1902SOL     OW17164   1.434   3.119   1.761 -0.3903  0.2538  0.2832
 1902SOL    HW117165   1.389   3.035   1.755  0.4753 -0.1253 -0.8477
 1902SOL    HW217166   1.437   3.129   1.856 -0.3129  0.0206  0.3063
 1903SOL     OW17167   2.934   4.135  12.762  0.1366 -0.3850 -0.0935
 1903SOL    HW117168   2.965   4.129  12.852  1.0162  2.2017 -0.2016
 1903SOL    HW217169   2.915   4.229  12.760  1.7280 -0.0352  1.2413
 1904SOL     OW17170   0.026   4.699  17.547 -0.4245  0.2613 -0.2235
 1904SOL    HW117171   0.111   4.655  17.554  0.2161  2.1240  3.2177
 1904SOL    HW217172   0.050   0.034  17.476 -1.6771  0.1301 -0.7621
 1905SOL     OW17173   0.666   1.023  16.624 -0.4387  0.0779 -0.6890
 1905SOL    HW117174   0.580   1.051  16.656  0.0708 -1.3353  1.9690
 1905SOL    HW217175   0.678   0.931  16.649  1.2418  1.0227  2.0510
 1906SOL     OW17176   0.615   1.739   2.822  0.4371  0.2946 -0.0255
 1906SOL    HW117177   0.694   1.712   2.869  0.7822  1.9575  0.3326
 1906SOL    HW217178   0.619   1.706   2.732  2.1659  0.3905  0.0308
 1907SOL     OW17179   4.628   1.646  13.293 -0.3853  0.6021  0.0180
 1907SOL    HW117180   4.620   1.615  13.383 -1.9887  1.6560  0.2365
 1907SOL    HW217181   4.570   1.591  13.242  0.8164 -1.2851  0.6791
 1908SOL     OW17182   2.686   0.683   3.967 -0.0945  0.4670 -0.2046
 1908SOL    HW117183   2.596   0.662   3.943 -0.0728 -1.5194  1.4471
 1908SOL    HW217184   2.681   0.730   4.051 -1.1342 -1.3924  0.7823
 1909SOL     OW17185   3.624   0.220   2.132  0.4576  0.4522  0.8064
 1909SOL    HW117186   3.553   0.225   2.068  1.8042  0.0622 -0.7250
 1909SOL    HW217187   3.699   0.268   2.096  1.1104 -0.4426  0.9957
 1910SOL     OW17188   2.700   0.275  11.670  0.1464 -0.0656  0.0301
 1910SOL    HW117189   2.634   0.312  11.730 -0.2265 -1.9207  0.7545
 1910SOL    HW217190   2.677   0.305  11.583  0.1320  2.3138  0.8482
 1911SOL     OW17191   0.039   1.228   3.524 -0.2478  0.2415 -0.1963
 1911SOL    HW117192   4.694   1.293   3.536 -1.7986 -1.3540 -0.5415
 1911SOL    HW217193   4.710   1.159   3.485  0.2654  0.0636 -0.5731
 1912SOL     OW17194   4.469   1.767  17.591 -0.9033  0.0946  0.2502
 1912SOL    HW117195   4.548   1.718  17.567 -0.1312  0.6773  1.5493
 1912SOL    HW217196   4.504   1.853  17.616  1.9627 -1.3895  1.3700
 1913SOL     OW17197   4.054   0.193   7.818  0.1271 -0.6658  0.5349
 1913SOL    HW117198   3.972   0.221   7.860 -0.3488  1.1628 -1.5903
 1913SOL    HW217199   4.080   0.112   7.861  0.7822 -1.4332 -1.3450
 1914SOL     OW17200   1.984   1.783  15.235  0.2193  0.1535 -0.0720
 1914SOL    HW117201   1.931   1.703  15.244  1.8768 -0.8910  0.5203
 1914SOL    HW217202   1.989   1.817  15.324 -1.0646 -0.9484  0.4240
 1915SOL     OW17203   1.641   1.987   6.664 -0.2015 -0.1104  0.1689
 1915SOL    HW117204   1.722   1.941   6.641  0.1765 -0.5370  2.3921
 1915SOL    HW217205   1.598   2.009   6.581  0.8675  0.2052 -0.3080
 1916SOL     OW17206   4.657   1.110   1.003 -0.2395  0.4668 -0.2609
 1916SOL    HW117207   4.619   1.079   0.921 -2.3049 -0.1246  0.9090
 1916SOL    HW217208   4.691   1.193   0.971  1.5657 -0.7616 -1.5152
 1917SOL     OW17209   0.273   0.890   1.421 -0.2683 -0.0134 -0.8308
 1917SOL    HW117210   0.230   0.940   1.352  0.8166  1.6951 -0.2606
 1917SOL    HW217211   0.261   0.800   1.391  0.9243 -0.8179  1.1089
 1918SOL     OW17212   1.658   4.687   7.253 -0.5049  0.2591  0.3066
 1918SOL    HW117213   1.724   4.667   7.187 -2.4275 -2.4621 -0.7679
 1918SOL    HW217214   1.571   4.692   7.215 -0.5934  2.3412  0.7466
 1919SOL     OW17215   0.702   4.618   6.154  0.0267 -0.2735 -0.2682
 1919SOL    HW117216   0.789   4.592   6.183  0.1137  0.5382  0.1885
 1919SOL    HW217217   0.715   4.620   6.059 -0.8761 -1.0907 -0.4170
 1920SOL     OW17218   4.377   1.333   6.138  0.1778  0.0486 -0.2229
 1920SOL    HW117219   4.408   1.412   6.183  1.9085 -0.8908  0.1968
 1920SOL    HW217220   4.463   1.294   6.122  0.5776  0.4214  0.9709
 1921SOL     OW17221   3.229   0.372   9.246 -0.4382  0.1478 -0.2317
 1921SOL    HW117222   3.306   0.315   9.242  1.2715  2.4183  0.4614
 1921SOL    HW217223   3.275   0.456   9.244 -2.2560  1.1513  0.3348
 1922SOL     OW17224   4.627   2.451   2.320 -0.0684  0.3791  0.2184
 1922SOL    HW117225   4.695   2.425   2.259  0.1921 -0.6297  0.9297
 1922SOL    HW217226   4.677   2.486   2.394  2.3789  2.2839 -2.3584
 1923SOL     OW17227   1.130   3.751   2.895 -0.0466 -0.5367  0.1863
 1923SOL    HW117228   1.098   3.661   2.897  1.1108 -0.9650 -0.3860
 1923SOL    HW217229   1.218   3.745   2.933  0.6330  0.4922 -1.2258
 1924SOL     OW17230   1.015   4.666   1.312  0.8812  0.5315 -0.3117
 1924SOL    HW117231   0.997   4.683   1.220  2.9932 -1.4249 -1.0925
 1924SOL    HW217232   1.110   4.676   1.317  0.8571  0.3139  0.6051
 1925SOL     OW17233   1.808   0.423  13.199  0.1376 -0.4824  0.2165
 1925SOL    HW117234   1.811   0.450  13.291  2.9746  0.4465 -0.1478
 1925SOL    HW217235   1.720   0.448  13.172  0.9493  0.6259 -1.4003
 1926SOL     OW17236   0.048   1.727   1.703  0.8705 -0.0095  0.0520
 1926SOL    HW117237   0.020   1.771   1.623  2.2316  1.6934  0.4937
 1926SOL    HW217238   0.001   1.770   1.775  0.3178  1.2518 -1.0544
 1927SOL     OW17239   4.291   1.928   3.667 -0.1619  0.3133  0.3171
 1927SOL    HW117240   4.245   1.970   3.594  1.8238 -1.5254 -1.9892
 1927SOL    HW217241   4.332   2.001   3.713  0.4831 -1.2235  2.1999
 1928SOL     OW17242   0.806   4.650   9.451  0.3204 -0.1631  0.0378
 1928SOL    HW117243   0.773   4.703   9.379  0.7924  0.0831  0.0005
 1928SOL    HW217244   0.824   4.570   9.400  2.7529  0.5508 -0.2084
 1929SOL     OW17245   2.154   0.116   1.860  0.5017  0.0117  0.3493
 1929SOL    HW117246   2.104   0.196   1.851 -0.9842 -0.7913  1.5028
 1929SOL    HW217247   2.085   0.050   1.848  0.2569  0.6464 -1.6557
 1930SOL     OW17248   3.352   0.595   3.130 -0.0830  0.0119  0.5832
 1930SOL    HW117249   3.441   0.563   3.115 -0.4680 -1.3641  1.2107
 1930SOL    HW217250   3.356   0.673   3.074  1.4626 -1.0872 -0.8363
 1931SOL     OW17251   1.287   2.055   1.623 -0.0696  0.0672  0.2186
 1931SOL    HW117252   1.259   1.964   1.637 -0.3893 -0.0182 -0.9721
 1931SOL    HW217253   1.380   2.037   1.636  0.5776  1.7338 -2.1298
 1932SOL     OW17254   0.015   2.598   4.105  0.4603  0.1177 -0.0489
 1932SOL    HW117255   4.645   2.617   4.102  0.7253  1.6438  1.1303
 1932SOL    HW217256   0.037   2.670   4.164  1.3401 -0.0535 -0.1639
 1933SOL     OW17257   1.969   0.762   6.763 -0.0554 -0.0459  0.5180
 1933SOL    HW117258   1.962   0.771   6.668 -0.3188  1.6836  0.6924
 1933SOL    HW217259   2.029   0.832   6.789  0.4990 -0.1881 -0.3761
 1934SOL     OW17260   4.581   3.569   6.908  0.0047  0.6453 -0.6589
 1934SOL    HW117261   4.572   3.589   6.815  1.1289 -0.7388 -1.0697
 1934SOL    HW217262   4.494   3.532   6.924  0.2303  1.6880  2.9167
 1935SOL     OW17263   2.949   0.273   4.606 -0.0712 -0.2754  0.1262
 1935SOL    HW117264   3.044   0.273   4.593 -0.1817 -0.1996 -0.7199
 1935SOL    HW217265   2.942   0.280   4.701 -2.0763 -0.8778  0.0296
 1936SOL     OW17266   2.435   3.510   0.584  0.1431 -0.3928  0.4453
 1936SOL    HW117267   2.438   3.536   0.676 -1.1554  0.0006  0.3762
 1936SOL    HW217268   2.402   3.594   0.551 -1.1206 -1.2053 -0.3766
 1937SOL     OW17269   0.651   0.978   4.507 -0.0079 -0.1776  0.2694
 1937SOL    HW117270   0.661   1.048   4.571 -2.6385  0.5022 -0.0901
 1937SOL    HW217271   0.744   0.958   4.496  0.1218 -0.5003  2.0370
 1938SOL     OW17272   4.690   4.439  15.742 -0.3841 -0.3588 -0.2519
 1938SOL    HW117273   4.621   4.488  15.697 -0.3033  0.6564  0.7424
 1938SOL    HW217274   4.632   4.398  15.805  1.1093 -1.3786  0.4588
 1939SOL     OW17275   3.448   0.469   5.515 -0.5798 -0.2071  0.4560
 1939SOL    HW117276   3.412   0.550   5.552 -0.6769 -0.0052 -0.0799
 1939SOL    HW217277   3.451   0.494   5.422  1.0711  2.2039  1.1715
 1940SOL     OW17278   1.797   0.421  17.454 -0.4638  0.1973  0.0606
 1940SOL    HW117279   1.737   0.379  17.392  0.9021 -2.7861  0.7447
 1940SOL    HW217280   1.776   0.382  17.539  1.2172 -1.3035 -0.2170
 1941SOL     OW17281   2.836   4.500  15.496  0.1793 -0.1097  0.0741
 1941SOL    HW117282   2.757   4.505  15.442 -0.4475  0.9831  1.0969
 1941SOL    HW217283   2.881   4.422  15.462  0.4271  0.1371 -0.1675
 1942SOL     OW17284   1.496   4.359   5.927  0.6053 -0.0663 -0.2238
 1942SOL    HW117285   1.527   4.304   5.999  0.9256  1.6623  0.9677
 1942SOL    HW217286   1.489   4.294   5.858 -0.1337 -0.2286  0.0005
 1943SOL     OW17287   2.342   0.922   2.594  0.2817  0.4000  0.3049
 1943SOL    HW117288   2.265   0.913   2.537  0.9887 -1.3608 -0.3579
 1943SOL    HW217289   2.375   0.834   2.610  0.1131  0.2648 -0.0874
 1944SOL     OW17290   1.019   0.372  10.033 -0.3198 -0.2333 -0.1922
 1944SOL    HW117291   0.990   0.300   9.977  1.5108 -1.8770  0.9727
 1944SOL    HW217292   1.089   0.407   9.978  0.8893  2.7786  3.2447
 1945SOL     OW17293   4.424   0.084   2.688 -0.1199  0.1119  0.0440
 1945SOL    HW117294   4.425   0.101   2.594 -2.6724  1.0321  0.1878
 1945SOL    HW217295   4.345   0.029   2.685 -0.1814  0.2269 -0.4258
 1946SOL     OW17296   2.494   2.962   1.899 -0.1432  0.6054 -0.2204
 1946SOL    HW117297   2.548   3.028   1.944  1.3717 -0.0996 -1.0109
 1946SOL    HW217298   2.538   2.953   1.815  2.0810  0.4772  0.9632
 1947SOL     OW17299   2.476   3.142   1.682 -0.0250 -0.4942 -0.3217
 1947SOL    HW117300   2.523   3.120   1.763  1.5848  2.3810 -0.4582
 1947SOL    HW217301   2.418   3.072   1.653 -1.5909  1.2422 -1.3898
 1948SOL     OW17302   4.211   0.700  14.800 -0.1920  0.1483  0.5035
 1948SOL    HW117303   4.119   0.683  14.783 -0.1927  0.7122 -0.0648
 1948SOL    HW217304   4.222   0.720  14.893 -1.2826  1.6951  0.3017
 1949SOL     OW17305   1.049   2.914   4.163  0.1869 -0.1430  0.2969
 1949SOL    HW117306   1.058   2.997   4.209  1.5885 -0.8619  1.3459
 1949SOL    HW217307   0.958   2.885   4.171 -1.1501  4.5589  1.8798
 1950SOL     OW17308   2.370   3.104  13.246 -0.1144  0.2018  0.1301
 1950SOL    HW117309   2.288   3.133  13.285  0.3608  2.1726 -0.3157
 1950SOL    HW217310   2.426   3.182  13.244  1.1705 -0.7735 -1.1770
 1951SOL     OW17311   0.999   2.410   1.555 -0.3164  0.4380  0.1404
 1951SOL    HW117312   1.018   2.316   1.557 -0.7476  0.2945 -2.2693
 1951SOL    HW217313   0.906   2.416   1.577  0.2864 -0.0289  2.7862
 1952SOL     OW17314   3.182   3.271  17.079  0.8377 -0.0507 -0.4302
 1952SOL    HW117315   3.245   3.215  17.033  0.2682  1.4257 -3.0380
 1952SOL    HW217316   3.194   3.352  17.029 -0.1145 -0.8814 -1.9985
 1953SOL     OW17317   4.563   1.113   1.582  0.2589 -0.0049 -0.0738
 1953SOL    HW117318   4.523   1.063   1.511  1.6073 -1.3792  0.1293
 1953SOL    HW217319   4.580   1.053   1.655  0.5098  0.6140  0.3790
 1954SOL     OW17320   2.822   3.233   9.509  0.1111  0.4345  0.0109
 1954SOL    HW117321   2.839   3.166   9.575 -2.4383 -0.6705 -0.4537
 1954SOL    HW217322   2.899   3.222   9.453  0.9369 -0.6211  1.3637
 1955SOL     OW17323   1.589   2.442   3.764  0.1575 -0.3089 -0.1610
 1955SOL    HW117324   1.565   2.350   3.754 -0.1426  0.0059 -2.3443
 1955SOL    HW217325   1.631   2.453   3.679  2.0743  1.3012  0.9831
 1956SOL     OW17326   3.690   2.474   4.643  0.6791 -0.3511  0.7201
 1956SOL    HW117327   3.755   2.534   4.680  0.6066  0.0328  0.2125
 1956SOL    HW217328   3.649   2.436   4.721  0.6632  0.3059  1.0342
 1957SOL     OW17329   3.213   1.732   1.908 -0.2246  0.2552 -0.2791
 1957SOL    HW117330   3.292   1.776   1.939 -2.4658  1.9933  2.9937
 1957SOL    HW217331   3.246   1.642   1.907  1.3110  0.7675  2.8258
 1958SOL     OW17332   0.530   0.198  12.961 -0.0949  0.0470 -0.8719
 1958SOL    HW117333   0.441   0.164  12.966  0.1007  0.1609  3.9332
 1958SOL    HW217334   0.537   0.210  12.866  1.5335  0.0397 -0.7527
 1959SOL     OW17335   0.671   0.640   3.360  0.3175 -0.4426 -0.3676
 1959SOL    HW117336   0.602   0.604   3.304 -0.3415  1.5845 -0.8639
 1959SOL    HW217337   0.629   0.722   3.388  1.1422  0.3991 -1.5908
 1960SOL     OW17338   1.953   0.460   1.602  0.4527  0.5627 -0.2434
 1960SOL    HW117339   1.919   0.407   1.675 -0.3910 -1.6471 -2.2364
 1960SOL    HW217340   1.912   0.409   1.532 -0.4929  1.2020 -0.1562
 1961SOL     OW17341   1.582   0.291   4.303 -0.4567  0.3192 -0.1178
 1961SOL    HW117342   1.637   0.349   4.251  0.0051  1.0744  1.2123
 1961SOL    HW217343   1.631   0.208   4.305  3.4855  2.6931  0.0896
 1962SOL     OW17344   3.153   1.275   0.377  0.1418  0.4587 -0.0390
 1962SOL    HW117345   3.070   1.323   0.380  0.1830  0.4070  1.8765
 1962SOL    HW217346   3.126   1.204   0.319 -1.0392  0.8441  0.0306
 1963SOL     OW17347   0.396   3.325   8.133  0.1244 -0.4801  0.0429
 1963SOL    HW117348   0.441   3.340   8.216 -0.7984  0.4353  0.3744
 1963SOL    HW217349   0.391   3.229   8.140 -1.6749 -0.2540  1.9245
 1964SOL     OW17350   0.854   4.716   0.603 -0.0327 -0.9917 -0.0792
 1964SOL    HW117351   0.851   4.627   0.567 -2.0773 -0.5419 -1.0281
 1964SOL    HW217352   0.877   4.689   0.692 -0.8558  1.3518  0.8442
 1965SOL     OW17353   3.504   0.315  10.104  0.0481 -0.3268 -0.6530
 1965SOL    HW117354   3.567   0.384  10.126 -2.1619  1.2185  0.7851
 1965SOL    HW217355   3.446   0.356  10.040  0.0289 -0.3456 -0.6475
 1966SOL     OW17356   2.525   4.311   2.142  0.2171  0.2409 -0.0418
 1966SOL    HW117357   2.572   4.300   2.059  0.4694  0.4292  0.0800
 1966SOL    HW217358   2.531   4.221   2.172  0.7998 -0.2293 -1.5720
 1967SOL     OW17359   0.615   2.019   2.911 -0.4583  0.3827 -0.6503
 1967SOL    HW117360   0.599   1.927   2.889 -1.2645  0.5777 -0.8874
 1967SOL    HW217361   0.527   2.049   2.935 -1.7466 -1.0215 -3.6176
 1968SOL     OW17362   0.661   3.962   9.272 -0.0076 -0.2437  0.1680
 1968SOL    HW117363   0.665   3.893   9.338  0.0089 -1.1177 -0.7520
 1968SOL    HW217364   0.568   3.978   9.262  0.0081  0.9455  1.7944
 1969SOL     OW17365   3.570   3.237  10.006  0.3622  0.2494 -0.6304
 1969SOL    HW117366   3.605   3.323   9.983  0.4832  0.3542 -0.0487
 1969SOL    HW217367   3.547   3.212   9.916  1.8179  1.2114 -1.2686
 1970SOL     OW17368   3.733   3.515   8.817  0.1611  0.0961  0.0001
 1970SOL    HW117369   3.755   3.584   8.879 -2.9120 -0.7698  2.0876
 1970SOL    HW217370   3.819   3.477   8.801  0.6888  1.1773  0.2963
 1971SOL     OW17371   2.795   2.274   4.658  0.1790 -0.0248  0.1148
 1971SOL    HW117372   2.855   2.318   4.718  0.0253 -0.9005  0.9132
 1971SOL    HW217373   2.843   2.251   4.579  0.6485  2.2548 -0.2409
 1972SOL     OW17374   4.630   0.949   4.430  0.4734 -0.0514 -0.2339
 1972SOL    HW117375   4.617   0.863   4.389 -1.4927  0.2951 -0.3306
 1972SOL    HW217376   4.661   0.933   4.520  1.1838 -3.4773 -1.0787
 1973SOL     OW17377   0.517   1.179   6.965 -0.5553  0.3713  0.5481
 1973SOL    HW117378   0.558   1.195   7.050 -0.0971  1.5207  0.1122
 1973SOL    HW217379   0.512   1.264   6.922  0.4172  0.0983 -0.1146
 1974SOL     OW17380   0.449   2.096   6.818  0.0512  0.4667  0.6394
 1974SOL    HW117381   0.517   2.164   6.816  0.5502 -0.0849 -1.4335
 1974SOL    HW217382   0.494   2.012   6.831 -2.0310 -0.8423 -0.6777
 1975SOL     OW17383   0.139   2.499   7.603 -0.7683 -0.1319  0.2616
 1975SOL    HW117384   0.195   2.554   7.658 -2.0555  0.1154  1.3305
 1975SOL    HW217385   0.159   2.415   7.642 -1.3021  0.1145  1.0730
 1976SOL     OW17386   1.423   1.173   2.133 -0.0088  0.3823  0.1778
 1976SOL    HW117387   1.399   1.236   2.065 -2.2087  1.4956  1.9788
 1976SOL    HW217388   1.474   1.242   2.176 -0.2919 -0.9997  2.7246
 1977SOL     OW17389   3.664   4.626   9.204 -0.6819 -0.3023  0.0333
 1977SOL    HW117390   3.743   4.651   9.156 -1.5880  1.0994 -0.7577
 1977SOL    HW217391   3.603   4.621   9.130 -1.2853  2.2785  0.3539
 1978SOL     OW17392   1.576   0.364  13.430 -0.5364  0.1872  0.6837
 1978SOL    HW117393   1.660   0.353  13.475 -1.0206  0.0517  1.5504
 1978SOL    HW217394   1.579   0.313  13.349 -1.8640  1.2814 -0.0380
 1979SOL     OW17395   3.866   2.358   6.872  0.0404  0.2343  0.4555
 1979SOL    HW117396   3.933   2.357   6.803 -0.2477 -2.1456  0.1790
 1979SOL    HW217397   3.896   2.281   6.921  0.1656 -0.1645 -0.2439
 1980SOL     OW17398   2.128   4.305  10.823  0.3386  0.1863 -0.4880
 1980SOL    HW117399   2.080   4.310  10.740  2.1831 -1.5384 -1.6468
 1980SOL    HW217400   2.178   4.387  10.820 -1.1380  1.1421  0.4313
 1981SOL     OW17401   1.552   0.903   3.049 -0.1487  0.1843  0.1514
 1981SOL    HW117402   1.549   0.884   2.955 -0.0444 -1.6068  0.5140
 1981SOL    HW217403   1.468   0.946   3.062  1.1776  2.0396  2.5077
 1982SOL     OW17404   4.437   2.483   5.543 -0.1569 -0.6295 -0.2818
 1982SOL    HW117405   4.476   2.429   5.611 -3.0300 -0.3561  1.6005
 1982SOL    HW217406   4.453   2.574   5.569 -1.9391  0.4350 -2.8550
 1983SOL     OW17407   0.392   0.893   5.482 -0.0145  0.1791  0.0001
 1983SOL    HW117408   0.350   0.829   5.540 -1.8360  0.2573 -1.2284
 1983SOL    HW217409   0.319   0.950   5.459 -0.8055 -0.3989  1.0733
 1984SOL     OW17410   4.638   4.621   3.117 -0.0789 -0.9503  0.4907
 1984SOL    HW117411   4.704   4.573   3.066  0.6918  0.8006 -0.1918
 1984SOL    HW217412   4.597   4.554   3.171 -0.4693 -0.6041  0.6248
 1985SOL     OW17413   2.421   1.929   8.858  0.4462  0.1684 -0.0272
 1985SOL    HW117414   2.435   2.023   8.868 -0.7039  0.3269  0.0993
 1985SOL    HW217415   2.508   1.898   8.882  0.3186 -0.6473 -0.5960
 1986SOL     OW17416   3.222   4.137   3.097  0.1301 -0.3904 -0.1136
 1986SOL    HW117417   3.180   4.153   3.182 -0.1537 -2.1833  0.0887
 1986SOL    HW217418   3.274   4.061   3.121 -1.0648 -1.2793 -0.3425
 1987SOL     OW17419   0.422   2.796  10.666 -0.2162  0.0018  0.6933
 1987SOL    HW117420   0.395   2.706  10.646 -2.0315  0.1850  2.3891
 1987SOL    HW217421   0.350   2.818  10.724 -2.0769 -2.0850 -0.8365
 1988SOL     OW17422   1.272   4.014   3.875 -0.0208  0.2429 -0.4495
 1988SOL    HW117423   1.352   4.054   3.839  0.0398  0.3713 -0.1765
 1988SOL    HW217424   1.308   3.987   3.960  0.2603  0.1609 -0.5948
 1989SOL     OW17425   3.057   0.126   4.876  0.6615 -0.1974 -0.3785
 1989SOL    HW117426   3.057   0.221   4.885 -0.6526 -0.2228 -0.1710
 1989SOL    HW217427   3.038   0.104   4.967 -0.7134 -0.3460 -0.7026
 1990SOL     OW17428   4.229   1.149   3.427  0.4797  0.0684 -0.0842
 1990SOL    HW117429   4.214   1.097   3.506  0.9895 -2.1198 -1.4153
 1990SOL    HW217430   4.157   1.123   3.369 -0.2302 -0.0808  0.8581
 1991SOL     OW17431   4.183   1.771   0.488 -0.6057  0.7635  0.4561
 1991SOL    HW117432   4.186   1.858   0.447 -0.8561  1.1475  1.2556
 1991SOL    HW217433   4.217   1.792   0.575 -1.7061  2.4577  0.4908
 1992SOL     OW17434   2.430   1.310  10.894 -0.5184 -0.0001  0.0833
 1992SOL    HW117435   2.481   1.238  10.856 -0.0787 -0.4303  1.4837
 1992SOL    HW217436   2.339   1.283  10.885 -0.7879  0.3686  1.6524
 1993SOL     OW17437   4.118   1.489  12.804 -0.4724  0.1655 -0.5816
 1993SOL    HW117438   4.103   1.583  12.803  0.6011  0.3118 -1.2812
 1993SOL    HW217439   4.112   1.464  12.897 -2.2298  0.7651 -0.5332
 1994SOL     OW17440   0.687   0.188   2.484  0.1872  0.3189 -0.0172
 1994SOL    HW117441   0.723   0.115   2.534  1.5738  0.4076 -0.8810
 1994SOL    HW217442   0.757   0.219   2.426 -0.0908 -0.9099 -1.0001
 1995SOL     OW17443   3.602   4.436  12.584  0.0344  0.5216  0.2259
 1995SOL    HW117444   3.584   4.351  12.542  1.8376 -0.1906  0.9199
 1995SOL    HW217445   3.687   4.461  12.547 -0.4547 -2.0224 -2.6810
 1996SOL     OW17446   1.110   2.179   7.957 -0.3852  0.3978  0.1757
 1996SOL    HW117447   1.070   2.092   7.954  3.3360 -1.3303  1.2750
 1996SOL    HW217448   1.140   2.174   8.047 -2.1496 -0.4556  0.7167
 1997SOL     OW17449   0.363   1.372   0.157 -0.0423  0.1125 -0.0796
 1997SOL    HW117450   0.398   1.388   0.069 -0.9632 -0.3048 -0.5173
 1997SOL    HW217451   0.443   1.372   0.210  0.6344 -0.5412 -1.1109
 1998SOL     OW17452   0.072   4.309   3.873  0.0033 -0.0591 -0.0342
 1998SOL    HW117453   0.162   4.334   3.889 -0.2125  0.0199  1.0427
 1998SOL    HW217454   0.088   4.276   3.784 -0.1287 -0.3082  0.0323
 1999SOL     OW17455   0.101   3.848   7.686  0.4729  0.3130  0.5317
 1999SOL    HW117456   0.182   3.808   7.717 -1.2449 -0.0302  4.5514
 1999SOL    HW217457   0.108   3.942   7.705  1.2019  0.4546 -0.4428
 2000SOL     OW17458   3.041   0.701   5.419  0.4323  0.3477  0.2881
 2000SOL    HW117459   2.950   0.672   5.430  0.6185 -1.0466 -2.0188
 2000SOL    HW217460   3.079   0.654   5.493 -0.7770  0.6546  1.1108
 2001SOL     OW17461   2.939   4.669   2.114 -0.5993  0.4805  0.0809
 2001SOL    HW117462   2.910   4.686   2.203 -0.9301 -1.0410  0.2603
 2001SOL    HW217463   2.986   0.027   2.100  2.2021 -1.3457 -1.2714
 2002SOL     OW17464   1.920   2.031  10.247 -0.5271  0.5144  0.1339
 2002SOL    HW117465   1.851   2.020  10.313  0.1943 -0.6152  0.6985
 2002SOL    HW217466   1.981   2.092  10.288 -0.9322  0.2599  1.1370
 2003SOL     OW17467   0.574   2.158  16.060 -0.0788 -0.5306 -0.4385
 2003SOL    HW117468   0.554   2.066  16.079  0.3397 -0.5692 -0.1957
 2003SOL    HW217469   0.486   2.176  16.027  0.3494 -0.0816 -1.3567
 2004SOL     OW17470   0.238   0.276  12.595  0.5085  0.0390  0.0605
 2004SOL    HW117471   0.193   0.217  12.535  0.5551  0.0570  0.0086
 2004SOL    HW217472   0.170   0.294  12.660  1.0723  0.5293  0.5149
 2005SOL     OW17473   0.024   2.401   1.782  0.1629 -0.3198  0.6094
 2005SOL    HW117474   0.113   2.380   1.810  0.0142 -1.3808  0.2941
 2005SOL    HW217475   4.709   2.434   1.862 -1.1168  1.3394 -0.6877
 2006SOL     OW17476   1.420   0.569   3.047  0.2388  0.0901 -0.5956
 2006SOL    HW117477   1.350   0.514   3.011 -1.6769  2.0405  0.0607
 2006SOL    HW217478   1.381   0.596   3.131  1.8181  0.7857 -0.0850
 2007SOL     OW17479   4.187   1.485   0.455  0.0571 -0.3235  0.5939
 2007SOL    HW117480   4.279   1.486   0.481 -0.1187 -0.5591  1.2217
 2007SOL    HW217481   4.163   1.578   0.463 -0.2423 -0.2357 -1.3296
 2008SOL     OW17482   4.422   0.212   0.276  0.0209 -0.0359  0.1652
 2008SOL    HW117483   4.479   0.234   0.203  1.6145 -0.4732  1.2851
 2008SOL    HW217484   4.339   0.200   0.229 -0.2713 -1.0841  0.9427
 2009SOL     OW17485   1.619   3.478   8.826 -0.3740 -0.2011 -0.1963
 2009SOL    HW117486   1.584   3.419   8.759  0.1575 -1.6897  0.8182
 2009SOL    HW217487   1.616   3.421   8.904 -3.2251 -0.9121 -0.8358
 2010SOL     OW17488   0.901   2.801  10.744 -0.4499  0.3921  0.0669
 2010SOL    HW117489   0.943   2.740  10.683 -1.0113 -0.8735  0.9563
 2010SOL    HW217490   0.958   2.876  10.725 -0.4111 -0.1439 -1.8946
 2011SOL     OW17491   0.350   0.476  11.260 -0.3348 -0.2918  0.1663
 2011SOL    HW117492   0.429   0.443  11.302 -1.6898 -2.6815  0.8333
 2011SOL    HW217493   0.289   0.404  11.278  0.2025 -0.9007 -0.4872
 2012SOL     OW17494   2.765   3.641   8.797 -0.2810  0.3152 -0.0616
 2012SOL    HW117495   2.764   3.731   8.832  0.6925  0.2821  0.0485
 2012SOL    HW217496   2.689   3.596   8.832 -1.3879  1.4292 -1.0127
 2013SOL     OW17497   0.744   2.419  13.074 -0.0698 -0.0302  0.1072
 2013SOL    HW117498   0.757   2.325  13.062  1.6285 -0.1347  2.6562
 2013SOL    HW217499   0.825   2.452  13.035  1.1951 -1.0555  1.8665
 2014SOL     OW17500   1.151   2.854  13.548 -0.3622 -0.2949  0.0933
 2014SOL    HW117501   1.091   2.929  13.545  0.3614  0.1530 -3.6021
 2014SOL    HW217502   1.105   2.792  13.604 -0.1937 -0.9262 -0.4585
 2015SOL     OW17503   1.226   1.239   2.504  0.3262 -0.1239 -0.2895
 2015SOL    HW117504   1.160   1.182   2.464 -0.9120 -0.3982  2.1598
 2015SOL    HW217505   1.170   1.253   2.580  0.3342  2.1239 -0.7091
 2016SOL     OW17506   2.837   3.045   0.210 -0.1782 -0.3825 -0.4183
 2016SOL    HW117507   2.794   3.111   0.157  2.3735  1.9455  0.4439
 2016SOL    HW217508   2.907   3.020   0.150 -0.0065 -1.0509  0.0572
 2017SOL     OW17509   2.127   2.918   5.952  0.0297 -0.1169  0.2179
 2017SOL    HW117510   2.160   2.975   6.022 -2.1059  3.4460 -1.6672
 2017SOL    HW217511   2.105   2.987   5.891 -0.3923 -0.4218  0.0260
 2018SOL     OW17512   3.231   2.838   8.889 -0.1727  0.5033 -0.1951
 2018SOL    HW117513   3.290   2.763   8.877 -2.4834 -1.5445  1.2165
 2018SOL    HW217514   3.274   2.883   8.962 -0.3803 -1.0255  0.8607
 2019SOL     OW17515   2.551   0.084   3.651  0.1367  0.8279  0.3961
 2019SOL    HW117516   2.603   0.017   3.606  3.7116  3.1681  1.0321
 2019SOL    HW217517   2.465   0.042   3.640  0.7465 -0.1050 -0.8069
 2020SOL     OW17518   1.596   2.353  10.418 -0.3559  0.4881  0.2321
 2020SOL    HW117519   1.680   2.367  10.462  0.2286  0.7115 -0.9575
 2020SOL    HW217520   1.550   2.302  10.485  0.8764 -0.4097  0.4010
 2021SOL     OW17521   1.187   1.641  13.432 -0.0579 -0.3327  0.6646
 2021SOL    HW117522   1.225   1.702  13.494 -1.8691  2.4345 -0.9345
 2021SOL    HW217523   1.242   1.563  13.436  1.9255  1.0950  1.2598
 2022SOL     OW17524   3.644   4.630   2.363  0.4642  0.6098 -0.6227
 2022SOL    HW117525   3.560   4.584   2.366  0.8295 -0.0353 -0.2897
 2022SOL    HW217526   3.685   4.593   2.285 -0.2308 -2.0292  0.2470
 2023SOL     OW17527   1.355   2.097   4.962  0.0503 -0.1506  0.0853
 2023SOL    HW117528   1.426   2.160   4.962 -1.4953  1.6101 -0.0368
 2023SOL    HW217529   1.358   2.056   4.875 -0.9000  1.1801 -0.5666
 2024SOL     OW17530   0.542   0.638   7.532  0.3031  0.1379 -0.3927
 2024SOL    HW117531   0.498   0.572   7.585  1.0795  1.7912  2.2937
 2024SOL    HW217532   0.492   0.717   7.554 -0.4396  0.2704 -2.4990
 2025SOL     OW17533   3.092   3.307  13.167  0.2442  0.0413  0.5417
 2025SOL    HW117534   3.115   3.218  13.195  1.8004  0.6890  1.3369
 2025SOL    HW217535   3.146   3.355  13.230  0.9291 -1.3726  1.0432
 2026SOL     OW17536   1.411   3.986   1.210 -0.0807 -0.1110  0.1124
 2026SOL    HW117537   1.428   4.080   1.214 -1.3153  0.1705 -1.2066
 2026SOL    HW217538   1.479   3.952   1.152 -1.1111 -0.1665 -1.0591
 2027SOL     OW17539   1.120   4.325   6.532  0.1175 -0.5574  0.2243
 2027SOL    HW117540   1.133   4.230   6.522 -0.9291 -0.4481 -2.3096
 2027SOL    HW217541   1.177   4.351   6.459  0.1623 -0.8122  0.1656
 2028SOL     OW17542   3.154   2.894   8.214 -0.5406  0.2128 -0.5823
 2028SOL    HW117543   3.068   2.902   8.256  1.1257 -0.7174  2.9414
 2028SOL    HW217544   3.114   2.888   8.127  1.4231 -3.6805 -1.2153
 2029SOL     OW17545   0.539   3.688   9.182  1.1026  0.3272 -0.5573
 2029SOL    HW117546   0.541   3.629   9.107 -1.1814  0.0124 -0.3924
 2029SOL    HW217547   0.490   3.756   9.136  0.4641  0.5847  0.5149
 2030SOL     OW17548   3.556   3.493   6.628 -0.4504  0.3278  0.1058
 2030SOL    HW117549   3.516   3.489   6.542 -0.6307 -1.2984  0.2700
 2030SOL    HW217550   3.600   3.577   6.613  0.4709  0.5027  3.7765
 2031SOL     OW17551   1.908   1.787   5.087  0.2207  0.0612 -0.7756
 2031SOL    HW117552   1.883   1.702   5.125  0.2015  0.2522 -0.3544
 2031SOL    HW217553   1.882   1.771   4.996 -2.7663 -1.3802  0.3007
 2032SOL     OW17554   2.097   4.298   1.624 -0.1402 -0.2681  0.8460
 2032SOL    HW117555   2.035   4.230   1.596 -0.8238  1.6492 -2.2745
 2032SOL    HW217556   2.045   4.362   1.673 -1.3029 -0.5302 -0.0461
 2033SOL     OW17557   3.825   2.410   5.147  0.1344  0.1423 -0.0560
 2033SOL    HW117558   3.901   2.357   5.173  1.1622  1.5577 -0.1761
 2033SOL    HW217559   3.854   2.433   5.059 -0.9087 -2.7336 -1.1367
 2034SOL     OW17560   4.260   2.457   6.656  0.3372 -0.1977  0.4063
 2034SOL    HW117561   4.166   2.441   6.662  0.1209  1.4326  1.2193
 2034SOL    HW217562   4.287   2.378   6.609 -0.0534  0.3000 -0.6279
 2035SOL     OW17563   4.597   4.647   7.167  0.3918  0.4097  0.3532
 2035SOL    HW117564   4.608   4.555   7.192  0.4112  0.5515  0.8731
 2035SOL    HW217565   4.634   4.676   7.251  0.2426  1.8564 -0.0837
 2036SOL     OW17566   4.161   0.581   2.632 -0.0029  0.0761  0.1004
 2036SOL    HW117567   4.224   0.614   2.696 -1.3605 -1.4993  2.2673
 2036SOL    HW217568   4.170   0.657   2.575  0.3639  0.4711  0.6826
 2037SOL     OW17569   4.241   0.363   2.481 -0.2392 -0.6357  0.0302
 2037SOL    HW117570   4.192   0.413   2.546  1.7754 -0.1566  1.1743
 2037SOL    HW217571   4.314   0.423   2.466  1.1344 -1.9467  1.5106
 2038SOL     OW17572   0.664   0.568   7.300 -0.4124 -0.3359 -0.5203
 2038SOL    HW117573   0.634   0.583   7.390 -0.1899 -1.0980 -0.3132
 2038SOL    HW217574   0.692   0.655   7.272  1.0629  0.5663  3.6951
 2039SOL     OW17575   3.983   4.018   5.759  0.7900  1.0111  0.3591
 2039SOL    HW117576   3.978   4.003   5.665 -0.1078  0.3999  0.5066
 2039SOL    HW217577   3.935   4.100   5.771 -1.9617 -0.6017  0.3659
 2040SOL     OW17578   1.211   0.809   6.935  0.0674 -0.0630  0.1385
 2040SOL    HW117579   1.213   0.782   6.843  0.2773  2.0900 -0.4861
 2040SOL    HW217580   1.130   0.858   6.926  0.5427  0.7639  0.4026
 2041SOL     OW17581   3.912   2.375   9.085  0.2922 -0.4666  0.2877
 2041SOL    HW117582   3.986   2.414   9.039  0.2218  0.3088  0.8337
 2041SOL    HW217583   3.911   2.285   9.051  1.1176 -1.0303  1.7788
 2042SOL     OW17584   2.590   0.444   7.724 -0.0718 -0.3948  0.1030
 2042SOL    HW117585   2.591   0.483   7.811 -0.2431  3.1013 -1.4631
 2042SOL    HW217586   2.559   0.354   7.735 -0.7321 -0.3685 -1.5806
 2043SOL     OW17587   0.725   0.271  11.994 -0.3301  0.1014 -0.1655
 2043SOL    HW117588   0.801   0.212  11.998 -0.6838 -0.2374  1.4040
 2043SOL    HW217589   0.754   0.341  12.051  0.3099  0.6710 -1.1951
 2044SOL     OW17590   1.573   2.301   4.949  0.2543 -0.1635  0.3679
 2044SOL    HW117591   1.665   2.280   4.968  0.9665  2.4143 -0.1290
 2044SOL    HW217592   1.577   2.394   4.973 -0.6832 -0.3190  1.0645
 2045SOL     OW17593   3.058   4.698  17.601  0.0656  0.3360 -0.1650
 2045SOL    HW117594   3.006   0.054  17.597  0.0950  0.4460  1.8190
 2045SOL    HW217595   3.123   4.720  17.668  0.0625 -0.1525 -0.0008
 2046SOL     OW17596   4.720   3.674   4.178  0.0008  0.9684 -0.0639
 2046SOL    HW117597   0.031   3.691   4.265  0.0784  2.0170 -0.3043
 2046SOL    HW217598   0.067   3.621   4.142 -0.2998 -0.1468  0.9691
 2047SOL     OW17599   2.737   3.501   5.210 -0.1006 -0.1220  0.0855
 2047SOL    HW117600   2.768   3.537   5.293  2.8282  0.7282 -1.3818
 2047SOL    HW217601   2.733   3.407   5.230 -3.1313  0.2145  1.1102
 2048SOL     OW17602   2.644   0.612   0.536 -0.9476  0.1245 -0.6645
 2048SOL    HW117603   2.572   0.615   0.473 -1.5369  3.0330  0.1495
 2048SOL    HW217604   2.712   0.663   0.491 -0.4775  0.0184 -0.0775
 2049SOL     OW17605   1.650   1.874   2.691  1.0036  0.3495  1.0711
 2049SOL    HW117606   1.636   1.791   2.737  1.3712  0.1773  0.8760
 2049SOL    HW217607   1.716   1.842   2.629  0.9066  2.1578  0.0521
 2050SOL     OW17608   2.837   1.732   5.560  1.1680 -0.2309  0.1301
 2050SOL    HW117609   2.852   1.638   5.554 -1.1014 -0.4285 -2.4851
 2050SOL    HW217610   2.873   1.755   5.474  1.9670  0.4860  0.6502
 2051SOL     OW17611   3.361   3.490   4.606  0.2299 -0.1899 -0.2091
 2051SOL    HW117612   3.453   3.465   4.607  0.3541  0.1906 -1.5762
 2051SOL    HW217613   3.369   3.572   4.557  4.4082 -1.2575 -1.2853
 2052SOL     OW17614   4.598   0.850  12.181  0.0275 -0.2672 -0.3829
 2052SOL    HW117615   4.572   0.764  12.146  0.8973 -0.5672 -0.2979
 2052SOL    HW217616   4.566   0.853  12.271 -0.8781  1.3541 -0.7641
 2053SOL     OW17617   3.572   1.721  16.352  0.2619  0.4626 -0.0989
 2053SOL    HW117618   3.602   1.801  16.395  0.6334 -0.8919  2.1385
 2053SOL    HW217619   3.651   1.674  16.324 -0.3241  1.2227 -3.0879
 2054SOL     OW17620   1.462   0.122  13.726 -0.2628 -0.1546 -0.2957
 2054SOL    HW117621   1.535   0.097  13.783 -0.0871  0.1184 -0.4031
 2054SOL    HW217622   1.502   0.131  13.639 -0.6842  0.5054 -0.4188
 2055SOL     OW17623   1.163   1.055   2.155  0.4997  0.1532  0.2877
 2055SOL    HW117624   1.236   1.115   2.171 -0.9503  2.1453 -0.6320
 2055SOL    HW217625   1.108   1.108   2.097  1.0368 -0.1041 -0.4497
 2056SOL     OW17626   2.494   1.174   3.175  0.0683 -0.4982  0.6478
 2056SOL    HW117627   2.588   1.186   3.159  0.6652 -1.7057  3.4019
 2056SOL    HW217628   2.490   1.078   3.176 -1.0872 -0.5065 -2.8993
 2057SOL     OW17629   4.163   2.842   2.117 -0.8491  0.4180 -0.1194
 2057SOL    HW117630   4.092   2.803   2.066  1.2071 -1.2480 -1.6885
 2057SOL    HW217631   4.213   2.770   2.154  0.3678  1.3832  0.1264
 2058SOL     OW17632   1.841   4.671   6.396  0.0724  0.2642 -0.0696
 2058SOL    HW117633   1.817   4.666   6.303 -0.2724 -1.1593  0.0856
 2058SOL    HW217634   1.857   0.040   6.407  0.5843  0.2241 -0.5224
 2059SOL     OW17635   2.433   1.792   3.562  0.2880 -0.4353 -0.0094
 2059SOL    HW117636   2.528   1.800   3.574  0.3316  0.2869 -0.8369
 2059SOL    HW217637   2.425   1.696   3.566  1.0099 -0.5358 -0.8087
 2060SOL     OW17638   3.903   3.013   6.050 -0.4873 -0.3464  0.0734
 2060SOL    HW117639   3.862   3.040   5.968 -0.7643  1.2088  0.7241
 2060SOL    HW217640   3.880   2.920   6.047  1.7023 -0.8816 -0.7761
 2061SOL     OW17641   1.931   4.406  12.990  1.0710 -0.2978 -0.0641
 2061SOL    HW117642   1.944   4.324  13.038 -1.8553 -0.6079  0.2329
 2061SOL    HW217643   1.941   4.382  12.898 -3.8267 -3.8409  0.3143
 2062SOL     OW17644   3.487   1.919   1.669  0.7246  0.7911  0.1790
 2062SOL    HW117645   3.437   1.843   1.698  1.6845  0.0715 -0.0813
 2062SOL    HW217646   3.422   1.989   1.657  2.2758  2.2699  0.3132
 2063SOL     OW17647   2.362   3.218   7.678 -0.1135 -0.3540 -0.3357
 2063SOL    HW117648   2.272   3.249   7.681 -0.4420 -1.3820  0.5660
 2063SOL    HW217649   2.363   3.180   7.766  1.2942  1.2610  0.3482
 2064SOL     OW17650   3.498   0.140   2.704  0.3836  0.1145  0.0574
 2064SOL    HW117651   3.403   0.132   2.714  0.1590  2.4832 -0.2626
 2064SOL    HW217652   3.500   0.175   2.615 -1.9255  0.8344  0.2735
 2065SOL     OW17653   1.269   1.390   7.680 -0.0552 -0.0631  0.4387
 2065SOL    HW117654   1.227   1.338   7.611 -1.8980  1.8064  0.1302
 2065SOL    HW217655   1.203   1.460   7.686  0.0180  0.0050  0.4474
 2066SOL     OW17656   1.201   3.872   3.392  0.6363  0.1490  0.0592
 2066SOL    HW117657   1.108   3.890   3.408  0.8031  0.2848  0.8821
 2066SOL    HW217658   1.195   3.801   3.329  0.9324  0.0873  0.0982
 2067SOL     OW17659   4.334   0.175  15.813 -0.3516 -0.7649 -0.2990
 2067SOL    HW117660   4.389   0.130  15.878 -0.4436 -0.8745 -0.2980
 2067SOL    HW217661   4.345   0.262  15.851 -1.4887 -0.3009 -1.0343
 2068SOL     OW17662   2.688   0.863  14.436  0.0114 -0.4055  0.5361
 2068SOL    HW117663   2.653   0.854  14.525  0.5148  0.5688  0.8448
 2068SOL    HW217664   2.760   0.926  14.447 -1.8040  1.9688 -1.1198
 2069SOL     OW17665   2.395   0.254   3.055  0.2971 -0.0743  0.0017
 2069SOL    HW117666   2.346   0.235   2.974  0.0257  0.5030  0.0321
 2069SOL    HW217667   2.460   0.322   3.039  0.5260 -0.9537 -2.8300
 2070SOL     OW17668   3.021   0.459   4.035  0.1437  0.5386 -0.9776
 2070SOL    HW117669   3.014   0.499   4.122  0.3763 -0.3450 -0.5510
 2070SOL    HW217670   3.024   0.367   4.062 -2.3956  0.2550 -1.6223
 2071SOL     OW17671   4.139   2.119   4.388  0.1415  0.0394 -0.0143
 2071SOL    HW117672   4.234   2.129   4.386  0.3914 -2.4357 -0.7960
 2071SOL    HW217673   4.135   2.024   4.376 -2.4173  0.2263 -0.6578
 2072SOL     OW17674   4.085   4.689   2.371 -0.5429 -0.5913 -0.1870
 2072SOL    HW117675   4.159   4.700   2.312  0.0650 -0.3689  0.6194
 2072SOL    HW217676   4.029   0.039   2.350 -0.7042 -0.7404 -0.2858
 2073SOL     OW17677   1.107   2.282   3.822  0.1503  0.0412 -0.1264
 2073SOL    HW117678   1.195   2.258   3.792  1.4968  3.3169  1.2276
 2073SOL    HW217679   1.095   2.342   3.748 -1.5611  0.0495  0.1673
 2074SOL     OW17680   3.649   4.353  15.302 -0.1200 -0.1827 -0.0708
 2074SOL    HW117681   3.649   4.449  15.302 -2.3238 -0.1666  0.2694
 2074SOL    HW217682   3.737   4.333  15.333 -0.2758 -0.1989  0.3594
 2075SOL     OW17683   4.244   0.166   6.801  0.2497 -0.0973  0.2509
 2075SOL    HW117684   4.210   0.248   6.837  0.2900  0.2895 -0.5986
 2075SOL    HW217685   4.265   0.129   6.887  1.1904 -1.5300 -0.5979
 2076SOL     OW17686   1.496   1.507   8.779  0.0936  0.2523 -0.4417
 2076SOL    HW117687   1.420   1.546   8.736  0.1649  0.1582 -0.6574
 2076SOL    HW217688   1.565   1.567   8.751  0.1236 -1.0009 -3.0499
 2077SOL     OW17689   0.888   4.360   4.123 -0.0962  0.4781 -0.4113
 2077SOL    HW117690   0.946   4.436   4.117  1.4674 -0.6088  1.2632
 2077SOL    HW217691   0.926   4.295   4.063  0.4391  0.2386  0.1906
 2078SOL     OW17692   1.217   1.743   6.188  0.1426 -0.0923 -0.1384
 2078SOL    HW117693   1.162   1.805   6.139 -1.9444 -1.1788  0.8165
 2078SOL    HW217694   1.155   1.670   6.185  0.8552 -0.6320 -1.9345
 2079SOL     OW17695   0.921   1.397   7.861  0.6449 -0.0016 -0.0004
 2079SOL    HW117696   0.907   1.479   7.908 -0.0603  0.3300 -0.7952
 2079SOL    HW217697   0.959   1.341   7.928 -0.1085  0.9770  1.2275
 2080SOL     OW17698   2.459   4.358   3.867  0.1314  0.0221  0.2828
 2080SOL    HW117699   2.425   4.423   3.805  0.2041  0.6878  0.9388
 2080SOL    HW217700   2.449   4.391   3.956  1.1710  1.1426 -0.0042
 2081SOL     OW17701   4.634   0.699   4.349 -0.2560  0.7790 -0.5412
 2081SOL    HW117702   4.561   0.656   4.305 -0.8621  0.7178  0.5022
 2081SOL    HW217703   4.638   0.637   4.422  0.5632  0.1071 -1.1567
 2082SOL     OW17704   2.839   3.696   0.442 -0.2293  0.2962  0.3180
 2082SOL    HW117705   2.806   3.703   0.532  1.2338  1.6320  0.7590
 2082SOL    HW217706   2.794   3.618   0.410  0.9080  0.1967 -1.0141
 2083SOL     OW17707   3.265   0.382   3.698  0.0297 -0.1044 -0.1484
 2083SOL    HW117708   3.209   0.392   3.775 -0.6213  1.1470 -0.7950
 2083SOL    HW217709   3.208   0.326   3.645 -2.3157 -1.0914  3.4132
 2084SOL     OW17710   1.096   2.247   6.596 -0.0122  0.3666  0.2272
 2084SOL    HW117711   1.082   2.157   6.568  0.6866  1.2440 -2.9347
 2084SOL    HW217712   1.115   2.289   6.512 -1.1626  1.1062  0.3245
 2085SOL     OW17713   0.692   3.445  16.275  0.9391  0.4575 -0.3960
 2085SOL    HW117714   0.645   3.362  16.284  1.3345  0.2910  0.1302
 2085SOL    HW217715   0.639   3.484  16.206  0.0487  0.4829  0.2986
 2086SOL     OW17716   2.968   0.089   0.579 -0.0986 -0.5823 -0.3327
 2086SOL    HW117717   2.902   0.131   0.525 -0.8279 -1.2683  0.0305
 2086SOL    HW217718   2.987   0.162   0.638 -1.5303 -0.0998 -0.4859
 2087SOL     OW17719   3.906   2.508   5.961  0.5756 -0.0950 -0.3991
 2087SOL    HW117720   3.945   2.428   5.925  0.6688 -0.1889 -0.0973
 2087SOL    HW217721   3.855   2.464   6.030  1.1200  0.3132  0.2695
 2088SOL     OW17722   4.571   1.078   7.164 -0.0798 -0.2854 -0.2565
 2088SOL    HW117723   4.623   1.099   7.242  0.5317  2.0742 -1.3133
 2088SOL    HW217724   4.588   1.155   7.110  1.3415 -1.6786 -1.7702
 2089SOL     OW17725   0.577   0.320   7.571  0.4797  0.4369 -0.3160
 2089SOL    HW117726   0.548   0.305   7.481  1.0949 -2.2263 -0.0577
 2089SOL    HW217727   0.500   0.353   7.618  1.8605 -0.0247  2.2629
 2090SOL     OW17728   1.832   3.451   4.057 -0.4053  0.0916 -0.0278
 2090SOL    HW117729   1.828   3.514   3.985 -0.2789  1.0893  0.8413
 2090SOL    HW217730   1.776   3.497   4.119  0.6387  0.2444  0.8043
 2091SOL     OW17731   0.336   3.569   5.828 -0.7897 -0.1741  0.1674
 2091SOL    HW117732   0.272   3.499   5.813  0.9787 -1.5350 -0.9603
 2091SOL    HW217733   0.372   3.595   5.743 -2.1708  2.4780  0.4050
 2092SOL     OW17734   2.290   0.865   6.296  0.4054 -0.0515  0.0755
 2092SOL    HW117735   2.252   0.893   6.213 -2.0109 -1.7679  0.5985
 2092SOL    HW217736   2.317   0.775   6.280  1.4110  0.6423 -2.1045
 2093SOL     OW17737   3.470   2.922   2.407 -0.2735 -0.2109  0.1186
 2093SOL    HW117738   3.377   2.913   2.387 -0.2751 -0.2418  0.1390
 2093SOL    HW217739   3.502   2.941   2.319  0.1998 -1.8365 -0.0719
 2094SOL     OW17740   4.550   4.531   7.548  0.3141 -0.2222 -0.1765
 2094SOL    HW117741   4.640   4.500   7.542 -0.2986 -1.9279 -0.3854
 2094SOL    HW217742   4.560   4.586   7.626 -2.2588 -0.4431  0.3130
 2095SOL     OW17743   1.618   2.842   7.889 -0.0526  0.1517  0.1362
 2095SOL    HW117744   1.621   2.747   7.900 -1.6474 -0.0752 -1.3945
 2095SOL    HW217745   1.681   2.855   7.818 -1.1623 -1.6733 -1.2024
 2096SOL     OW17746   2.586   0.732  16.433 -0.1291  0.3153  0.2457
 2096SOL    HW117747   2.543   0.673  16.371  0.4876 -0.2494  0.3546
 2096SOL    HW217748   2.660   0.683  16.467 -1.1902 -0.7595  0.9682
 2097SOL     OW17749   4.392   3.474   0.142  0.1577  0.5247  0.1925
 2097SOL    HW117750   4.462   3.466   0.077 -0.3669 -1.1774 -0.1746
 2097SOL    HW217751   4.411   3.401   0.201 -0.4335  1.5768  1.6769
 2098SOL     OW17752   3.359   1.188   5.763  0.3017 -0.0436  0.2807
 2098SOL    HW117753   3.365   1.283   5.748  1.9795 -0.1005  0.6274
 2098SOL    HW217754   3.421   1.151   5.700 -2.3530 -2.1151 -1.1376
 2099SOL     OW17755   3.554   0.069   8.322  1.1747  0.0161  0.3118
 2099SOL    HW117756   3.532   0.008   8.252 -2.3362  1.2609  0.3337
 2099SOL    HW217757   3.471   0.063   8.370  1.5328 -0.0297  0.9296
 2100SOL     OW17758   1.798   1.231   2.221  0.1193 -0.0969  0.4089
 2100SOL    HW117759   1.800   1.262   2.131 -0.7702 -0.6182  0.2008
 2100SOL    HW217760   1.729   1.290   2.251  2.6410  2.2534  1.5517
 2101SOL     OW17761   3.611   1.080   2.690  0.7218  0.0956 -0.7844
 2101SOL    HW117762   3.571   0.994   2.700 -1.0123  1.2124  2.0343
 2101SOL    HW217763   3.699   1.062   2.657 -0.6426 -1.3501 -3.5811
 2102SOL     OW17764   2.474   4.103   6.329  0.2229 -0.1511 -0.3192
 2102SOL    HW117765   2.486   4.183   6.279 -1.6027  0.4774  0.2359
 2102SOL    HW217766   2.395   4.122   6.381  0.3423 -1.1114  0.2212
 2103SOL     OW17767   3.801   2.590   5.713 -0.6452 -0.1413 -0.1235
 2103SOL    HW117768   3.758   2.515   5.673 -0.1848  0.5373 -1.9134
 2103SOL    HW217769   3.829   2.540   5.789 -0.7655  0.6307  0.4307
 2104SOL     OW17770   0.241   4.303  14.634 -0.4698  0.1455 -0.3413
 2104SOL    HW117771   0.279   4.387  14.659 -0.0027  0.1629 -1.0985
 2104SOL    HW217772   0.240   4.318  14.539 -1.6300  2.7381  0.0928
 2105SOL     OW17773   0.012   2.895  15.759 -0.4881  0.3775  1.1605
 2105SOL    HW117774   4.680   2.968  15.786 -3.2349 -0.8402 -1.2863
 2105SOL    HW217775   0.008   2.894  15.663 -2.0740 -0.0217  1.2241
 2106SOL     OW17776   1.743   3.487   6.681  0.1031 -0.3006 -0.5871
 2106SOL    HW117777   1.705   3.521   6.599 -3.9427 -2.1185  0.5070
 2106SOL    HW217778   1.837   3.488   6.664  0.0409  0.6403 -0.8762
 2107SOL     OW17779   0.297   3.221   5.503 -0.0369 -0.2647 -0.0900
 2107SOL    HW117780   0.239   3.283   5.459 -0.4642 -0.3901  0.3053
 2107SOL    HW217781   0.372   3.235   5.445 -1.8984  2.0424 -1.9701
 2108SOL     OW17782   1.566   4.174   8.547  0.0193  0.4504  0.0796
 2108SOL    HW117783   1.497   4.169   8.612  1.4739 -1.4733  1.4859
 2108SOL    HW217784   1.576   4.269   8.545 -0.4218  0.5198  1.5298
 2109SOL     OW17785   0.213   0.936   5.978  0.0873  0.4758 -0.7588
 2109SOL    HW117786   0.307   0.919   5.977  0.1672  0.9906 -1.6093
 2109SOL    HW217787   0.209   1.031   5.985 -0.0037  0.5675 -1.9608
 2110SOL     OW17788   0.881   1.147   2.716  0.0949  0.1748 -0.0842
 2110SOL    HW117789   0.922   1.141   2.629  0.7041 -1.3950  0.3132
 2110SOL    HW217790   0.812   1.082   2.707 -0.4064  0.8504 -1.2053
 2111SOL     OW17791   2.113   0.163  16.081 -0.1152  0.0279 -0.0696
 2111SOL    HW117792   2.133   0.163  16.175 -0.9945  0.9533  0.1162
 2111SOL    HW217793   2.152   0.248  16.060 -0.6657  0.9819  2.7329
 2112SOL     OW17794   1.735   1.950   3.573 -0.5835  0.1174  0.2248
 2112SOL    HW117795   1.645   1.976   3.551  0.1539  1.5582 -1.0275
 2112SOL    HW217796   1.758   2.012   3.642  2.1931 -0.3549 -0.2935
 2113SOL     OW17797   3.617   2.738   8.470  0.0782  0.0890 -0.3708
 2113SOL    HW117798   3.530   2.742   8.509  0.8730 -0.3961  1.4344
 2113SOL    HW217799   3.674   2.757   8.545  1.0817  1.2617 -1.4294
 2114SOL     OW17800   2.656   1.596  10.435  0.2616 -0.3469  0.1754
 2114SOL    HW117801   2.662   1.570  10.527  0.8370 -1.1225 -0.0799
 2114SOL    HW217802   2.632   1.516  10.390 -0.7571  0.2083 -0.2573
 2115SOL     OW17803   4.084   4.314   7.915  0.4683 -0.4079 -0.4457
 2115SOL    HW117804   4.152   4.321   7.849 -0.5624  1.4867 -1.2825
 2115SOL    HW217805   4.031   4.387   7.884  1.4821  0.1657 -0.7906
 2116SOL     OW17806   2.558   0.510  14.175  0.4406 -0.1469 -0.6625
 2116SOL    HW117807   2.547   0.454  14.098  1.9878  0.5327 -1.3680
 2116SOL    HW217808   2.642   0.553  14.158  0.4219  0.3270  0.4419
 2117SOL     OW17809   0.132   2.116   7.083 -0.8194  0.2590 -0.1445
 2117SOL    HW117810   0.094   2.101   6.996  0.3594 -0.0144 -0.6172
 2117SOL    HW217811   0.187   2.038   7.081 -1.0748  0.1398 -2.2055
 2118SOL     OW17812   3.437   2.424  14.350 -1.0226 -0.2036  0.2240
 2118SOL    HW117813   3.471   2.458  14.432 -0.0052  1.6496 -0.9700
 2118SOL    HW217814   3.508   2.365  14.327  0.5734  1.4857  0.8909
 2119SOL     OW17815   1.986   1.854   2.322 -0.4509 -0.6113  0.5912
 2119SOL    HW117816   1.975   1.924   2.258  0.5930 -1.0996 -0.1258
 2119SOL    HW217817   2.069   1.881   2.361 -1.3758  1.8876  0.8617
 2120SOL     OW17818   1.000   2.780   6.695 -0.0067 -0.1798 -0.5357
 2120SOL    HW117819   1.010   2.687   6.673 -0.3492 -0.5172  0.7581
 2120SOL    HW217820   1.045   2.776   6.779  0.2872  1.4029 -0.6092
 2121SOL     OW17821   2.982   3.214   7.860 -0.3004  0.1159  0.1155
 2121SOL    HW117822   2.987   3.263   7.942  1.6522 -0.3435  0.2628
 2121SOL    HW217823   2.924   3.141   7.878  0.8642 -1.1342 -1.1761
 2122SOL     OW17824   4.711   2.641  14.375  0.0311 -0.0877  0.0991
 2122SOL    HW117825   4.630   2.594  14.393  0.2214 -0.5156 -0.1544
 2122SOL    HW217826   4.720   2.603  14.288  2.0632  0.3211  0.1171
 2123SOL     OW17827   3.094   1.958   5.774 -0.3311 -0.1765  0.7907
 2123SOL    HW117828   3.075   2.020   5.844  1.7411  2.3092 -0.8519
 2123SOL    HW217829   3.188   1.946   5.784 -0.3091 -0.0140  0.7783
 2124SOL     OW17830   2.863   2.990   7.984 -0.0592  0.0634  0.1245
 2124SOL    HW117831   2.936   2.927   7.977 -1.4879 -1.4617 -1.0474
 2124SOL    HW217832   2.869   2.991   8.079  0.1218 -0.5485  0.1262
 2125SOL     OW17833   4.542   0.809   1.983 -0.6045  0.1650  0.3074
 2125SOL    HW117834   4.455   0.786   1.949 -0.2129 -2.0630  0.7800
 2125SOL    HW217835   4.551   0.760   2.064  0.9865  1.2742  0.7958
 2126SOL     OW17836   0.061   1.772   2.447 -0.1879 -0.2132  0.0528
 2126SOL    HW117837   0.076   1.704   2.514 -0.2779  0.4206  0.7181
 2126SOL    HW217838   4.696   1.747   2.424  1.5087 -4.2939 -1.9747
 2127SOL     OW17839   3.007   4.218   5.386  1.0736 -0.0388 -0.1426
 2127SOL    HW117840   3.065   4.159   5.338 -0.6645 -1.6906 -0.2227
 2127SOL    HW217841   2.936   4.154   5.399  1.0763  0.3094  1.5903
 2128SOL     OW17842   0.693   3.390   8.793  0.0688 -0.4327  0.4956
 2128SOL    HW117843   0.643   3.312   8.769 -0.7822  0.2497  0.0927
 2128SOL    HW217844   0.629   3.442   8.841 -0.3369  0.6239 -1.2190
 2129SOL     OW17845   3.900   1.330   1.006  0.1369 -0.2532 -0.3663
 2129SOL    HW117846   3.979   1.285   0.976  1.8648  2.1620  0.5565
 2129SOL    HW217847   3.916   1.347   1.099 -0.8120 -0.0114 -0.2468
 2130SOL     OW17848   2.592   1.878   6.189 -0.2446  0.3424 -0.2829
 2130SOL    HW117849   2.629   1.790   6.195 -1.9933 -0.4180 -0.8236
 2130SOL    HW217850   2.602   1.908   6.279 -2.8601 -0.7516  0.3707
 2131SOL     OW17851   4.585   0.253   6.608  0.1760 -0.1061 -0.2730
 2131SOL    HW117852   4.526   0.301   6.666  0.5253 -1.6544  1.3274
 2131SOL    HW217853   4.552   0.163   6.612 -1.2372  0.2434 -3.4422
 2132SOL     OW17854   1.595   4.521  10.287  0.4544 -0.1133  0.2457
 2132SOL    HW117855   1.618   4.455  10.221  0.2700 -0.4743  0.5399
 2132SOL    HW217856   1.663   4.585  10.270 -0.2909  0.6604  0.1729
 2133SOL     OW17857   3.907   2.135  16.735  0.7650 -0.1117  0.1169
 2133SOL    HW117858   3.902   2.152  16.641 -1.2264  0.8232  0.3984
 2133SOL    HW217859   3.856   2.055  16.750  0.9399 -0.1438  0.5432
 2134SOL     OW17860   1.991   0.850  17.190 -0.1267 -0.5952 -0.3172
 2134SOL    HW117861   1.924   0.811  17.247  0.7956 -0.5135  0.8282
 2134SOL    HW217862   2.020   0.771  17.145 -1.8615 -0.2129 -2.1415
 2135SOL     OW17863   4.413   1.316   2.418 -0.4324  0.7037  0.1215
 2135SOL    HW117864   4.375   1.228   2.425 -0.5129  0.6364 -1.1991
 2135SOL    HW217865   4.456   1.326   2.503  0.1666  2.4822 -0.3965
 2136SOL     OW17866   4.221   2.666   7.189 -0.0849  0.2493  0.0671
 2136SOL    HW117867   4.161   2.591   7.197  0.6475 -0.1199  1.8751
 2136SOL    HW217868   4.302   2.619   7.208 -0.2236  0.6396  1.5899
 2137SOL     OW17869   1.487   3.243   3.698 -0.6453 -0.0846 -0.0687
 2137SOL    HW117870   1.579   3.220   3.684  0.4404  4.8099 -0.8043
 2137SOL    HW217871   1.495   3.289   3.781 -1.4822  1.5520 -0.8945
 2138SOL     OW17872   3.493   3.252   8.281 -0.4397 -0.0493  0.2580
 2138SOL    HW117873   3.507   3.215   8.369 -0.8745  0.2241  0.4431
 2138SOL    HW217874   3.514   3.174   8.230  2.5504 -0.3235  1.8908
 2139SOL     OW17875   0.928   4.632   9.060  0.3050  0.1908  0.6069
 2139SOL    HW117876   0.853   4.684   9.089 -2.1744 -2.8350 -0.3651
 2139SOL    HW217877   0.919   4.564   9.127 -0.4658  1.2566  1.5834
 2140SOL     OW17878   0.622   1.979   6.532 -0.3111 -0.1982 -0.1317
 2140SOL    HW117879   0.618   2.055   6.474  0.0064  0.9126  1.3114
 2140SOL    HW217880   0.693   2.017   6.584 -0.4217  1.6544 -1.3346
 2141SOL     OW17881   1.410   4.301   7.308  1.0888  0.1586  0.6689
 2141SOL    HW117882   1.465   4.254   7.245 -1.1444 -2.5525  0.7342
 2141SOL    HW217883   1.325   4.260   7.289  1.7211 -1.9521  2.3345
 2142SOL     OW17884   0.515   0.438   7.934  0.3044  0.3423  0.2522
 2142SOL    HW117885   0.566   0.384   7.994  0.6132  0.0155 -0.3114
 2142SOL    HW217886   0.581   0.494   7.894  0.3313  0.5235  0.5481
 2143SOL     OW17887   3.220   1.193   5.465 -0.0518 -0.5008 -0.1164
 2143SOL    HW117888   3.188   1.186   5.375  0.4432  1.2086 -0.4301
 2143SOL    HW217889   3.285   1.261   5.450 -0.8107  0.1957 -0.2940
 2144SOL     OW17890   4.286   3.719   4.919 -0.2514 -0.2565  0.2585
 2144SOL    HW117891   4.307   3.750   5.007 -2.8660 -0.9972  1.1416
 2144SOL    HW217892   4.252   3.805   4.895 -1.2159 -0.6502  0.1880
 2145SOL     OW17893   4.106   0.306   4.664  0.1728  0.0950  0.1918
 2145SOL    HW117894   4.152   0.329   4.584 -0.9333 -1.8545 -1.0213
 2145SOL    HW217895   4.142   0.218   4.680 -1.4332 -0.0956  2.8011
 2146SOL     OW17896   0.917   3.058   0.330 -0.0362 -0.2512  0.4725
 2146SOL    HW117897   1.000   3.014   0.311  0.0115 -0.7206  1.7897
 2146SOL    HW217898   0.952   3.119   0.395 -0.7010  0.3983  0.2124
 2147SOL     OW17899   1.359   1.217   5.661 -0.3796 -0.1692  0.9695
 2147SOL    HW117900   1.348   1.224   5.566 -0.1231  4.5852  1.3206
 2147SOL    HW217901   1.266   1.203   5.681 -0.6701  1.3686  0.6968
 2148SOL     OW17902   1.040   1.877  16.185  1.1044 -0.8110  0.5035
 2148SOL    HW117903   1.054   1.826  16.105  0.5803  0.7683 -0.5857
 2148SOL    HW217904   1.127   1.909  16.207  1.2777  1.2051 -3.1391
 2149SOL     OW17905   1.453   0.301   6.966 -0.3286  0.0570 -0.0027
 2149SOL    HW117906   1.489   0.215   6.988  2.1612  0.9891 -0.4803
 2149SOL    HW217907   1.370   0.300   7.014 -0.8924 -1.1542 -0.9908
 2150SOL     OW17908   1.474   4.584  12.991  0.7587  0.4771  0.3418
 2150SOL    HW117909   1.505   4.647  13.056 -0.3788  1.8164 -0.4082
 2150SOL    HW217910   1.486   4.502  13.038 -0.5533 -0.3757 -0.8120
 2151SOL     OW17911   0.291   0.678   9.463 -0.6662 -0.7118  0.0766
 2151SOL    HW117912   0.240   0.728   9.399 -2.5444  0.6068  2.6331
 2151SOL    HW217913   0.375   0.698   9.422 -0.3408 -2.3759 -0.0745
 2152SOL     OW17914   4.355   4.140  13.210 -0.2343  0.6396  0.7494
 2152SOL    HW117915   4.367   4.073  13.143  1.2942  2.3417 -0.6727
 2152SOL    HW217916   4.433   4.190  13.186  0.8861 -1.0716  0.8709
 2153SOL     OW17917   3.684   3.708   6.525  0.5944 -0.5805  0.2541
 2153SOL    HW117918   3.776   3.686   6.513  0.1596 -1.9988 -0.4713
 2153SOL    HW217919   3.690   3.787   6.470  1.7170  0.5980  2.0528
 2154SOL     OW17920   3.302   0.503  13.234  0.0806  0.4751 -0.4673
 2154SOL    HW117921   3.225   0.476  13.283  1.1602 -0.7844  0.5339
 2154SOL    HW217922   3.262   0.497  13.147  1.1037 -3.8800 -0.6727
 2155SOL     OW17923   1.219   3.889  13.124 -0.4307 -0.2460 -0.0917
 2155SOL    HW117924   1.242   3.807  13.167 -0.7659 -1.0594 -1.4885
 2155SOL    HW217925   1.125   3.884  13.110 -0.4571  0.2885 -0.1045
 2156SOL     OW17926   0.499   2.591  17.289 -0.3823  0.2753 -0.3012
 2156SOL    HW117927   0.574   2.615  17.343 -0.9553  0.1356  0.5606
 2156SOL    HW217928   0.449   2.672  17.298 -1.2935 -0.1780 -1.2431
 2157SOL     OW17929   3.947   4.480   0.198  0.5830 -0.3322 -0.1481
 2157SOL    HW117930   3.896   4.518   0.270  0.4198 -0.0925 -0.3883
 2157SOL    HW217931   4.011   4.550   0.189  0.5311 -0.1535  0.8672
 2158SOL     OW17932   3.983   4.507  13.624  0.0541  0.2966  0.5477
 2158SOL    HW117933   3.939   4.469  13.549 -0.1838  3.3231 -0.8539
 2158SOL    HW217934   3.919   4.574  13.646 -1.2177 -0.8435  0.2604
 2159SOL     OW17935   0.047   1.952   2.798 -0.3917  0.1242 -0.1154
 2159SOL    HW117936   0.034   1.888   2.868  0.3064 -0.5654 -0.6142
 2159SOL    HW217937   0.110   1.915   2.736 -1.2544 -1.7214  0.0831
 2160SOL     OW17938   2.183   3.149   5.700 -0.2160  0.2601 -0.1198
 2160SOL    HW117939   2.198   3.238   5.733 -1.9015  0.5859 -0.2345
 2160SOL    HW217940   2.277   3.129   5.693 -0.9780 -2.8566 -1.3605
 2161SOL     OW17941   0.562   1.871  16.106 -0.1126  0.2593 -0.1221
 2161SOL    HW117942   0.597   1.823  16.031  0.0089 -1.3266  0.9526
 2161SOL    HW217943   0.644   1.885  16.153 -0.8766 -2.9058  2.1663
 2162SOL     OW17944   2.833   1.661   0.191  0.2794 -0.2150  0.0876
 2162SOL    HW117945   2.837   1.749   0.154  1.2475  0.5317  1.9824
 2162SOL    HW217946   2.767   1.677   0.258  1.7589 -1.6069  1.8789
 2163SOL     OW17947   3.742   4.467   4.754  0.1027 -0.2900 -0.0331
 2163SOL    HW117948   3.793   4.406   4.701  3.1331  0.8418  1.6079
 2163SOL    HW217949   3.798   4.539   4.783  0.3658 -0.3713 -0.3402
 2164SOL     OW17950   0.869   0.549   8.382 -0.1026 -0.2607 -0.5539
 2164SOL    HW117951   0.906   0.631   8.414  0.6783 -0.7572 -0.1791
 2164SOL    HW217952   0.862   0.567   8.288 -2.3094 -1.8922 -0.7057
 2165SOL     OW17953   4.247   3.390  13.749  0.0398 -0.5574 -0.6968
 2165SOL    HW117954   4.323   3.422  13.797 -1.4891  1.4399  0.3887
 2165SOL    HW217955   4.191   3.363  13.822  1.0801  2.2994  1.1399
 2166SOL     OW17956   3.079   3.522   1.287  0.1894  0.5017 -0.0685
 2166SOL    HW117957   3.172   3.508   1.302  0.2797  1.4188  0.2528
 2166SOL    HW217958   3.042   3.444   1.328 -0.0154  1.8784  2.4038
 2167SOL     OW17959   2.387   3.407   6.506  0.2208 -0.2729 -0.2193
 2167SOL    HW117960   2.438   3.480   6.543 -1.3150  0.8939 -0.4381
 2167SOL    HW217961   2.440   3.379   6.431 -0.4360 -0.1763 -0.7147
 2168SOL     OW17962   0.291   3.316   1.666 -0.2988  0.8135 -0.0381
 2168SOL    HW117963   0.347   3.388   1.695  0.4744  0.5681 -0.9163
 2168SOL    HW217964   0.205   3.352   1.690 -0.0283  1.9504 -0.8163
 2169SOL     OW17965   3.252   4.444  11.757  0.0990 -0.1931  0.0819
 2169SOL    HW117966   3.179   4.436  11.818 -0.8725 -1.6134 -1.2960
 2169SOL    HW217967   3.237   4.365  11.706 -2.2604  0.1823  0.2132
 2170SOL     OW17968   4.627   4.357   2.001 -0.3866 -0.1304  0.5917
 2170SOL    HW117969   4.638   4.390   2.090  0.4374 -1.3091  0.9338
 2170SOL    HW217970   4.532   4.351   1.990 -0.2208 -1.3235 -0.1800
 2171SOL     OW17971   2.057   3.171   1.808  0.2393  0.0780  0.1340
 2171SOL    HW117972   2.127   3.149   1.870 -0.0789 -2.8042 -0.5009
 2171SOL    HW217973   1.986   3.130   1.856  0.8672 -0.3462  0.7059
 2172SOL     OW17974   0.780   2.700  11.882 -0.8249 -0.1006 -0.1175
 2172SOL    HW117975   0.715   2.666  11.945  1.2303 -3.3697  0.2548
 2172SOL    HW217976   0.731   2.696  11.801 -3.7233  1.2869  1.5649
 2173SOL     OW17977   0.406   1.180   2.212  0.0957  0.6889  0.1860
 2173SOL    HW117978   0.312   1.184   2.232  0.0610  1.3119 -0.0941
 2173SOL    HW217979   0.403   1.177   2.116  2.6004  1.5432  0.0997
 2174SOL     OW17980   3.589   1.603  14.771  0.0306 -0.0119  0.1395
 2174SOL    HW117981   3.503   1.576  14.803 -0.5930 -0.5006 -1.9414
 2174SOL    HW217982   3.622   1.668  14.834  3.2896 -0.7769 -0.7945
 2175SOL     OW17983   2.761   4.432   2.900  0.2931  0.2093 -0.0930
 2175SOL    HW117984   2.843   4.413   2.946  0.6296  0.1377 -0.7227
 2175SOL    HW217985   2.789   4.407   2.811 -1.4632 -0.0595 -0.5633
 2176SOL     OW17986   3.270   3.945   5.983  0.3613  0.6269 -0.4811
 2176SOL    HW117987   3.227   3.866   5.951  1.5733 -0.7184  1.3012
 2176SOL    HW217988   3.198   4.008   5.983 -1.2329 -1.1959 -0.3860
 2177SOL     OW17989   2.098   4.153   6.801  0.3409 -0.2076  0.5279
 2177SOL    HW117990   2.049   4.075   6.776  2.1414 -0.8365 -1.0601
 2177SOL    HW217991   2.180   4.106   6.816  1.3321  0.5022 -2.5886
 2178SOL     OW17992   4.044   1.367   0.231  0.5514  0.3267  0.3840
 2178SOL    HW117993   4.116   1.413   0.275 -0.5477  2.3710  0.0721
 2178SOL    HW217994   3.969   1.423   0.255  2.4020  2.6695  0.7019
 2179SOL     OW17995   2.287   3.965   4.963  0.1512  0.2259 -0.3027
 2179SOL    HW117996   2.344   4.042   4.973  0.5040  0.1338 -1.5651
 2179SOL    HW217997   2.323   3.905   5.027 -1.5987 -1.2156 -0.6549
 2180SOL     OW17998   1.702   0.782   5.308 -0.7172 -0.2716  0.0061
 2180SOL    HW117999   1.771   0.849   5.306 -1.7002  0.7552  0.6422
 2180SOL    HW218000   1.715   0.742   5.222  1.6146  4.2157 -1.7320
 2181SOL     OW18001   0.312   2.141  15.985  0.2734  1.1767  0.4384
 2181SOL    HW118002   0.234   2.195  15.996 -0.1932  0.7381 -0.7138
 2181SOL    HW218003   0.279   2.069  15.930 -0.5410  2.4563 -0.7557
 2182SOL     OW18004   3.429   3.629   3.424  0.0908  0.5311 -0.7152
 2182SOL    HW118005   3.408   3.536   3.421  1.4414  0.1500  1.7685
 2182SOL    HW218006   3.498   3.638   3.489 -0.2078 -0.1666 -0.3123
 2183SOL     OW18007   1.531   4.650   8.950  0.4442 -0.1588  0.0031
 2183SOL    HW118008   1.511   4.629   8.859  0.6879 -0.3359 -0.0092
 2183SOL    HW218009   1.554   4.566   8.991 -0.4752 -0.7869 -0.7797
 2184SOL     OW18010   1.105   0.918   2.873  0.7124 -0.0216  0.6659
 2184SOL    HW118011   1.134   0.842   2.924  2.7791  1.0289  1.0466
 2184SOL    HW218012   1.084   0.867   2.794  0.3999  2.9634 -1.1822
 2185SOL     OW18013   1.698   2.452   1.661  0.2814 -0.4965 -0.7487
 2185SOL    HW118014   1.749   2.391   1.714  1.2758 -0.5637 -1.7831
 2185SOL    HW218015   1.704   2.411   1.575 -0.7502  0.1734 -1.1392
 2186SOL     OW18016   2.668   2.315  10.706 -0.5650 -0.0811 -0.3261
 2186SOL    HW118017   2.754   2.342  10.674 -0.0407  0.1094  1.2285
 2186SOL    HW218018   2.675   2.226  10.673 -0.7590  0.0414 -0.7009
 2187SOL     OW18019   4.138   1.939   3.029  0.4093 -0.2336  0.2355
 2187SOL    HW118020   4.151   1.844   3.031 -3.5901 -0.7648  0.8038
 2187SOL    HW218021   4.183   1.956   2.947 -0.1388  0.4000  0.0700
 2188SOL     OW18022   3.713   1.379   0.820 -0.3557  0.8353 -0.2450
 2188SOL    HW118023   3.738   1.471   0.810 -3.2517  1.6121 -0.4702
 2188SOL    HW218024   3.768   1.362   0.897  1.3195 -0.3706 -1.7275
 2189SOL     OW18025   1.169   2.090   2.945  0.2436 -0.5450 -0.1364
 2189SOL    HW118026   1.180   2.127   2.858 -0.8293 -0.8069 -0.3842
 2189SOL    HW218027   1.103   2.150   2.982  1.2176  1.0570 -1.0178
 2190SOL     OW18028   0.397   2.712   9.615 -0.6741 -0.0829  0.3581
 2190SOL    HW118029   0.487   2.721   9.584 -0.7917 -1.3671 -0.3237
 2190SOL    HW218030   0.333   2.761   9.564 -0.4301 -1.8499 -1.6113
 2191SOL     OW18031   1.669   2.390   1.393 -0.0076  0.2505  0.6931
 2191SOL    HW118032   1.683   2.471   1.344 -3.8916  1.2591  1.2225
 2191SOL    HW218033   1.719   2.321   1.351 -0.4353  1.2056 -1.3902
 2192SOL     OW18034   2.803   0.078   4.517  0.0497  0.4248  0.3383
 2192SOL    HW118035   2.856   0.140   4.566  1.8993 -0.4164 -0.5817
 2192SOL    HW218036   2.784   0.008   4.579  0.6468  2.4930  2.8474
 2193SOL     OW18037   0.837   1.128   9.229 -0.1338  0.6126 -0.2042
 2193SOL    HW118038   0.904   1.130   9.297 -0.8957  0.8632  0.5462
 2193SOL    HW218039   0.864   1.208   9.182 -2.5146  0.4794 -1.8143
 2194SOL     OW18040   4.052   0.859   1.903 -0.5928 -0.4879  0.4265
 2194SOL    HW118041   3.980   0.828   1.849  0.0950 -0.5495 -0.4528
 2194SOL    HW218042   4.037   0.953   1.896 -0.8622 -0.7142 -2.0546
 2195SOL     OW18043   3.284   2.633   6.349  0.6740 -0.1205 -0.2919
 2195SOL    HW118044   3.231   2.708   6.322 -0.0272  0.1082  1.7691
 2195SOL    HW218045   3.347   2.689   6.396  2.7035 -2.9994  0.4173
 2196SOL     OW18046   3.905   3.991   9.454  0.5228 -0.2343 -0.4237
 2196SOL    HW118047   3.886   3.980   9.361 -2.9514 -1.3929  0.4134
 2196SOL    HW218048   3.856   3.916   9.487  1.5262 -0.1729  1.2024
 2197SOL     OW18049   3.184   4.338   1.582 -0.8957 -0.0390  0.2607
 2197SOL    HW118050   3.243   4.299   1.518  1.0201  0.6406  1.6135
 2197SOL    HW218051   3.114   4.373   1.527 -0.9997 -1.0921 -0.2733
 2198SOL     OW18052   4.402   2.380  17.337  0.5245 -0.2904 -0.8787
 2198SOL    HW118053   4.463   2.429  17.282  0.4999 -0.0595 -0.7033
 2198SOL    HW218054   4.325   2.436  17.325 -0.0092 -1.3820 -2.5772
 2199SOL     OW18055   3.061   0.160   6.196 -0.4581  0.2072 -0.7444
 2199SOL    HW118056   3.092   0.238   6.151  1.2301 -0.0953 -0.1137
 2199SOL    HW218057   3.146   0.117   6.191 -0.9726 -0.6185 -2.2127
 2200SOL     OW18058   3.641   4.494   3.539 -0.3939  0.0616  0.4946
 2200SOL    HW118059   3.650   4.565   3.476  1.6804  1.1648  2.0280
 2200SOL    HW218060   3.629   4.416   3.485 -2.4522 -0.4194  1.6470
 2201SOL     OW18061   3.134   4.085   0.852  0.4437  0.1373 -0.1729
 2201SOL    HW118062   3.138   4.143   0.776  0.1019  0.7574  0.2888
 2201SOL    HW218063   3.219   4.089   0.896  1.3413  0.9197 -1.9733
 2202SOL     OW18064   4.253   1.487   4.111 -0.8232 -0.6307  0.0450
 2202SOL    HW118065   4.326   1.450   4.062 -0.2477 -0.2794  0.6442
 2202SOL    HW218066   4.218   1.550   4.048  1.9172  2.0491  1.1943
 2203SOL     OW18067   3.665   2.744   7.533  0.3207  0.9146  0.4997
 2203SOL    HW118068   3.578   2.753   7.571 -0.4180  0.1492 -1.0159
 2203SOL    HW218069   3.691   2.834   7.518  0.1119  1.1344  1.4492
 2204SOL     OW18070   1.513   2.544   5.932 -0.9019 -0.2165  0.4867
 2204SOL    HW118071   1.443   2.595   5.892  1.1545  2.3749  0.1727
 2204SOL    HW218072   1.587   2.604   5.947 -0.5562 -0.2476 -1.1188
 2205SOL     OW18073   1.841   1.256   3.476  0.4021 -0.7186 -0.1785
 2205SOL    HW118074   1.762   1.201   3.469  0.0709 -0.3051  0.3009
 2205SOL    HW218075   1.903   1.193   3.513 -1.2218 -2.6074 -0.6358
 2206SOL     OW18076   1.294   1.249  15.188 -0.3227  0.2181 -0.0330
 2206SOL    HW118077   1.262   1.333  15.155 -0.1679  0.2392 -0.1262
 2206SOL    HW218078   1.349   1.273  15.262  1.1617 -0.7627 -0.8145
 2207SOL     OW18079   1.483   2.754  17.601 -0.3737  0.1706  0.1250
 2207SOL    HW118080   1.504   2.787  17.688  0.2706  0.7328 -0.2428
 2207SOL    HW218081   1.561   2.704  17.578 -0.0694  1.2202 -1.1163
 2208SOL     OW18082   0.931   1.643   3.900 -0.0881 -0.2987  0.1193
 2208SOL    HW118083   0.959   1.734   3.889  0.3645 -0.3077  1.1510
 2208SOL    HW218084   1.007   1.616   3.952  0.6818 -1.9048 -1.8324
 2209SOL     OW18085   1.326   1.961   6.575 -0.4399  0.6834 -0.3227
 2209SOL    HW118086   1.240   1.997   6.551 -0.5109  1.6332  1.2991
 2209SOL    HW218087   1.378   2.039   6.594  1.4800 -1.0355  1.4885
 2210SOL     OW18088   0.333   0.012   8.331  0.4099 -0.3786  0.2995
 2210SOL    HW118089   0.271   0.085   8.326  0.0315 -0.6860  0.5208
 2210SOL    HW218090   0.273   4.665   8.354 -0.9119  0.4876 -0.4076
 2211SOL     OW18091   0.155   2.234   6.017  0.4010 -1.1311 -0.0536
 2211SOL    HW118092   0.212   2.231   6.093  1.6360 -1.7684 -0.9898
 2211SOL    HW218093   0.232   2.232   5.960  1.1779 -1.8366  1.0197
 2212SOL     OW18094   3.383   0.899   3.545 -0.0960 -0.2463  0.0481
 2212SOL    HW118095   3.334   0.840   3.603 -0.7408 -1.2857 -1.5439
 2212SOL    HW218096   3.461   0.915   3.598  1.2783  1.6532 -2.5701
 2213SOL     OW18097   2.517   2.560   7.536  0.2232 -0.3358 -0.1555
 2213SOL    HW118098   2.589   2.498   7.542  1.4843  1.2540  1.1056
 2213SOL    HW218099   2.569   2.637   7.511 -0.4086 -0.0999 -0.7431
 2214SOL     OW18100   4.523   3.387   5.182 -0.4837  0.0360 -0.0583
 2214SOL    HW118101   4.430   3.404   5.169 -0.1510  0.5536 -1.7053
 2214SOL    HW218102   4.555   3.475   5.199  1.4363 -0.4645 -1.1346
 2215SOL     OW18103   1.588   0.524  11.677  0.1180  0.2450  0.9047
 2215SOL    HW118104   1.624   0.549  11.763  1.5866 -2.2110  1.0112
 2215SOL    HW218105   1.622   0.591  11.618 -1.7836  0.3015 -0.1082
 2216SOL     OW18106   3.642   3.709  16.477 -0.2881  0.1754  0.4290
 2216SOL    HW118107   3.588   3.712  16.556  1.0739  1.6218  1.2931
 2216SOL    HW218108   3.590   3.646  16.427  1.5940  0.0859 -1.4094
 2217SOL     OW18109   3.442   1.996   8.527  0.7778 -0.3760 -0.0588
 2217SOL    HW118110   3.402   1.927   8.474 -2.4749  1.9753 -0.6289
 2217SOL    HW218111   3.382   2.070   8.522  2.3882  0.8839 -0.7176
 2218SOL     OW18112   3.456   3.583  16.314 -0.3828  0.7456 -0.0562
 2218SOL    HW118113   3.510   3.516  16.272  1.1896 -0.6500  4.1616
 2218SOL    HW218114   3.373   3.575  16.266 -0.2131  0.0954 -0.2467
 2219SOL     OW18115   2.436   3.716  14.549  0.1901 -0.1460 -0.2541
 2219SOL    HW118116   2.361   3.657  14.556  0.4797 -0.4167  0.5254
 2219SOL    HW218117   2.394   3.784  14.496  1.3904  1.0481  0.3037
 2220SOL     OW18118   4.689   0.674   7.945 -0.2362 -0.1395 -0.6337
 2220SOL    HW118119   0.009   0.619   8.010  1.2316  0.7193 -0.8985
 2220SOL    HW218120   4.603   0.635   7.930 -1.3988  1.8004  1.0004
 2221SOL     OW18121   2.720   4.572   1.976 -0.2051  0.6367  0.1334
 2221SOL    HW118122   2.667   4.612   2.046 -1.7200 -1.5615  0.2557
 2221SOL    HW218123   2.807   4.590   2.012 -1.0368  0.8320  2.0579
 2222SOL     OW18124   2.796   3.406   8.521  0.9290  0.7993 -0.8495
 2222SOL    HW118125   2.795   3.336   8.586  1.4516 -1.3102 -3.0539
 2222SOL    HW218126   2.816   3.356   8.441  0.5658  1.2279 -1.2110
 2223SOL     OW18127   2.887   4.060   8.077 -0.3970  0.2092 -0.3566
 2223SOL    HW118128   2.914   3.984   8.128 -2.7520 -0.7100 -0.4689
 2223SOL    HW218129   2.817   4.014   8.031 -1.7979  1.2314  0.7230
 2224SOL     OW18130   2.193   4.070  15.486  0.2307 -0.0223  0.5757
 2224SOL    HW118131   2.216   4.163  15.480 -0.3802 -0.0026 -1.3986
 2224SOL    HW218132   2.110   4.064  15.439 -1.1646  1.1537  2.9001
 2225SOL     OW18133   1.950   1.862  13.244 -0.0636 -0.6263  0.7335
 2225SOL    HW118134   1.922   1.876  13.334 -1.6201  0.7206  0.0350
 2225SOL    HW218135   2.040   1.897  13.248 -0.4102  0.4505 -0.9020
 2226SOL     OW18136   4.375   0.916   8.784 -0.3108  0.1849  0.1329
 2226SOL    HW118137   4.437   0.878   8.846  2.4237  0.8614 -2.2241
 2226SOL    HW218138   4.294   0.923   8.835  0.8124  0.7024  1.8811
 2227SOL     OW18139   2.769   4.092  10.220 -0.2657 -0.2463  0.0847
 2227SOL    HW118140   2.840   4.034  10.246 -0.8103 -0.4841  1.0583
 2227SOL    HW218141   2.809   4.179  10.226 -2.7927  0.9561 -0.2262
 2228SOL     OW18142   2.412   1.288   3.923  0.2555  0.4036 -0.6728
 2228SOL    HW118143   2.463   1.293   4.004 -1.0861  0.7872  0.1361
 2228SOL    HW218144   2.484   1.277   3.861  1.7391 -0.9726  1.3258
 2229SOL     OW18145   2.061   1.481   7.199  0.1792  0.5876  0.2659
 2229SOL    HW118146   2.046   1.435   7.282 -0.2845 -0.4358 -0.3825
 2229SOL    HW218147   2.015   1.422   7.139 -0.2653  2.0061 -0.8070
 2230SOL     OW18148   2.119   1.491  14.883 -0.5840 -0.3383  0.1540
 2230SOL    HW118149   2.056   1.421  14.899 -1.7111  0.9383  1.2872
 2230SOL    HW218150   2.202   1.442  14.887 -0.5488 -0.1665  1.4041
 2231SOL     OW18151   1.760   4.601  11.608 -0.9480 -0.0583  0.6821
 2231SOL    HW118152   1.669   4.623  11.587 -0.4241  0.4868 -0.9521
 2231SOL    HW218153   1.809   4.683  11.617 -0.0819 -0.8928  3.5810
 2232SOL     OW18154   2.968   0.849  10.141 -0.1067  0.4634  0.0134
 2232SOL    HW118155   2.958   0.776  10.202  1.7664 -2.0660 -2.6661
 2232SOL    HW218156   3.058   0.875  10.162  0.7083 -2.5980  0.3233
 2233SOL     OW18157   0.358   2.122   2.940  0.2032  0.6202 -0.3096
 2233SOL    HW118158   0.293   2.052   2.944  0.9253  0.0641  1.8449
 2233SOL    HW218159   0.299   2.197   2.933 -0.2925  0.2967  0.4187
 2234SOL     OW18160   1.065   3.136   3.590  0.4853 -0.5547 -0.3235
 2234SOL    HW118161   1.015   3.069   3.636  0.1525  0.8184  1.3147
 2234SOL    HW218162   1.155   3.115   3.616 -0.0313 -1.4340  0.7666
 2235SOL     OW18163   3.706   2.789   4.196  0.3107  0.1008  0.6792
 2235SOL    HW118164   3.690   2.876   4.160 -0.4827  0.5339  2.0786
 2235SOL    HW218165   3.712   2.734   4.118 -0.1440 -1.6732  1.9038
 2236SOL     OW18166   2.905   3.358   1.817 -0.1390  0.5520 -0.1143
 2236SOL    HW118167   2.960   3.430   1.847  0.5833  0.0363 -0.2105
 2236SOL    HW218168   2.957   3.280   1.834 -0.7256  0.1371 -0.2224
 2237SOL     OW18169   1.128   2.998  10.719 -0.2212 -0.2745 -0.4090
 2237SOL    HW118170   1.198   2.975  10.658 -0.3895 -1.1212 -0.2701
 2237SOL    HW218171   1.168   3.062  10.778 -0.6418  1.0270 -1.5327
 2238SOL     OW18172   4.093   2.417  16.515  0.6949 -0.0201 -0.1324
 2238SOL    HW118173   4.079   2.336  16.466 -1.4124 -0.2067  0.8150
 2238SOL    HW218174   4.188   2.425  16.500  0.8468 -0.2619  0.7210
 2239SOL     OW18175   2.357   4.532   8.968  0.1483 -0.0392  0.7799
 2239SOL    HW118176   2.349   4.619   8.929 -0.5802 -0.8568 -0.8853
 2239SOL    HW218177   2.322   4.481   8.895 -1.6011  2.1285  0.1389
 2240SOL     OW18178   0.269   2.741  14.487  0.2575 -0.2514  0.1933
 2240SOL    HW118179   0.195   2.690  14.456  0.1469 -0.0840  0.1825
 2240SOL    HW218180   0.269   2.812  14.423  1.1105  0.0598  0.5458
 2241SOL     OW18181   0.688   2.078  11.751 -0.2164  0.1315 -0.2238
 2241SOL    HW118182   0.752   2.092  11.821 -0.8560 -2.3536  0.8476
 2241SOL    HW218183   0.609   2.047  11.794  0.0409 -1.9591 -1.2776
 2242SOL     OW18184   3.594   1.930   8.109  0.0279 -0.1443  0.2876
 2242SOL    HW118185   3.657   1.982   8.060 -1.4397  0.3981 -1.0362
 2242SOL    HW218186   3.658   1.888   8.167 -0.7461 -1.2442  0.3489
 2243SOL     OW18187   3.296   0.005   8.463 -0.0659  0.2845 -0.4180
 2243SOL    HW118188   3.234   4.677   8.413 -1.0522  1.9254 -0.9298
 2243SOL    HW218189   3.288   4.688   8.548 -1.1110  1.7319  0.1933
 2244SOL     OW18190   1.288   4.717   6.456 -0.7996 -0.0892 -0.1906
 2244SOL    HW118191   1.198   0.014   6.433 -0.2012  0.7072 -1.7791
 2244SOL    HW218192   1.290   4.626   6.425  0.7438  0.1096 -0.6507
 2245SOL     OW18193   4.603   0.238  16.157  0.2012  0.1276 -0.2745
 2245SOL    HW118194   4.538   0.307  16.171 -0.3263 -0.2084 -1.0506
 2245SOL    HW218195   4.608   0.194  16.242 -1.6504  0.1074 -0.1715
 2246SOL     OW18196   0.110   2.058   7.450 -0.5912  0.1103 -0.2323
 2246SOL    HW118197   0.065   1.973   7.451 -1.0083  0.3117 -1.3355
 2246SOL    HW218198   0.040   2.122   7.440 -0.8437 -0.3287 -1.3234
 2247SOL     OW18199   2.336   2.380   0.785  0.6609  0.1189  0.7931
 2247SOL    HW118200   2.330   2.463   0.738 -1.6469 -1.5154 -1.7870
 2247SOL    HW218201   2.365   2.410   0.871  0.6290  0.2087  0.7723
 2248SOL     OW18202   3.709   2.971   7.691 -0.2480  0.2112  0.3339
 2248SOL    HW118203   3.650   3.010   7.756  1.0542  1.0881  1.0053
 2248SOL    HW218204   3.748   3.046   7.646 -1.4303 -0.3006 -1.5415
 2249SOL     OW18205   3.852   4.707   4.876 -0.3808  0.1169  0.2248
 2249SOL    HW118206   3.860   4.722   4.782 -4.2374 -0.5626 -0.1842
 2249SOL    HW218207   3.791   0.053   4.900 -0.4480  0.2307 -0.2884
 2250SOL     OW18208   1.357   0.185  11.709 -0.1109 -0.0297 -0.3865
 2250SOL    HW118209   1.297   0.140  11.767 -2.8274  3.1654 -0.7028
 2250SOL    HW218210   1.426   0.218  11.767  0.2702  1.2081 -1.5398
 2251SOL     OW18211   0.321   0.128   4.792  0.1001 -0.5917 -0.3237
 2251SOL    HW118212   0.308   0.183   4.869 -1.2027 -1.0958 -0.1940
 2251SOL    HW218213   0.411   0.160   4.785  0.0510 -0.6147 -1.0939
 2252SOL     OW18214   2.360   0.071   2.017  0.4116 -0.4350 -0.3054
 2252SOL    HW118215   2.279   0.054   2.066  0.6885  0.2429  0.3861
 2252SOL    HW218216   2.312   0.101   1.940  2.0473  1.3155 -0.6365
 2253SOL     OW18217   4.204   4.679   4.356 -0.8423  0.2387  0.4655
 2253SOL    HW118218   4.271   4.636   4.410  0.3655  1.3256 -0.1612
 2253SOL    HW218219   4.222   0.049   4.354 -2.5194  0.5216 -1.0298
 2254SOL     OW18220   0.072   3.152  10.020 -0.4537 -0.3859 -0.6196
 2254SOL    HW118221   4.709   3.128   9.989 -0.7441 -0.4217  0.2450
 2254SOL    HW218222   0.095   3.085  10.084  0.6403  0.5359 -0.0618
 2255SOL     OW18223   1.994   3.687   9.589 -0.2741  0.4971  0.2207
 2255SOL    HW118224   2.073   3.667   9.640 -1.3135 -2.7914  0.5572
 2255SOL    HW218225   2.004   3.781   9.597 -0.5654  0.4709  0.8757
 2256SOL     OW18226   1.472   2.610   4.375  0.0640 -0.5303 -0.4429
 2256SOL    HW118227   1.441   2.531   4.330  0.3941 -1.0550  0.2521
 2256SOL    HW218228   1.509   2.565   4.451  0.1916 -0.4979 -0.4858
 2257SOL     OW18229   1.008   4.444   3.836  0.7197 -0.0481 -0.5792
 2257SOL    HW118230   0.914   4.436   3.824  0.7803 -0.5085 -0.7465
 2257SOL    HW218231   1.029   4.357   3.868  1.8474  0.3639 -0.1800
 2258SOL     OW18232   2.481   2.603   9.329  0.7303  0.4492 -0.5228
 2258SOL    HW118233   2.438   2.688   9.321  1.6003  1.1013  1.5582
 2258SOL    HW218234   2.429   2.574   9.404 -0.5122  1.4278 -1.0097
 2259SOL     OW18235   1.690   3.567  15.038 -0.0763  0.6552  0.3256
 2259SOL    HW118236   1.728   3.508  14.973  0.0308  1.8953 -0.7427
 2259SOL    HW218237   1.661   3.644  14.989 -1.0548  0.1589  0.1465
 2260SOL     OW18238   1.605   0.749  12.768  0.7895 -0.4136 -0.0034
 2260SOL    HW118239   1.688   0.789  12.743  0.8267  0.2549  1.1769
 2260SOL    HW218240   1.623   0.732  12.860 -1.2754 -0.0291  0.4911
 2261SOL     OW18241   2.608   0.589  12.572 -0.2691 -0.7801  0.1829
 2261SOL    HW118242   2.622   0.537  12.493 -1.2395 -1.8165  0.6952
 2261SOL    HW218243   2.631   0.530  12.643  0.6949 -0.1043  0.4338
 2262SOL     OW18244   3.825   1.080   1.990 -0.7549 -0.1482  0.0062
 2262SOL    HW118245   3.881   1.143   1.944 -0.4883 -0.8355 -0.5979
 2262SOL    HW218246   3.744   1.069   1.940  0.1675  4.0448 -2.4442
 2263SOL     OW18247   0.098   4.588   9.584 -0.1033 -0.1131 -0.3074
 2263SOL    HW118248   0.157   4.596   9.659  0.4498 -0.6855 -0.6827
 2263SOL    HW218249   0.043   4.513   9.606  1.1221 -0.5420  1.2850
 2264SOL     OW18250   2.131   2.370  13.187 -0.2047 -0.2424 -0.4761
 2264SOL    HW118251   2.059   2.433  13.186  0.8376  0.9389 -0.6295
 2264SOL    HW218252   2.089   2.308  13.247  0.3540  1.7503  1.9473
 2265SOL     OW18253   1.246   4.565   4.712 -0.1723  0.3741  0.2474
 2265SOL    HW118254   1.267   4.482   4.669  1.2912  0.7430  0.2320
 2265SOL    HW218255   1.330   4.611   4.723 -0.8951  1.4676  1.1625
 2266SOL     OW18256   0.219   1.605   6.325 -0.2218 -0.0750 -0.2370
 2266SOL    HW118257   0.261   1.535   6.275  2.8228 -0.4732  2.9435
 2266SOL    HW218258   0.219   1.562   6.410  1.6798  1.7557  0.6837
 2267SOL     OW18259   3.912   4.188   1.311 -0.3088 -0.1184  0.0597
 2267SOL    HW118260   3.898   4.134   1.389 -1.1948 -0.7584 -0.5351
 2267SOL    HW218261   3.833   4.172   1.259  1.1594  0.2164 -2.2624
 2268SOL     OW18262   4.275   4.511   0.890  0.4067 -0.2430  0.3356
 2268SOL    HW118263   4.346   4.463   0.934  2.0827  0.3270 -1.7762
 2268SOL    HW218264   4.327   4.562   0.828  1.8410 -0.3056  1.4934
 2269SOL     OW18265   3.619   3.583   4.946 -0.1300 -0.8303 -0.0556
 2269SOL    HW118266   3.687   3.525   4.980  0.3903  1.5485  3.0391
 2269SOL    HW218267   3.543   3.525   4.957 -0.4957 -0.4466 -0.5552
 2270SOL     OW18268   1.796   3.205   9.165 -0.3690 -0.2019  0.8507
 2270SOL    HW118269   1.863   3.272   9.173  0.4947 -0.9060 -0.5339
 2270SOL    HW218270   1.727   3.252   9.119  1.4686 -0.5272 -2.2473
 2271SOL     OW18271   4.547   3.234  16.376  0.0541  0.6712  0.1228
 2271SOL    HW118272   4.457   3.204  16.363  0.7349 -1.4346  0.2198
 2271SOL    HW218273   4.531   3.328  16.386 -0.5136  0.4712  1.0738
 2272SOL     OW18274   1.461   0.382   3.277  0.1845 -0.6651  0.1492
 2272SOL    HW118275   1.537   0.427   3.241 -1.2537 -0.0743 -2.1574
 2272SOL    HW218276   1.398   0.452   3.293 -0.6933 -1.8129  1.7694
 2273SOL     OW18277   3.955   3.954   1.897  0.2171 -0.7716  0.4044
 2273SOL    HW118278   4.037   3.935   1.943  1.0510  0.3762 -0.6066
 2273SOL    HW218279   3.902   3.975   1.974  0.7799  0.9267  0.3409
 2274SOL     OW18280   1.932   3.024   9.324 -0.0771 -0.3043  0.3245
 2274SOL    HW118281   2.000   3.034   9.258 -1.8623 -1.7400 -1.7552
 2274SOL    HW218282   1.888   3.108   9.310 -1.2360 -1.4619 -2.8722
 2275SOL     OW18283   1.989   1.615   6.048  0.1194  0.1259  0.0702
 2275SOL    HW118284   1.956   1.603   5.958 -2.0278  0.1906  0.8428
 2275SOL    HW218285   2.034   1.699   6.043 -0.3685  0.3489 -0.6596
 2276SOL     OW18286   4.068   1.484   1.213 -0.1432  0.1808  0.4997
 2276SOL    HW118287   4.093   1.551   1.148 -0.2211  0.0894  0.3753
 2276SOL    HW218288   4.150   1.465   1.258 -0.3125  0.3859  0.8958
 2277SOL     OW18289   0.077   4.152   3.180  0.0963  0.4337 -0.4906
 2277SOL    HW118290   0.085   4.068   3.135 -0.7489 -0.4507  1.0074
 2277SOL    HW218291   0.140   4.136   3.251 -0.0728 -0.5842 -0.5687
 2278SOL     OW18292   0.262   3.585   2.857  0.5643 -0.6405  0.0620
 2278SOL    HW118293   0.176   3.622   2.835  0.6018  0.5816  1.9818
 2278SOL    HW218294   0.255   3.490   2.859  2.3539 -0.8047 -1.4781
 2279SOL     OW18295   2.720   4.506   1.640  0.2291 -0.3175  0.5567
 2279SOL    HW118296   2.635   4.463   1.641  0.9155 -1.7278 -1.8245
 2279SOL    HW218297   2.766   4.474   1.718  2.0836 -1.3271 -0.9511
 2280SOL     OW18298   0.434   2.207   2.004  0.5517 -0.1291 -0.0878
 2280SOL    HW118299   0.509   2.261   2.027 -0.1158  0.5144  0.5644
 2280SOL    HW218300   0.374   2.217   2.077  0.1721  1.6607 -0.6413
 2281SOL     OW18301   4.186   3.359  10.603 -0.0436 -0.0884 -0.4207
 2281SOL    HW118302   4.135   3.358  10.684 -1.9084  1.5357 -1.5794
 2281SOL    HW218303   4.246   3.286  10.615 -1.4091 -0.9961  0.8498
 2282SOL     OW18304   0.275   1.876   7.137  0.4283  0.3620  0.2037
 2282SOL    HW118305   0.352   1.885   7.193  0.4903 -1.5000  0.4097
 2282SOL    HW218306   0.263   1.782   7.147  1.7499  0.3906  2.0874
 2283SOL     OW18307   3.066   1.889   1.300 -0.5012 -0.6182  0.6844
 2283SOL    HW118308   3.044   1.950   1.230 -0.9367 -3.1554 -1.4048
 2283SOL    HW218309   3.059   1.952   1.372  0.3495  1.0520 -0.6939
 2284SOL     OW18310   3.851   2.616  14.484 -0.3400 -0.3234 -0.1852
 2284SOL    HW118311   3.799   2.535  14.483 -1.9925  0.7389  0.4069
 2284SOL    HW218312   3.778   2.677  14.489 -0.0351  0.0577 -0.4806
 2285SOL     OW18313   0.719   2.492   3.054 -0.7115 -0.0545 -0.1451
 2285SOL    HW118314   0.731   2.399   3.069  0.0551  0.1759  0.6511
 2285SOL    HW218315   0.694   2.516   3.143 -1.0437 -1.7616  0.2052
 2286SOL     OW18316   2.607   0.832   4.818  0.0191 -0.2665  0.2997
 2286SOL    HW118317   2.637   0.875   4.899 -0.5930 -2.6273  1.7681
 2286SOL    HW218318   2.545   0.898   4.785 -0.0848 -0.6661 -0.2943
 2287SOL     OW18319   2.524   1.646   2.643  0.0991 -0.5020 -0.4047
 2287SOL    HW118320   2.455   1.711   2.630  0.2609 -0.3727 -0.6323
 2287SOL    HW218321   2.584   1.656   2.569  1.7159 -0.2005  0.9318
 2288SOL     OW18322   0.356   2.487   6.738  0.1333  0.4402  0.2831
 2288SOL    HW118323   0.436   2.465   6.786  2.2864  2.3660 -2.4546
 2288SOL    HW218324   0.312   2.403   6.725 -1.6800  1.0795  2.1666
 2289SOL     OW18325   3.174   1.855   1.011  0.5626 -0.0417  0.1689
 2289SOL    HW118326   3.243   1.857   1.077 -0.1315 -0.5481  0.9246
 2289SOL    HW218327   3.166   1.948   0.989  1.9264 -0.0729 -0.4039
 2290SOL     OW18328   4.617   4.573  10.947  0.3061  0.6978 -0.5792
 2290SOL    HW118329   4.706   4.608  10.941  0.1879  0.9771 -0.7019
 2290SOL    HW218330   4.556   4.646  10.933  0.0135  0.6941  0.6999
 2291SOL     OW18331   2.944   2.784  17.167 -0.3464  0.0041  0.4240
 2291SOL    HW118332   2.957   2.851  17.100  1.7227  0.0009  0.8266
 2291SOL    HW218333   3.027   2.789  17.214 -0.4160 -1.7624  0.7297
 2292SOL     OW18334   3.286   0.118   5.828  0.4272 -0.1236 -0.2934
 2292SOL    HW118335   3.373   0.139   5.864  0.5960  1.8337 -1.8533
 2292SOL    HW218336   3.293   0.139   5.735  3.0936 -0.8558 -0.2585
 2293SOL     OW18337   3.262   2.042   6.338 -0.3849 -0.4072  0.4826
 2293SOL    HW118338   3.280   2.111   6.275 -1.4238 -2.1234 -1.6797
 2293SOL    HW218339   3.257   1.975   6.270 -0.6973 -2.0526  2.1075
 2294SOL     OW18340   0.298   1.976   5.520  0.1814  0.4201 -0.0197
 2294SOL    HW118341   0.337   2.063   5.530 -1.7698  1.2418  0.5422
 2294SOL    HW218342   0.323   1.956   5.430 -2.4781  0.3506 -0.7474
 2295SOL     OW18343   4.072   2.405   7.497 -0.0924 -0.6113  0.1849
 2295SOL    HW118344   4.030   2.491   7.492  1.5647  0.0900 -1.9637
 2295SOL    HW218345   4.138   2.421   7.429  1.2208 -0.1300  1.5865
 2296SOL     OW18346   2.249   0.484   0.541  0.0488 -0.6187  0.4925
 2296SOL    HW118347   2.253   0.568   0.496 -2.3539  0.7453  2.8143
 2296SOL    HW218348   2.259   0.412   0.479  1.8931  0.4660 -0.4844
 2297SOL     OW18349   0.224   4.468  17.320  0.5422  0.1118 -0.0443
 2297SOL    HW118350   0.302   4.415  17.334  0.6741  0.4046  0.3658
 2297SOL    HW218351   0.157   4.416  17.365 -1.1956 -1.0954 -4.0956
 2298SOL     OW18352   3.611   1.866   4.041  0.1903 -0.0300  0.1049
 2298SOL    HW118353   3.617   1.793   4.102 -4.3495 -0.1823  0.3841
 2298SOL    HW218354   3.615   1.816   3.959 -1.7733 -1.0842  0.6306
 2299SOL     OW18355   2.398   3.506   8.060 -0.6286 -0.1395 -0.2971
 2299SOL    HW118356   2.304   3.512   8.044 -0.4633 -0.1192 -1.2874
 2299SOL    HW218357   2.404   3.413   8.082  3.1277  0.4040  0.9030
 2300SOL     OW18358   0.022   2.221   0.263  0.0721  0.3448  0.1551
 2300SOL    HW118359   0.081   2.288   0.295 -0.5914  1.3784 -0.7915
 2300SOL    HW218360   0.090   2.176   0.211 -0.6599  0.6187 -1.0407
 2301SOL     OW18361   3.317   2.982   7.257  0.5582 -0.3468  1.2462
 2301SOL    HW118362   3.343   2.976   7.165  1.8209  0.2722  1.5692
 2301SOL    HW218363   3.403   2.989   7.297  1.2530  1.1356 -0.4710
 2302SOL     OW18364   4.686   4.060   6.781  0.3810 -0.2343  0.6320
 2302SOL    HW118365   0.027   4.128   6.794  0.3822 -0.2244  0.5753
 2302SOL    HW218366   0.013   3.980   6.779 -0.2627 -0.6758  2.6052
 2303SOL     OW18367   1.085   3.481   2.222  0.6135 -0.2424  0.1653
 2303SOL    HW118368   1.025   3.536   2.172  0.1149 -1.1959 -0.2809
 2303SOL    HW218369   1.018   3.455   2.285 -0.5529 -0.0609 -1.0008
 2304SOL     OW18370   1.399   0.066   4.720  0.0207  0.0322 -0.3051
 2304SOL    HW118371   1.452   0.145   4.717 -0.1131  0.1906  2.1803
 2304SOL    HW218372   1.459   0.006   4.764  0.7912  0.3307 -0.9545
 2305SOL     OW18373   0.328   0.478  14.688  0.0891  0.3645  0.0280
 2305SOL    HW118374   0.402   0.450  14.634  1.3095  1.6904  0.9958
 2305SOL    HW218375   0.283   0.548  14.640  1.2542  0.8868 -0.3046
 2306SOL     OW18376   4.356   1.749   6.789  0.4977 -0.3163 -0.2468
 2306SOL    HW118377   4.274   1.746   6.740 -0.2948  0.4513  1.0414
 2306SOL    HW218378   4.371   1.843   6.799 -0.5917 -0.2906  1.1740
 2307SOL     OW18379   4.690   1.339   0.261 -0.0707  0.0183 -0.4583
 2307SOL    HW118380   0.051   1.306   0.289 -1.3405 -0.7576  2.5239
 2307SOL    HW218381   4.698   1.330   0.166  0.9879  1.1744 -0.4865
 2308SOL     OW18382   2.858   4.425   0.918  0.1977 -0.2895 -0.4785
 2308SOL    HW118383   2.944   4.403   0.883 -0.5928 -1.7319 -1.5116
 2308SOL    HW218384   2.854   4.520   0.903  1.6564 -0.1555  0.0296
 2309SOL     OW18385   1.380   2.849   2.494  0.0021 -0.1423 -0.0691
 2309SOL    HW118386   1.343   2.937   2.491  0.2785 -0.0014  0.5343
 2309SOL    HW218387   1.345   2.807   2.573 -1.5281 -0.9388 -1.1566
 2310SOL     OW18388   1.604   4.438   9.098  0.0008  0.5539  0.1063
 2310SOL    HW118389   1.698   4.430   9.083  0.4308  2.1000  1.9584
 2310SOL    HW218390   1.594   4.383   9.176  1.0661  2.2406  1.4277
 2311SOL     OW18391   4.549   2.049   0.428  0.0414  0.5566 -0.1149
 2311SOL    HW118392   4.630   2.069   0.383 -0.4455 -1.2550 -1.8069
 2311SOL    HW218393   4.500   1.993   0.368 -1.2551  0.8804  0.6287
 2312SOL     OW18394   1.821   0.334   1.388  0.9733 -0.0932  0.1270
 2312SOL    HW118395   1.726   0.347   1.379  1.0274 -0.2253 -0.5815
 2312SOL    HW218396   1.841   0.276   1.315  0.4600 -1.6124  1.1931
 2313SOL     OW18397   3.787   1.880   0.254  0.4359  0.4214  0.4271
 2313SOL    HW118398   3.778   1.805   0.195  0.7172  1.0258 -0.3842
 2313SOL    HW218399   3.724   1.945   0.223 -0.3465  1.1064  3.4783
 2314SOL     OW18400   1.059   1.979   6.517  0.1048  0.2149  0.0685
 2314SOL    HW118401   0.990   1.962   6.453  0.7734 -2.6249  0.1119
 2314SOL    HW218402   1.037   1.910   6.579 -0.6516 -0.9180 -1.4740
 2315SOL     OW18403   1.288   2.367   8.606 -0.0536  0.0498  0.0591
 2315SOL    HW118404   1.373   2.325   8.592 -0.2803 -0.7483  1.0643
 2315SOL    HW218405   1.253   2.352   8.518 -0.3199 -1.7422  0.4594
 2316SOL     OW18406   3.477   2.209   9.831 -0.0216 -0.0074 -0.1725
 2316SOL    HW118407   3.561   2.238   9.797 -1.0124  1.4561 -1.3549
 2316SOL    HW218408   3.421   2.250   9.765  1.9512  1.0244 -1.2162
 2317SOL     OW18409   0.597   3.711   4.122  0.0373 -0.3390 -0.0577
 2317SOL    HW118410   0.520   3.705   4.066 -0.3669 -0.1764  0.4671
 2317SOL    HW218411   0.595   3.805   4.142  0.2703 -0.0115 -1.6132
 2318SOL     OW18412   3.164   1.213   2.401  0.4551  0.3060 -0.8582
 2318SOL    HW118413   3.236   1.153   2.421 -1.0361 -0.8629  0.9966
 2318SOL    HW218414   3.160   1.217   2.306 -2.5690 -0.5951 -0.7616
 2319SOL     OW18415   0.061   2.607  14.106  0.0113 -0.0042 -0.2459
 2319SOL    HW118416   0.014   2.536  14.061  1.5679 -0.2459 -1.4662
 2319SOL    HW218417   0.034   2.686  14.059 -1.6781  0.5082  1.5630
 2320SOL     OW18418   4.615   1.305  12.597  0.4455 -0.0670 -0.2569
 2320SOL    HW118419   4.546   1.324  12.534 -0.1464 -0.3692  0.2961
 2320SOL    HW218420   4.614   1.375  12.662 -1.7356  0.0154 -0.3694
 2321SOL     OW18421   3.653   0.197  15.808 -0.3820  0.4418  0.1376
 2321SOL    HW118422   3.720   0.187  15.740 -0.4404 -0.1133  0.1599
 2321SOL    HW218423   3.706   0.179  15.886  0.2026  1.2202 -0.0826
 2322SOL     OW18424   2.077   0.583   7.537  0.1441  0.1003 -0.9591
 2322SOL    HW118425   2.072   0.623   7.450 -0.5477  1.7097 -0.1689
 2322SOL    HW218426   2.167   0.553   7.548 -0.3347 -1.0585 -0.1438
 2323SOL     OW18427   3.812   0.450   2.020 -0.5692  0.4223  0.3465
 2323SOL    HW118428   3.868   0.493   2.085  0.4858  1.3558 -1.2077
 2323SOL    HW218429   3.756   0.526   2.010 -1.0149  0.3039  1.8366
 2324SOL     OW18430   4.051   1.741   0.187 -0.0466  0.0173 -0.0210
 2324SOL    HW118431   4.132   1.690   0.182  0.2709  0.3759  1.3402
 2324SOL    HW218432   4.036   1.757   0.280  1.9921 -2.3238  0.7268
 2325SOL     OW18433   0.029   2.853  14.008  0.0371 -0.2854 -0.1645
 2325SOL    HW118434   0.056   2.939  14.039 -1.3319 -0.0780  0.4463
 2325SOL    HW218435   4.722   2.886  13.924  1.7433 -2.0744 -1.4982
 2326SOL     OW18436   3.529   2.759   5.258  0.1963  0.0890  0.4604
 2326SOL    HW118437   3.466   2.722   5.197 -1.1556 -1.7133  2.9437
 2326SOL    HW218438   3.585   2.685   5.281  2.5429  1.4191 -0.8655
 2327SOL     OW18439   3.542   3.286   7.226  0.3264 -0.5337  0.2125
 2327SOL    HW118440   3.622   3.313   7.181  0.1090 -0.8275 -0.3540
 2327SOL    HW218441   3.482   3.353   7.191  1.4480  0.4904  0.2726
 2328SOL     OW18442   0.857   3.387   9.047  0.0442 -0.2299  0.2283
 2328SOL    HW118443   0.843   3.457   9.110  0.0277 -1.2366  1.3276
 2328SOL    HW218444   0.768   3.381   9.010 -0.0346  1.1379  0.1878
 2329SOL     OW18445   4.105   2.262  13.238  0.0976  0.2720 -0.1703
 2329SOL    HW118446   4.140   2.196  13.178 -3.0357  0.1592 -1.8658
 2329SOL    HW218447   4.131   2.224  13.322  2.7575 -0.4494 -1.2896
 2330SOL     OW18448   4.711   0.801   2.528  0.4162 -0.2988  0.5640
 2330SOL    HW118449   0.020   0.885   2.498  0.2399  0.5620  2.7497
 2330SOL    HW218450   4.708   0.749   2.448  3.1132 -1.0426  0.9539
 2331SOL     OW18451   4.399   4.186   4.098 -0.0633 -0.2335 -0.4933
 2331SOL    HW118452   4.483   4.213   4.134  1.2224 -1.4350 -2.6439
 2331SOL    HW218453   4.362   4.155   4.181 -0.0256  0.2979 -0.2800
 2332SOL     OW18454   1.273   1.332  12.303  0.9232 -0.1716 -0.4899
 2332SOL    HW118455   1.280   1.414  12.353 -1.9713 -1.0203  1.2699
 2332SOL    HW218456   1.328   1.274  12.356  1.7997  0.0976 -1.1008
 2333SOL     OW18457   2.308   3.345   8.872 -0.1502 -0.1026  0.2830
 2333SOL    HW118458   2.263   3.378   8.950  0.4354  0.5554  0.3465
 2333SOL    HW218459   2.350   3.429   8.855 -3.5862  1.5938  0.3053
 2334SOL     OW18460   2.903   0.372   2.962  0.0135  0.6735  0.3135
 2334SOL    HW118461   2.956   0.450   2.977  1.1962 -0.1579  0.3942
 2334SOL    HW218462   2.931   0.348   2.874 -3.5063 -0.7439 -0.4240
 2335SOL     OW18463   2.256   3.199  12.352  0.0214 -0.2483  0.2482
 2335SOL    HW118464   2.351   3.183  12.353 -0.0972 -1.0513 -1.0433
 2335SOL    HW218465   2.212   3.131  12.404 -2.8302 -0.5467 -2.5523
 2336SOL     OW18466   0.272   3.569  12.960 -0.7618  0.1275  0.2898
 2336SOL    HW118467   0.212   3.644  12.955 -3.0348 -1.5799  1.6595
 2336SOL    HW218468   0.237   3.524  13.037  0.7006  1.9960  2.0298
 2337SOL     OW18469   3.749   1.478   4.658 -0.0582  0.3422  0.7109
 2337SOL    HW118470   3.766   1.572   4.659  1.9926 -0.0427  2.1664
 2337SOL    HW218471   3.771   1.450   4.569 -0.6182  1.1852  0.3077
 2338SOL     OW18472   3.770   1.521   5.125 -0.2976 -0.4704 -0.2378
 2338SOL    HW118473   3.813   1.491   5.045 -2.0378 -0.4460 -1.1889
 2338SOL    HW218474   3.811   1.602   5.154 -2.7821  1.3219 -1.7641
 2339SOL     OW18475   0.584   1.482   9.539 -0.1225 -0.4396  0.3633
 2339SOL    HW118476   0.582   1.503   9.446 -0.9689 -1.9853  0.0423
 2339SOL    HW218477   0.490   1.485   9.558 -0.1268 -0.0882  0.2935
 2340SOL     OW18478   0.917   3.262   5.113 -0.9187 -0.4430 -0.5603
 2340SOL    HW118479   0.869   3.194   5.159 -0.1416 -1.1114 -0.7405
 2340SOL    HW218480   0.990   3.208   5.081 -0.7833 -0.5470 -0.0704
 2341SOL     OW18481   0.019   3.467  16.455 -0.3548 -0.7197  0.5303
 2341SOL    HW118482   4.648   3.468  16.457 -0.3353  0.2142  0.9326
 2341SOL    HW218483   0.030   3.466  16.550  0.8281  3.3608  0.4553
 2342SOL     OW18484   1.354   0.233   7.640 -0.4452  0.3398  0.4824
 2342SOL    HW118485   1.349   0.270   7.552 -2.2244 -1.2996 -0.1123
 2342SOL    HW218486   1.278   0.174   7.643 -0.8323  0.8505  0.7445
 2343SOL     OW18487   1.149   4.643  12.474 -0.2474 -0.1257 -0.0174
 2343SOL    HW118488   1.121   4.553  12.457  1.3512 -0.5064 -0.6688
 2343SOL    HW218489   1.077   4.678  12.527 -1.7546 -1.9814 -0.8478
 2344SOL     OW18490   0.831   0.385  13.455  0.2718 -0.2284  0.2428
 2344SOL    HW118491   0.852   0.342  13.372  0.2250  1.5569 -0.7059
 2344SOL    HW218492   0.909   0.354  13.500 -0.2916 -1.1103  0.5964
 2345SOL     OW18493   4.245   1.489   8.018  0.0259  0.3216  0.1268
 2345SOL    HW118494   4.221   1.580   8.003 -0.6496  0.4057  1.7255
 2345SOL    HW218495   4.176   1.469   8.081  1.2617 -0.0425  1.3737
 2346SOL     OW18496   1.734   1.030   2.514  0.0044  0.4605  0.2289
 2346SOL    HW118497   1.771   1.090   2.450  0.7084 -0.8242 -0.5407
 2346SOL    HW218498   1.655   1.067   2.555 -0.7781 -0.6315 -0.3053
 2347SOL     OW18499   0.014   1.882   1.484  0.5694  0.2913  0.2948
 2347SOL    HW118500   0.028   1.876   1.389 -0.2879  2.0950  0.0584
 2347SOL    HW218501   4.651   1.921   1.484  0.2633 -0.4059  0.8175
 2348SOL     OW18502   4.705   3.897   1.569 -0.1420 -0.1007 -0.5173
 2348SOL    HW118503   4.710   3.839   1.494  0.6777 -0.1645 -0.4041
 2348SOL    HW218504   0.044   3.847   1.620 -0.8507 -0.0904  0.3650
 2349SOL     OW18505   3.155   2.535  12.412 -0.2291  0.3196 -0.3679
 2349SOL    HW118506   3.093   2.564  12.478  1.4535 -0.6467  1.6199
 2349SOL    HW218507   3.089   2.492  12.357 -1.8871  2.0931  0.2706
 2350SOL     OW18508   2.693   2.813   0.625 -0.4148  0.0419  0.9124
 2350SOL    HW118509   2.775   2.780   0.588 -0.5082 -0.4551  1.1573
 2350SOL    HW218510   2.732   2.899   0.645  1.6920 -0.8205  0.5582
 2351SOL     OW18511   3.306   2.259  12.941  0.2978 -0.0636  0.1747
 2351SOL    HW118512   3.297   2.285  13.032 -0.6533  2.6082 -0.7028
 2351SOL    HW218513   3.401   2.248  12.931  0.4231  2.5025 -1.4911
 2352SOL     OW18514   4.159   3.792   8.693 -0.5784  0.5579  0.5000
 2352SOL    HW118515   4.170   3.785   8.788  2.0950 -2.5997 -0.0475
 2352SOL    HW218516   4.196   3.708   8.666  0.4892  0.8750  0.9749
 2353SOL     OW18517   2.173   2.231   0.457 -0.4711  0.3773 -0.2081
 2353SOL    HW118518   2.157   2.143   0.423 -0.2210  0.5104 -0.6787
 2353SOL    HW218519   2.217   2.211   0.539 -0.1402 -0.9128 -0.7067
 2354SOL     OW18520   1.787   2.449  11.235  0.6699 -0.2483 -0.1959
 2354SOL    HW118521   1.861   2.408  11.191  0.7425 -0.9551  0.5713
 2354SOL    HW218522   1.742   2.373  11.272 -0.0065  0.4377  0.4053
 2355SOL     OW18523   1.075   0.706   2.652  0.2647 -0.4587 -0.1355
 2355SOL    HW118524   1.011   0.694   2.581  0.6952  1.1299 -0.8002
 2355SOL    HW218525   1.154   0.706   2.598  2.3671  0.0535  2.9579
 2356SOL     OW18526   1.446   0.673   0.568 -0.2087  0.5234 -0.4888
 2356SOL    HW118527   1.443   0.583   0.600  0.1644  1.1103  1.2368
 2356SOL    HW218528   1.455   0.731   0.644 -2.2471  0.7140 -0.3919
 2357SOL     OW18529   3.144   0.439   5.225  0.5050 -0.2127  0.2731
 2357SOL    HW118530   3.109   0.528   5.220 -2.8988 -1.5607  0.3993
 2357SOL    HW218531   3.102   0.392   5.297 -0.6119 -2.5603 -1.8974
 2358SOL     OW18532   0.290   0.461  13.948 -0.3889 -0.0895  0.1876
 2358SOL    HW118533   0.234   0.528  13.988 -1.7557 -0.7983 -0.5242
 2358SOL    HW218534   0.230   0.386  13.943 -1.2533  0.6766 -0.9008
 2359SOL     OW18535   2.264   2.142   0.709 -0.1440 -0.0507  0.0130
 2359SOL    HW118536   2.298   2.226   0.740  0.2857 -1.0046  2.1502
 2359SOL    HW218537   2.223   2.106   0.788  0.2716 -0.0366  0.2368
 2360SOL     OW18538   1.639   2.258   1.031  0.1338  0.4954  0.4286
 2360SOL    HW118539   1.711   2.303   1.075 -1.1149  2.2175  0.6707
 2360SOL    HW218540   1.589   2.331   0.995 -1.9456 -0.4119  1.4770
 2361SOL     OW18541   2.012   2.996  15.228 -0.3364  0.1754  0.0277
 2361SOL    HW118542   1.930   3.033  15.195 -0.2209  1.0042  0.6818
 2361SOL    HW218543   2.026   3.030  15.316  0.7186 -0.9726  0.3033
 2362SOL     OW18544   1.789   2.847  11.297  0.0255  0.8915  0.0103
 2362SOL    HW118545   1.699   2.859  11.267 -0.0775 -0.6069 -0.2655
 2362SOL    HW218546   1.841   2.913  11.251  2.2538 -1.3587 -0.6589
 2363SOL     OW18547   4.153   2.477   8.966  0.1641  0.1797 -0.2448
 2363SOL    HW118548   4.233   2.530   8.966  0.6782 -0.5720 -1.7650
 2363SOL    HW218549   4.169   2.410   8.899 -3.0996 -0.4228 -0.4042
 2364SOL     OW18550   1.624   0.728   7.021 -0.1353  0.4641  0.1341
 2364SOL    HW118551   1.652   0.732   6.930 -0.8775  1.7659 -0.0376
 2364SOL    HW218552   1.601   0.636   7.034  0.9500 -0.1629 -2.4899
 2365SOL     OW18553   0.381   4.354   5.741  0.0488  0.3190  0.4869
 2365SOL    HW118554   0.428   4.325   5.662 -1.7975  0.7175 -0.7570
 2365SOL    HW218555   0.443   4.352   5.814  1.6819 -3.2929 -0.9888
 2366SOL     OW18556   0.096   1.255   8.648 -0.0022  0.5170  0.1724
 2366SOL    HW118557   0.158   1.305   8.595  1.7234 -1.2579  0.4806
 2366SOL    HW218558   0.136   1.265   8.735  1.8950  2.2749 -0.9065
 2367SOL     OW18559   0.286   1.625   4.434  0.0082 -0.0793 -0.2062
 2367SOL    HW118560   0.307   1.532   4.443  0.3722 -0.0280 -0.4947
 2367SOL    HW218561   0.230   1.623   4.357 -1.7807  1.3446  1.0578
 2368SOL     OW18562   2.445   4.554  16.253  0.4849 -0.1862  0.4071
 2368SOL    HW118563   2.474   4.501  16.179  1.1355 -0.6035  0.9565
 2368SOL    HW218564   2.495   4.634  16.236  0.8027  0.1983  3.1676
 2369SOL     OW18565   0.974   4.572   7.107  0.5483  0.1585  1.0602
 2369SOL    HW118566   1.066   4.570   7.133  0.8248  0.1497  0.0547
 2369SOL    HW218567   0.967   4.523   7.025  0.6075  1.2082  0.4316
 2370SOL     OW18568   2.763   3.836   6.665 -1.1239  0.6608  0.0189
 2370SOL    HW118569   2.850   3.860   6.695 -0.3639 -0.1553 -1.5555
 2370SOL    HW218570   2.747   3.756   6.715 -0.9350  0.9257  0.5030
 2371SOL     OW18571   1.539   3.467   7.854  0.2853 -0.7699  0.7363
 2371SOL    HW118572   1.599   3.536   7.882 -1.0843  0.4849  0.5546
 2371SOL    HW218573   1.518   3.428   7.939 -0.5115 -1.2826  0.3082
 2372SOL     OW18574   0.058   1.607   1.170  0.4863  0.4938 -0.3550
 2372SOL    HW118575   0.050   1.702   1.180  1.1177  0.4589  0.4299
 2372SOL    HW218576   0.043   1.605   1.075 -0.4980  1.9719 -0.2328
 2373SOL     OW18577   4.503   2.497  15.102  0.4801  0.1488  0.3843
 2373SOL    HW118578   4.458   2.457  15.028 -0.0100  1.9332 -0.2950
 2373SOL    HW218579   4.497   2.589  15.075 -1.7802 -0.8296 -2.3941
 2374SOL     OW18580   4.400   1.892  10.444  0.4992  0.3546  0.1450
 2374SOL    HW118581   4.336   1.956  10.411  1.2027  0.0653 -1.8009
 2374SOL    HW218582   4.374   1.877  10.535  0.7309  0.8997  0.2984
 2375SOL     OW18583   4.369   1.852   5.079 -0.9067  0.3978 -0.4399
 2375SOL    HW118584   4.297   1.888   5.131  1.7351  2.9261  1.4455
 2375SOL    HW218585   4.364   1.915   5.007 -0.2767  1.3194  0.3241
 2376SOL     OW18586   1.811   0.735   5.056 -0.0782  0.2560 -0.0631
 2376SOL    HW118587   1.832   0.656   5.006 -0.9620  0.2903 -0.4830
 2376SOL    HW218588   1.739   0.784   5.015  0.3180  0.0685 -0.9767
 2377SOL     OW18589   1.470   1.331   5.209 -0.4347 -0.3739 -0.0734
 2377SOL    HW118590   1.495   1.407   5.156 -3.1427  1.9092  1.8898
 2377SOL    HW218591   1.448   1.377   5.290  0.8820  0.0749  0.0242
 2378SOL     OW18592   4.470   4.412   3.187 -0.4012 -0.1939 -0.3210
 2378SOL    HW118593   4.386   4.450   3.212  1.1099  1.7109  1.8733
 2378SOL    HW218594   4.440   4.354   3.116 -2.1419 -0.4924  0.6374
 2379SOL     OW18595   3.043   2.046   2.828  0.0196 -0.0657  0.2016
 2379SOL    HW118596   3.017   1.999   2.749  1.6856  1.8562 -1.4953
 2379SOL    HW218597   2.978   2.116   2.841 -0.0755  0.1691 -1.5522
 2380SOL     OW18598   4.332   3.204  16.100 -0.1650  0.9967  0.2502
 2380SOL    HW118599   4.254   3.178  16.051  1.1199 -0.1852 -1.1678
 2380SOL    HW218600   4.368   3.268  16.038  1.0304  1.1967  1.1467
 2381SOL     OW18601   2.710   1.130   8.540  0.3549 -0.3793 -0.0678
 2381SOL    HW118602   2.749   1.217   8.524 -0.4378  0.1581  0.9364
 2381SOL    HW218603   2.711   1.140   8.635  0.9281  0.6239 -0.1644
 2382SOL     OW18604   1.519   0.024   2.595 -0.1641 -0.2967 -0.4200
 2382SOL    HW118605   1.592   0.071   2.554  0.0603  2.0136  2.6162
 2382SOL    HW218606   1.545   0.018   2.687  0.3259  1.5828 -0.4406
 2383SOL     OW18607   0.244   0.302   4.987  0.5210 -0.0823 -0.0216
 2383SOL    HW118608   0.165   0.337   5.027  0.6083  1.1673 -0.9671
 2383SOL    HW218609   0.306   0.365   5.022  1.1151 -0.7731  0.1785
 2384SOL     OW18610   3.843   1.765   5.215 -0.0391  0.5764 -0.3940
 2384SOL    HW118611   3.894   1.748   5.294  0.1259 -1.6364 -0.9873
 2384SOL    HW218612   3.868   1.855   5.194 -1.2022  1.0654  0.3714
 2385SOL     OW18613   4.359   3.516   7.678 -0.0001  0.0574  0.5477
 2385SOL    HW118614   4.439   3.557   7.645  0.8306 -2.6614 -0.8923
 2385SOL    HW218615   4.382   3.466   7.756 -1.7875  0.5297  1.3671
 2386SOL     OW18616   3.042   4.568   1.757  0.2154 -0.0648  0.5348
 2386SOL    HW118617   3.010   4.490   1.801  0.0401 -0.1354  0.2810
 2386SOL    HW218618   3.135   4.546   1.749  0.5019  1.3769 -0.1742
 2387SOL     OW18619   0.156   2.664  10.515 -0.0780 -0.2205 -0.2013
 2387SOL    HW118620   0.218   2.731  10.484  0.5418 -0.3045  0.8493
 2387SOL    HW218621   0.216   2.593  10.537  0.8853  0.8753  0.7058
 2388SOL     OW18622   3.162   3.061  13.263 -0.0617  0.6297 -0.3947
 2388SOL    HW118623   3.204   3.099  13.341 -1.1904 -1.0982  1.0583
 2388SOL    HW218624   3.230   2.995  13.250 -0.3777  0.7592 -2.6600
 2389SOL     OW18625   1.051   2.819   1.822  0.4538 -0.3867 -0.4351
 2389SOL    HW118626   0.966   2.838   1.783  1.0850  3.1948 -0.0564
 2389SOL    HW218627   1.042   2.846   1.914 -0.6843  1.1642 -0.9967
 2390SOL     OW18628   2.867   3.695   4.866  0.8889 -0.2507  0.0758
 2390SOL    HW118629   2.782   3.712   4.905 -0.3450 -0.8889 -2.3833
 2390SOL    HW218630   2.889   3.609   4.903 -3.0605  0.1800  3.3478
 2391SOL     OW18631   3.374   0.202   5.576  0.1468 -0.5110 -0.8005
 2391SOL    HW118632   3.411   0.136   5.517 -2.7136 -0.9892 -2.0531
 2391SOL    HW218633   3.399   0.284   5.532  0.1494 -0.9855 -1.6928
 2392SOL     OW18634   1.461   2.289   3.179  0.3048  0.0677  0.1887
 2392SOL    HW118635   1.374   2.251   3.191  0.2812  0.3873  0.9662
 2392SOL    HW218636   1.460   2.317   3.087  0.2445 -1.2630 -0.2255
 2393SOL     OW18637   3.602   2.657   9.269  0.6057 -0.6197 -0.1957
 2393SOL    HW118638   3.620   2.748   9.245 -1.9964  0.0103  0.3297
 2393SOL    HW218639   3.647   2.645   9.353  1.7165  2.0134 -0.4205
 2394SOL     OW18640   2.484   2.702   6.111  0.0806  0.0014  0.4916
 2394SOL    HW118641   2.504   2.610   6.127 -0.2921 -0.0410  0.6903
 2394SOL    HW218642   2.569   2.747   6.114  0.0898 -0.1046  1.7074
 2395SOL     OW18643   0.829   4.044  16.605  0.2615 -0.0129 -0.0577
 2395SOL    HW118644   0.761   4.060  16.671  3.3958 -2.1118  3.6749
 2395SOL    HW218645   0.843   3.950  16.610 -1.0228 -0.2136 -0.1520
 2396SOL     OW18646   0.877   4.057   7.789  0.0194 -0.2120  0.1750
 2396SOL    HW118647   0.840   4.103   7.713 -1.6191  0.2878  1.2902
 2396SOL    HW218648   0.936   3.992   7.750  0.6116 -0.3107  1.2404
 2397SOL     OW18649   2.962   1.327   3.456  0.1853  0.1951 -0.1777
 2397SOL    HW118650   2.981   1.335   3.363  0.8102 -1.7111 -0.2288
 2397SOL    HW218651   2.890   1.264   3.456  0.1385  0.2487 -1.7995
 2398SOL     OW18652   3.140   2.139  13.525 -0.2158  0.1741  0.5621
 2398SOL    HW118653   3.045   2.128  13.528 -0.0357 -1.5311  0.0400
 2398SOL    HW218654   3.169   2.062  13.477 -2.0505 -0.2326  0.0958
 2399SOL     OW18655   4.283   0.325   6.512 -0.7040  0.7085 -0.2139
 2399SOL    HW118656   4.318   0.359   6.430 -0.6863  1.1048 -0.0421
 2399SOL    HW218657   4.305   0.232   6.512  0.5266  0.9954  1.5627
 2400SOL     OW18658   0.526   2.999   6.718 -0.4582 -0.2039 -0.0078
 2400SOL    HW118659   0.471   2.925   6.692 -0.3989 -0.3538  0.2950
 2400SOL    HW218660   0.605   2.958   6.751 -0.0347  0.1152 -0.6217
 2401SOL     OW18661   3.164   1.128   1.057  0.3174 -0.1858 -0.0208
 2401SOL    HW118662   3.203   1.180   1.127 -1.3363  0.9163  0.0825
 2401SOL    HW218663   3.187   1.186   0.985  0.3209  1.1463  1.0519
 2402SOL     OW18664   2.904   3.240   4.087  0.0918  0.3960  0.0316
 2402SOL    HW118665   2.902   3.176   4.158  0.9495 -0.5108 -0.7520
 2402SOL    HW218666   2.984   3.286   4.113 -0.3602  1.4030 -0.3553
 2403SOL     OW18667   1.790   4.087   7.102  0.2822  0.1211  0.4458
 2403SOL    HW118668   1.775   4.152   7.033 -2.5707  0.5225  1.4256
 2403SOL    HW218669   1.753   4.137   7.175  0.7577  0.7720  0.2392
 2404SOL     OW18670   0.399   2.967   5.539 -0.1322 -0.2058  0.9580
 2404SOL    HW118671   0.350   3.048   5.557 -0.0226  0.2430 -0.7616
 2404SOL    HW218672   0.468   3.019   5.496 -0.0731 -1.9378 -1.0098
 2405SOL     OW18673   0.105   3.818   5.568  0.2002 -0.4384  0.5273
 2405SOL    HW118674   0.067   3.771   5.494 -1.5885 -1.8735  2.3416
 2405SOL    HW218675   0.183   3.763   5.580  0.6352  0.3623  1.3397
 2406SOL     OW18676   0.504   3.339   4.090  0.0116  0.4507  0.2742
 2406SOL    HW118677   0.509   3.417   4.145  1.4077 -0.3537  1.2959
 2406SOL    HW218678   0.562   3.373   4.022 -0.8269 -1.1642 -1.2533
 2407SOL     OW18679   3.160   2.396   6.625  0.1320  0.0975 -0.3756
 2407SOL    HW118680   3.105   2.472   6.644  0.4750  0.0365  0.8296
 2407SOL    HW218681   3.244   2.432   6.655  0.3620  1.1789 -2.3203
 2408SOL     OW18682   1.316   4.060   1.843 -0.1582  0.3555  0.5621
 2408SOL    HW118683   1.279   3.999   1.780  0.9752  0.2285  0.0163
 2408SOL    HW218684   1.324   4.010   1.924  2.2162 -1.0479 -0.5300
 2409SOL     OW18685   2.304   1.988  17.463 -0.3951 -0.4810 -0.3765
 2409SOL    HW118686   2.292   1.919  17.527  1.1643 -0.3231  0.0932
 2409SOL    HW218687   2.241   2.050  17.498  1.7228  1.0586  0.7221
 2410SOL     OW18688   2.484   2.863   2.151  0.1038  0.0381 -0.1205
 2410SOL    HW118689   2.403   2.812   2.157  1.0100 -1.2069  1.5350
 2410SOL    HW218690   2.478   2.882   2.057 -0.0852 -3.8093 -0.8873
 2411SOL     OW18691   2.994   3.455   4.954  0.7574 -0.3947  0.0513
 2411SOL    HW118692   2.992   3.360   4.970 -0.6043 -0.4025 -0.1263
 2411SOL    HW218693   3.043   3.479   5.032  0.5705  0.6877 -0.1726
 2412SOL     OW18694   1.380   3.739   6.254 -0.7091 -0.3673  0.5007
 2412SOL    HW118695   1.302   3.686   6.235  0.2472 -2.1518  1.5432
 2412SOL    HW218696   1.449   3.682   6.221  0.5419  1.5321 -0.1221
 2413SOL     OW18697   0.448   0.772   9.708 -0.3521 -0.1610 -0.0687
 2413SOL    HW118698   0.355   0.759   9.692  0.0361  0.6509 -3.0837
 2413SOL    HW218699   0.478   0.756   9.618 -0.4343 -4.9490  0.7877
 2414SOL     OW18700   0.808   2.306   5.133 -0.1133 -0.4261 -0.4299
 2414SOL    HW118701   0.748   2.368   5.175 -1.7635 -1.2568 -1.5771
 2414SOL    HW218702   0.860   2.274   5.207  0.2238  2.5373  0.5981
 2415SOL     OW18703   2.553   2.332   5.160  0.4972  0.3090  0.3520
 2415SOL    HW118704   2.513   2.325   5.246  1.4016 -1.2325  0.6384
 2415SOL    HW218705   2.548   2.251   5.109 -1.7632 -0.3133  1.5786
 2416SOL     OW18706   1.470   3.742   5.392 -0.1887  0.0328  0.0162
 2416SOL    HW118707   1.419   3.800   5.449 -1.4079 -1.1523  0.1257
 2416SOL    HW218708   1.537   3.803   5.359 -0.9043  0.8053  0.0059
 2417SOL     OW18709   0.563   2.923   7.436  0.0075  0.1486 -0.5882
 2417SOL    HW118710   0.648   2.966   7.447  0.8075 -2.4393  3.5393
 2417SOL    HW218711   0.581   2.841   7.390 -2.7603 -2.1311  2.3904
 2418SOL     OW18712   0.333   4.715   6.794  0.3770  0.0933  0.1369
 2418SOL    HW118713   0.271   4.645   6.774 -0.6960  1.7217 -2.2951
 2418SOL    HW218714   0.386   4.675   6.863  0.2003 -0.2948  0.0501
 2419SOL     OW18715   0.069   3.078  10.896 -0.2819  0.9532  0.9302
 2419SOL    HW118716   0.082   3.151  10.835  2.2765  0.1143  0.4593
 2419SOL    HW218717   0.119   3.101  10.975  0.6774  0.2542  0.5326
 2420SOL     OW18718   0.678   0.507   6.330  0.0412  0.0221 -0.5895
 2420SOL    HW118719   0.615   0.489   6.260  0.3237  1.2541 -1.1795
 2420SOL    HW218720   0.641   0.589   6.363  0.4789 -0.0507  0.0652
 2421SOL     OW18721   3.331   0.780   6.932  0.4223  0.5311  0.1549
 2421SOL    HW118722   3.252   0.740   6.894  0.2188  1.5792 -0.5152
 2421SOL    HW218723   3.388   0.704   6.933 -1.8834 -1.2142  0.2095
 2422SOL     OW18724   0.028   1.980   2.145  0.2728  0.2204 -0.3427
 2422SOL    HW118725   0.021   2.075   2.137 -0.6190  0.2196  0.3663
 2422SOL    HW218726   4.668   1.958   2.184  0.0673  2.2118  0.3411
 2423SOL     OW18727   2.860   3.105  17.290  0.2236 -0.2915  0.1340
 2423SOL    HW118728   2.911   3.128  17.213  0.4940  0.2031  0.4679
 2423SOL    HW218729   2.774   3.093  17.249  0.9189 -0.9321 -1.1483
 2424SOL     OW18730   0.325   1.916   1.837  0.3402 -0.7526 -0.3100
 2424SOL    HW118731   0.354   1.994   1.886  3.0898 -3.4064  2.2869
 2424SOL    HW218732   0.258   1.963   1.788 -0.9512 -0.1453  2.0488
 2425SOL     OW18733   3.016   2.061   1.501  0.0421 -0.0346  0.0034
 2425SOL    HW118734   2.932   2.047   1.545 -0.9866  3.6772 -0.7492
 2425SOL    HW218735   3.060   2.136   1.541 -1.5854  0.8527  0.1504
 2426SOL     OW18736   1.840   1.631   5.500 -0.0819  0.0195 -0.2105
 2426SOL    HW118737   1.846   1.691   5.575  2.9864 -0.3307 -0.1408
 2426SOL    HW218738   1.924   1.586   5.510 -0.5283 -0.9450 -0.8770
 2427SOL     OW18739   1.574   3.601   3.531 -0.0357  0.4170 -0.3872
 2427SOL    HW118740   1.655   3.606   3.480  0.3067 -1.7815 -0.0699
 2427SOL    HW218741   1.556   3.692   3.556  0.2496  0.6302 -0.9605
 2428SOL     OW18742   2.216   0.853   7.135 -0.3460  0.0839  0.2698
 2428SOL    HW118743   2.244   0.832   7.225 -0.1846  0.0726  0.2160
 2428SOL    HW218744   2.124   0.872   7.155  0.1682  1.2044  1.6181
 2429SOL     OW18745   1.937   4.556   4.648 -0.5812  0.0536  0.0906
 2429SOL    HW118746   1.998   4.485   4.625  0.7173  0.3961  2.4141
 2429SOL    HW218747   1.858   4.505   4.630  0.9482 -2.4649  0.5046
 2430SOL     OW18748   3.392   2.318   0.396 -0.7552 -0.3629 -0.1363
 2430SOL    HW118749   3.380   2.392   0.336  0.0710 -1.6409 -1.9013
 2430SOL    HW218750   3.468   2.353   0.444 -3.4534  2.1141  2.3139
 2431SOL     OW18751   1.377   0.068  15.155 -1.0290 -0.2982  0.7353
 2431SOL    HW118752   1.384   4.697  15.157  1.1725 -0.1794 -1.0939
 2431SOL    HW218753   1.302   0.082  15.213 -1.8387  2.3728 -0.9491
 2432SOL     OW18754   1.233   3.978   8.911  0.3699 -0.1439 -0.2746
 2432SOL    HW118755   1.167   3.914   8.938  1.6198 -0.5254  1.9260
 2432SOL    HW218756   1.302   3.911   8.907 -1.2478 -1.7933 -0.3547
 2433SOL     OW18757   3.390   4.314   5.215 -0.3073  0.5904  0.5122
 2433SOL    HW118758   3.413   4.399   5.178 -0.7471  0.9826  1.1432
 2433SOL    HW218759   3.376   4.266   5.133  1.5168  1.2972 -0.2231
 2434SOL     OW18760   3.548   1.693   5.201 -0.5841 -0.0991  0.0022
 2434SOL    HW118761   3.627   1.677   5.149 -0.8033 -1.5037  0.1134
 2434SOL    HW218762   3.548   1.788   5.214  3.6525 -0.2148  1.0417
 2435SOL     OW18763   1.334   2.196  13.494 -0.3208 -0.3754  0.4411
 2435SOL    HW118764   1.380   2.158  13.420  1.5534 -0.4101  1.6288
 2435SOL    HW218765   1.242   2.170  13.484 -0.4197 -0.3732  1.3412
 2436SOL     OW18766   4.141   0.446   8.404  0.3712  0.4438  0.5307
 2436SOL    HW118767   4.218   0.433   8.459 -0.4558 -2.8940  0.9509
 2436SOL    HW218768   4.085   0.368   8.404  2.2901 -0.9247 -1.3435
 2437SOL     OW18769   3.537   2.339   4.240 -0.1836  0.1346 -0.5832
 2437SOL    HW118770   3.595   2.396   4.190  1.0481 -0.6114 -0.0133
 2437SOL    HW218771   3.553   2.249   4.209 -0.2509  0.9086 -2.8353
 2438SOL     OW18772   1.346   1.837  12.236 -0.1444 -0.0179  0.3777
 2438SOL    HW118773   1.307   1.872  12.316 -2.0211 -0.4258 -0.3636
 2438SOL    HW218774   1.436   1.870  12.236  0.3552 -1.3801 -1.9311
 2439SOL     OW18775   3.093   2.808  16.637  0.6005 -0.0691  0.2159
 2439SOL    HW118776   3.144   2.853  16.705  0.1169  0.6352  0.1079
 2439SOL    HW218777   3.159   2.752  16.595  0.2105 -0.9229  0.7372
 2440SOL     OW18778   0.405   1.410   9.193 -0.4561 -0.3746 -0.2505
 2440SOL    HW118779   0.357   1.492   9.186 -3.0532 -1.9179 -0.4532
 2440SOL    HW218780   0.490   1.436   9.229 -1.0085 -0.1987  0.9013
 2441SOL     OW18781   2.287   1.030   7.408  0.6065  0.1171 -0.0371
 2441SOL    HW118782   2.227   1.073   7.347  0.8161 -0.7162 -0.8257
 2441SOL    HW218783   2.367   1.075   7.381 -0.2958  1.1195 -1.0239
 2442SOL     OW18784   4.704   4.247   7.801 -0.6369 -0.6733 -0.1285
 2442SOL    HW118785   0.048   4.208   7.746  0.3534  2.1119 -0.8792
 2442SOL    HW218786   0.019   4.335   7.799  0.4986 -1.2163 -1.5062
 2443SOL     OW18787   2.729   3.544  12.251 -0.3461  0.1578  0.1166
 2443SOL    HW118788   2.735   3.450  12.265 -0.3337 -0.1478 -1.8784
 2443SOL    HW218789   2.795   3.580  12.311 -1.5763 -0.9924  2.1414
 2444SOL     OW18790   3.440   3.760   6.117 -0.6228 -0.5493  0.4988
 2444SOL    HW118791   3.447   3.807   6.200 -0.5811  0.7689 -0.2616
 2444SOL    HW218792   3.385   3.820   6.067 -1.3159 -1.5432  0.0722
 2445SOL     OW18793   1.218   0.228  15.622 -0.1343  0.4175  0.3699
 2445SOL    HW118794   1.146   0.288  15.604 -0.2266  0.0870 -0.3785
 2445SOL    HW218795   1.295   0.278  15.595 -0.2142  1.0364  1.2727
 2446SOL     OW18796   4.039   3.204   2.033  0.1751  0.2648  0.0161
 2446SOL    HW118797   4.123   3.169   2.062  0.8481  1.1633 -0.8657
 2446SOL    HW218798   3.978   3.152   2.086  0.7261  0.9138  1.2704
 2447SOL     OW18799   1.265   4.188   9.085 -0.4006 -0.5149 -0.1158
 2447SOL    HW118800   1.241   4.159   8.996 -0.7065 -2.7937  0.7183
 2447SOL    HW218801   1.217   4.270   9.093 -2.3963 -1.5067 -1.7058
 2448SOL     OW18802   3.427   1.727  12.242 -0.4265 -0.7205  0.2761
 2448SOL    HW118803   3.426   1.821  12.259 -2.0560 -0.7709  0.4711
 2448SOL    HW218804   3.435   1.718  12.148 -1.8722  3.2149 -0.2383
 2449SOL     OW18805   2.630   2.766   9.107  0.1638  0.8817 -0.1913
 2449SOL    HW118806   2.624   2.732   9.017  0.3816 -0.2232  0.2179
 2449SOL    HW218807   2.580   2.710   9.166  0.4426 -1.0333 -1.7869
 2450SOL     OW18808   0.474   3.681   2.719 -0.0031  0.4614 -0.2612
 2450SOL    HW118809   0.530   3.656   2.793 -2.9354 -1.4162  1.3251
 2450SOL    HW218810   0.405   3.615   2.727  0.1563  0.2790 -0.3798
 2451SOL     OW18811   4.064   4.464   4.444  0.4178  0.5075  0.1635
 2451SOL    HW118812   4.108   4.470   4.529  0.6423  1.3281 -0.0099
 2451SOL    HW218813   4.108   4.543   4.410 -0.2486  1.2007  0.9253
 2452SOL     OW18814   0.275   2.668   7.767 -0.5285  0.3937 -0.1956
 2452SOL    HW118815   0.275   2.734   7.836  3.3819  1.1907 -0.9747
 2452SOL    HW218816   0.369   2.670   7.749 -0.5599  1.1647 -0.2865
 2453SOL     OW18817   3.225   2.441   5.005  0.6544 -0.8968  0.3867
 2453SOL    HW118818   3.254   2.532   5.012  2.7757 -1.5826  0.5217
 2453SOL    HW218819   3.174   2.417   5.083 -0.6718 -2.9689 -1.1088
 2454SOL     OW18820   1.547   4.577  16.442 -0.0076 -0.1164 -0.8694
 2454SOL    HW118821   1.585   4.489  16.438  0.5910  0.0937  0.1876
 2454SOL    HW218822   1.452   4.562  16.448  0.0406  0.3656  0.9470
 2455SOL     OW18823   3.549   1.074   5.583 -0.2203 -0.2024  0.3117
 2455SOL    HW118824   3.615   1.140   5.603  0.2606 -0.6591  0.2163
 2455SOL    HW218825   3.557   1.070   5.488 -0.1287  3.5027  0.1591
 2456SOL     OW18826   1.240   4.387   6.883  0.0792 -0.0024 -0.3116
 2456SOL    HW118827   1.296   4.416   6.811 -0.5193  3.2753  0.5423
 2456SOL    HW218828   1.308   4.400   6.950  0.6979  3.5973 -1.6155
 2457SOL     OW18829   4.069   3.862   1.341  0.0647 -0.3441  0.8379
 2457SOL    HW118830   3.974   3.869   1.337  0.1212 -0.8519 -1.7777
 2457SOL    HW218831   4.070   3.782   1.394  0.8290 -1.2238 -0.4981
 2458SOL     OW18832   2.836   3.488   2.333  0.2227  0.0010  0.7448
 2458SOL    HW118833   2.782   3.559   2.299 -1.5412 -2.1383 -0.9269
 2458SOL    HW218834   2.923   3.508   2.298  0.0121  0.9040  0.7278
 2459SOL     OW18835   4.519   3.680   9.382 -0.0615 -0.0026  0.0004
 2459SOL    HW118836   4.528   3.775   9.385  2.1793 -0.2275 -0.0022
 2459SOL    HW218837   4.599   3.647   9.423  0.4121 -1.0233 -1.7781
 2460SOL     OW18838   3.483   1.946   9.230 -0.2696 -0.4761  0.4747
 2460SOL    HW118839   3.482   1.912   9.319  0.4279  0.1327  0.7180
 2460SOL    HW218840   3.526   2.031   9.235 -0.5000 -0.3053 -0.3690
 2461SOL     OW18841   2.711   0.804   9.687 -0.0678  0.3452 -0.1804
 2461SOL    HW118842   2.805   0.795   9.672 -0.2738 -1.2343 -0.5639
 2461SOL    HW218843   2.695   0.803   9.593 -1.1242  2.3467 -0.0270
 2462SOL     OW18844   1.335   0.589  14.524 -0.0300  0.5262  0.3695
 2462SOL    HW118845   1.274   0.633  14.584 -0.2529 -0.2527  0.7121
 2462SOL    HW218846   1.406   0.653  14.525  0.1610  0.2827  3.6673
 2463SOL     OW18847   1.034   4.544   6.800 -0.4635 -0.3850  0.5079
 2463SOL    HW118848   1.112   4.492   6.819  0.6276  0.9263 -0.3543
 2463SOL    HW218849   1.078   4.628   6.812  0.9031 -0.9896 -0.1718
 2464SOL     OW18850   2.923   0.958   7.298  0.6446  0.1103 -0.2298
 2464SOL    HW118851   2.949   1.004   7.378 -0.2357 -0.8478  0.5955
 2464SOL    HW218852   2.961   1.012   7.227  0.1844 -0.0686 -0.6108
 2465SOL     OW18853   3.502   4.549   0.990 -0.2229  0.2089  0.5011
 2465SOL    HW118854   3.550   4.543   1.073 -1.5008  1.0787  1.3073
 2465SOL    HW218855   3.515   4.643   0.973 -0.6478  0.5150  1.9007
 2466SOL     OW18856   0.772   1.969   2.580  0.4876 -0.5994  0.1434
 2466SOL    HW118857   0.779   2.049   2.529  0.6232 -0.7578 -0.0848
 2466SOL    HW218858   0.680   1.944   2.590 -0.2262  2.0949  0.2368
 2467SOL     OW18859   3.478   3.504   8.121 -0.4037  0.3732 -0.0712
 2467SOL    HW118860   3.479   3.418   8.163  2.2011 -0.1517 -1.2594
 2467SOL    HW218861   3.403   3.495   8.062 -1.7690 -0.0140  1.7197
 2468SOL     OW18862   3.464   3.293   1.877  0.2710 -0.1887 -0.2118
 2468SOL    HW118863   3.450   3.249   1.961  0.3769 -0.2705 -0.2367
 2468SOL    HW218864   3.421   3.230   1.820  2.3723 -3.1807  1.5042
 2469SOL     OW18865   2.610   2.699  12.541  0.2329 -0.2848  0.7677
 2469SOL    HW118866   2.656   2.623  12.506 -2.2723 -1.6681  0.4521
 2469SOL    HW218867   2.544   2.722  12.476  0.2839 -0.0489  0.8000
 2470SOL     OW18868   0.216   4.334  16.486  0.0041  0.1533 -0.0099
 2470SOL    HW118869   0.234   4.375  16.571  1.2095 -0.8637  0.2264
 2470SOL    HW218870   0.145   4.282  16.522  0.1426 -1.1039 -1.5312
 2471SOL     OW18871   2.378   1.272   4.520 -0.0272  0.3455 -0.1410
 2471SOL    HW118872   2.287   1.271   4.551  0.2784  0.4706  0.7697
 2471SOL    HW218873   2.391   1.353   4.472 -0.5419  1.5901  1.7913
 2472SOL     OW18874   2.018   4.137   2.071 -0.5501  0.4537  0.0376
 2472SOL    HW118875   1.993   4.156   2.161 -1.1604 -2.5367  0.4758
 2472SOL    HW218876   2.042   4.225   2.040 -0.8352  0.4505 -0.1948
 2473SOL     OW18877   2.150   3.928   4.716 -0.1633  0.2525 -0.8112
 2473SOL    HW118878   2.193   3.943   4.799 -0.4768  0.8554 -0.7516
 2473SOL    HW218879   2.170   3.835   4.715 -1.0129  0.0712 -2.1217
 2474SOL     OW18880   1.021   3.792   5.805  0.3942  0.4429 -0.3226
 2474SOL    HW118881   1.009   3.749   5.889 -2.2091 -0.0563 -0.9647
 2474SOL    HW218882   1.024   3.720   5.742 -1.2506 -0.6700  0.8798
 2475SOL     OW18883   3.074   3.357  15.035  0.8147  0.4328 -0.6209
 2475SOL    HW118884   3.014   3.365  14.960  0.5848 -0.1395 -0.4941
 2475SOL    HW218885   3.124   3.438  15.025  0.1395  0.9735  0.4039
 2476SOL     OW18886   3.163   4.024  13.344  0.2272 -0.7324  0.0662
 2476SOL    HW118887   3.206   3.966  13.281 -1.1284 -2.0490  0.3667
 2476SOL    HW218888   3.128   3.959  13.404 -2.1689 -0.7841 -1.4036
 2477SOL     OW18889   1.225   4.610   7.536  0.0561 -0.7725  0.0368
 2477SOL    HW118890   1.214   4.557   7.616  1.1011  0.7397  1.1896
 2477SOL    HW218891   1.311   4.583   7.503  1.1285  0.4866  1.7939
 2478SOL     OW18892   2.970   2.232   1.833 -0.0683  0.3359  0.1917
 2478SOL    HW118893   3.033   2.234   1.761 -0.6750  2.4428 -0.2837
 2478SOL    HW218894   2.980   2.312   1.884 -0.8053  1.2567 -1.0886
 2479SOL     OW18895   0.349   4.361  15.081  0.0447  0.2531 -0.3262
 2479SOL    HW118896   0.357   4.326  14.993 -0.0130  1.1299 -0.6767
 2479SOL    HW218897   0.314   4.285  15.127  1.5340 -0.5214 -0.4783
 2480SOL     OW18898   1.116   3.359   8.930  0.0124 -0.0825  0.4159
 2480SOL    HW118899   1.069   3.349   8.847 -0.0064 -0.2683  0.4479
 2480SOL    HW218900   1.039   3.386   8.979 -0.4070 -0.5091 -0.0079
 2481SOL     OW18901   2.940   1.395   0.248  0.2144 -0.0468 -0.1072
 2481SOL    HW118902   2.958   1.352   0.165 -1.1994 -0.5346 -0.1495
 2481SOL    HW218903   2.900   1.473   0.209 -0.7631 -0.5942 -0.1818
 2482SOL     OW18904   0.770   1.390  17.586 -0.1060  0.7630 -0.2277
 2482SOL    HW118905   0.838   1.324  17.580  1.4712  2.4157 -0.6139
 2482SOL    HW218906   0.808   1.473  17.556  1.3666  0.6149  1.2480
 2483SOL     OW18907   1.267   1.979  12.442  0.1602  0.9497  0.2377
 2483SOL    HW118908   1.208   2.053  12.437 -0.6851  0.3817  1.8365
 2483SOL    HW218909   1.320   2.015  12.513  1.3654  0.3188 -0.3394
 2484SOL     OW18910   1.683   3.509   0.691 -0.2287 -0.2408  0.1331
 2484SOL    HW118911   1.655   3.423   0.659 -3.2494  1.3692 -1.5398
 2484SOL    HW218912   1.603   3.560   0.679 -0.0986 -0.5106 -1.9814
 2485SOL     OW18913   1.707   2.639   5.416 -0.1494 -0.4239 -0.5918
 2485SOL    HW118914   1.632   2.579   5.414 -0.7849  0.3183  1.4872
 2485SOL    HW218915   1.721   2.660   5.323  0.0790 -2.7352 -1.0765
 2486SOL     OW18916   2.260   1.442   6.702  0.0067 -0.0279 -0.0256
 2486SOL    HW118917   2.284   1.478   6.788  0.0351 -0.7213  0.2610
 2486SOL    HW218918   2.172   1.407   6.715  0.2422 -0.8032 -0.5363
 2487SOL     OW18919   3.475   2.621   2.682  0.3803  0.6008 -0.0011
 2487SOL    HW118920   3.487   2.563   2.757 -1.0998  2.5815  1.7809
 2487SOL    HW218921   3.505   2.705   2.717 -0.6661  1.7075 -1.7363
 2488SOL     OW18922   3.397   4.516   5.469 -0.1806  0.4748 -0.2571
 2488SOL    HW118923   3.412   4.610   5.463  1.0539  0.4368  2.3230
 2488SOL    HW218924   3.487   4.484   5.463 -0.7535 -0.9094 -1.2211
 2489SOL     OW18925   4.639   2.020  10.495 -0.0374  0.0380  0.0789
 2489SOL    HW118926   4.681   1.940  10.527 -0.3325 -0.5353 -0.9369
 2489SOL    HW218927   4.554   1.985  10.471  1.2076 -0.3025 -3.8575
 2490SOL     OW18928   0.552   0.119   3.366  0.2297  0.5547  0.1098
 2490SOL    HW118929   0.475   0.111   3.308 -0.5470  0.2012  1.1966
 2490SOL    HW218930   0.605   0.171   3.306 -1.5605  0.0840 -1.8905
 2491SOL     OW18931   1.540   3.318   8.636  0.1487  0.2175 -0.1980
 2491SOL    HW118932   1.515   3.237   8.679  1.0172 -1.5228 -2.9459
 2491SOL    HW218933   1.455   3.329   8.592  0.4702 -3.1167 -1.6780
 2492SOL     OW18934   2.681   1.859   2.037 -0.3284 -0.7213  0.1776
 2492SOL    HW118935   2.696   1.912   2.116 -1.3928  1.3416 -1.0113
 2492SOL    HW218936   2.676   1.927   1.970 -1.5322 -1.9256 -0.9387
 2493SOL     OW18937   1.679   2.687   4.233 -0.2128  0.1852  0.1559
 2493SOL    HW118938   1.721   2.612   4.277 -1.3072 -1.2817 -1.2893
 2493SOL    HW218939   1.597   2.684   4.283 -1.0284 -1.0760 -1.2414
 2494SOL     OW18940   2.976   3.788   2.122 -0.2567 -0.1185 -0.4856
 2494SOL    HW118941   2.997   3.739   2.201 -1.9218 -0.7206 -0.4047
 2494SOL    HW218942   3.011   3.732   2.052 -0.3744 -2.2320  1.1593
 2495SOL     OW18943   4.456   1.679   2.986 -0.1960  0.0881 -0.1154
 2495SOL    HW118944   4.542   1.723   2.983  0.2478 -0.8316 -0.7850
 2495SOL    HW218945   4.450   1.666   3.081 -2.0169  1.4552 -0.0375
 2496SOL     OW18946   1.994   3.613  15.489  0.3973  0.3068  0.4382
 2496SOL    HW118947   2.086   3.587  15.496  0.8455  1.2415 -1.9351
 2496SOL    HW218948   1.993   3.666  15.409  2.0425 -0.9550 -0.4371
 2497SOL     OW18949   2.568   2.554   3.707  0.0067  0.6463 -0.1691
 2497SOL    HW118950   2.649   2.527   3.751  0.1728  0.8699 -0.3391
 2497SOL    HW218951   2.612   2.584   3.628  0.6260 -0.6412 -0.3288
 2498SOL     OW18952   3.623   4.139  10.386 -0.8824  0.3696 -0.0348
 2498SOL    HW118953   3.678   4.209  10.420 -0.1552 -0.8861  1.4056
 2498SOL    HW218954   3.541   4.177  10.354 -0.7438 -0.5830 -1.5278
 2499SOL     OW18955   2.843   3.756   9.122 -0.1206 -0.4453  0.0538
 2499SOL    HW118956   2.798   3.803   9.193 -1.4593 -1.7512  0.0759
 2499SOL    HW218957   2.874   3.834   9.077  1.4329 -1.3830 -0.5144
 2500SOL     OW18958   2.906   0.602   2.144  0.0049 -0.0332 -0.3326
 2500SOL    HW118959   2.993   0.628   2.113 -0.5315  0.3512 -1.5175
 2500SOL    HW218960   2.859   0.589   2.062  1.0393  2.1891 -1.2841
 2501SOL     OW18961   2.774   0.031  15.147  0.0970 -0.0594  0.0414
 2501SOL    HW118962   2.798   0.114  15.106  0.4790 -0.5382 -0.7081
 2501SOL    HW218963   2.856   0.013  15.194 -0.8762 -1.6226  1.1293
 2502SOL     OW18964   0.307   2.485  15.523  0.2490  0.2552  0.2588
 2502SOL    HW118965   0.386   2.439  15.494 -1.4091 -1.3392 -1.7069
 2502SOL    HW218966   0.239   2.425  15.493  0.5702  0.6035 -1.1537
 2503SOL     OW18967   0.450   3.550  13.921  0.1828 -0.0201  0.2454
 2503SOL    HW118968   0.537   3.578  13.948  0.9023 -1.0206 -1.0027
 2503SOL    HW218969   0.424   3.631  13.878 -1.7068 -1.8804 -2.1705
 2504SOL     OW18970   4.557   4.391   4.333  0.3003  0.0478  0.3820
 2504SOL    HW118971   4.620   4.366   4.266  0.4001  0.2146  0.4120
 2504SOL    HW218972   4.546   4.481   4.304  1.4432  0.6183  1.6736
 2505SOL     OW18973   2.245   1.491  10.719 -0.7364  0.1861 -0.1781
 2505SOL    HW118974   2.243   1.564  10.657  0.4061 -0.9302 -1.5037
 2505SOL    HW218975   2.242   1.542  10.801  1.5773  1.3545 -0.8054
 2506SOL     OW18976   2.059   4.492   6.303  0.4673  0.2506  0.0192
 2506SOL    HW118977   2.001   4.534   6.240  0.0119 -1.3101 -0.5897
 2506SOL    HW218978   2.112   4.567   6.332 -0.8820  0.7248  1.2828
 2507SOL     OW18979   2.908   3.597   5.664 -0.1835  0.0827 -0.0163
 2507SOL    HW118980   2.929   3.511   5.699 -0.0269  1.1289  2.5380
 2507SOL    HW218981   2.883   3.657   5.735 -2.0084 -0.0377 -0.5441
 2508SOL     OW18982   1.077   4.419   5.342  0.3654 -0.3238  0.0045
 2508SOL    HW118983   1.036   4.427   5.429  0.8984 -0.5561  0.2728
 2508SOL    HW218984   1.018   4.351   5.309  0.3166 -0.3530  0.1485
 2509SOL     OW18985   2.456   2.553   5.756 -0.2868 -0.2092  0.3142
 2509SOL    HW118986   2.525   2.559   5.821  0.9631 -0.2670 -1.0020
 2509SOL    HW218987   2.430   2.644   5.741 -0.4167 -0.0885  1.3079
 2510SOL     OW18988   3.589   0.984  13.640 -0.5285  0.1300  0.1683
 2510SOL    HW118989   3.526   0.991  13.569 -2.3006  0.6121  1.8083
 2510SOL    HW218990   3.671   0.979  13.590 -0.0889 -0.6811  0.9604
 2511SOL     OW18991   1.853   3.074   1.401  0.1140 -0.0463  0.4934
 2511SOL    HW118992   1.868   3.162   1.436 -0.6345  1.0027 -1.8428
 2511SOL    HW218993   1.766   3.064   1.439  0.7151 -3.6996  0.9196
 2512SOL     OW18994   0.277   3.938  12.145 -0.2449  0.2243 -0.5752
 2512SOL    HW118995   0.284   4.005  12.212  1.2942 -0.2768 -0.2265
 2512SOL    HW218996   0.346   3.973  12.089 -0.7272  0.5574 -0.9641
 2513SOL     OW18997   0.375   3.170  15.507 -0.2628 -0.5002  0.0052
 2513SOL    HW118998   0.361   3.231  15.435 -0.2358  0.3399  0.7145
 2513SOL    HW218999   0.284   3.141  15.508 -0.6885  0.8767  1.1070
 2514SOL     OW19000   1.719   1.123   3.082 -0.5508 -0.2369  0.5611
 2514SOL    HW119001   1.667   1.043   3.089  0.6368 -1.2812 -2.4757
 2514SOL    HW219002   1.680   1.170   3.008  2.5636  0.3762 -0.6827
 2515SOL     OW19003   1.452   1.645  15.162 -0.4188  0.4629 -0.1190
 2515SOL    HW119004   1.415   1.727  15.195  0.9238  0.7995  0.5345
 2515SOL    HW219005   1.431   1.579  15.228  0.9055 -0.7997 -0.9750
 2516SOL     OW19006   2.757   3.571   3.368 -0.1370 -0.4213 -0.3828
 2516SOL    HW119007   2.705   3.649   3.347 -0.3930 -0.0541  1.6078
 2516SOL    HW219008   2.801   3.599   3.448 -0.2859  1.2394 -0.8809
 2517SOL     OW19009   0.862   1.487  13.527 -0.3457  0.1015  0.5318
 2517SOL    HW119010   0.780   1.481  13.479  1.1085 -1.5711 -1.7249
 2517SOL    HW219011   0.898   1.554  13.468  0.4092 -0.2928  0.5350
 2518SOL     OW19012   0.549   1.168  16.993 -0.4746 -0.3848  0.1552
 2518SOL    HW119013   0.589   1.226  17.057 -2.1608 -0.5987  1.4182
 2518SOL    HW219014   0.625   1.128  16.951  0.4332  1.1581  0.3602
 2519SOL     OW19015   4.389   1.763   8.178  0.3549  0.7107  0.3906
 2519SOL    HW119016   4.456   1.762   8.110  1.0521  3.9286  1.0179
 2519SOL    HW219017   4.312   1.797   8.134  2.0527  2.5908 -1.1545
 2520SOL     OW19018   0.310   1.004   8.099  0.1468 -0.1184 -0.5972
 2520SOL    HW119019   0.239   1.047   8.052 -0.7353 -0.9602 -0.0325
 2520SOL    HW219020   0.288   1.021   8.191  1.2840  0.0254 -0.3449
 2521SOL     OW19021   1.820   0.776  17.548  0.6300 -0.1944  0.1922
 2521SOL    HW119022   1.746   0.738  17.595  0.9743 -1.9535 -0.6928
 2521SOL    HW219023   1.809   0.744  17.459 -0.0754 -0.7184  0.4635
 2522SOL     OW19024   3.230   4.581   6.705  0.3281  0.1374 -0.2639
 2522SOL    HW119025   3.177   4.572   6.626  0.8817 -1.4653 -0.4438
 2522SOL    HW219026   3.319   4.597   6.674 -0.2462  3.0963 -0.3804
 2523SOL     OW19027   2.603   2.191   7.342 -0.2553  0.0664 -0.4205
 2523SOL    HW119028   2.601   2.197   7.247  0.2780  0.3570 -0.4171
 2523SOL    HW219029   2.651   2.116   7.376 -0.5754  0.5026  1.0291
 2524SOL     OW19030   0.592   3.421   9.539 -0.0293 -0.0874  0.0536
 2524SOL    HW119031   0.563   3.349   9.595  0.9972 -0.1548  0.5011
 2524SOL    HW219032   0.644   3.478   9.596  2.4274 -0.5314 -1.7961
 2525SOL     OW19033   1.977   4.253   7.397 -0.1972 -0.8960 -0.3653
 2525SOL    HW119034   2.062   4.209   7.407  1.3199  2.1430  0.2312
 2525SOL    HW219035   2.010   4.330   7.351  0.8583 -0.0790  1.7530
 2526SOL     OW19036   2.497   1.338  16.185  0.3492  0.1180 -0.1857
 2526SOL    HW119037   2.552   1.295  16.250 -0.0957 -0.0786  0.0567
 2526SOL    HW219038   2.411   1.298  16.196 -0.1321  0.8361 -1.2739
 2527SOL     OW19039   1.640   3.974   3.704  0.3069 -0.3722  0.3582
 2527SOL    HW119040   1.710   4.040   3.703  0.5196 -0.6071 -1.0166
 2527SOL    HW219041   1.622   3.973   3.610 -0.0756 -0.0646  0.4319
 2528SOL     OW19042   3.699   2.589   6.795 -0.2312  0.4755 -0.1122
 2528SOL    HW119043   3.732   2.505   6.826 -1.7002 -0.7259 -1.7868
 2528SOL    HW219044   3.712   2.651   6.866  2.4454  0.5911 -0.6762
 2529SOL     OW19045   0.573   1.571  11.873  0.2070  0.7592 -0.1216
 2529SOL    HW119046   0.579   1.661  11.841 -0.2458 -0.0382 -2.4893
 2529SOL    HW219047   0.655   1.530  11.846  0.3516  1.3532 -0.6066
 2530SOL     OW19048   3.377   0.393   8.247  0.5256  1.2036  0.0988
 2530SOL    HW119049   3.373   0.474   8.298 -0.4563  1.1017  0.1870
 2530SOL    HW219050   3.458   0.354   8.280 -0.6239 -1.3826 -0.0780
 2531SOL     OW19051   0.105   2.220   1.450 -0.2507  0.0598 -0.3861
 2531SOL    HW119052   0.173   2.223   1.382 -1.0400  2.1650 -1.0888
 2531SOL    HW219053   0.096   2.310   1.481  2.4547  1.1671 -2.7701
 2532SOL     OW19054   4.275   4.304  16.215 -0.2110  0.4442 -0.3122
 2532SOL    HW119055   4.229   4.374  16.260  1.3155  0.1573  1.6795
 2532SOL    HW219056   4.249   4.230  16.269  2.0060 -2.2048 -2.8301
 2533SOL     OW19057   2.030   1.788  12.470  0.0987 -0.9243 -0.0512
 2533SOL    HW119058   2.060   1.765  12.558  0.4573  0.6181  0.2293
 2533SOL    HW219059   2.087   1.860  12.445  0.7766 -1.7545 -0.9176
 2534SOL     OW19060   3.252   2.499   5.948 -0.0762  0.0173 -0.4330
 2534SOL    HW119061   3.223   2.590   5.957  0.9363  0.3254 -0.3287
 2534SOL    HW219062   3.271   2.468   6.036  1.6389 -1.5514 -1.3777
 2535SOL     OW19063   1.970   2.765  16.374  0.0262 -0.0929 -0.2447
 2535SOL    HW119064   2.054   2.810  16.361 -0.0122 -0.1440 -0.6519
 2535SOL    HW219065   1.993   2.680  16.411 -0.4895 -0.5187 -0.9029
 2536SOL     OW19066   2.356   2.762   9.618  0.7718 -0.0666 -0.1446
 2536SOL    HW119067   2.332   2.674   9.587 -1.4606 -0.3873  2.5237
 2536SOL    HW219068   2.375   2.808   9.536  0.2268  0.4638  0.0299
 2537SOL     OW19069   0.713   1.315  16.467  0.1952 -0.3638 -0.4251
 2537SOL    HW119070   0.742   1.270  16.388 -0.6080 -0.3119 -0.7479
 2537SOL    HW219071   0.730   1.241  16.525 -1.6544 -1.2407 -1.0248
 2538SOL     OW19072   3.164   0.255   4.344 -0.0582 -0.1385 -0.0595
 2538SOL    HW119073   3.157   0.161   4.365 -0.6923 -0.3997 -1.4430
 2538SOL    HW219074   3.168   0.288   4.434  1.0822 -0.2046 -0.0864
 2539SOL     OW19075   3.314   3.423  12.617 -0.2125  0.2451  0.1004
 2539SOL    HW119076   3.240   3.364  12.604 -1.6424  2.0603  0.1585
 2539SOL    HW219077   3.295   3.496  12.559 -0.7131  1.3390  1.6417
 2540SOL     OW19078   2.374   0.174   5.450 -0.5617  0.0656  0.0649
 2540SOL    HW119079   2.321   0.246   5.414  0.1904 -0.1891 -1.5584
 2540SOL    HW219080   2.394   0.129   5.368 -0.3102 -1.9394  1.2545
 2541SOL     OW19081   2.691   2.953   4.164  0.5755 -0.8859 -0.3846
 2541SOL    HW119082   2.654   2.994   4.085  1.4693  0.5139 -0.0744
 2541SOL    HW219083   2.701   3.032   4.216 -0.8406 -0.3153 -0.9937
 2542SOL     OW19084   3.710   0.990   3.435 -0.3175  0.0258  0.5856
 2542SOL    HW119085   3.631   1.009   3.384  0.0545 -0.7164 -0.2619
 2542SOL    HW219086   3.715   0.897   3.413  0.9170  0.1909  0.1875
 2543SOL     OW19087   3.073   1.051   9.021 -0.2018  0.2789  0.0838
 2543SOL    HW119088   3.110   1.138   9.040 -1.6398  0.5605  1.5822
 2543SOL    HW219089   3.042   1.073   8.933 -1.2646 -1.4614  0.0278
 2544SOL     OW19090   0.836   2.223   0.276 -0.2882  0.0595 -0.1215
 2544SOL    HW119091   0.829   2.138   0.234  1.6203 -0.6136  0.9279
 2544SOL    HW219092   0.749   2.219   0.314  0.0865  2.0611  0.9290
 2545SOL     OW19093   3.911   3.521   5.039 -0.5928  0.6620 -0.0498
 2545SOL    HW119094   3.889   3.561   5.124  2.4086  2.2825 -0.0146
 2545SOL    HW219095   3.894   3.593   4.979 -1.5698  0.7383  0.3169
 2546SOL     OW19096   1.791   1.550   6.195  0.8141  0.2936  0.1673
 2546SOL    HW119097   1.853   1.532   6.265  0.3028  1.4837  0.9221
 2546SOL    HW219098   1.856   1.578   6.130 -1.1773 -1.0174 -2.3939
 2547SOL     OW19099   1.568   1.337  15.151 -0.8661  0.0597  0.1823
 2547SOL    HW119100   1.580   1.295  15.066  0.0580 -0.4395  0.5639
 2547SOL    HW219101   1.578   1.270  15.220 -0.9842 -0.1588 -0.0108
 2548SOL     OW19102   4.585   0.553   1.436 -0.2839  0.6079  0.1822
 2548SOL    HW119103   4.557   0.610   1.365  1.5499  0.2885 -0.7991
 2548SOL    HW219104   4.514   0.557   1.500 -1.6848  0.8397 -1.3916
 2549SOL     OW19105   0.148   0.505   9.225 -0.1777 -0.0951  0.1446
 2549SOL    HW119106   0.130   0.597   9.208 -0.0846 -0.3954 -1.6057
 2549SOL    HW219107   0.072   0.452   9.199 -0.4815  0.7562 -0.6921
 2550SOL     OW19108   2.464   0.165   9.319 -0.1376  0.2882  0.3808
 2550SOL    HW119109   2.450   0.258   9.336 -0.1107  1.0286 -3.7712
 2550SOL    HW219110   2.373   0.136   9.329 -0.3119  0.6773 -0.0878
 2551SOL     OW19111   4.543   1.745  12.586 -0.0438 -0.1852  0.3071
 2551SOL    HW119112   4.575   1.690  12.657  0.7163  0.8182  0.7400
 2551SOL    HW219113   4.609   1.726  12.519 -0.3218 -0.2269  0.0447
 2552SOL     OW19114   1.266   4.703   5.937 -0.0405 -0.5351 -0.4058
 2552SOL    HW119115   1.314   0.023   5.866 -0.1694  1.5111  0.8159
 2552SOL    HW219116   1.282   0.030   6.015 -0.9988  0.6122 -0.9740
 2553SOL     OW19117   2.914   3.884   0.227  0.1034  0.2958  0.0142
 2553SOL    HW119118   2.848   3.894   0.159  0.1572 -0.2768 -0.1200
 2553SOL    HW219119   2.865   3.831   0.289 -0.4290 -1.2444 -1.7170
 2554SOL     OW19120   1.033   4.090   0.175  0.8791  0.0869  0.1993
 2554SOL    HW119121   1.108   4.122   0.126  0.0150 -0.3717 -1.4342
 2554SOL    HW219122   0.968   4.074   0.107 -0.5619 -1.3092  1.9177
 2555SOL     OW19123   4.312   4.163   0.969  0.2770  0.2700 -0.7808
 2555SOL    HW119124   4.244   4.110   1.011  1.0420 -0.1423 -0.0537
 2555SOL    HW219125   4.324   4.117   0.886  2.4618 -1.3906  0.4637
 2556SOL     OW19126   2.590   4.704  13.174  0.7364 -0.1426 -0.0582
 2556SOL    HW119127   2.544   4.663  13.247  1.1300 -1.6407 -0.6572
 2556SOL    HW219128   2.659   0.026  13.220 -0.5657  2.9738 -1.2500
 2557SOL     OW19129   1.435   3.176   2.909  0.1521  0.0610  0.4100
 2557SOL    HW119130   1.394   3.094   2.880 -1.0276 -0.5023  3.6305
 2557SOL    HW219131   1.522   3.158   2.874  0.8253  1.2635  1.4441
 2558SOL     OW19132   1.587   3.762   9.076  0.0235  0.3920  0.3528
 2558SOL    HW119133   1.571   3.791   8.986  0.5361  0.6392  0.3390
 2558SOL    HW219134   1.611   3.670   9.071  1.0818  0.6993 -0.2923
 2559SOL     OW19135   4.388   3.334   1.917 -0.1295 -0.0756 -0.4762
 2559SOL    HW119136   4.407   3.381   1.836  2.3439 -2.2678 -1.1668
 2559SOL    HW219137   4.309   3.371   1.955 -0.3592  0.3981 -1.4167
 2560SOL     OW19138   3.232   4.010   1.570 -0.1771 -0.0335 -0.1068
 2560SOL    HW119139   3.200   4.032   1.658  0.8324  0.3714  0.1646
 2560SOL    HW219140   3.307   4.069   1.570 -0.3234  0.1638 -1.9218
 2561SOL     OW19141   1.100   3.621   2.521 -0.2724 -0.2559 -0.4793
 2561SOL    HW119142   1.093   3.665   2.606 -0.7400  1.1423 -1.2421
 2561SOL    HW219143   1.010   3.599   2.497  0.2248 -0.8766 -1.7501
 2562SOL     OW19144   3.391   0.846  11.397 -0.4726  0.3169 -0.4270
 2562SOL    HW119145   3.351   0.764  11.368 -0.2527 -0.3451  1.1262
 2562SOL    HW219146   3.303   0.882  11.412 -0.5781 -0.4977  0.9177
 2563SOL     OW19147   3.029   3.688   8.041  0.0329 -0.7382  0.5344
 2563SOL    HW119148   3.110   3.739   8.051  0.2221 -0.7900 -0.6787
 2563SOL    HW219149   3.060   3.599   8.056 -0.5123 -1.0653 -0.2403
 2564SOL     OW19150   1.899   1.575   5.802  0.4208  0.4061  0.4548
 2564SOL    HW119151   1.845   1.497   5.809  2.4551 -1.0214  0.3176
 2564SOL    HW219152   1.953   1.550   5.726 -0.3971 -0.9918  0.3311
 2565SOL     OW19153   1.722   1.398   6.574 -0.9467 -0.5784  0.9147
 2565SOL    HW119154   1.786   1.387   6.504 -1.5494 -1.1588  0.4626
 2565SOL    HW219155   1.705   1.492   6.561  0.9163 -0.1352  1.6525
 2566SOL     OW19156   1.245   1.265  13.036 -0.3536  0.2405 -0.0296
 2566SOL    HW119157   1.159   1.303  13.020 -0.7274  0.0803  1.6333
 2566SOL    HW219158   1.280   1.333  13.093  1.1676 -0.7684  0.2428
 2567SOL     OW19159   0.012   0.166  17.331  0.4974  0.6063  0.4251
 2567SOL    HW119160   0.086   0.113  17.302  0.6353  1.4194 -0.6941
 2567SOL    HW219161   4.671   0.112  17.286  1.4289 -0.4640  0.3238
 2568SOL     OW19162   4.188   4.069   7.380 -0.0878  0.2207 -0.4003
 2568SOL    HW119163   4.194   4.041   7.289  0.6658  0.2012 -0.3419
 2568SOL    HW219164   4.280   4.067   7.405 -0.7614  0.4637  2.1021
 2569SOL     OW19165   0.802   4.039   4.538 -0.3826  0.2563  0.8303
 2569SOL    HW119166   0.759   4.115   4.577  0.6980  1.5564 -0.4805
 2569SOL    HW219167   0.883   4.035   4.588 -1.7257 -2.6424  2.7134
 2570SOL     OW19168   1.276   1.610   4.421 -0.7505  0.3124 -0.2136
 2570SOL    HW119169   1.278   1.557   4.342 -2.6715 -1.9013  1.2464
 2570SOL    HW219170   1.195   1.656   4.397 -1.0646  0.2184  0.6798
 2571SOL     OW19171   1.774   4.012   5.545  0.2136  0.0808 -0.2474
 2571SOL    HW119172   1.733   3.981   5.625  2.5956 -1.8148  0.2288
 2571SOL    HW219173   1.732   3.959   5.478 -3.2599  1.4460  0.8241
 2572SOL     OW19174   0.480   4.435   6.154  0.0956  0.0383 -0.7253
 2572SOL    HW119175   0.388   4.447   6.130  0.2915  2.4126 -0.2732
 2572SOL    HW219176   0.530   4.503   6.109 -0.2866  1.3074  0.7886
 2573SOL     OW19177   3.817   3.945   0.757 -0.2125 -0.0404  0.5431
 2573SOL    HW119178   3.764   3.917   0.682  1.9941 -1.0814 -0.6109
 2573SOL    HW219179   3.754   4.001   0.802 -0.0039  0.7403 -0.1276
 2574SOL     OW19180   2.634   3.962   5.285 -0.3988  0.0669 -0.1273
 2574SOL    HW119181   2.622   4.056   5.296  0.4955 -0.1800  2.9174
 2574SOL    HW219182   2.635   3.935   5.377 -2.4538 -1.5329 -0.5750
 2575SOL     OW19183   4.121   1.273   5.416 -0.2158  0.0996 -0.3981
 2575SOL    HW119184   4.159   1.185   5.414 -2.5002 -0.8900 -0.0795
 2575SOL    HW219185   4.132   1.291   5.509  1.5162  0.7674 -0.7383
 2576SOL     OW19186   1.268   0.004   1.253  0.3459 -0.5767  0.5833
 2576SOL    HW119187   1.302   4.710   1.340  1.5707  1.5117  0.5171
 2576SOL    HW219188   1.348   4.707   1.206  1.0958 -0.3117  1.7543
 2577SOL     OW19189   3.851   0.195   7.133  0.2460  0.2897 -0.0602
 2577SOL    HW119190   3.832   0.134   7.061  2.8139 -2.2576  1.4107
 2577SOL    HW219191   3.920   0.162   7.190 -0.3544 -2.8482 -1.1380
 2578SOL     OW19192   3.498   1.083   9.328  0.1990 -0.0747 -0.1129
 2578SOL    HW119193   3.565   1.016   9.320 -1.9427 -2.1514 -0.5947
 2578SOL    HW219194   3.469   1.095   9.237  0.8018  2.3942  0.0184
 2579SOL     OW19195   0.841   1.299  15.726 -0.4768  0.1816 -0.3707
 2579SOL    HW119196   0.844   1.261  15.814  0.5754 -2.0580 -1.3878
 2579SOL    HW219197   0.846   1.214  15.683  0.0245  0.0353 -0.0326
 2580SOL     OW19198   2.282   3.411   6.078 -0.1156  0.0412 -1.0850
 2580SOL    HW119199   2.295   3.506   6.086 -0.0684 -0.1951  1.7132
 2580SOL    HW219200   2.204   3.399   6.132  0.7781 -2.5582 -0.3703
 2581SOL     OW19201   1.967   2.940   3.591 -0.2744  0.0915  0.0911
 2581SOL    HW119202   1.885   2.894   3.607 -1.5290  1.9185 -1.0599
 2581SOL    HW219203   2.037   2.888   3.631 -1.4905 -1.1694  0.5648
 2582SOL     OW19204   0.760   2.926   7.079 -0.0755  0.7000  0.0574
 2582SOL    HW119205   0.837   2.905   7.133 -0.6012  2.8772  1.6569
 2582SOL    HW219206   0.806   2.915   6.996  0.8130  0.1747  0.6108
 2583SOL     OW19207   2.545   2.058   1.884 -0.1424  0.0906 -0.7366
 2583SOL    HW119208   2.461   2.020   1.912  0.4219 -0.9608 -0.4682
 2583SOL    HW219209   2.542   2.028   1.793  0.0923 -1.8018 -0.1101
 2584SOL     OW19210   0.945   3.340  14.334  0.2164 -0.4985 -0.1491
 2584SOL    HW119211   0.857   3.315  14.305  0.1106 -0.4873  0.1587
 2584SOL    HW219212   0.987   3.255  14.342  0.8534 -0.0493  1.2835
 2585SOL     OW19213   2.357   4.360   6.968  0.3073 -0.1139  0.1064
 2585SOL    HW119214   2.295   4.289   6.985  1.1323 -1.2756 -1.6850
 2585SOL    HW219215   2.409   4.358   7.048  1.1752 -0.4239 -0.4678
 2586SOL     OW19216   2.477   1.812   5.763  0.3954  0.4542 -0.6980
 2586SOL    HW119217   2.445   1.871   5.695 -1.3807  0.9554  0.5890
 2586SOL    HW219218   2.543   1.863   5.810  1.1059 -0.0847 -1.1107
 2587SOL     OW19219   3.382   3.776   7.800 -0.2540 -0.0395 -0.3395
 2587SOL    HW119220   3.336   3.716   7.859 -0.4260  0.3839 -0.0378
 2587SOL    HW219221   3.456   3.724   7.771 -0.7550 -0.5779 -0.6541
 2588SOL     OW19222   1.146   3.244   8.109 -0.6200 -0.1127 -0.1977
 2588SOL    HW119223   1.136   3.163   8.158  0.0290  0.3919  0.7628
 2588SOL    HW219224   1.057   3.280   8.108 -0.6311 -0.0820  2.3353
 2589SOL     OW19225   1.254   4.349   8.043  0.8876 -0.4792 -0.3866
 2589SOL    HW119226   1.171   4.302   8.042 -0.3690  1.7416 -0.7537
 2589SOL    HW219227   1.278   4.340   8.136 -0.0721 -1.5010 -0.2368
 2590SOL     OW19228   4.010   1.602   0.730  0.2209 -0.0202  0.6013
 2590SOL    HW119229   3.988   1.512   0.705  0.7399 -0.2598  1.0249
 2590SOL    HW219230   3.926   1.635   0.763 -0.8171 -0.8743 -1.1445
 2591SOL     OW19231   3.810   4.615   2.133 -0.3397  0.4360 -0.2260
 2591SOL    HW119232   3.723   4.634   2.099 -0.3041  1.1509  0.0812
 2591SOL    HW219233   3.847   4.571   2.057  0.9740  0.8784  0.1557
 2592SOL     OW19234   2.741   2.977  17.501 -0.5049  0.3943 -0.4004
 2592SOL    HW119235   2.743   3.004  17.410 -1.7844 -2.1887 -1.1762
 2592SOL    HW219236   2.648   2.989  17.517 -0.4262  0.6631 -0.1274
 2593SOL     OW19237   1.691   1.013   8.233  0.1305  0.3819 -0.0322
 2593SOL    HW119238   1.786   1.016   8.237  0.0443 -1.0223  3.1020
 2593SOL    HW219239   1.678   1.023   8.328  2.2865  0.8717  0.2134
 2594SOL     OW19240   2.352   1.911   5.319  0.3333 -0.4366  0.2002
 2594SOL    HW119241   2.366   1.839   5.380 -0.7801 -1.7331 -1.0537
 2594SOL    HW219242   2.415   1.903   5.247 -0.4719 -1.7854 -0.3590
 2595SOL     OW19243   1.100   1.850   5.943 -0.5924  0.0723  0.0465
 2595SOL    HW119244   1.071   1.894   5.863  0.0644 -3.1781 -1.9682
 2595SOL    HW219245   1.103   1.924   6.003  0.8167 -0.7466  0.9730
 2596SOL     OW19246   1.529   1.940   5.734  0.0153 -0.0116  0.2965
 2596SOL    HW119247   1.493   1.860   5.773 -2.8424  0.6469 -0.9290
 2596SOL    HW219248   1.615   1.944   5.776  0.7166  2.0271 -1.3306
 2597SOL     OW19249   0.924   4.468  15.476 -0.0362 -0.1720  0.6369
 2597SOL    HW119250   0.973   4.386  15.482  1.2416  0.6593  1.7384
 2597SOL    HW219251   0.971   4.527  15.416  0.4364 -0.8611  0.3275
 2598SOL     OW19252   1.307   1.539   3.141 -0.3926  0.1624 -0.6880
 2598SOL    HW119253   1.367   1.576   3.075  1.3791  0.1636  0.9175
 2598SOL    HW219254   1.248   1.614   3.147 -0.0465  0.5264 -1.8118
 2599SOL     OW19255   0.824   1.903  15.428  0.3768 -0.5362 -0.2815
 2599SOL    HW119256   0.792   1.891  15.339  3.1702  1.7566 -1.6022
 2599SOL    HW219257   0.914   1.918  15.398  0.9967 -0.5610  1.5961
 2600SOL     OW19258   1.484   1.414   2.507 -0.3092  0.4341 -0.2780
 2600SOL    HW119259   1.472   1.508   2.492 -2.3476  0.0593 -0.8869
 2600SOL    HW219260   1.415   1.388   2.568 -0.2038  0.4092 -0.1701
 2601SOL     OW19261   3.225   0.762   9.868  0.9414 -0.3847 -0.2437
 2601SOL    HW119262   3.291   0.818   9.910  0.7528 -1.2251  1.1781
 2601SOL    HW219263   3.268   0.677   9.858 -1.9933 -1.9029 -0.0027
 2602SOL     OW19264   1.862   3.116  14.665 -0.0388 -0.5400  0.5586
 2602SOL    HW119265   1.836   3.204  14.638 -2.4016 -1.1994  0.6738
 2602SOL    HW219266   1.939   3.137  14.718  0.0549  0.0921  0.1683
 2603SOL     OW19267   0.229   2.226   6.747  0.5698  0.2931  0.4780
 2603SOL    HW119268   0.155   2.175   6.780  0.9823 -0.0055  0.9477
 2603SOL    HW219269   0.305   2.168   6.758 -0.0971 -0.6629  0.0038
 2604SOL     OW19270   1.696   2.507   2.128 -0.4620 -0.3826  0.6794
 2604SOL    HW119271   1.682   2.582   2.071  1.4240 -0.5670 -0.0292
 2604SOL    HW219272   1.779   2.476   2.091 -0.6773  0.8664 -0.8372
 2605SOL     OW19273   3.541   3.073   7.409 -0.1984 -0.2637  0.0216
 2605SOL    HW119274   3.531   3.144   7.345 -0.1696  0.4552  0.8126
 2605SOL    HW219275   3.607   3.118   7.462 -2.5352  3.6569 -0.3742
 2606SOL     OW19276   4.514   0.464  16.472  0.3586  0.2444 -0.1354
 2606SOL    HW119277   4.585   0.528  16.474 -0.7490  1.4631  0.5538
 2606SOL    HW219278   4.450   0.513  16.420 -1.4763  0.8607  2.6921
 2607SOL     OW19279   1.774   0.206   7.535  0.1566 -0.0223  0.1901
 2607SOL    HW119280   1.727   0.267   7.479 -0.1236  1.6173  2.2264
 2607SOL    HW219281   1.705   0.141   7.546  0.8043 -0.5701  1.0207
 2608SOL     OW19282   0.189   1.631   8.449  0.4271 -0.0604  0.1736
 2608SOL    HW119283   0.139   1.639   8.368  1.2181 -0.1056 -0.3111
 2608SOL    HW219284   0.132   1.682   8.507 -0.7934 -1.0444 -0.1440
 2609SOL     OW19285   1.858   0.630   7.207  0.0041  0.1828  0.0063
 2609SOL    HW119286   1.853   0.583   7.290  0.2092 -1.0733 -0.6856
 2609SOL    HW219287   1.808   0.578   7.144 -1.1688  1.1301  0.1603
 2610SOL     OW19288   0.136   1.477  10.980  0.2610  0.3713  0.0586
 2610SOL    HW119289   0.214   1.508  10.934 -1.0335  1.4767 -1.3853
 2610SOL    HW219290   0.166   1.476  11.072  0.3224 -2.5600 -0.0028
 2611SOL     OW19291   3.845   3.204   7.560 -0.2931  0.2549 -0.5079
 2611SOL    HW119292   3.909   3.173   7.496  2.1106  1.8227  1.1080
 2611SOL    HW219293   3.875   3.294   7.579 -0.2632  0.1376  0.0088
 2612SOL     OW19294   3.560   3.055   4.501  0.4068 -0.1421 -0.0862
 2612SOL    HW119295   3.616   2.977   4.503 -0.0125 -0.4416 -0.2026
 2612SOL    HW219296   3.480   3.016   4.466 -0.1430  2.0454 -1.2317
 2613SOL     OW19297   1.287   4.613   2.635  0.1377  0.1708 -0.0160
 2613SOL    HW119298   1.371   4.653   2.614 -0.3211  1.4642  0.5884
 2613SOL    HW219299   1.280   4.574   2.548  0.7437 -1.3612  0.6132
 2614SOL     OW19300   2.128   1.008   8.476 -0.3274  0.1345 -0.4078
 2614SOL    HW119301   2.060   0.991   8.541 -0.7917  0.1623 -0.8856
 2614SOL    HW219302   2.162   0.919   8.463  0.2174  0.1224  1.1698
 2615SOL     OW19303   4.437   4.689  16.090 -0.0943 -0.2931  0.0532
 2615SOL    HW119304   4.418   0.056  16.110  1.0138  0.7771 -3.8536
 2615SOL    HW219305   4.533   4.691  16.090 -0.1001 -0.0084  0.8841
 2616SOL     OW19306   4.337   3.937   4.658  0.2919  0.0560 -0.3033
 2616SOL    HW119307   4.361   4.028   4.679 -0.0921  0.0596  0.1043
 2616SOL    HW219308   4.258   3.938   4.712 -0.1538  0.1273 -0.9431
 2617SOL     OW19309   0.433   3.210   8.513  0.2080 -0.1576  0.2483
 2617SOL    HW119310   0.454   3.284   8.456  2.0177  0.2417  1.4547
 2617SOL    HW219311   0.338   3.212   8.520  0.2236  1.4305  0.0912
 2618SOL     OW19312   1.356   1.582   3.535  0.5212 -0.1070  0.4630
 2618SOL    HW119313   1.427   1.555   3.477 -0.0775  1.4174 -0.9772
 2618SOL    HW219314   1.281   1.529   3.508  0.6149  0.1662 -0.3389
 2619SOL     OW19315   3.392   3.988   4.433  0.2455  0.3405  0.6518
 2619SOL    HW119316   3.473   4.001   4.383  1.2029 -1.3772  1.7540
 2619SOL    HW219317   3.409   3.895   4.446  1.6566  0.5629  0.4151
 2620SOL     OW19318   3.230   1.782   4.873 -0.4152  0.4610 -0.2144
 2620SOL    HW119319   3.148   1.756   4.830 -0.1661 -0.2479 -0.2525
 2620SOL    HW219320   3.292   1.735   4.818  1.1403  2.8398 -0.5217
 2621SOL     OW19321   0.101   1.184  17.422 -0.9533  0.3919  0.2014
 2621SOL    HW119322   0.136   1.105  17.382  1.3817  0.9192  1.2265
 2621SOL    HW219323   0.078   1.151  17.510  3.4365  1.2656  1.6506
 2622SOL     OW19324   1.121   3.196   6.637  0.8351  0.5693 -0.1555
 2622SOL    HW119325   1.124   3.186   6.542 -1.0599  1.2503 -0.2941
 2622SOL    HW219326   1.026   3.191   6.646  0.9727 -1.1700  0.2606
 2623SOL     OW19327   3.737   1.775   1.730  0.0128  0.3227  0.0452
 2623SOL    HW119328   3.672   1.821   1.677  0.5137  0.8740 -0.0852
 2623SOL    HW219329   3.805   1.834   1.698  0.2198  0.5203  0.8568
 2624SOL     OW19330   0.051   1.073   7.752  0.1980 -0.2019  0.0989
 2624SOL    HW119331   0.001   1.045   7.829  1.0324  2.0197  1.4655
 2624SOL    HW219332   0.041   0.999   7.692 -0.0862 -0.0019 -0.1018
 2625SOL     OW19333   3.566   1.970   9.952  0.0188  0.0172  0.2747
 2625SOL    HW119334   3.510   1.976  10.030 -0.3502 -1.0234  0.0888
 2625SOL    HW219335   3.540   2.046   9.900 -0.0193 -0.8570 -0.9860
 2626SOL     OW19336   4.699   1.541  12.693  0.4489 -0.0473  0.2150
 2626SOL    HW119337   0.025   1.562  12.771  0.7378 -1.7212  0.4807
 2626SOL    HW219338   0.036   1.530  12.621 -2.3576  0.8766 -2.2989
 2627SOL     OW19339   1.695   0.827  10.808  0.2723  0.0089  0.0227
 2627SOL    HW119340   1.654   0.895  10.863 -0.0046 -0.1263 -0.0169
 2627SOL    HW219341   1.625   0.808  10.746  0.2984 -2.2344  0.7121
 2628SOL     OW19342   0.999   3.888   8.330  0.5572 -0.3737  0.0246
 2628SOL    HW119343   1.075   3.939   8.302  0.4561 -0.8912 -1.2149
 2628SOL    HW219344   0.961   3.940   8.400  0.6710 -1.4034  0.8553
 2629SOL     OW19345   2.697   2.109  10.462  0.8184  0.6102  0.1149
 2629SOL    HW119346   2.672   2.138  10.375 -2.5765 -0.3995  0.7686
 2629SOL    HW219347   2.619   2.064  10.493  0.9393 -1.3932 -2.5045
 2630SOL     OW19348   2.083   0.584   6.158  0.4166 -0.9836 -0.2281
 2630SOL    HW119349   2.087   0.661   6.102 -3.0656  1.2229  2.5605
 2630SOL    HW219350   2.171   0.571   6.193 -0.3042  0.2498  2.0359
 2631SOL     OW19351   1.357   0.641   1.633 -0.3871 -0.5494 -0.3378
 2631SOL    HW119352   1.394   0.691   1.560 -0.3964  0.1324  0.1258
 2631SOL    HW219353   1.377   0.548   1.622  0.2109 -0.4894  0.2550
 2632SOL     OW19354   2.042   2.709   4.138  0.0540 -0.4584  0.6016
 2632SOL    HW119355   2.002   2.795   4.126  0.6169 -0.3335 -0.3869
 2632SOL    HW219356   2.136   2.725   4.126 -0.3903  0.9111 -1.0315
 2633SOL     OW19357   2.635   2.360   1.493  0.0016  0.1112  0.3408
 2633SOL    HW119358   2.612   2.406   1.574 -1.6371 -0.8907  0.4302
 2633SOL    HW219359   2.725   2.390   1.478 -0.9236  3.8757  2.1519
 2634SOL     OW19360   1.073   3.013   8.225  0.0145  0.6543 -0.1253
 2634SOL    HW119361   1.094   2.930   8.183 -1.9896 -0.5868  1.3446
 2634SOL    HW219362   1.011   2.974   8.286  0.3527  0.8454  0.3345
 2635SOL     OW19363   2.113   1.372  11.606  0.7344  0.3426 -0.2109
 2635SOL    HW119364   2.183   1.307  11.593 -0.0426 -0.2208 -1.5449
 2635SOL    HW219365   2.129   1.409  11.693 -1.1597  0.6353  0.0036
 2636SOL     OW19366   0.948   4.288  16.239  0.2023 -0.1945 -0.0854
 2636SOL    HW119367   0.856   4.310  16.222  0.4864 -1.1990 -2.7677
 2636SOL    HW219368   0.925   4.248  16.323  2.9867  0.0248  0.7840
 2637SOL     OW19369   3.373   3.882  16.432  0.0911 -0.2315  0.4345
 2637SOL    HW119370   3.389   3.866  16.525 -0.6979  0.6259  0.7159
 2637SOL    HW219371   3.371   3.789  16.409 -1.6938 -0.0782 -0.0495
 2638SOL     OW19372   1.114   0.299  14.188  0.5944 -0.0980 -0.7283
 2638SOL    HW119373   1.045   0.358  14.218  0.4670 -1.3712  1.5030
 2638SOL    HW219374   1.146   0.333  14.105 -1.8475 -0.7436 -1.9421
 2639SOL     OW19375   2.062   3.531   0.852 -0.2824 -0.6193  0.3234
 2639SOL    HW119376   2.045   3.489   0.768  1.0035 -1.0733  0.2955
 2639SOL    HW219377   1.987   3.590   0.865  1.7763  1.8429  1.1386
 2640SOL     OW19378   0.547   1.887  11.456  0.5520  0.1044 -0.3856
 2640SOL    HW119379   0.547   1.851  11.367  0.5246  1.6112 -0.9803
 2640SOL    HW219380   0.514   1.976  11.446 -0.8240 -0.2143  1.3226
 2641SOL     OW19381   0.005   1.994   6.870 -0.0728 -0.5324 -0.6642
 2641SOL    HW119382   4.648   1.993   6.821  0.0083 -2.0224 -0.7591
 2641SOL    HW219383   0.028   1.901   6.875 -0.5191 -0.5146  1.7435
 2642SOL     OW19384   3.184   3.834  17.217  0.0339  0.4564 -0.0812
 2642SOL    HW119385   3.275   3.831  17.187  0.4084 -1.8988  1.3072
 2642SOL    HW219386   3.173   3.739  17.214  1.1755  0.3447 -0.8032
 2643SOL     OW19387   1.357   3.080  16.483 -0.2555 -0.1209  0.1704
 2643SOL    HW119388   1.405   3.115  16.559 -2.9343 -0.9341  2.2666
 2643SOL    HW219389   1.417   3.010  16.458 -1.8903 -1.5765  0.3434
 2644SOL     OW19390   1.409   2.297   6.341 -0.3294 -0.2233  0.3304
 2644SOL    HW119391   1.320   2.323   6.317 -0.2201 -1.9224 -1.9455
 2644SOL    HW219392   1.466   2.304   6.265 -1.0302 -0.4191 -0.2153
 2645SOL     OW19393   4.279   4.053   9.144  0.3488 -0.6201 -0.0113
 2645SOL    HW119394   4.237   4.004   9.215 -2.2226 -0.9982 -1.7923
 2645SOL    HW219395   4.302   4.129   9.197 -0.9127 -0.0736 -0.2489
 2646SOL     OW19396   2.395   1.517   3.616  0.3386  0.2615 -0.1136
 2646SOL    HW119397   2.447   1.455   3.566 -0.6658  1.1328 -2.2599
 2646SOL    HW219398   2.348   1.453   3.668  0.2676 -0.1486 -0.6798
 2647SOL     OW19399   2.321   0.527  10.652  0.4510 -0.1750  0.3747
 2647SOL    HW119400   2.320   0.466  10.726  0.1444 -1.7374 -0.9186
 2647SOL    HW219401   2.247   0.585  10.674 -1.1673 -2.0527 -0.1113
 2648SOL     OW19402   4.470   2.915   5.408 -0.3373  0.5284  0.3768
 2648SOL    HW119403   4.419   2.944   5.484  1.2001  0.6049  1.3867
 2648SOL    HW219404   4.444   2.823   5.403 -1.5940  0.7111  3.4922
 2649SOL     OW19405   2.130   1.270   4.605 -0.3642 -0.3411  0.1303
 2649SOL    HW119406   2.060   1.229   4.554  2.0758 -0.3495 -3.2758
 2649SOL    HW219407   2.098   1.253   4.693  0.3332  0.7382  0.5889
 2650SOL     OW19408   3.673   0.558  13.412  0.1667 -0.2289 -0.4763
 2650SOL    HW119409   3.693   0.561  13.506 -5.3718 -0.1800  0.6917
 2650SOL    HW219410   3.755   0.522  13.378  0.2095 -0.5117 -0.0717
 2651SOL     OW19411   1.906   4.223   4.037  0.1053  0.3607  0.1422
 2651SOL    HW119412   1.878   4.135   4.013 -1.2494  0.8213  0.0437
 2651SOL    HW219413   1.857   4.273   3.972  1.1614  2.5501  1.0169
 2652SOL     OW19414   4.067   2.928  15.228  0.1843  0.0027 -0.9343
 2652SOL    HW119415   4.149   2.934  15.276 -1.2047 -0.6637  1.5398
 2652SOL    HW219416   4.107   2.956  15.146 -2.0370  1.1325 -1.6618
 2653SOL     OW19417   4.551   4.051   5.336 -0.3331 -0.0970 -0.1666
 2653SOL    HW119418   4.552   4.043   5.240 -1.8135 -2.0543 -0.0183
 2653SOL    HW219419   4.551   3.961   5.366 -0.9468 -0.4424 -1.1870
 2654SOL     OW19420   0.663   4.386  16.245 -0.2887 -0.1244 -0.4731
 2654SOL    HW119421   0.594   4.415  16.186  1.1273 -0.2457 -2.2143
 2654SOL    HW219422   0.619   4.333  16.311 -2.3207  0.4826 -1.3431
 2655SOL     OW19423   4.032   3.549   4.679  0.3773  0.1026  0.1585
 2655SOL    HW119424   4.102   3.501   4.723  1.1585  0.8587 -0.2635
 2655SOL    HW219425   3.979   3.549   4.758 -0.9137 -0.4298 -0.7116
 2656SOL     OW19426   3.393   0.127  15.860 -0.2508  0.3888 -0.4157
 2656SOL    HW119427   3.482   0.157  15.880 -0.7241  1.0508  0.6604
 2656SOL    HW219428   3.403   0.109  15.766 -0.3312  1.8450 -0.6939
 2657SOL     OW19429   2.598   0.583   7.954 -0.2308 -0.1847 -0.0780
 2657SOL    HW119430   2.523   0.529   7.979 -0.2552 -0.7703 -1.4249
 2657SOL    HW219431   2.654   0.576   8.031 -2.1021 -1.0904  1.2055
 2658SOL     OW19432   3.288   2.962  17.650  0.4227  0.2101 -0.2466
 2658SOL    HW119433   3.364   3.008  17.685  0.2558 -0.2153  0.6650
 2658SOL    HW219434   3.219   3.029  17.645 -0.6011 -1.0924 -3.6282
 2659SOL     OW19435   1.542   3.064   2.279 -0.2593 -0.0663  0.0142
 2659SOL    HW119436   1.483   3.090   2.349 -0.8419 -1.2946 -0.0147
 2659SOL    HW219437   1.618   3.119   2.295  0.2571 -0.6303 -0.4728
 2660SOL     OW19438   2.980   2.902   2.665  0.1794 -0.3389 -0.1590
 2660SOL    HW119439   3.053   2.843   2.683 -0.0926  0.0152  2.1144
 2660SOL    HW219440   2.975   2.946   2.750  0.3301  0.1631 -0.4135
 2661SOL     OW19441   0.773   1.896  16.277 -0.0445 -0.0241 -0.2467
 2661SOL    HW119442   0.863   1.883  16.248  0.1928 -2.2079  1.4691
 2661SOL    HW219443   0.768   1.991  16.283 -1.5135 -0.3051  2.6803
 2662SOL     OW19444   0.524   4.457   3.616 -0.4194 -0.0465 -0.1128
 2662SOL    HW119445   0.476   4.540   3.613  0.1965  0.2815 -0.7903
 2662SOL    HW219446   0.448   4.404   3.593 -0.4689  0.7234 -1.7042
 2663SOL     OW19447   1.766   4.437   7.990  0.1461  0.3844  0.3968
 2663SOL    HW119448   1.745   4.421   8.082 -2.6117 -1.9252 -0.6445
 2663SOL    HW219449   1.765   4.533   7.996 -3.2558  0.3403  0.4888
 2664SOL     OW19450   4.712   3.362   8.280 -0.0232  0.5800  0.5347
 2664SOL    HW119451   0.036   3.282   8.303  0.3061  0.9192  1.0101
 2664SOL    HW219452   4.661   3.316   8.212 -2.9680  0.5639  2.7652
 2665SOL     OW19453   3.041   3.148   4.687 -0.1113 -0.2805  0.0612
 2665SOL    HW119454   3.073   3.105   4.607 -0.6719  0.3784 -0.5181
 2665SOL    HW219455   3.074   3.236   4.672  1.1786 -0.8365 -0.3743
 2666SOL     OW19456   2.604   0.351   1.199  0.1307 -0.0237 -0.0548
 2666SOL    HW119457   2.549   0.327   1.273 -1.7441 -1.4201 -1.8945
 2666SOL    HW219458   2.673   0.397   1.248  2.3140 -1.2844 -1.9252
 2667SOL     OW19459   1.334   1.086  14.976 -0.0058  0.4781 -0.2058
 2667SOL    HW119460   1.428   1.104  14.969  0.0636 -0.2228 -1.0273
 2667SOL    HW219461   1.315   1.158  15.036  0.1037  1.4255 -1.3183
 2668SOL     OW19462   2.989   3.254  12.933 -0.1549 -0.0457  0.2859
 2668SOL    HW119463   3.014   3.273  13.023  0.7625 -0.1017  0.0394
 2668SOL    HW219464   3.064   3.215  12.889 -1.1406 -1.8384  0.2002
 2669SOL     OW19465   3.161   1.839   8.568  0.4695  0.7729  0.1992
 2669SOL    HW119466   3.158   1.880   8.654  1.0389 -0.0360  0.6091
 2669SOL    HW219467   3.112   1.911   8.528 -2.2822 -1.7058 -0.9417
 2670SOL     OW19468   3.906   0.003   2.600 -0.5467 -0.0748  0.1541
 2670SOL    HW119469   3.906   0.047   2.515 -1.8067  0.4475  0.4225
 2670SOL    HW219470   3.886   4.637   2.576  0.7308  0.3198 -2.3015
 2671SOL     OW19471   3.521   1.304   3.683  0.1409  0.2430  0.6001
 2671SOL    HW119472   3.575   1.308   3.603 -0.0309  3.3204  0.6288
 2671SOL    HW219473   3.435   1.312   3.642 -0.4749 -1.8613  1.4698
 2672SOL     OW19474   1.757   4.519   1.043 -0.3962 -0.1732  0.2640
 2672SOL    HW119475   1.787   4.592   0.989  0.9151 -2.5119 -2.1679
 2672SOL    HW219476   1.753   4.561   1.129 -1.4710  0.6656 -0.1827
 2673SOL     OW19477   0.428   1.926   4.653  0.0312  0.1853  0.1825
 2673SOL    HW119478   0.337   1.954   4.652  0.5016  1.7091 -0.5835
 2673SOL    HW219479   0.420   1.832   4.669 -1.6265  0.2153 -0.4878
 2674SOL     OW19480   2.561   0.862   7.958  0.4623 -0.4853  1.1241
 2674SOL    HW119481   2.472   0.846   7.991 -0.2933  2.0582  0.2904
 2674SOL    HW219482   2.603   0.779   7.981 -0.2098 -1.0830  0.1754
 2675SOL     OW19483   3.510   0.645  10.095 -0.1249  0.0779 -0.3059
 2675SOL    HW119484   3.452   0.602  10.032  0.7604 -1.3636 -0.1311
 2675SOL    HW219485   3.456   0.705  10.148 -0.0880  0.2293 -0.4383
 2676SOL     OW19486   0.377   0.508   5.073 -0.6205 -0.2751  0.1281
 2676SOL    HW119487   0.472   0.505   5.060 -0.2396 -1.9316  3.5257
 2676SOL    HW219488   0.368   0.557   5.155 -1.0675 -1.0051  0.5101
 2677SOL     OW19489   3.593   3.636   5.449  0.3454  0.3479 -0.2452
 2677SOL    HW119490   3.589   3.731   5.462  0.3266  0.3482 -0.2535
 2677SOL    HW219491   3.584   3.611   5.540  2.2538  0.8070  0.0837
 2678SOL     OW19492   4.013   1.549   3.402  0.1770 -0.1771 -0.2683
 2678SOL    HW119493   4.001   1.644   3.402 -2.4102 -0.5089  0.8749
 2678SOL    HW219494   4.103   1.544   3.434 -0.2012  1.3928  0.9942
 2679SOL     OW19495   0.169   1.780   2.009 -0.1753 -0.4737  0.0609
 2679SOL    HW119496   0.146   1.864   2.050 -0.2081 -1.4098  1.9511
 2679SOL    HW219497   0.238   1.822   1.957 -2.7408  1.8874 -1.4705
 2680SOL     OW19498   2.285   2.201   1.866 -0.1086  0.0937  0.2127
 2680SOL    HW119499   2.366   2.242   1.896  0.3268 -1.2317  0.8546
 2680SOL    HW219500   2.303   2.184   1.774 -1.7913  0.2618 -0.1423
 2681SOL     OW19501   3.644   0.941  11.366  0.0892  0.3508  0.3819
 2681SOL    HW119502   3.706   0.868  11.364  1.7598  1.7574  0.9917
 2681SOL    HW219503   3.558   0.899  11.365 -0.4280  1.4537 -1.3604
 2682SOL     OW19504   1.732   4.675   1.986  0.0648 -0.4072  0.4080
 2682SOL    HW119505   1.680   4.595   1.978  1.8976 -1.4799 -0.9179
 2682SOL    HW219506   1.716   4.690   2.079  0.0557 -2.8320  0.7885
 2683SOL     OW19507   1.355   2.925  16.972 -0.4328 -0.0032 -0.5862
 2683SOL    HW119508   1.326   2.839  17.004  2.1655 -0.2765  1.0754
 2683SOL    HW219509   1.450   2.915  16.976 -0.5801 -0.5430  1.9661
 2684SOL     OW19510   2.727   3.287   1.457  0.1322  0.2525  0.4449
 2684SOL    HW119511   2.639   3.250   1.449  0.5043 -0.2200 -1.6379
 2684SOL    HW219512   2.714   3.375   1.422 -1.0755 -0.7326 -1.5755
 2685SOL     OW19513   3.242   1.971   2.999 -0.5055 -0.6828  0.0324
 2685SOL    HW119514   3.317   1.968   2.941  0.1352  2.7435  0.6714
 2685SOL    HW219515   3.171   1.975   2.935  0.0127  2.1979 -0.3910
 2686SOL     OW19516   2.624   1.408   6.581  0.3468  0.3299 -0.0373
 2686SOL    HW119517   2.591   1.328   6.622  1.6467  1.0051  2.3945
 2686SOL    HW219518   2.558   1.408   6.512  1.2113  2.3888 -0.8577
 2687SOL     OW19519   3.861   3.104  14.812 -0.2367  0.2630 -0.0395
 2687SOL    HW119520   3.793   3.039  14.794  0.5704 -0.2151 -1.3588
 2687SOL    HW219521   3.819   3.168  14.870  2.5353  1.2768  0.8395
 2688SOL     OW19522   0.994   0.916  12.634 -0.6522 -0.8477  0.1002
 2688SOL    HW119523   0.985   0.848  12.568  1.6908 -1.4107  0.3862
 2688SOL    HW219524   0.903   0.938  12.656 -0.5152  0.6423 -0.8060
 2689SOL     OW19525   0.696   2.606   3.291  0.6993  0.5297  0.2966
 2689SOL    HW119526   0.630   2.675   3.297  0.3397  0.3525 -1.6874
 2689SOL    HW219527   0.707   2.605   3.386 -0.4991  1.0368  0.4469
 2690SOL     OW19528   0.060   1.126   8.112  0.3625  0.3138 -0.0511
 2690SOL    HW119529   0.060   1.099   8.204 -1.2388  1.1143  0.1831
 2690SOL    HW219530   0.027   1.053   8.060  0.8377  0.2646 -0.2769
 2691SOL     OW19531   2.202   1.831  17.663 -0.1078  0.4525 -0.6517
 2691SOL    HW119532   2.146   1.875   0.027 -1.2824 -0.1890 -1.2578
 2691SOL    HW219533   2.241   1.764   0.021 -1.7831  0.2052  0.2041
 2692SOL     OW19534   1.610   2.126   2.763 -0.2969  0.4951  0.2123
 2692SOL    HW119535   1.598   2.047   2.709  0.1548  2.0104 -2.0891
 2692SOL    HW219536   1.705   2.134   2.767 -0.4197  1.9369  0.2770
 2693SOL     OW19537   0.578   2.340   6.796 -0.6010 -0.1855  0.4543
 2693SOL    HW119538   0.615   2.353   6.708  0.5549  0.7642  1.0820
 2693SOL    HW219539   0.656   2.364   6.847  0.0343 -0.8759 -0.1901
 2694SOL     OW19540   2.048   2.836   7.622 -0.5084  0.3725 -0.0323
 2694SOL    HW119541   2.091   2.909   7.577 -0.9575  1.3194  1.0818
 2694SOL    HW219542   2.024   2.780   7.548  0.6966 -0.5806  0.2993
 2695SOL     OW19543   1.045   1.396   8.296 -0.9094 -0.1877 -0.2471
 2695SOL    HW119544   1.109   1.352   8.351 -1.9147  0.5936  1.5455
 2695SOL    HW219545   1.060   1.355   8.210 -0.9441  0.8320 -0.7423
 2696SOL     OW19546   2.039   0.367  11.715  0.4606  0.1096  0.0972
 2696SOL    HW119547   2.039   0.370  11.619  2.3458  1.6767  0.1415
 2696SOL    HW219548   1.947   0.340  11.724  0.8728 -1.8269 -1.2370
 2697SOL     OW19549   3.687   2.856   7.239  0.3477  0.6181 -0.0135
 2697SOL    HW119550   3.629   2.881   7.311  0.6692 -0.5823  0.6623
 2697SOL    HW219551   3.719   2.939   7.205  0.8471 -0.1670 -1.4471
 2698SOL     OW19552   1.378   0.846   7.339 -0.1073  0.1339 -0.5660
 2698SOL    HW119553   1.374   0.854   7.434 -1.5904 -0.5140 -0.5857
 2698SOL    HW219554   1.463   0.800   7.335 -0.4532 -0.4503 -1.1746
 2699SOL     OW19555   2.123   0.562   1.024 -0.2038  0.2880 -0.3173
 2699SOL    HW119556   2.216   0.541   1.025 -0.1532  0.6689  1.8627
 2699SOL    HW219557   2.097   0.546   1.114 -1.5810 -0.9967 -0.9324
 2700SOL     OW19558   2.962   1.681   2.613 -0.1529 -0.3462  0.4580
 2700SOL    HW119559   2.875   1.650   2.639 -0.6400  0.9445  0.3947
 2700SOL    HW219560   2.999   1.609   2.563  0.0096  1.0063 -1.3514
 2701SOL     OW19561   2.882   4.537   9.186  0.2347 -0.0733  0.0712
 2701SOL    HW119562   2.851   4.607   9.243  2.5439  0.3975  0.7540
 2701SOL    HW219563   2.856   4.459   9.237  0.9224  1.9412  3.5025
 2702SOL     OW19564   4.307   4.566  15.873 -0.0958 -0.1910  0.0388
 2702SOL    HW119565   4.318   4.637  15.936  2.5410  0.1053 -0.7570
 2702SOL    HW219566   4.281   4.619  15.797  1.5423  0.7524  0.1505
 2703SOL     OW19567   2.942   0.282   1.972  0.3290  0.3689  0.3729
 2703SOL    HW119568   2.951   0.232   1.891 -0.9313 -1.9666  1.6955
 2703SOL    HW219569   2.868   0.335   1.942  0.6901 -0.9186 -2.8562
 2704SOL     OW19570   3.088   4.288  13.327 -0.0500 -0.3738 -0.0482
 2704SOL    HW119571   3.111   4.201  13.361 -0.6098  0.1559  1.6925
 2704SOL    HW219572   3.126   4.350  13.389 -0.4181 -1.5551  1.3768
 2705SOL     OW19573   1.197   0.247   8.503  0.0752 -0.1220  0.2534
 2705SOL    HW119574   1.215   0.161   8.540 -1.5095 -1.0021 -0.9767
 2705SOL    HW219575   1.249   0.239   8.423 -0.1625  0.3425  0.0503
 2706SOL     OW19576   3.658   1.940  16.535  0.1658 -0.4603 -0.1167
 2706SOL    HW119577   3.589   1.890  16.580  1.8003  0.1811  3.0940
 2706SOL    HW219578   3.721   1.928  16.606  0.2258 -1.8712 -0.3937
 2707SOL     OW19579   3.660   4.442   5.467 -0.2201 -0.7616  0.0830
 2707SOL    HW119580   3.684   4.450   5.375 -2.1094  0.0784 -0.3414
 2707SOL    HW219581   3.647   4.348   5.472  0.9434 -0.9529 -0.3718
 2708SOL     OW19582   3.447   0.109   2.998  0.2045 -0.0888  0.0640
 2708SOL    HW119583   3.354   0.095   3.010 -0.2134  1.2167 -1.6906
 2708SOL    HW219584   3.442   0.134   2.906  0.1784  0.2701  0.1654
 2709SOL     OW19585   4.623   3.557   7.608 -1.0274 -0.2114  0.3235
 2709SOL    HW119586   4.705   3.570   7.655 -0.7435 -0.6515 -0.0499
 2709SOL    HW219587   4.617   3.461   7.604  0.5476 -0.3028  0.1834
 2710SOL     OW19588   3.929   4.512   3.558  0.4489 -0.0603  0.0630
 2710SOL    HW119589   3.849   4.466   3.582  0.1138  1.1545  1.3043
 2710SOL    HW219590   3.949   4.541   3.647  0.1601 -0.6200  0.3113
 2711SOL     OW19591   3.156   0.074   7.188 -0.5095 -0.1699  0.9877
 2711SOL    HW119592   3.138   0.051   7.097 -1.3492 -0.5823  1.2613
 2711SOL    HW219593   3.211   0.002   7.221 -0.2009 -0.5500 -0.3564
 2712SOL     OW19594   4.091   1.582   8.692 -0.2227 -0.8525  0.0222
 2712SOL    HW119595   4.077   1.628   8.775  1.3813  0.0485 -0.2106
 2712SOL    HW219596   4.184   1.601   8.681 -0.1896 -0.5955  0.7310
 2713SOL     OW19597   4.621   3.298   2.387 -0.2666 -0.0561 -0.0720
 2713SOL    HW119598   4.694   3.236   2.385  0.2089  0.4145  2.2981
 2713SOL    HW219599   4.656   3.355   2.455 -0.5543 -1.1426  0.9972
 2714SOL     OW19600   3.380   0.045   4.762  0.2043  0.3261  0.2533
 2714SOL    HW119601   3.422   4.696   4.717  0.3513  0.3877  0.2936
 2714SOL    HW219602   3.323   4.719   4.821 -1.5521  0.3707 -1.3812
 2715SOL     OW19603   0.127   2.488   4.575 -0.8883 -0.0955 -0.2765
 2715SOL    HW119604   0.188   2.417   4.555  0.4664  0.6665  1.1518
 2715SOL    HW219605   0.177   2.565   4.549 -0.8848  0.6439  1.9068
 2716SOL     OW19606   3.068   1.558   8.988  0.1200 -0.4582 -0.1297
 2716SOL    HW119607   3.032   1.640   9.021 -0.2916 -1.0069  0.8043
 2716SOL    HW219608   3.156   1.582   8.961  0.3985 -1.8244 -0.4510
 2717SOL     OW19609   2.642   0.709   9.042 -0.7426 -0.3553 -0.0471
 2717SOL    HW119610   2.653   0.614   9.032 -0.8643 -0.5740  1.8633
 2717SOL    HW219611   2.565   0.711   9.098 -1.2695 -0.2059 -0.7802
 2718SOL     OW19612   3.422   1.044   1.375  0.1452  0.2922 -0.1453
 2718SOL    HW119613   3.346   1.098   1.356 -0.2530  0.0666  0.7853
 2718SOL    HW219614   3.485   1.066   1.307  2.4518  0.8361  2.1522
 2719SOL     OW19615   4.055   2.760   6.276 -0.3069 -0.4165 -0.0274
 2719SOL    HW119616   4.138   2.712   6.282  0.7653  1.3043 -1.0169
 2719SOL    HW219617   4.058   2.811   6.356  0.5104 -1.3245  0.5202
 2720SOL     OW19618   1.321   3.391   9.257 -0.7001  0.0651  0.2814
 2720SOL    HW119619   1.252   3.326   9.240  0.6885 -0.6076 -2.8012
 2720SOL    HW219620   1.368   3.342   9.324 -1.3452  0.3005  0.9049
 2721SOL     OW19621   2.479   2.826   0.973 -0.0837  0.0770  0.3325
 2721SOL    HW119622   2.436   2.832   0.888 -0.9139  1.2607  0.8345
 2721SOL    HW219623   2.425   2.889   1.021  0.0025  0.3814  0.0317
 2722SOL     OW19624   4.487   3.627  11.348 -1.0544 -0.0619  0.1070
 2722SOL    HW119625   4.452   3.692  11.410  0.4503  0.7648  0.0933
 2722SOL    HW219626   4.560   3.598  11.403 -1.6921 -0.2395  0.8704
 2723SOL     OW19627   0.814   3.713  16.356 -0.5312 -0.2256  0.1845
 2723SOL    HW119628   0.749   3.643  16.355 -0.0019 -0.7144  0.4866
 2723SOL    HW219629   0.827   3.725  16.450  0.9283 -1.1421  0.0858
 2724SOL     OW19630   4.402   0.673   9.890 -0.5493 -0.2300  0.1120
 2724SOL    HW119631   4.318   0.682   9.934 -0.7672  0.5074 -0.4568
 2724SOL    HW219632   4.382   0.736   9.821 -2.2054 -0.3296  0.5148
 2725SOL     OW19633   2.839   2.542   8.452  0.0196 -0.1272 -0.0057
 2725SOL    HW119634   2.836   2.446   8.447 -0.5173 -0.0731 -0.6303
 2725SOL    HW219635   2.870   2.563   8.540  1.3753  1.4925 -0.8450
 2726SOL     OW19636   0.406   0.206  17.194  0.7685  0.4548  0.2513
 2726SOL    HW119637   0.397   0.116  17.162  1.1130  0.3937  0.3217
 2726SOL    HW219638   0.484   0.197  17.249  1.7747  1.8930 -0.9241
 2727SOL     OW19639   2.522   0.068   1.595 -0.2365 -0.0892 -0.1168
 2727SOL    HW119640   2.533   0.006   1.667  0.1643 -0.5630 -0.5904
 2727SOL    HW219641   2.448   0.127   1.614 -0.9462 -0.7042 -0.9701
 2728SOL     OW19642   3.345   4.609   3.418  0.4418  0.1407 -0.5100
 2728SOL    HW119643   3.368   4.547   3.487 -1.0325 -0.5415 -0.6245
 2728SOL    HW219644   3.276   4.659   3.461  0.1239 -1.7408  1.1641
 2729SOL     OW19645   0.475   0.272  12.697 -0.3743 -0.0202 -0.4171
 2729SOL    HW119646   0.491   0.365  12.679 -0.2352 -0.4326 -2.3418
 2729SOL    HW219647   0.380   0.259  12.695 -0.1871 -1.3614 -0.2841
 2730SOL     OW19648   0.064   4.377  13.318 -0.0469 -0.0572  0.1785
 2730SOL    HW119649   0.158   4.367  13.330  0.0554 -0.5887 -1.0750
 2730SOL    HW219650   0.059   4.466  13.282 -1.9543  0.0661  0.7432
 2731SOL     OW19651   0.651   3.369  16.905 -0.6455  0.2343  0.4580
 2731SOL    HW119652   0.558   3.347  16.905 -0.6341  0.2163 -1.8543
 2731SOL    HW219653   0.672   3.371  16.999 -0.5316 -0.7906  0.4632
 2732SOL     OW19654   0.984   0.717  12.471 -0.1884  0.3750  0.2840
 2732SOL    HW119655   0.931   0.701  12.393  0.9923  0.6066 -0.5655
 2732SOL    HW219656   1.033   0.635  12.474  1.5492  1.4507  0.8106
 2733SOL     OW19657   0.781   1.663   3.024  0.1238 -0.2128  0.0552
 2733SOL    HW119658   0.873   1.664   3.050 -0.2426  0.1142  1.3554
 2733SOL    HW219659   0.734   1.603   3.082  0.9406 -1.2901 -0.4048
 2734SOL     OW19660   0.671   0.499   2.693  0.2345 -0.2955 -0.0396
 2734SOL    HW119661   0.754   0.545   2.702 -0.0144  0.4828 -1.7617
 2734SOL    HW219662   0.670   0.479   2.599 -0.3661  2.8276 -0.7156
 2735SOL     OW19663   3.957   4.680   3.314  0.6882  0.1335  0.2517
 2735SOL    HW119664   3.927   4.621   3.383  0.0040  0.6102  0.3641
 2735SOL    HW219665   3.927   4.633   3.237  3.0176 -2.2410  0.7959
 2736SOL     OW19666   2.481   4.043  11.567 -0.5517  0.3788 -0.2435
 2736SOL    HW119667   2.568   4.003  11.572 -0.5446  0.3835 -0.3233
 2736SOL    HW219668   2.496   4.118  11.625 -1.2076  0.9744 -0.8398
 2737SOL     OW19669   0.250   2.434   4.108 -0.0508 -0.1558  0.0953
 2737SOL    HW119670   0.161   2.466   4.125  0.7243  2.3927 -0.7361
 2737SOL    HW219671   0.284   2.506   4.054 -1.5559  1.0153  0.7113
 2738SOL     OW19672   3.086   0.219   0.860 -0.0282 -0.2677  0.1239
 2738SOL    HW119673   3.116   0.309   0.854  1.1140 -0.5320  1.9488
 2738SOL    HW219674   2.990   0.227   0.865 -0.0902 -0.8058 -0.2366
 2739SOL     OW19675   0.340   2.861   7.954  0.0817  0.2335  0.6342
 2739SOL    HW119676   0.249   2.882   7.978  0.2822  1.9907 -0.1617
 2739SOL    HW219677   0.375   2.950   7.962  0.2425  0.3937 -2.0228
 2740SOL     OW19678   2.714   3.234   8.732  0.0404  0.1085 -0.5856
 2740SOL    HW119679   2.693   3.266   8.820  0.4779 -0.5600 -0.2397
 2740SOL    HW219680   2.725   3.142   8.754  1.1896  0.0208 -1.5588
 2741SOL     OW19681   0.176   1.087   5.454 -0.2691 -0.5036  0.1961
 2741SOL    HW119682   0.168   1.158   5.517 -1.4353  1.5118 -2.2281
 2741SOL    HW219683   0.225   1.141   5.392  0.0201 -1.3279 -0.2995
 2742SOL     OW19684   3.917   3.616   4.442  0.3968 -0.1177 -0.5610
 2742SOL    HW119685   3.829   3.587   4.467 -0.2247  0.1493 -2.4730
 2742SOL    HW219686   3.959   3.608   4.528  4.0839 -0.1127 -2.3590
 2743SOL     OW19687   2.755   2.007  15.783 -0.6773 -0.7382  0.1369
 2743SOL    HW119688   2.805   1.997  15.702 -1.6812  1.1034 -0.7189
 2743SOL    HW219689   2.801   1.943  15.837 -1.4079 -0.1239  1.5115
 2744SOL     OW19690   3.116   1.549   3.304  0.0075 -0.5475  0.4656
 2744SOL    HW119691   3.023   1.570   3.313 -0.0307 -0.3655 -0.3617
 2744SOL    HW219692   3.144   1.630   3.263 -2.0725  0.6449  1.3823
 2745SOL     OW19693   0.255   2.738   9.373 -0.5559  0.2035  0.2272
 2745SOL    HW119694   0.312   2.718   9.299 -0.2133 -0.3240  0.6394
 2745SOL    HW219695   0.223   2.650   9.396 -1.0731 -0.7719 -4.0984
 2746SOL     OW19696   0.797   0.184   5.998 -0.4290  0.2897  0.4010
 2746SOL    HW119697   0.710   0.166   6.033 -0.5884  0.4152  0.0644
 2746SOL    HW219698   0.843   0.221   6.074  0.7587  0.5086 -0.4243
 2747SOL     OW19699   3.849   3.476   7.618 -0.3563  0.6269  0.2947
 2747SOL    HW119700   3.781   3.455   7.682 -0.9700  0.2529 -0.4762
 2747SOL    HW219701   3.895   3.550   7.657 -1.3528  0.8992  0.9779
 2748SOL     OW19702   2.785   3.373  11.166  0.1774 -0.8880 -0.3016
 2748SOL    HW119703   2.716   3.404  11.224  0.7918  1.8101 -1.0068
 2748SOL    HW219704   2.844   3.323  11.222  1.8451  2.0475  0.5399
 2749SOL     OW19705   0.124   4.470   2.229  0.3187 -0.6914 -0.0888
 2749SOL    HW119706   0.155   4.536   2.290  0.3708 -0.7844 -0.0143
 2749SOL    HW219707   0.045   4.434   2.270  0.2380  0.2169  0.5428
 2750SOL     OW19708   2.369   2.303   3.733  1.2129  0.2167  0.1074
 2750SOL    HW119709   2.405   2.268   3.814 -1.5450 -2.1259  0.3191
 2750SOL    HW219710   2.398   2.240   3.666 -1.3425 -2.7237  1.7459
 2751SOL     OW19711   1.638   1.495   6.840 -0.0055 -0.4480  0.2474
 2751SOL    HW119712   1.714   1.511   6.784  1.3271  0.1574  2.2349
 2751SOL    HW219713   1.596   1.422   6.793 -0.1352  0.7556 -1.5024
 2752SOL     OW19714   2.346   4.061  11.221 -0.6808 -0.6429 -0.1263
 2752SOL    HW119715   2.347   4.099  11.133  1.4229 -0.5598 -0.0611
 2752SOL    HW219716   2.314   4.138  11.268  1.0617  0.3349 -0.5430
 2753SOL     OW19717   2.355   4.201  10.985 -0.0093  0.2653 -0.5962
 2753SOL    HW119718   2.400   4.270  10.937  0.5186  0.0062 -0.4641
 2753SOL    HW219719   2.272   4.206  10.937  0.4613  1.9409 -1.2317
 2754SOL     OW19720   4.104   3.332   7.815 -0.0856  0.0235 -0.0814
 2754SOL    HW119721   4.048   3.410   7.819 -2.3603 -1.6803  1.9394
 2754SOL    HW219722   4.188   3.360   7.852 -0.5390  2.1196 -0.6901
 2755SOL     OW19723   0.554   3.375  12.004 -0.1546 -0.6294 -0.3713
 2755SOL    HW119724   0.485   3.378  12.070 -0.1095 -0.1403 -0.3492
 2755SOL    HW219725   0.538   3.461  11.964  2.5391 -0.3052 -0.7139
 2756SOL     OW19726   3.383   2.317   7.920  0.0315 -0.3844 -0.2384
 2756SOL    HW119727   3.413   2.243   7.867 -0.6671 -1.0547  0.3058
 2756SOL    HW219728   3.468   2.358   7.931  0.4484 -1.0990 -0.7891
 2757SOL     OW19729   4.298   2.912  15.378 -0.6511  0.6694 -0.1887
 2757SOL    HW119730   4.252   2.833  15.404  0.3328  0.4085  0.7353
 2757SOL    HW219731   4.353   2.923  15.455 -1.3589 -0.2901  0.4435
 2758SOL     OW19732   4.358   1.642   8.678  0.6498 -0.5158  0.2680
 2758SOL    HW119733   4.392   1.695   8.749 -1.9949 -0.9100  1.8498
 2758SOL    HW219734   4.420   1.570   8.668 -1.6023 -2.3868 -0.2532
 2759SOL     OW19735   0.120   0.197  13.734 -0.1257 -0.6826 -0.3458
 2759SOL    HW119736   0.210   0.177  13.761 -0.0318  1.0919  0.6510
 2759SOL    HW219737   0.092   0.242  13.814  0.2148 -0.3495 -0.4142
 2760SOL     OW19738   0.585   3.386   5.675  0.0975 -0.5137 -0.6977
 2760SOL    HW119739   0.652   3.395   5.607 -0.1908 -2.1353 -1.2025
 2760SOL    HW219740   0.522   3.451   5.643 -0.4393 -0.2683  0.8659
 2761SOL     OW19741   3.431   3.797  11.451 -0.1974 -0.9619 -0.4170
 2761SOL    HW119742   3.355   3.777  11.506 -1.0109 -1.0903 -1.5725
 2761SOL    HW219743   3.444   3.888  11.477  0.9169 -1.2932  0.1635
 2762SOL     OW19744   2.176   2.143   7.871  0.4756  0.5258 -0.2697
 2762SOL    HW119745   2.262   2.164   7.908  1.1491 -2.4276 -0.2099
 2762SOL    HW219746   2.185   2.165   7.778 -0.5217  0.7816 -0.3068
 2763SOL     OW19747   3.052   2.897   3.781 -0.4683  0.8369  0.4496
 2763SOL    HW119748   3.003   2.831   3.830 -0.4211  1.0149  0.7381
 2763SOL    HW219749   3.022   2.890   3.690 -0.1128  0.4640  0.3594
 2764SOL     OW19750   1.389   0.632   4.674 -0.0893 -0.1704  0.2297
 2764SOL    HW119751   1.435   0.553   4.646  0.1343  0.1201 -0.2292
 2764SOL    HW219752   1.357   0.659   4.588  0.6821  1.1857  0.3553
 2765SOL     OW19753   1.151   1.625  11.405  0.1782 -0.4317  0.3958
 2765SOL    HW119754   1.079   1.640  11.344  1.2010 -0.8201 -0.9043
 2765SOL    HW219755   1.118   1.540  11.435  2.8649 -1.0598  1.4987
 2766SOL     OW19756   0.715   2.628   6.775 -0.0517  0.2412 -0.3077
 2766SOL    HW119757   0.698   2.703   6.832 -1.7720  1.3110 -2.2003
 2766SOL    HW219758   0.756   2.570   6.838 -0.1012  1.4912  0.8792
 2767SOL     OW19759   0.878   1.693   1.989  0.5931 -0.2017  0.1887
 2767SOL    HW119760   0.880   1.627   2.059  0.4289 -0.9887 -0.5520
 2767SOL    HW219761   0.783   1.706   1.985  0.6711  0.4628  0.5809
 2768SOL     OW19762   1.533   2.854   0.138  0.3836  0.6383 -0.5182
 2768SOL    HW119763   1.533   2.806   0.221  1.2665 -1.4686 -1.7543
 2768SOL    HW219764   1.533   2.944   0.172 -0.6851  1.1342 -1.8272
 2769SOL     OW19765   3.461   1.317   4.449 -0.2729 -0.0872  0.6531
 2769SOL    HW119766   3.426   1.346   4.534 -3.2729 -0.4876 -0.4551
 2769SOL    HW219767   3.554   1.300   4.468 -0.6643 -0.3579  2.3568
 2770SOL     OW19768   3.751   2.380   7.108 -0.5459 -0.6344 -0.2192
 2770SOL    HW119769   3.663   2.350   7.087 -1.6213  2.8428 -0.6736
 2770SOL    HW219770   3.804   2.354   7.033 -0.2306 -0.3927 -0.0789
 2771SOL     OW19771   4.271   3.328   7.501 -0.5545  0.1751  0.2019
 2771SOL    HW119772   4.237   3.390   7.437  1.3512  0.5924 -0.4236
 2771SOL    HW219773   4.313   3.390   7.561 -0.6796  1.3748 -0.9663
 2772SOL     OW19774   4.724   0.154   5.588  0.1252  0.1620 -0.7416
 2772SOL    HW119775   0.032   0.205   5.513  0.0673  0.9064 -0.2507
 2772SOL    HW219776   0.087   0.130   5.617  1.2038  4.0300 -0.7808
 2773SOL     OW19777   3.016   0.188  15.200  0.0255  0.0781 -0.0858
 2773SOL    HW119778   3.059   0.262  15.242  0.9957 -1.7335  2.1735
 2773SOL    HW219779   3.084   0.124  15.225  0.5733  0.6788 -0.0338
 2774SOL     OW19780   4.493   4.331   5.004 -0.4259 -0.0557  0.2444
 2774SOL    HW119781   4.427   4.399   4.994 -0.0341  0.3022  0.0796
 2774SOL    HW219782   4.520   4.322   5.095  1.1314 -0.3911 -0.2560
 2775SOL     OW19783   0.357   1.886   2.323  0.5809 -0.3053  0.1300
 2775SOL    HW119784   0.317   1.972   2.334  2.3355  0.6416 -0.7940
 2775SOL    HW219785   0.296   1.818   2.350  1.7914 -1.2206  0.5380
 2776SOL     OW19786   3.781   0.589   6.246  0.4385  0.8663 -0.0717
 2776SOL    HW119787   3.748   0.673   6.215  0.5460  0.8214 -0.3152
 2776SOL    HW219788   3.818   0.635   6.321 -2.5716  1.1974  1.2002
 2777SOL     OW19789   1.378   3.824   0.509 -0.3303  0.0937 -0.3541
 2777SOL    HW119790   1.292   3.851   0.477 -1.2931 -0.7755  1.5054
 2777SOL    HW219791   1.412   3.764   0.442  0.9371  0.5111 -0.0923
 2778SOL     OW19792   3.313   1.167   3.537  0.1717  0.2446  0.2048
 2778SOL    HW119793   3.360   1.084   3.538  0.2376  0.2784 -0.0131
 2778SOL    HW219794   3.321   1.192   3.445  0.7734 -2.0843 -0.3732
 2779SOL     OW19795   0.043   2.227   4.936 -0.1120 -0.2185  0.5479
 2779SOL    HW119796   0.057   2.322   4.941 -2.1318  0.0935  0.1975
 2779SOL    HW219797   0.004   2.208   5.022 -1.4241 -1.0150 -0.2370
 2780SOL     OW19798   3.648   1.343   4.120 -0.3734 -0.2782 -0.1581
 2780SOL    HW119799   3.638   1.296   4.038  1.1158 -2.1256  0.7170
 2780SOL    HW219800   3.569   1.395   4.130  0.4756  1.0765 -0.5604
 2781SOL     OW19801   4.215   3.902  17.090 -0.3981 -0.1151 -0.4659
 2781SOL    HW119802   4.170   3.933  17.169 -1.1731  0.4317 -1.1228
 2781SOL    HW219803   4.293   3.957  17.088  0.9085 -1.9485 -0.0816
 2782SOL     OW19804   4.509   3.953   1.317 -0.4060 -0.4059  0.6335
 2782SOL    HW119805   4.471   3.869   1.293 -1.5647  0.4625 -0.5263
 2782SOL    HW219806   4.436   3.995   1.362 -0.3656  2.0951 -1.6685
 2783SOL     OW19807   3.420   1.193   1.639 -0.2003 -0.5289  0.1110
 2783SOL    HW119808   3.434   1.135   1.564 -2.7114  1.4088 -1.8681
 2783SOL    HW219809   3.400   1.272   1.589 -0.1466 -1.3689 -1.2286
 2784SOL     OW19810   0.863   2.600   8.641  0.0346  0.2865  0.6023
 2784SOL    HW119811   0.957   2.588   8.658  0.4897 -1.1220 -2.8321
 2784SOL    HW219812   0.851   2.688   8.678 -1.1179  0.3755  0.0159
 2785SOL     OW19813   4.259   4.087   6.627 -0.2683 -0.1799 -0.9436
 2785SOL    HW119814   4.205   4.020   6.668 -1.4189 -0.5939 -3.1235
 2785SOL    HW219815   4.258   4.070   6.533 -0.6013 -0.4960 -0.8831
 2786SOL     OW19816   1.008   1.324   0.785 -0.2746 -0.4816 -0.4587
 2786SOL    HW119817   0.913   1.323   0.788 -0.2284  0.9807  1.5954
 2786SOL    HW219818   1.026   1.292   0.696  0.4475 -0.1486 -0.4316
 2787SOL     OW19819   4.617   4.169   0.894  0.3561 -0.1683 -0.5303
 2787SOL    HW119820   4.709   4.196   0.883  0.1137 -0.0712 -2.2646
 2787SOL    HW219821   4.594   4.235   0.959 -0.4533  1.4516 -2.4397
 2788SOL     OW19822   0.482   1.092   3.681  0.4869 -0.1815 -0.5017
 2788SOL    HW119823   0.424   1.114   3.753 -0.8287  0.6057 -1.8024
 2788SOL    HW219824   0.462   1.164   3.621 -1.1275  0.1849  0.4908
 2789SOL     OW19825   0.198   2.617   7.357  0.6373 -0.0597 -0.0829
 2789SOL    HW119826   0.180   2.560   7.282 -1.5660  0.9016 -0.2956
 2789SOL    HW219827   0.172   2.553   7.423  0.3948  2.2387  2.0822
 2790SOL     OW19828   1.947   2.912   2.956 -0.0007 -0.0174 -0.2483
 2790SOL    HW119829   1.910   2.835   2.999 -0.1135 -0.6099 -1.3992
 2790SOL    HW219830   1.921   2.879   2.870 -1.8948  2.8179 -0.7662
 2791SOL     OW19831   2.568   2.165   9.129 -0.2585  0.1475 -0.0064
 2791SOL    HW119832   2.559   2.258   9.108 -0.0606  0.0944 -0.3154
 2791SOL    HW219833   2.480   2.141   9.101 -1.0432  1.9285  0.8694
 2792SOL     OW19834   1.042   1.114   3.242 -0.1480  0.2401  0.2528
 2792SOL    HW119835   1.076   1.150   3.323  0.6591 -1.6878  0.7684
 2792SOL    HW219836   1.036   1.021   3.267  1.4251  0.1069  0.1549
 2793SOL     OW19837   4.307   0.911   1.476  0.5991  0.2044  0.2969
 2793SOL    HW119838   4.360   0.853   1.422  2.0024  1.2431  0.5391
 2793SOL    HW219839   4.221   0.897   1.437 -0.3929  1.9994  1.8523
 2794SOL     OW19840   2.820   0.523   1.345 -0.0799  0.2668 -0.7318
 2794SOL    HW119841   2.822   0.454   1.412  2.2057  0.0593 -1.0126
 2794SOL    HW219842   2.911   0.518   1.316 -0.3250  0.9068 -1.5955
 2795SOL     OW19843   4.052   2.729   0.743  0.2589 -0.2399  0.3185
 2795SOL    HW119844   4.073   2.799   0.681  1.8186 -0.6237  0.4079
 2795SOL    HW219845   4.069   2.772   0.828  1.3972 -0.0020 -0.0250
 2796SOL     OW19846   0.207   3.961   9.715 -0.0323 -0.1050  0.8702
 2796SOL    HW119847   0.157   4.034   9.678  1.1882  0.4067  0.2055
 2796SOL    HW219848   0.147   3.928   9.781  1.2474  0.3867  2.2933
 2797SOL     OW19849   2.393   0.448   1.041  0.0754 -0.2500  0.2661
 2797SOL    HW119850   2.398   0.430   0.947 -2.0280  0.8381 -0.0426
 2797SOL    HW219851   2.472   0.401   1.067 -0.0284 -1.1003 -0.9078
 2798SOL     OW19852   1.016   0.299  12.335  0.0502 -0.1570 -0.0155
 2798SOL    HW119853   0.956   0.310  12.409  0.6781 -0.9730  0.6270
 2798SOL    HW219854   0.959   0.329  12.264 -0.6757 -0.3048  0.5034
 2799SOL     OW19855   3.656   2.806  10.186  0.0800  0.0283  0.4430
 2799SOL    HW119856   3.640   2.851  10.269 -0.0654  0.0053  0.4272
 2799SOL    HW219857   3.729   2.855  10.149  0.3415 -1.0211 -0.4464
 2800SOL     OW19858   1.421   2.731   8.491  0.2270 -0.4811 -0.0522
 2800SOL    HW119859   1.513   2.708   8.483  0.8889  1.6372  1.1462
 2800SOL    HW219860   1.395   2.709   8.580  0.1886 -1.0598 -0.2120
 2801SOL     OW19861   0.518   0.202   6.077  0.2221  0.3779 -0.4351
 2801SOL    HW119862   0.513   0.297   6.079  0.7530  0.4060 -0.1740
 2801SOL    HW219863   0.442   0.173   6.027 -0.7598 -0.8241  1.7423
 2802SOL     OW19864   4.576   2.834  16.734 -0.1925 -0.0418  0.6757
 2802SOL    HW119865   4.505   2.873  16.684 -0.5987  0.1901  1.4343
 2802SOL    HW219866   4.617   2.906  16.781  1.3713 -0.4126 -0.1431
 2803SOL     OW19867   1.338   3.108   2.475 -0.0855  0.1510  0.4610
 2803SOL    HW119868   1.262   3.129   2.420 -0.3260 -0.3708  0.5948
 2803SOL    HW219869   1.358   3.191   2.518  0.9477 -0.7226  1.6597
 2804SOL     OW19870   4.586   4.193   3.337  0.1195  0.5296 -0.0729
 2804SOL    HW119871   4.655   4.161   3.278  1.2018 -0.6973  1.8726
 2804SOL    HW219872   4.578   4.282   3.303 -1.2244  0.6488  0.5699
 2805SOL     OW19873   0.780   1.897   3.415 -0.0914 -0.0029  0.1520
 2805SOL    HW119874   0.743   1.934   3.335  0.2380 -1.8854 -0.8629
 2805SOL    HW219875   0.762   1.963   3.482  0.2208 -0.0201  0.2515
 2806SOL     OW19876   0.252   1.756  14.245  0.0815 -0.0849 -0.5914
 2806SOL    HW119877   0.228   1.663  14.253 -0.1277  0.2890  3.3257
 2806SOL    HW219878   0.272   1.762  14.152  2.7129 -0.1809 -0.0338
 2807SOL     OW19879   1.832   2.137   3.733  0.0538 -0.0358  0.2436
 2807SOL    HW119880   1.926   2.117   3.731 -0.1154 -1.3076  5.5387
 2807SOL    HW219881   1.840   2.215   3.678  0.5890 -0.2830 -0.0322
 2808SOL     OW19882   1.521   4.281   8.021  0.2579  0.0551  0.6138
 2808SOL    HW119883   1.534   4.192   7.987 -2.0752 -0.2314  0.4941
 2808SOL    HW219884   1.426   4.283   8.016  0.2241  1.3836  1.7302
 2809SOL     OW19885   0.197   4.546   9.133  0.1911  0.2535  0.3194
 2809SOL    HW119886   0.144   4.471   9.105 -0.1268  0.3356  0.7048
 2809SOL    HW219887   0.261   4.554   9.063 -0.0251 -2.0146 -0.1228
 2810SOL     OW19888   2.688   1.784   8.869  0.7386  0.4423  0.9615
 2810SOL    HW119889   2.762   1.837   8.839  0.7007 -0.7322 -1.2415
 2810SOL    HW219890   2.690   1.795   8.964  2.0106  1.1257  0.8469
 2811SOL     OW19891   3.593   2.656   5.893  0.3814 -0.6873  0.3012
 2811SOL    HW119892   3.569   2.712   5.819 -0.5498  1.0555  1.9266
 2811SOL    HW219893   3.687   2.649   5.873  0.4832  2.0325 -0.1017
 2812SOL     OW19894   2.080   2.165   6.362  0.3396  0.3933  0.1366
 2812SOL    HW119895   2.054   2.140   6.273  0.8088  3.7723 -0.9657
 2812SOL    HW219896   2.062   2.087   6.414 -1.3258 -0.2992 -1.4886
 2813SOL     OW19897   4.353   4.248   4.436  1.0196 -0.2154 -0.6995
 2813SOL    HW119898   4.428   4.304   4.416  2.0134 -0.3696  2.6517
 2813SOL    HW219899   4.345   4.277   4.527  1.5281 -2.7853  0.1622
 2814SOL     OW19900   4.037   2.671  15.870  0.5339  0.2568 -0.2161
 2814SOL    HW119901   3.953   2.641  15.836  0.0298  1.1015  0.2728
 2814SOL    HW219902   4.092   2.671  15.791 -2.4761  0.1856 -2.3010
 2815SOL     OW19903   2.705   1.117   5.331 -0.3577 -0.4304 -0.0095
 2815SOL    HW119904   2.676   1.054   5.397 -1.5023 -0.7140 -0.7785
 2815SOL    HW219905   2.775   1.063   5.294 -1.4269 -0.9334 -1.3175
 2816SOL     OW19906   4.188   4.243   2.581  0.5342 -0.0973  0.4553
 2816SOL    HW119907   4.171   4.300   2.506 -1.9969 -0.3137  0.8604
 2816SOL    HW219908   4.277   4.270   2.604 -1.1899  2.3598  4.2610
 2817SOL     OW19909   1.220   4.219   7.784  0.0514 -0.3604  1.2105
 2817SOL    HW119910   1.165   4.185   7.855  0.8402 -3.4629  0.3486
 2817SOL    HW219911   1.233   4.145   7.725  0.1852  0.8355 -0.2344
 2818SOL     OW19912   1.386   3.794   3.582  0.3058 -0.6123 -0.0509
 2818SOL    HW119913   1.372   3.879   3.624 -0.2381 -1.5609  1.7316
 2818SOL    HW219914   1.330   3.805   3.506  1.7252 -0.2127 -1.0280
 2819SOL     OW19915   1.716   4.266   6.610 -0.1580 -0.0130  0.2111
 2819SOL    HW119916   1.735   4.360   6.605  0.0040 -0.0823 -0.6164
 2819SOL    HW219917   1.763   4.260   6.693  1.9201 -0.4492 -0.9997
 2820SOL     OW19918   1.764   4.167   9.229  0.2045  0.5613  0.0778
 2820SOL    HW119919   1.832   4.196   9.168  1.5754  0.7420  1.6884
 2820SOL    HW219920   1.691   4.169   9.168  0.0596 -0.7811  0.2245
 2821SOL     OW19921   0.455   0.451   6.156 -0.7721 -0.3165  0.0469
 2821SOL    HW119922   0.378   0.475   6.209 -1.6869  0.0431 -1.4525
 2821SOL    HW219923   0.429   0.493   6.074  0.8578 -0.5274 -0.5848
 2822SOL     OW19924   4.135   0.281  17.323  0.1322  0.0570  0.5890
 2822SOL    HW119925   4.055   0.334  17.316  0.4107  0.1494 -1.8642
 2822SOL    HW219926   4.127   0.247  17.412 -0.2730 -0.4408  0.3656
 2823SOL     OW19927   2.136   0.554   6.523 -0.1382 -0.1821  0.2455
 2823SOL    HW119928   2.201   0.488   6.503  0.1461 -0.0032  0.5809
 2823SOL    HW219929   2.194   0.607   6.577 -0.7136 -0.7404  1.4076
 2824SOL     OW19930   1.653   2.993   1.916 -0.1719 -0.4185  0.1718
 2824SOL    HW119931   1.638   3.076   1.871  0.8912  0.1777  0.9112
 2824SOL    HW219932   1.575   2.940   1.900 -0.1602 -0.3834  0.0030
 2825SOL     OW19933   0.677   1.709   7.350  0.4990 -0.2951  0.1405
 2825SOL    HW119934   0.755   1.760   7.328  0.1357  0.3684  0.3918
 2825SOL    HW219935   0.701   1.665   7.432 -2.0334  0.0930  1.0880
 2826SOL     OW19936   4.162   3.312   9.206  0.1549 -0.1964  0.1468
 2826SOL    HW119937   4.219   3.303   9.282  1.7306  3.0004 -0.6669
 2826SOL    HW219938   4.086   3.341   9.257 -1.0869 -1.3047 -1.0626
 2827SOL     OW19939   2.456   4.028   8.103 -0.0024 -0.3700 -0.3532
 2827SOL    HW119940   2.375   3.987   8.134  0.3998 -0.0742  1.0905
 2827SOL    HW219941   2.425   4.116   8.082  0.3076  0.5005  2.8631
 2828SOL     OW19942   3.062   4.321   8.620  0.2481 -0.4087 -0.2691
 2828SOL    HW119943   3.055   4.403   8.668  0.6531 -0.7355  0.3556
 2828SOL    HW219944   2.976   4.308   8.581  0.0647  0.8245 -0.2762
 2829SOL     OW19945   0.113   1.740   6.821 -0.0333  0.1435 -0.0139
 2829SOL    HW119946   0.147   1.695   6.898 -1.7660 -1.8107 -0.3907
 2829SOL    HW219947   0.155   1.690   6.751 -1.5345 -0.9609 -0.1306
 2830SOL     OW19948   0.651   3.921   5.688 -0.2509 -0.1770  0.3505
 2830SOL    HW119949   0.663   3.835   5.649  0.6417  0.6380 -1.1624
 2830SOL    HW219950   0.576   3.949   5.635 -0.6883  2.8731  2.5472
 2831SOL     OW19951   3.542   3.512   9.540 -0.4527 -0.3021 -0.4272
 2831SOL    HW119952   3.464   3.481   9.494 -0.7273 -0.7823  0.3708
 2831SOL    HW219953   3.498   3.536   9.622  1.9231  1.5938  0.3005
 2832SOL     OW19954   2.754   2.801  15.119  0.2729  0.0041 -0.4214
 2832SOL    HW119955   2.735   2.719  15.074  0.1946  0.9430 -2.1108
 2832SOL    HW219956   2.670   2.847  15.121 -0.3384 -1.1486  0.7159
 2833SOL     OW19957   0.514   1.375   7.431  0.0866  0.1135 -0.7388
 2833SOL    HW119958   0.573   1.438   7.472 -0.4836  0.4906 -0.4968
 2833SOL    HW219959   0.514   1.297   7.487  1.2055  1.5952  1.3349
 2834SOL     OW19960   2.402   2.495   3.989  0.2298  0.2850 -0.1220
 2834SOL    HW119961   2.357   2.436   4.050  2.8577  3.0904  4.5432
 2834SOL    HW219962   2.479   2.528   4.036 -0.9769  0.4452  1.7580
 2835SOL     OW19963   4.018   0.141  16.527 -0.1687 -0.1685 -0.1375
 2835SOL    HW119964   4.092   0.106  16.577 -0.0573 -1.0576 -0.9187
 2835SOL    HW219965   4.003   0.223  16.574  0.5498  0.5229 -1.1369
 2836SOL     OW19966   2.971   3.986   6.776  0.7700 -0.1489  0.3918
 2836SOL    HW119967   3.042   3.997   6.840  1.1348  0.0069 -0.0374
 2836SOL    HW219968   3.023   4.005   6.698  1.2715  0.5548  0.8979
 2837SOL     OW19969   3.281   1.153   4.334  0.1113 -0.4256 -0.6388
 2837SOL    HW119970   3.333   1.221   4.378  1.4699 -0.4131 -2.2794
 2837SOL    HW219971   3.273   1.092   4.407 -0.1827 -0.0716 -0.3757
 2838SOL     OW19972   1.231   3.393   9.612 -0.2681 -0.3150  0.2105
 2838SOL    HW119973   1.315   3.389   9.567 -1.0348 -0.3188 -1.2330
 2838SOL    HW219974   1.233   3.311   9.661  0.7937  1.0073  2.4056
 2839SOL     OW19975   2.559   2.944   6.923  0.0150 -0.5230 -0.5599
 2839SOL    HW119976   2.530   2.902   7.004  0.1369  2.0082  0.7609
 2839SOL    HW219977   2.653   2.944   6.939 -0.4205 -0.8393  1.9613
 2840SOL     OW19978   0.130   1.123   3.223  0.7276 -0.4920 -0.4777
 2840SOL    HW119979   0.166   1.203   3.262  2.5909 -1.5729 -0.0003
 2840SOL    HW219980   0.045   1.113   3.267  1.5706 -0.7075  1.0879
 2841SOL     OW19981   0.259   0.293   1.345 -0.2305  0.0611  0.3179
 2841SOL    HW119982   0.200   0.313   1.417  1.1777 -0.6891  1.6847
 2841SOL    HW219983   0.196   0.310   1.275  2.3613 -1.2194 -2.3608
 2842SOL     OW19984   3.591   1.422   7.957 -0.2541 -0.0549 -0.1991
 2842SOL    HW119985   3.596   1.328   7.939 -0.2853 -0.0771 -0.0898
 2842SOL    HW219986   3.682   1.453   7.956 -1.0396  2.2263 -2.2300
 2843SOL     OW19987   3.486   2.292  13.629 -0.0529  0.1698  0.3059
 2843SOL    HW119988   3.452   2.202  13.630 -0.5611  0.3248 -3.0360
 2843SOL    HW219989   3.456   2.319  13.542 -1.2268 -2.3653 -0.0848
 2844SOL     OW19990   1.816   0.640  17.283 -0.3921  0.0515  0.0891
 2844SOL    HW119991   1.806   0.561  17.337  1.9354 -0.6005 -0.4470
 2844SOL    HW219992   1.752   0.618  17.216  0.9357 -2.6887 -0.2668
 2845SOL     OW19993   3.445   0.563   7.086  0.7397 -0.4037  0.1220
 2845SOL    HW119994   3.445   0.644   7.136 -2.7054 -0.0742 -0.4094
 2845SOL    HW219995   3.501   0.591   7.014 -1.9111  2.0135 -0.9588
 2846SOL     OW19996   3.327   0.940   9.672  0.7208 -0.1223 -0.5809
 2846SOL    HW119997   3.276   0.863   9.697  1.7787 -1.8972 -3.8623
 2846SOL    HW219998   3.358   0.979   9.753 -1.5760  5.1111 -2.2134
 2847SOL     OW19999   2.818   0.712   6.910 -0.3136 -0.3414  0.5567
 2847SOL    HW120000   2.904   0.712   6.869  0.1764 -2.5297  1.6070
 2847SOL    HW220001   2.840   0.714   7.003 -0.7466  2.2629  0.5880
 2848SOL     OW20002   0.181   1.697   3.645 -0.6862 -0.1208 -0.3040
 2848SOL    HW120003   0.150   1.650   3.722  2.7400 -0.1914  1.0346
 2848SOL    HW220004   0.105   1.677   3.590 -0.2704  2.3251 -1.8053
 2849SOL     OW20005   2.140   3.566   3.440  0.4698 -0.2402  0.2079
 2849SOL    HW120006   2.231   3.578   3.464  0.1166 -1.6075  2.1955
 2849SOL    HW220007   2.153   3.545   3.347 -0.9242 -1.5458  0.2998
 2850SOL     OW20008   4.154   3.359   6.600 -0.3170  0.1097 -0.1918
 2850SOL    HW120009   4.100   3.421   6.650 -0.8427 -0.8766  0.4684
 2850SOL    HW220010   4.243   3.394   6.605  0.4475 -1.7234 -1.0614
 2851SOL     OW20011   2.062   1.198   0.489 -0.2364 -0.8742 -0.0883
 2851SOL    HW120012   2.108   1.214   0.571 -0.0996 -2.2626  0.1023
 2851SOL    HW220013   1.990   1.139   0.511  0.8739 -2.3063 -0.3440
 2852SOL     OW20014   2.938   1.969   1.920  0.6348 -0.3231 -0.1096
 2852SOL    HW120015   2.931   1.999   2.011  0.0712  0.2195 -0.3354
 2852SOL    HW220016   2.945   2.051   1.872 -1.0091 -0.6976 -0.9911
 2853SOL     OW20017   4.054   1.595   4.448 -0.7096  0.0074 -0.0790
 2853SOL    HW120018   4.066   1.512   4.402 -4.0589 -0.5095 -0.0234
 2853SOL    HW220019   4.043   1.568   4.540  1.3295  2.6091  0.9430
 2854SOL     OW20020   3.370   0.609   4.861 -0.2965  0.4027  0.4002
 2854SOL    HW120021   3.339   0.684   4.912  1.3124  0.1594  1.7053
 2854SOL    HW220022   3.432   0.563   4.917 -0.0203  0.8341  0.4463
 2855SOL     OW20023   1.587   0.954  10.291 -0.1420  0.2483  0.0477
 2855SOL    HW120024   1.619   1.021  10.231  0.7419 -0.7853 -0.6374
 2855SOL    HW220025   1.632   0.982  10.370 -1.1675 -1.8265  1.3630
 2856SOL     OW20026   3.390   2.492  16.022  0.4698 -0.3766 -0.5477
 2856SOL    HW120027   3.302   2.478  15.988  0.2040 -1.3518  0.5472
 2856SOL    HW220028   3.369   2.507  16.114  0.4304  0.6995 -0.7252
 2857SOL     OW20029   4.304   1.853  10.697  0.5353  0.0833  0.1211
 2857SOL    HW120030   4.245   1.797  10.748 -0.8747  3.2776  2.0231
 2857SOL    HW220031   4.260   1.937  10.708 -0.8206 -0.6064  0.0137
 2858SOL     OW20032   3.986   0.031   1.531 -0.0209 -0.3779  0.1856
 2858SOL    HW120033   3.904   0.048   1.577 -0.1414 -0.8411  0.1357
 2858SOL    HW220034   3.954   0.041   1.442  1.6197 -0.7999 -0.4500
 2859SOL     OW20035   1.359   0.325  16.327 -0.1211  0.0391 -0.4706
 2859SOL    HW120036   1.418   0.258  16.360 -0.6419  0.6478  1.6792
 2859SOL    HW220037   1.322   0.369  16.403 -0.7000  1.1511 -1.3925
 2860SOL     OW20038   0.552   0.008   6.323  0.2074  0.7761 -0.1225
 2860SOL    HW120039   0.611   4.681   6.267 -0.5216 -0.1130 -0.0735
 2860SOL    HW220040   0.565   0.094   6.285  0.1259  0.1634 -1.5355
 2861SOL     OW20041   3.890   4.267   3.167  0.2004  0.0301  0.3893
 2861SOL    HW120042   3.909   4.188   3.116 -2.1273  0.8616 -1.7692
 2861SOL    HW220043   3.797   4.253   3.185  0.5995 -1.6714  1.0834
 2862SOL     OW20044   3.307   0.863   0.999  0.0238  0.0643 -0.2540
 2862SOL    HW120045   3.289   0.905   0.915 -1.1821 -2.0946 -1.1044
 2862SOL    HW220046   3.241   0.910   1.051 -3.1157 -0.7648 -3.5066
 2863SOL     OW20047   0.901   2.947  12.284  0.1315 -0.4646  0.4563
 2863SOL    HW120048   0.856   2.863  12.285 -0.0524 -0.3754 -1.2407
 2863SOL    HW220049   0.878   2.975  12.373 -1.6135  0.8731 -0.3933
 2864SOL     OW20050   0.996   2.886   3.060  0.1261 -0.0357  0.8956
 2864SOL    HW120051   0.986   2.840   2.977 -0.6409  2.3340 -0.3250
 2864SOL    HW220052   0.953   2.967   3.032 -0.9267 -1.6236 -2.1087
 2865SOL     OW20053   3.817   1.368   7.017 -0.0787 -0.2203 -0.6368
 2865SOL    HW120054   3.843   1.346   6.927  0.7276  2.3040 -1.0298
 2865SOL    HW220055   3.724   1.388   7.005 -0.2455  0.0312  1.0735
 2866SOL     OW20056   4.156   3.343  15.817 -0.1752  0.0490  1.0751
 2866SOL    HW120057   4.080   3.352  15.875 -0.8838  1.9398 -0.1652
 2866SOL    HW220058   4.122   3.382  15.736 -0.8688  0.2575  1.4695
 2867SOL     OW20059   3.989   3.101   7.353  0.1872  0.1345  0.1112
 2867SOL    HW120060   4.004   3.023   7.299 -2.1238 -0.6507  0.5886
 2867SOL    HW220061   3.972   3.164   7.283  2.2996  0.8105  0.2060
 2868SOL     OW20062   0.380   0.611   5.582  0.5955 -0.0372 -0.1864
 2868SOL    HW120063   0.294   0.591   5.619 -0.7542  3.2459 -1.6608
 2868SOL    HW220064   0.424   0.653   5.656 -1.0320  0.7381  0.3308
 2869SOL     OW20065   4.142   0.746  16.559  0.1961  0.0101  0.2132
 2869SOL    HW120066   4.093   0.807  16.615  1.3459  1.7983 -0.7727
 2869SOL    HW220067   4.083   0.672  16.579 -0.6511  0.5083 -0.4218
 2870SOL     OW20068   2.824   0.532   5.815 -0.4007 -0.0855  0.0541
 2870SOL    HW120069   2.796   0.516   5.905 -0.4055  2.0943  0.4558
 2870SOL    HW220070   2.810   0.627   5.818  0.3700  0.0363 -0.1557
 2871SOL     OW20071   2.449   0.616  16.221 -0.5423 -0.0234 -0.4015
 2871SOL    HW120072   2.377   0.668  16.257  0.2146 -0.3957  1.6471
 2871SOL    HW220073   2.442   0.660  16.136  1.5580 -1.9158 -1.5332
 2872SOL     OW20074   3.127   0.116  11.614 -0.0936  0.0300  0.0281
 2872SOL    HW120075   3.045   0.083  11.579  1.0408 -1.0130 -1.6691
 2872SOL    HW220076   3.193   0.090  11.550  1.4288 -0.9999  2.0062
 2873SOL     OW20077   1.000   3.581  13.314  0.2129  0.1454  0.2748
 2873SOL    HW120078   0.905   3.577  13.322  0.3627  0.5613  2.1694
 2873SOL    HW220079   1.016   3.648  13.248  0.9977 -0.2487  0.0651
 2874SOL     OW20080   4.676   2.043   3.680 -0.5062  0.1627 -0.0245
 2874SOL    HW120081   4.657   2.039   3.586 -2.8069  2.4867  0.3429
 2874SOL    HW220082   0.010   1.967   3.681 -0.1101  0.4904  1.1743
 2875SOL     OW20083   2.431   0.113  17.548  0.3636 -0.1059 -0.1555
 2875SOL    HW120084   2.476   0.057  17.612 -0.1177 -1.1521 -0.7156
 2875SOL    HW220085   2.418   0.048  17.479  2.9818  1.6235 -2.2256
 2876SOL     OW20086   1.460   3.246  16.933  0.5039  0.1305 -0.1918
 2876SOL    HW120087   1.391   3.311  16.941 -0.8591 -1.1801 -1.3955
 2876SOL    HW220088   1.432   3.169  16.983  1.6153 -0.6410 -0.7346
 2877SOL     OW20089   0.857   1.163  16.284  0.2632  0.4044  0.0654
 2877SOL    HW120090   0.939   1.117  16.264 -0.9569 -1.7237 -0.0587
 2877SOL    HW220091   0.803   1.118  16.218  0.8217  0.7559 -0.6303
 2878SOL     OW20092   4.349   3.589   3.479 -0.1988  0.4973 -0.1254
 2878SOL    HW120093   4.359   3.578   3.385  1.5868 -1.1056  0.2472
 2878SOL    HW220094   4.329   3.683   3.484 -1.1874  0.2135  1.3949
 2879SOL     OW20095   2.509   0.390   1.475 -0.1049 -0.1983 -0.4830
 2879SOL    HW120096   2.443   0.453   1.504  0.8339  0.6073 -0.1056
 2879SOL    HW220097   2.565   0.391   1.553  1.7949  0.5810 -1.8639
 2880SOL     OW20098   4.156   4.060  16.315 -0.2434 -0.1643 -0.0666
 2880SOL    HW120099   4.153   3.977  16.268 -0.6609 -0.6904  0.8737
 2880SOL    HW220100   4.063   4.083  16.314 -0.4612 -1.0302  0.2334
 2881SOL     OW20101   1.909   1.849   5.650 -0.2200  0.0304  0.3482
 2881SOL    HW120102   1.878   1.836   5.739  1.3701  1.5673  1.1302
 2881SOL    HW220103   1.974   1.919   5.655 -0.3293  0.1870 -0.3510
 2882SOL     OW20104   2.260   0.393   5.320  0.3102  0.8067 -0.0450
 2882SOL    HW120105   2.346   0.405   5.279  0.6028  0.2141  0.3916
 2882SOL    HW220106   2.207   0.389   5.240  0.4722  0.5867 -0.1417
 2883SOL     OW20107   2.265   2.189   9.031  0.0727  0.2146  0.3073
 2883SOL    HW120108   2.219   2.106   9.015 -0.3798 -0.0067  2.8060
 2883SOL    HW220109   2.212   2.239   9.093  0.1491 -0.0513  0.5844
 2884SOL     OW20110   1.741   0.617   8.774 -0.3675 -0.0870 -0.3405
 2884SOL    HW120111   1.835   0.631   8.765 -0.6009  0.8939 -1.2242
 2884SOL    HW220112   1.723   0.523   8.774  0.3662 -0.2293  0.1460
 2885SOL     OW20113   4.471   2.252   6.657 -0.5303  0.0826 -1.0296
 2885SOL    HW120114   4.517   2.336   6.664  1.0544 -0.9197  0.7419
 2885SOL    HW220115   4.504   2.213   6.576  1.4056  0.2388 -0.3360
 2886SOL     OW20116   0.405   0.293   7.281 -0.1031  0.1248  0.1428
 2886SOL    HW120117   0.415   0.377   7.236 -0.1478 -0.7829 -1.5506
 2886SOL    HW220118   0.480   0.244   7.248  0.7899  1.5679 -0.0121
 2887SOL     OW20119   3.326   0.545   9.549 -0.6032 -0.2184 -0.7886
 2887SOL    HW120120   3.410   0.503   9.528 -1.1215 -0.5527 -2.1950
 2887SOL    HW220121   3.299   0.498   9.628  0.4803 -1.2713 -1.0465
 2888SOL     OW20122   4.210   3.531   3.737 -0.2714 -0.4120 -1.1526
 2888SOL    HW120123   4.132   3.586   3.734 -0.1591 -0.2130 -0.4652
 2888SOL    HW220124   4.243   3.552   3.649 -0.8068 -0.3711 -1.3431
 2889SOL     OW20125   3.034   1.981   4.457 -0.3948 -0.6449 -0.7099
 2889SOL    HW120126   2.940   1.995   4.456 -0.6238 -2.1396 -0.3679
 2889SOL    HW220127   3.040   1.891   4.490 -0.0817 -0.0423  0.8830
 2890SOL     OW20128   2.419   3.620   9.909 -0.1069  0.4837 -0.0255
 2890SOL    HW120129   2.429   3.698   9.854  1.9555  1.5806  1.8979
 2890SOL    HW220130   2.510   3.597   9.929 -0.3342  1.5558  2.2675
 2891SOL     OW20131   0.634   1.825   2.210 -0.2363  0.5824 -0.2185
 2891SOL    HW120132   0.702   1.881   2.246 -0.0048 -1.1751  2.0637
 2891SOL    HW220133   0.565   1.889   2.228 -1.2175 -0.5234 -0.0482
 2892SOL     OW20134   2.141   3.379   2.894  0.0126  0.6608  0.1154
 2892SOL    HW120135   2.223   3.344   2.928 -1.3453 -3.2959 -0.7620
 2892SOL    HW220136   2.085   3.317   2.940  1.1981 -1.5576 -1.4562
 2893SOL     OW20137   2.485   4.016   9.072  0.2997  0.0536 -0.2977
 2893SOL    HW120138   2.524   4.102   9.056  0.5867 -0.2121 -1.0047
 2893SOL    HW220139   2.502   4.007   9.166  2.5492 -1.7290 -0.8756
 2894SOL     OW20140   0.206   1.403   9.470  0.3041 -0.0118 -0.7532
 2894SOL    HW120141   0.136   1.376   9.529  0.7204  2.8517  1.0377
 2894SOL    HW220142   0.234   1.317   9.436 -0.0082 -0.1956 -0.5454
 2895SOL     OW20143   2.089   1.250   6.356 -0.3408 -0.2062  0.2936
 2895SOL    HW120144   2.183   1.250   6.341  0.1016  1.1022  3.1231
 2895SOL    HW220145   2.087   1.171   6.409 -1.7718 -0.9730 -0.8733
 2896SOL     OW20146   0.068   4.105  12.035 -0.1517 -0.3008  0.3519
 2896SOL    HW120147   0.110   4.020  12.023 -0.4312 -0.1346 -1.8386
 2896SOL    HW220148   0.094   4.123  12.125 -0.5826  2.3705 -0.0531
 2897SOL     OW20149   0.314   1.105   9.267 -0.2536  0.1849  0.0577
 2897SOL    HW120150   0.334   1.186   9.220  0.4676  1.8389  3.1782
 2897SOL    HW220151   0.250   1.078   9.201 -0.3615  0.7197 -0.0566
 2898SOL     OW20152   4.521   3.315   6.089 -0.4364 -0.0590  0.0957
 2898SOL    HW120153   4.576   3.291   6.164 -0.0952  1.2361  0.2612
 2898SOL    HW220154   4.574   3.384   6.048 -0.0227 -1.0973 -1.1257
 2899SOL     OW20155   0.137   1.076   2.594 -0.1604  0.3333  0.4072
 2899SOL    HW120156   0.218   1.066   2.642  1.2375 -0.4120 -2.1030
 2899SOL    HW220157   0.145   1.167   2.566  0.3789 -0.1121 -0.8886
 2900SOL     OW20158   4.169   3.582   5.658  0.4920 -0.1041 -0.4829
 2900SOL    HW120159   4.143   3.627   5.739 -1.7803 -0.9810 -0.7311
 2900SOL    HW220160   4.145   3.655   5.601 -3.6947 -0.3025  1.0319
 2901SOL     OW20161   2.877   3.454   2.905 -0.1644  0.0469  0.2071
 2901SOL    HW120162   2.890   3.543   2.874 -0.4008 -0.0122 -0.0605
 2901SOL    HW220163   2.787   3.462   2.938 -0.6477 -1.3767 -0.7506
 2902SOL     OW20164   1.513   0.216  13.224 -0.1367 -0.2326  0.1061
 2902SOL    HW120165   1.454   0.145  13.248 -0.1775 -0.3871 -0.4478
 2902SOL    HW220166   1.471   0.254  13.147 -0.9911 -0.0790  0.6576
 2903SOL     OW20167   2.387   1.249   1.106 -0.1270  1.0403  0.5300
 2903SOL    HW120168   2.467   1.232   1.057 -0.8450  2.0001 -1.0012
 2903SOL    HW220169   2.362   1.164   1.143  0.5433  0.8695  0.5751
 2904SOL     OW20170   3.293   1.582   2.594  0.2002  0.0518 -0.0123
 2904SOL    HW120171   3.345   1.504   2.574 -0.8813 -1.4047  2.9189
 2904SOL    HW220172   3.217   1.562   2.540 -0.5426  1.5827  0.4679
 2905SOL     OW20173   1.569   0.968   4.293 -0.1980  0.0103  1.1070
 2905SOL    HW120174   1.601   1.047   4.249  1.5668 -1.5079 -0.3037
 2905SOL    HW220175   1.605   0.981   4.381  1.0184  0.8277  0.4880
 2906SOL     OW20176   0.632   1.418   5.413  0.0951 -0.4646 -0.0403
 2906SOL    HW120177   0.717   1.462   5.410 -1.3325  2.3624  1.2950
 2906SOL    HW220178   0.649   1.330   5.447 -0.2124 -1.3278 -2.0868
 2907SOL     OW20179   2.272   3.359  17.336  0.2146 -0.1695 -0.1402
 2907SOL    HW120180   2.323   3.285  17.304  0.6794  0.7057 -1.4259
 2907SOL    HW220181   2.251   3.417  17.262 -1.2739 -0.3125  0.1711
 2908SOL     OW20182   4.623   2.187   5.910 -0.2936 -0.6112 -0.0999
 2908SOL    HW120183   4.714   2.206   5.936 -0.2390  3.0879 -2.9593
 2908SOL    HW220184   4.637   2.094   5.895  2.0285 -0.5507  1.5445
 2909SOL     OW20185   2.845   2.843   6.542  0.4118  0.2809  0.3307
 2909SOL    HW120186   2.774   2.864   6.482  1.0644 -2.4748 -1.4517
 2909SOL    HW220187   2.798   2.780   6.596 -1.1127  2.4963  1.5511
 2910SOL     OW20188   3.200   2.873   1.985 -0.3187 -0.4345 -0.2051
 2910SOL    HW120189   3.261   2.838   1.920  0.0933 -1.3748  0.6897
 2910SOL    HW220190   3.125   2.835   1.941 -0.3105 -0.6685 -0.0161
 2911SOL     OW20191   3.189   3.201   2.559  0.1575 -0.1769 -0.3489
 2911SOL    HW120192   3.146   3.266   2.614  1.0742  1.3837 -1.4602
 2911SOL    HW220193   3.181   3.133   2.625  2.3671 -1.2751 -1.1884
 2912SOL     OW20194   3.193   4.654   9.939  0.2981  0.0204 -0.1323
 2912SOL    HW120195   3.249   4.714   9.989 -0.0982  0.5238 -0.2903
 2912SOL    HW220196   3.251   4.641   9.864  1.9381 -1.0508  1.3257
 2913SOL     OW20197   0.061   4.084   9.040  0.0434 -0.0000 -0.1051
 2913SOL    HW120198   4.691   4.072   9.030  0.2158 -1.6528  0.3808
 2913SOL    HW220199   0.086   4.042   8.957 -0.3186  2.1221 -1.2975
 2914SOL     OW20200   4.395   1.088   1.145  0.0688  0.1323 -0.2135
 2914SOL    HW120201   4.373   1.000   1.114 -2.2229 -0.2601  2.5707
 2914SOL    HW220202   4.487   1.085   1.117  0.3656 -0.9000  0.8653
 2915SOL     OW20203   1.349   2.542  14.129  0.3090  0.0275 -0.0106
 2915SOL    HW120204   1.331   2.489  14.207  0.2130 -0.0494 -0.0855
 2915SOL    HW220205   1.404   2.608  14.172  1.6689  0.9214 -3.1747
 2916SOL     OW20206   1.283   1.317   6.107 -0.1257 -0.1210  0.0461
 2916SOL    HW120207   1.254   1.395   6.154  1.2307 -1.8183  3.6706
 2916SOL    HW220208   1.206   1.265   6.086  0.1657 -2.1549  4.0227
 2917SOL     OW20209   0.734   1.144   4.712  0.3550  0.1158 -0.2609
 2917SOL    HW120210   0.691   1.096   4.783  0.6087  0.1569 -0.0815
 2917SOL    HW220211   0.827   1.130   4.730  0.3352  0.1163 -0.1576
 2918SOL     OW20212   2.839   4.490  17.450  0.1359  0.0340 -0.7166
 2918SOL    HW120213   2.774   4.436  17.496  0.3970  0.3666  0.0460
 2918SOL    HW220214   2.782   4.527  17.382  0.6998 -0.0709 -1.2456
 2919SOL     OW20215   3.363   2.823   3.753  0.2755  0.1184 -0.0367
 2919SOL    HW120216   3.312   2.744   3.734 -1.3289  0.8978  0.9378
 2919SOL    HW220217   3.306   2.899   3.739  1.0672  1.3515  3.4650
 2920SOL     OW20218   2.477   1.576  10.815 -0.1157  0.6705 -0.0984
 2920SOL    HW120219   2.561   1.550  10.776 -0.2629  0.5743 -0.3520
 2920SOL    HW220220   2.440   1.491  10.838  1.9046  0.2560  1.6308
 2921SOL     OW20221   1.594   1.912  16.800  0.4273  0.0507  0.5269
 2921SOL    HW120222   1.678   1.916  16.847  1.9591 -0.2959 -2.1959
 2921SOL    HW220223   1.608   1.990  16.746  1.9842 -1.0846 -0.7111
 2922SOL     OW20224   2.769   0.613  15.584  0.3924  0.1234 -0.0043
 2922SOL    HW120225   2.721   0.664  15.518  0.0052 -0.6490 -0.3192
 2922SOL    HW220226   2.709   0.626  15.657  0.4407 -2.0624  0.4224
 2923SOL     OW20227   0.839   0.091   5.455  0.5080 -0.1603 -0.2826
 2923SOL    HW120228   0.777   0.159   5.429  0.8420 -0.0410 -0.7617
 2923SOL    HW220229   0.849   0.096   5.550  0.9120  0.4773 -0.3574
 2924SOL     OW20230   4.724   4.714   2.569  0.3845 -0.1553  0.0892
 2924SOL    HW120231   0.008   4.644   2.634  0.6749  0.2130  0.4477
 2924SOL    HW220232   4.644   4.675   2.532 -0.8649  0.9908  1.5692
 2925SOL     OW20233   1.818   0.660   1.225  0.6234 -0.9513  0.7000
 2925SOL    HW120234   1.898   0.647   1.276  1.3624  2.6941  0.4104
 2925SOL    HW220235   1.817   0.576   1.178  2.3620 -0.8227  0.4153
 2926SOL     OW20236   1.526   2.921   9.491  0.5384 -0.0797 -0.0220
 2926SOL    HW120237   1.537   2.976   9.413  0.4522 -0.7525 -0.5132
 2926SOL    HW220238   1.572   2.975   9.555  0.9855 -0.0458 -0.3648
 2927SOL     OW20239   3.246   0.323   3.032 -0.5703 -0.1768 -0.6149
 2927SOL    HW120240   3.280   0.318   2.942 -1.5871 -1.7972 -0.8939
 2927SOL    HW220241   3.268   0.408   3.070  0.4980 -0.7785  0.1072
 2928SOL     OW20242   0.474   0.132   5.198  0.6643 -0.1161 -0.3331
 2928SOL    HW120243   0.524   0.188   5.257  0.5023 -1.6535  1.2337
 2928SOL    HW220244   0.517   0.151   5.114 -1.1551  1.7375 -0.8596
 2929SOL     OW20245   1.943   1.062  10.556 -0.4729 -0.0917 -0.4466
 2929SOL    HW120246   1.847   1.073  10.557 -0.4684 -0.1531  1.4480
 2929SOL    HW220247   1.950   0.996  10.625  0.9690 -1.2576 -1.7127
 2930SOL     OW20248   4.190   0.380   1.543 -0.3856 -0.1426 -0.0572
 2930SOL    HW120249   4.147   0.330   1.612 -0.8904 -0.9761 -0.9713
 2930SOL    HW220250   4.243   0.444   1.590  0.5286 -2.0999  1.5624
 2931SOL     OW20251   0.522   3.447   3.176  0.2914  0.2077 -0.3698
 2931SOL    HW120252   0.467   3.374   3.204  0.4490  0.6509  1.0847
 2931SOL    HW220253   0.590   3.442   3.244  0.8354  0.3840 -0.9002
 2932SOL     OW20254   4.429   2.692   2.218 -0.0421 -0.4558  0.2329
 2932SOL    HW120255   4.470   2.712   2.134 -0.7342 -1.4793 -0.3464
 2932SOL    HW220256   4.485   2.731   2.285  1.3334  0.8916 -1.7027
 2933SOL     OW20257   4.013   1.102   7.580 -0.6229  0.0896 -0.1719
 2933SOL    HW120258   4.018   1.171   7.513  2.6479 -0.9204 -0.9782
 2933SOL    HW220259   4.100   1.063   7.572 -1.0451 -1.2507  1.7259
 2934SOL     OW20260   1.804   2.158   5.508 -0.6192  0.3843 -0.0604
 2934SOL    HW120261   1.791   2.197   5.422 -2.4037  0.5632  0.2789
 2934SOL    HW220262   1.736   2.091   5.502 -2.2049  1.7520  2.3195
 2935SOL     OW20263   1.082   4.208   3.990 -0.1081  0.3155  0.3544
 2935SOL    HW120264   1.109   4.122   3.956 -2.5345 -0.4176  0.2183
 2935SOL    HW220265   1.166   4.246   4.013  0.9712 -1.7930 -0.0628
 2936SOL     OW20266   4.476   2.333   3.048 -0.0809 -0.3584 -0.4881
 2936SOL    HW120267   4.556   2.372   3.084 -0.8244  2.1393 -1.5364
 2936SOL    HW220268   4.504   2.245   3.022 -2.3347 -0.8608 -1.2201
 2937SOL     OW20269   4.143   1.197   6.484  0.0091 -0.0091 -0.2465
 2937SOL    HW120270   4.100   1.130   6.536  1.5339 -0.1829  0.8110
 2937SOL    HW220271   4.206   1.230   6.549  0.7791 -0.1398 -0.9312
 2938SOL     OW20272   3.178   2.661   8.504 -0.5866  0.0737  0.6850
 2938SOL    HW120273   3.211   2.582   8.547 -2.3379 -1.0651 -0.1012
 2938SOL    HW220274   3.089   2.678   8.535 -0.8448  1.1911 -0.6972
 2939SOL     OW20275   0.028   2.665   0.321  0.3272 -0.1081  0.1784
 2939SOL    HW120276   0.033   2.580   0.277  1.4948  0.1294 -0.1451
 2939SOL    HW220277   4.686   2.710   0.268 -1.7246 -0.6498  2.2556
 2940SOL     OW20278   1.368   2.466   1.490 -0.2047 -0.3135  0.4049
 2940SOL    HW120279   1.447   2.462   1.435 -2.1639  0.1103 -2.4219
 2940SOL    HW220280   1.390   2.402   1.558  2.3539  1.1684  0.9807
 2941SOL     OW20281   1.431   2.396  11.381  0.6871 -0.0366 -0.0989
 2941SOL    HW120282   1.471   2.451  11.313  0.3039 -2.2493 -2.1547
 2941SOL    HW220283   1.477   2.431  11.457 -0.6396  0.0730  0.6530
 2942SOL     OW20284   3.124   0.792   6.471  0.1291 -0.4417  0.2212
 2942SOL    HW120285   3.089   0.708   6.498 -1.1671  0.4852  1.4089
 2942SOL    HW220286   3.056   0.851   6.504  0.4729  0.4880 -0.7261
 2943SOL     OW20287   4.164   0.965   2.808  0.0887 -0.3429  0.3290
 2943SOL    HW120288   4.228   1.012   2.861 -0.0366  0.3032 -0.0845
 2943SOL    HW220289   4.191   0.874   2.818 -1.3312 -0.8649 -0.4511
 2944SOL     OW20290   3.960   2.139   1.130  0.3082  0.0837  0.5896
 2944SOL    HW120291   4.007   2.086   1.066 -1.3817 -1.3252  0.4993
 2944SOL    HW220292   4.022   2.162   1.199  1.4162 -0.9174 -0.0688
 2945SOL     OW20293   2.758   0.392   7.270  0.7890 -0.3229 -0.5179
 2945SOL    HW120294   2.751   0.410   7.363 -1.6471 -0.4064 -0.6969
 2945SOL    HW220295   2.835   0.336   7.278 -0.2553 -1.7898 -0.8232
 2946SOL     OW20296   0.422   1.659   7.928  0.2670  0.5140  0.2597
 2946SOL    HW120297   0.347   1.601   7.911  0.3482  0.8963 -1.4309
 2946SOL    HW220298   0.384   1.747   7.924  0.2211  0.4922  0.1984
 2947SOL     OW20299   2.933   2.994  13.127  0.3018 -0.2604  0.2373
 2947SOL    HW120300   2.902   3.080  13.100  0.1536  0.1881  1.8043
 2947SOL    HW220301   3.019   3.017  13.161  1.1211  0.6461 -2.5282
 2948SOL     OW20302   3.831   0.864  15.130  0.5864 -0.0282  0.2800
 2948SOL    HW120303   3.912   0.816  15.140  1.2986  1.8481  3.5534
 2948SOL    HW220304   3.775   0.789  15.109  1.3850 -0.1278 -1.4822
 2949SOL     OW20305   0.634   2.662   7.359  0.0645  0.2636  0.0096
 2949SOL    HW120306   0.628   2.572   7.329 -1.4502  0.1206  0.7731
 2949SOL    HW220307   0.723   2.671   7.395  0.3388 -0.4522 -0.4969
 2950SOL     OW20308   3.327   0.600   8.826 -0.7523 -0.0924 -0.0884
 2950SOL    HW120309   3.377   0.612   8.907 -1.3681  3.9130 -0.3335
 2950SOL    HW220310   3.359   0.672   8.771 -0.5993 -1.7649 -2.1823
 2951SOL     OW20311   3.864   4.641   6.327  0.1787  0.7621  0.2638
 2951SOL    HW120312   3.776   4.666   6.355  0.2209  0.5282  0.6068
 2951SOL    HW220313   3.904   4.597   6.403  0.3268 -1.1622 -0.9326
 2952SOL     OW20314   4.516   1.255   8.460 -0.4377  0.4777 -0.5228
 2952SOL    HW120315   4.472   1.236   8.377 -0.0853  1.4964 -0.9539
 2952SOL    HW220316   4.471   1.196   8.520  1.4669 -0.3998  0.0309
 2953SOL     OW20317   2.033   4.010   9.262  0.0645 -0.2744  0.1144
 2953SOL    HW120318   1.956   3.973   9.219  0.4935 -1.0923  0.0460
 2953SOL    HW220319   2.046   4.098   9.226 -1.5497  0.3740  1.1229
 2954SOL     OW20320   3.580   1.603   1.324  0.2166 -0.0397  0.6138
 2954SOL    HW120321   3.575   1.694   1.354 -1.8571  0.7779 -2.1758
 2954SOL    HW220322   3.665   1.589   1.366  1.3331  2.8164 -0.6895
 2955SOL     OW20323   2.720   2.740   9.832 -0.1787  0.2078  0.1856
 2955SOL    HW120324   2.627   2.761   9.824 -0.0769  1.2272  1.6765
 2955SOL    HW220325   2.720   2.726   9.926 -2.4475  2.1260  0.4737
 2956SOL     OW20326   3.471   3.306   4.199 -0.5099 -0.3729 -0.1568
 2956SOL    HW120327   3.552   3.286   4.245 -0.7425  2.2120  1.4009
 2956SOL    HW220328   3.449   3.226   4.151  3.2897 -0.6587 -1.4628
 2957SOL     OW20329   4.067   4.463   1.159  0.3175  0.5994  0.1267
 2957SOL    HW120330   4.108   4.383   1.124 -0.7722  0.3854 -0.6607
 2957SOL    HW220331   4.146   4.501   1.199  1.7945 -0.7435 -1.5213
 2958SOL     OW20332   2.314   0.491   9.631 -0.5334 -0.1926 -0.2298
 2958SOL    HW120333   2.362   0.526   9.707 -0.0681 -0.4588 -0.4011
 2958SOL    HW220334   2.243   0.439   9.668  0.0738  2.0108  4.1445
 2959SOL     OW20335   3.259   0.627   5.889  0.2586 -0.2111  0.0265
 2959SOL    HW120336   3.276   0.538   5.857  2.2000  0.6225 -1.3101
 2959SOL    HW220337   3.348   0.661   5.875  0.4803 -1.6972 -2.1293
 2960SOL     OW20338   3.946   2.852   6.741 -0.1682 -0.5889 -0.2213
 2960SOL    HW120339   3.928   2.784   6.806  0.3262  0.6308  1.2101
 2960SOL    HW220340   4.040   2.852   6.726 -0.1061  2.5680  0.0327
 2961SOL     OW20341   4.025   0.628  17.479  0.1016  0.2467  0.2723
 2961SOL    HW120342   4.066   0.659  17.560 -0.7040  1.3182  0.2725
 2961SOL    HW220343   3.969   0.698  17.445  1.1666  1.8108  1.7353
 2962SOL     OW20344   2.391   1.805  11.679  0.4828 -0.1260 -0.1150
 2962SOL    HW120345   2.306   1.763  11.689  0.2421  0.5356  0.6121
 2962SOL    HW220346   2.407   1.837  11.767 -0.5225 -0.7203  0.2839
 2963SOL     OW20347   1.302   1.048   0.569  0.3088 -0.1256  0.0516
 2963SOL    HW120348   1.365   1.112   0.600 -0.7592  2.3210 -2.8771
 2963SOL    HW220349   1.230   1.103   0.538  1.0444  1.3024  0.9019
 2964SOL     OW20350   1.949   1.652   4.161 -0.6296  0.0030  0.0311
 2964SOL    HW120351   2.029   1.697   4.134  0.5835 -2.4296 -0.4983
 2964SOL    HW220352   1.959   1.616   4.249  2.2540 -0.7593 -0.6034
 2965SOL     OW20353   0.901   2.793   6.179 -0.1293 -0.4092  0.3809
 2965SOL    HW120354   0.939   2.872   6.141  0.4894 -1.4561 -1.1981
 2965SOL    HW220355   0.946   2.804   6.262 -0.9427 -0.3307  0.8075
 2966SOL     OW20356   0.050   0.450   1.226 -0.5456 -0.0953  0.0087
 2966SOL    HW120357   0.059   0.530   1.279  3.7652 -0.5268 -0.1234
 2966SOL    HW220358   0.051   0.487   1.138 -0.2666  0.9258  0.4334
 2967SOL     OW20359   0.447   1.337   7.728  0.1217 -0.1708 -0.4111
 2967SOL    HW120360   0.467   1.322   7.820 -0.4802  1.3839 -0.0388
 2967SOL    HW220361   0.392   1.414   7.741  3.1743  1.8872  0.3555
 2968SOL     OW20362   0.044   2.624   0.585  0.4187  0.2340 -0.1940
 2968SOL    HW120363   0.089   2.547   0.619  0.5205 -0.6904 -2.4298
 2968SOL    HW220364   0.054   2.613   0.490  2.5346 -1.4705  0.2364
 2969SOL     OW20365   0.899   3.548   7.145 -0.4134 -0.5404 -0.0392
 2969SOL    HW120366   0.841   3.595   7.085  1.5368  0.6492 -0.9878
 2969SOL    HW220367   0.977   3.531   7.092 -0.3949 -0.3884 -0.0609
 2970SOL     OW20368   1.517   4.069   0.841  0.2344 -0.0480 -0.6470
 2970SOL    HW120369   1.484   3.980   0.850 -0.0748 -0.0517 -1.8904
 2970SOL    HW220370   1.469   4.114   0.772 -0.6848 -0.9383 -0.5770
 2971SOL     OW20371   2.213   3.296   4.882  0.1814  0.5725  0.3312
 2971SOL    HW120372   2.123   3.299   4.916  0.1138  0.4227  0.1671
 2971SOL    HW220373   2.249   3.217   4.922 -2.6632  0.1366  2.0404
 2972SOL     OW20374   1.876   3.466   6.344 -0.0482 -0.3329  0.4511
 2972SOL    HW120375   1.966   3.443   6.319 -0.0084  0.3143  0.0115
 2972SOL    HW220376   1.905   3.492   6.431 -0.6954 -0.7023  0.7737
 2973SOL     OW20377   2.783   2.111   1.629  0.2476  0.2413 -0.2579
 2973SOL    HW120378   2.693   2.081   1.644  0.3798 -1.4313 -2.8374
 2973SOL    HW220379   2.807   2.150   1.713  0.4674  0.1432 -0.2749
 2974SOL     OW20380   1.027   0.060   6.398  0.3269  0.2368  0.0541
 2974SOL    HW120381   1.020   0.139   6.346  1.4421  0.0223 -0.4277
 2974SOL    HW220382   1.009   0.100   6.483 -0.0405 -0.0962  0.1324
 2975SOL     OW20383   0.820   1.926   7.585 -0.0462 -0.1000  0.2798
 2975SOL    HW120384   0.845   1.836   7.606  1.4804  0.4036  0.6127
 2975SOL    HW220385   0.849   1.938   7.495  0.5886 -0.3711  0.4521
 2976SOL     OW20386   2.802   4.718   9.382 -0.1744  0.0255  0.6230
 2976SOL    HW120387   2.748   0.012   9.458 -1.4244  0.8062 -0.4481
 2976SOL    HW220388   2.854   0.070   9.355  1.0669 -0.7856  0.6874
 2977SOL     OW20389   3.181   3.971   3.857 -0.3815 -0.1263  0.5000
 2977SOL    HW120390   3.095   3.996   3.889 -0.8284 -0.0626 -0.7231
 2977SOL    HW220391   3.229   4.053   3.865  0.4711 -0.5682 -0.0442
 2978SOL     OW20392   1.123   0.668   4.740 -0.0985  0.0614  0.3139
 2978SOL    HW120393   1.216   0.672   4.763  0.3061  1.5813 -1.6041
 2978SOL    HW220394   1.080   0.750   4.767 -1.1215 -0.2036 -0.5346
 2979SOL     OW20395   1.341   2.540   3.609 -0.3179  0.1148  0.1968
 2979SOL    HW120396   1.344   2.556   3.703 -0.7270 -0.5381  0.3221
 2979SOL    HW220397   1.269   2.597   3.584  0.0041  1.2445  1.8386
 2980SOL     OW20398   2.234   0.824   1.702 -0.5551  0.6033  0.0597
 2980SOL    HW120399   2.233   0.907   1.654 -0.8150  1.4661  1.5523
 2980SOL    HW220400   2.316   0.791   1.666 -2.0166 -3.3340  0.4038
 2981SOL     OW20401   1.231   4.288   2.572  0.0123 -0.0525 -0.2129
 2981SOL    HW120402   1.267   4.371   2.541  0.9526 -0.4974 -0.3223
 2981SOL    HW220403   1.269   4.232   2.504  3.0520  0.0114  1.4355
 2982SOL     OW20404   0.119   3.290   7.082 -0.0956  0.5579 -0.1428
 2982SOL    HW120405   0.098   3.259   6.994  0.7995  1.6535 -0.7388
 2982SOL    HW220406   0.212   3.309   7.076  0.5255 -1.9303  1.2006
 2983SOL     OW20407   2.876   3.690  14.881  0.5312 -0.1547 -0.1918
 2983SOL    HW120408   2.910   3.603  14.859 -2.1738 -0.9880 -1.0414
 2983SOL    HW220409   2.794   3.691  14.831 -1.2660 -1.4110  2.7039
 2984SOL     OW20410   2.354   0.683  12.551  0.1714  0.0115 -0.2348
 2984SOL    HW120411   2.437   0.649  12.585 -0.0204 -0.2918 -0.0662
 2984SOL    HW220412   2.380   0.711  12.464  1.2510  0.5887  0.2709
 2985SOL     OW20413   1.717   1.587  12.148 -0.3790 -0.8827 -0.4022
 2985SOL    HW120414   1.775   1.628  12.212 -1.2942 -2.1211  1.2280
 2985SOL    HW220415   1.726   1.647  12.075  2.2920 -0.1507  0.5373
 2986SOL     OW20416   4.548   2.966   2.067  0.7828 -0.3901 -0.3145
 2986SOL    HW120417   4.538   2.955   2.161 -0.8055  1.4685 -0.2655
 2986SOL    HW220418   4.638   2.996   2.065  1.1248 -1.5446 -2.0942
 2987SOL     OW20419   3.924   0.486   1.413  0.9819 -0.0593  0.0207
 2987SOL    HW120420   3.924   0.442   1.498 -0.9008  0.8854  0.5209
 2987SOL    HW220421   4.006   0.446   1.385  0.5921 -0.7447 -0.1416
 2988SOL     OW20422   4.164   2.855   6.534  0.4581 -0.0047 -0.4488
 2988SOL    HW120423   4.239   2.806   6.569  0.3854 -2.7956 -4.1205
 2988SOL    HW220424   4.203   2.942   6.524  0.1439  0.2629  0.7393
 2989SOL     OW20425   2.159   3.974   8.799 -0.2957  0.2276 -0.0689
 2989SOL    HW120426   2.227   3.926   8.846 -0.0883  1.3833  0.7995
 2989SOL    HW220427   2.144   4.039   8.867  0.8949 -0.5725  0.9499
 2990SOL     OW20428   4.243   0.179  16.314  0.4180  0.4498  0.4591
 2990SOL    HW120429   4.323   0.139  16.349  1.0728 -0.2722 -1.8739
 2990SOL    HW220430   4.184   0.148  16.383  2.2094 -0.7580  1.4616
 2991SOL     OW20431   2.050   3.602   2.445  0.8397  0.0349  0.4882
 2991SOL    HW120432   2.008   3.658   2.379 -1.3807 -1.8693  0.3057
 2991SOL    HW220433   2.097   3.547   2.382 -0.2132  0.7352 -0.9130
 2992SOL     OW20434   3.870   2.139   1.904 -0.4479 -0.6156 -0.1853
 2992SOL    HW120435   3.952   2.097   1.879  0.5568  0.0750  1.9535
 2992SOL    HW220436   3.887   2.224   1.864 -0.5731 -0.4242  0.1675
 2993SOL     OW20437   3.092   0.833  11.720  0.1719  0.0481  0.6603
 2993SOL    HW120438   3.063   0.922  11.739 -0.6228 -0.2811  0.9774
 2993SOL    HW220439   3.091   0.837  11.624 -0.1933  1.1902  0.7185
 2994SOL     OW20440   1.130   4.224   1.720  0.0284 -0.2400 -0.5351
 2994SOL    HW120441   1.092   4.156   1.666  2.8783 -0.5053 -2.1842
 2994SOL    HW220442   1.201   4.175   1.762 -1.7174 -3.0823 -0.9632
 2995SOL     OW20443   1.850   4.307   4.280  0.0723  0.4739 -0.2022
 2995SOL    HW120444   1.863   4.253   4.202  1.9116 -1.2190  1.2808
 2995SOL    HW220445   1.771   4.265   4.314  0.6985 -2.4145 -2.2964
 2996SOL     OW20446   4.653   1.712   5.735 -0.1292 -0.2425 -0.2715
 2996SOL    HW120447   4.653   1.617   5.745 -0.6610 -0.3083 -0.8798
 2996SOL    HW220448   0.003   1.726   5.676 -0.6713 -1.3595 -1.2084
 2997SOL     OW20449   2.876   2.159  12.112  0.7395 -0.0234 -0.3015
 2997SOL    HW120450   2.801   2.105  12.087  1.2987 -0.8811 -0.1412
 2997SOL    HW220451   2.903   2.203  12.031 -1.8761  2.5745  0.2456
 2998SOL     OW20452   1.212   3.841   2.361  0.0617  0.3843  0.9718
 2998SOL    HW120453   1.218   3.750   2.389 -0.1388 -0.5160 -1.8868
 2998SOL    HW220454   1.121   3.850   2.333  0.6607 -0.3613 -1.2529
 2999SOL     OW20455   0.169   3.773   7.079 -0.4321 -0.1338 -0.3227
 2999SOL    HW120456   0.242   3.750   7.136 -0.2955 -0.1724 -0.5111
 2999SOL    HW220457   0.192   3.718   7.004 -0.3676  2.3791 -2.1679
 3000SOL     OW20458   2.220   4.523   5.977  0.0247 -0.2468  0.3008
 3000SOL    HW120459   2.219   4.467   6.055 -0.2248 -1.2213 -0.3967
 3000SOL    HW220460   2.252   4.602   6.019 -0.3613 -0.4171  0.9280
 3001SOL     OW20461   4.031   4.641  16.797  0.1441 -0.2529  0.1903
 3001SOL    HW120462   3.953   4.654  16.851 -1.2639 -2.7943 -1.2232
 3001SOL    HW220463   4.022   4.714  16.736  0.4192  1.0480  1.7263
 3002SOL     OW20464   4.690   0.645   6.819 -0.7073  0.0089 -0.1917
 3002SOL    HW120465   4.703   0.562   6.773 -2.6629 -0.1686 -0.4562
 3002SOL    HW220466   4.649   0.702   6.753  0.2892  1.6739  0.6333
 3003SOL     OW20467   2.386   4.058   9.497  0.3825  0.0259  0.5120
 3003SOL    HW120468   2.370   4.127   9.432  0.9070 -2.0757 -1.8169
 3003SOL    HW220469   2.428   4.107   9.568  2.4388 -2.3480  0.9254
 3004SOL     OW20470   2.968   3.349   4.435 -0.4613  0.0468 -0.0912
 3004SOL    HW120471   3.012   3.408   4.375 -0.2326  2.0288  2.0149
 3004SOL    HW220472   3.013   3.374   4.516  0.9344 -0.8454 -0.6011
 3005SOL     OW20473   0.318   3.330   7.423 -0.1544  0.3284  0.3199
 3005SOL    HW120474   0.350   3.241   7.407 -0.1054  0.0343  2.0515
 3005SOL    HW220475   0.237   3.309   7.469 -1.2709  1.0905 -1.3007
 3006SOL     OW20476   3.881   3.417   9.037 -0.6051 -0.5508  0.4242
 3006SOL    HW120477   3.938   3.473   9.090 -0.1007 -0.3255 -0.3519
 3006SOL    HW220478   3.920   3.427   8.950  2.0827  1.1734  1.8323
 3007SOL     OW20479   4.219   1.438   1.421 -0.0940 -0.0429 -0.3083
 3007SOL    HW120480   4.222   1.359   1.368 -1.5318 -0.8416  0.8176
 3007SOL    HW220481   4.250   1.397   1.502  2.0049 -0.0867 -1.1384
 3008SOL     OW20482   4.540   4.277   3.815 -0.4959 -0.1032  0.0940
 3008SOL    HW120483   4.629   4.299   3.842 -0.2682  0.3797 -1.0538
 3008SOL    HW220484   4.529   4.208   3.880  0.8663 -1.2951 -0.9448
 3009SOL     OW20485   1.532   4.200   3.865  0.2201  0.0009  0.0551
 3009SOL    HW120486   1.559   4.157   3.946  0.5276 -0.3684 -0.2489
 3009SOL    HW220487   1.541   4.296   3.873  1.2958 -0.0887 -0.0909
 3010SOL     OW20488   3.133   0.864  12.878 -0.0996  0.5434  0.3766
 3010SOL    HW120489   3.092   0.779  12.866  0.3842  0.2518  0.7639
 3010SOL    HW220490   3.087   0.924  12.820 -2.2501 -0.2547  1.2886
 3011SOL     OW20491   0.338   2.746   6.719  0.1608  0.2816 -0.3547
 3011SOL    HW120492   0.350   2.766   6.812  0.5313 -0.3805 -0.2581
 3011SOL    HW220493   0.339   2.651   6.726 -0.2528  0.2480 -0.7352
 3012SOL     OW20494   4.693   0.509   4.535 -0.4403  0.4478  0.1480
 3012SOL    HW120495   0.052   0.472   4.506  0.0481 -0.0928  2.2466
 3012SOL    HW220496   4.690   0.475   4.625 -0.5233  0.1260  0.0240
 3013SOL     OW20497   3.682   2.047  10.656 -0.2270 -0.0773  0.1166
 3013SOL    HW120498   3.755   2.001  10.697  1.1988  1.5706 -0.5345
 3013SOL    HW220499   3.726   2.110  10.597  1.0140 -1.4361 -0.4078
 3014SOL     OW20500   1.041   4.704   8.595 -0.4017  0.2313  0.0463
 3014SOL    HW120501   0.989   0.043   8.546  0.0266  0.9705  0.5496
 3014SOL    HW220502   1.030   4.618   8.554  2.2030  1.4180 -3.2431
 3015SOL     OW20503   0.740   2.250   7.895 -0.5066 -0.0599 -0.1274
 3015SOL    HW120504   0.701   2.179   7.845  1.3791  0.3987 -2.2418
 3015SOL    HW220505   0.821   2.263   7.845 -1.0517 -0.7830 -1.1754
 3016SOL     OW20506   0.101   0.511  16.653 -0.5142  0.3640  0.0781
 3016SOL    HW120507   0.086   0.595  16.610  0.1817  0.6801  0.4452
 3016SOL    HW220508   0.097   0.547  16.742  0.7372 -0.2638  0.3932
 3017SOL     OW20509   1.795   0.489   5.703  0.5086 -1.0879 -0.1009
 3017SOL    HW120510   1.889   0.491   5.722  0.6787 -0.4074 -1.0186
 3017SOL    HW220511   1.797   0.488   5.608  2.6624 -1.3059 -0.0419
 3018SOL     OW20512   0.459   3.509   7.243  0.2752  0.2094 -0.1081
 3018SOL    HW120513   0.471   3.448   7.170 -0.6616  1.6088 -1.4287
 3018SOL    HW220514   0.417   3.453   7.308 -1.9138  1.2025 -0.6560
 3019SOL     OW20515   3.433   1.843   2.008  0.2596 -0.1021  0.4161
 3019SOL    HW120516   3.493   1.918   2.012 -2.4271  1.9991  1.4956
 3019SOL    HW220517   3.493   1.770   1.994  0.6215  0.1524  0.6219
 3020SOL     OW20518   3.245   1.951   2.216 -0.0171  0.1394 -0.5090
 3020SOL    HW120519   3.265   1.861   2.192  1.0445  0.3352 -0.3601
 3020SOL    HW220520   3.334   1.986   2.210  0.1417 -0.2674 -0.5217
 3021SOL     OW20521   3.412   3.722  15.512 -0.3717 -0.8578 -0.2247
 3021SOL    HW120522   3.476   3.790  15.534 -0.5766 -1.5451  2.4819
 3021SOL    HW220523   3.331   3.773  15.513  0.5023  0.4710  1.5519
 3022SOL     OW20524   2.930   2.984   0.578 -0.0917 -0.1540 -0.3800
 3022SOL    HW120525   2.989   2.908   0.577 -0.1031 -0.1495 -1.2266
 3022SOL    HW220526   2.925   3.008   0.671  0.6339  1.7119 -0.8271
 3023SOL     OW20527   1.258   2.958   9.289  0.3578 -0.4918  0.6066
 3023SOL    HW120528   1.239   2.992   9.377  0.9808  0.2255  0.4628
 3023SOL    HW220529   1.344   2.990   9.264  0.5704 -1.3295  0.2708
 3024SOL     OW20530   4.537   4.627   9.158  0.0193 -0.3025 -0.3645
 3024SOL    HW120531   4.594   4.657   9.228 -0.5532 -0.9975  0.3884
 3024SOL    HW220532   4.474   4.576   9.209 -1.6447  3.3231  1.1783
 3025SOL     OW20533   1.449   3.518   7.450 -0.7089  0.1713 -0.5162
 3025SOL    HW120534   1.427   3.474   7.368  1.8460 -0.8276 -0.6906
 3025SOL    HW220535   1.443   3.446   7.513 -0.3575  1.3945  0.9281
 3026SOL     OW20536   1.656   0.473  16.469  0.0302 -0.0514  0.5447
 3026SOL    HW120537   1.606   0.554  16.481 -2.5724 -1.6840  0.7138
 3026SOL    HW220538   1.629   0.411  16.536  0.0107 -0.9454 -0.2959
 3027SOL     OW20539   3.077   1.312   5.678  0.1748  0.2003  0.1473
 3027SOL    HW120540   3.154   1.368   5.663 -0.5071  0.3795 -2.6157
 3027SOL    HW220541   3.088   1.243   5.614 -0.7997 -0.8788  1.1559
 3028SOL     OW20542   0.135   4.004   3.911 -0.2407  0.4040 -0.1479
 3028SOL    HW120543   0.040   4.012   3.923 -0.0928  1.4152  0.3272
 3028SOL    HW220544   0.163   4.092   3.887 -1.5446  0.1431 -2.6446
 3029SOL     OW20545   0.109   0.039   6.575  0.1560 -0.1964  0.2464
 3029SOL    HW120546   0.123   0.134   6.575  1.5744 -0.3992  2.2748
 3029SOL    HW220547   0.111   0.020   6.669 -2.2292 -2.3713 -0.1434
 3030SOL     OW20548   1.601   3.044   8.461  0.2180 -0.6866  0.3069
 3030SOL    HW120549   1.646   2.970   8.501 -1.2148 -2.5014 -1.4693
 3030SOL    HW220550   1.653   3.078   8.388 -1.3840 -0.5166 -0.7548
 3031SOL     OW20551   0.999   3.246   1.944 -0.0412  0.2856 -0.5941
 3031SOL    HW120552   1.054   3.218   1.871  0.0453  0.2752 -0.5253
 3031SOL    HW220553   0.916   3.214   1.909  0.8941 -0.0709 -2.4801
 3032SOL     OW20554   2.146   3.708   5.615  0.1897 -0.4457  0.3107
 3032SOL    HW120555   2.099   3.772   5.669 -1.1662 -1.1365 -0.0798
 3032SOL    HW220556   2.225   3.756   5.588  0.0804 -1.4254 -1.6998
 3033SOL     OW20557   3.133   3.569   9.243 -0.1505  0.1515  0.0450
 3033SOL    HW120558   3.199   3.638   9.236  0.5914 -0.6356 -0.7044
 3033SOL    HW220559   3.054   3.606   9.202  0.1138 -0.2971 -0.8657
 3034SOL     OW20560   1.357   1.225   3.920  0.3629  0.1477 -0.2154
 3034SOL    HW120561   1.266   1.239   3.893 -0.0029 -0.4772  0.6423
 3034SOL    HW220562   1.388   1.182   3.841  1.2943  2.2566 -0.9750
 3035SOL     OW20563   1.962   2.532   5.396 -0.3571  0.2515  0.5473
 3035SOL    HW120564   1.933   2.571   5.313 -0.7777 -1.2602 -0.0068
 3035SOL    HW220565   1.887   2.551   5.452 -1.6644  0.6148 -1.3557
 3036SOL     OW20566   4.002   4.241   3.718  0.2909  0.2426 -0.0084
 3036SOL    HW120567   4.033   4.197   3.796  0.6572 -0.4742 -0.5580
 3036SOL    HW220568   4.083   4.236   3.668 -0.0586 -1.0133 -0.4664
 3037SOL     OW20569   0.177   0.601   3.265 -0.6593  0.1489 -0.2561
 3037SOL    HW120570   0.099   0.649   3.295 -0.7622 -0.5721  0.6106
 3037SOL    HW220571   0.165   0.516   3.307 -2.0402  0.9419  0.9623
 3038SOL     OW20572   4.149   4.669   6.604 -0.3846  0.4180 -0.1505
 3038SOL    HW120573   4.151   4.616   6.684 -1.1877  1.0075  0.2690
 3038SOL    HW220574   4.184   0.026   6.640  1.3134  0.0375 -0.9550
 3039SOL     OW20575   2.213   0.168   4.848 -0.5895  0.2237 -0.0612
 3039SOL    HW120576   2.189   0.251   4.807 -1.2949  0.8848  1.6929
 3039SOL    HW220577   2.174   0.110   4.782 -1.0140 -0.8704  1.1568
 3040SOL     OW20578   1.270   0.689   1.991 -0.2101  0.0750  0.5630
 3040SOL    HW120579   1.300   0.598   1.990  0.5886  0.3418  0.8104
 3040SOL    HW220580   1.349   0.733   1.959  0.0423  0.9941  2.4840
 3041SOL     OW20581   1.547   4.399   3.300 -1.1269 -0.1375 -0.4284
 3041SOL    HW120582   1.557   4.338   3.226  0.0258  0.2591 -0.5957
 3041SOL    HW220583   1.514   4.346   3.373  1.0770  1.9361  2.0560
 3042SOL     OW20584   2.192   1.838   4.302  0.7680  0.1352  0.1975
 3042SOL    HW120585   2.279   1.858   4.337  1.1432  0.2161 -0.7845
 3042SOL    HW220586   2.190   1.892   4.223  0.8980  0.4697  0.4244
 3043SOL     OW20587   3.780   0.877   7.043 -0.5929 -0.0586 -0.4061
 3043SOL    HW120588   3.736   0.817   7.104 -1.2403 -1.1900 -2.0008
 3043SOL    HW220589   3.705   0.924   7.010 -1.3735 -0.6509  0.5105
 3044SOL     OW20590   1.511   0.755  15.057 -1.1134 -0.1932 -0.0145
 3044SOL    HW120591   1.488   0.831  15.110  0.7679 -0.4627  1.1828
 3044SOL    HW220592   1.426   0.725  15.024 -0.4880 -1.1850 -0.7577
 3045SOL     OW20593   3.438   3.069  15.716  0.0955 -0.2743 -0.5918
 3045SOL    HW120594   3.504   3.139  15.722 -1.5385  1.1591  0.8273
 3045SOL    HW220595   3.359   3.121  15.729  1.1988  1.3300 -0.2218
 3046SOL     OW20596   2.814   4.326   5.087  0.3703  0.8299  0.0787
 3046SOL    HW120597   2.847   4.246   5.045 -3.0035 -0.5042 -0.0442
 3046SOL    HW220598   2.766   4.365   5.014 -2.0655  2.3680  2.5333
 3047SOL     OW20599   3.679   2.933   5.407 -0.4761  0.3052 -0.3839
 3047SOL    HW120600   3.760   2.944   5.356 -0.3267  1.2993  0.0555
 3047SOL    HW220601   3.633   2.880   5.343 -0.1425  0.4765 -0.7677
 3048SOL     OW20602   3.121   2.586  13.630 -0.1705 -0.3231  0.8803
 3048SOL    HW120603   3.060   2.641  13.679 -1.4235 -1.2908  0.3921
 3048SOL    HW220604   3.139   2.637  13.551 -0.6819  2.0935  2.3136
 3049SOL     OW20605   0.273   1.604  17.497 -0.2831  0.1929  0.4219
 3049SOL    HW120606   0.326   1.651  17.432 -1.2858  0.0568 -0.4999
 3049SOL    HW220607   0.299   1.514  17.481 -0.1174 -0.1061  2.3553
 3050SOL     OW20608   1.233   0.927   1.219 -0.0694 -0.0941 -0.4376
 3050SOL    HW120609   1.277   0.866   1.278 -1.0588 -1.0726 -0.7002
 3050SOL    HW220610   1.314   0.957   1.178 -2.1972  2.0296 -3.0513
 3051SOL     OW20611   2.481   4.510   7.428 -0.4119 -0.3008  0.0141
 3051SOL    HW120612   2.400   4.542   7.387 -0.0934 -0.7113 -0.9317
 3051SOL    HW220613   2.502   4.589   7.477 -0.2456 -0.0835 -0.4107
 3052SOL     OW20614   2.639   0.575   8.753 -0.5006 -0.4927  0.0863
 3052SOL    HW120615   2.602   0.548   8.669  4.0354  0.2750 -2.1049
 3052SOL    HW220616   2.638   0.493   8.802  0.1723  0.8079  2.2626
 3053SOL     OW20617   2.904   2.601   2.856 -0.3536 -0.1992  0.4106
 3053SOL    HW120618   2.831   2.662   2.846  1.9727  2.6315  0.7290
 3053SOL    HW220619   2.968   2.646   2.912 -0.6697 -1.1732  1.5432
 3054SOL     OW20620   4.254   1.919   6.096 -0.1356  0.0616  0.6152
 3054SOL    HW120621   4.294   1.834   6.078 -1.6989 -0.3762 -0.7960
 3054SOL    HW220622   4.323   1.970   6.139 -0.6582 -0.7190  2.3615
 3055SOL     OW20623   2.701   3.438   2.056  0.4146 -0.1056 -0.7362
 3055SOL    HW120624   2.795   3.436   2.074  0.3831  1.1069 -0.4483
 3055SOL    HW220625   2.703   3.466   1.964  2.4493 -1.8656 -1.2150
 3056SOL     OW20626   0.064   4.515   7.808  0.0692 -0.3842  0.6367
 3056SOL    HW120627   0.152   4.515   7.846  0.4075 -1.8778 -0.1869
 3056SOL    HW220628   0.022   4.579   7.866 -0.0767  0.2341 -0.1452
 3057SOL     OW20629   2.144   2.786   7.898 -0.1739  0.0793  0.5436
 3057SOL    HW120630   2.123   2.798   7.806  1.0639  0.4012  0.2994
 3057SOL    HW220631   2.096   2.705   7.912  1.5140 -0.9700  0.2399
 3058SOL     OW20632   3.018   1.235   1.433  0.2942  0.0003  0.2828
 3058SOL    HW120633   2.937   1.285   1.424 -0.5966 -1.5184 -0.1856
 3058SOL    HW220634   2.989   1.144   1.430  0.8524 -0.1154 -1.9069
 3059SOL     OW20635   1.264   0.747   2.313 -0.4618  0.4169 -0.3349
 3059SOL    HW120636   1.281   0.733   2.406 -0.4503 -2.1321 -0.7118
 3059SOL    HW220637   1.330   0.812   2.287 -0.0870 -0.1510 -0.8177
 3060SOL     OW20638   3.391   0.335   8.925 -0.1752 -0.4821  0.3587
 3060SOL    HW120639   3.357   0.385   8.999  3.1839  1.3524  0.6902
 3060SOL    HW220640   3.471   0.298   8.963  1.1378  0.0749 -1.8208
 3061SOL     OW20641   3.037   0.109   8.732 -0.5126 -0.0962  0.7694
 3061SOL    HW120642   3.102   0.163   8.687 -1.3222  0.0695 -0.2039
 3061SOL    HW220643   3.025   0.168   8.806  1.8106  0.8676  0.3865
 3062SOL     OW20644   3.163   3.796   5.766  0.3850 -0.1686  0.3448
 3062SOL    HW120645   3.135   3.857   5.698  1.2456  0.7813  0.8437
 3062SOL    HW220646   3.226   3.743   5.718 -0.6620 -0.4924 -0.6828
 3063SOL     OW20647   2.751   2.324   2.395  0.1409  0.7775 -0.6516
 3063SOL    HW120648   2.820   2.330   2.329 -1.0667  1.0769 -1.8766
 3063SOL    HW220649   2.778   2.391   2.457 -0.6581  0.3162  0.1934
 3064SOL     OW20650   2.098   0.257   0.932 -0.1066  0.5147  0.5955
 3064SOL    HW120651   2.077   0.322   0.865 -0.6888 -1.0465 -0.7122
 3064SOL    HW220652   2.141   0.323   0.987  2.3141 -0.9427  0.4637
 3065SOL     OW20653   1.725   3.264   0.882 -0.2355 -0.5786 -0.0819
 3065SOL    HW120654   1.676   3.246   0.802 -0.5731  0.3400 -0.0783
 3065SOL    HW220655   1.800   3.205   0.870  1.0302  1.0128 -0.0715
 3066SOL     OW20656   4.135   1.641  14.371 -0.1180 -0.2413  0.3344
 3066SOL    HW120657   4.126   1.569  14.433  0.0348 -0.5758 -0.0288
 3066SOL    HW220658   4.184   1.699  14.430  0.3602 -0.4644  0.1505
 3067SOL     OW20659   2.354   3.298   5.372 -0.1520  0.0802 -0.2681
 3067SOL    HW120660   2.388   3.252   5.449 -0.6885 -1.2067 -0.7916
 3067SOL    HW220661   2.425   3.288   5.309  0.4819  2.0212  0.1197
 3068SOL     OW20662   0.855   2.070  16.035  0.1933 -0.2063  0.1692
 3068SOL    HW120663   0.864   2.099  16.126 -1.5043  1.2471 -0.1291
 3068SOL    HW220664   0.894   1.982  16.032  1.3114  0.2061  2.7429
 3069SOL     OW20665   4.203   0.843  12.262  0.5861 -0.3386 -0.8443
 3069SOL    HW120666   4.226   0.928  12.299 -1.7747  0.2674 -0.7728
 3069SOL    HW220667   4.169   0.796  12.338  0.3907  0.5789 -0.3666
 3070SOL     OW20668   2.308   3.466  10.222 -0.2661 -0.1296  0.3668
 3070SOL    HW120669   2.392   3.510  10.207  0.4934 -1.6211  0.2759
 3070SOL    HW220670   2.249   3.537  10.246 -0.0408  0.3480 -0.4702
 3071SOL     OW20671   4.187   3.066   1.777  0.8364  0.4424 -0.0595
 3071SOL    HW120672   4.219   3.093   1.863  1.8874 -0.9098 -0.0270
 3071SOL    HW220673   4.147   3.149   1.751 -1.2358 -0.6207 -0.2823
 3072SOL     OW20674   0.838   4.649   5.076 -0.2165  0.6289  0.4452
 3072SOL    HW120675   0.879   4.614   5.156  0.2978 -0.1245 -0.1529
 3072SOL    HW220676   0.906   4.644   5.008 -0.2152  1.2264  0.4011
 3073SOL     OW20677   1.029   4.399   7.421 -0.6429  0.3684  0.1932
 3073SOL    HW120678   0.951   4.435   7.463 -1.3147 -0.0047 -0.7143
 3073SOL    HW220679   1.100   4.459   7.443  0.1009 -0.3936 -0.1372
 3074SOL     OW20680   0.725   4.698   2.651 -0.1677  0.4540 -0.0155
 3074SOL    HW120681   0.688   4.614   2.623  0.9902 -0.7142  2.0053
 3074SOL    HW220682   0.787   4.665   2.715 -1.0003  0.0583  0.5818
 3075SOL     OW20683   4.706   1.913   5.916  0.1202  0.1921  0.2175
 3075SOL    HW120684   4.676   1.841   5.860 -0.3621  0.3071  0.3312
 3075SOL    HW220685   0.073   1.891   5.938  0.4483  0.8488 -0.5217
 3076SOL     OW20686   1.612   1.801   8.101  0.3447 -0.0087 -0.0529
 3076SOL    HW120687   1.697   1.761   8.082  0.2986 -0.9854  1.8111
 3076SOL    HW220688   1.580   1.743   8.170  0.4166  2.6426  2.1850
 3077SOL     OW20689   1.937   1.830  11.714  0.4206  0.0086 -0.3031
 3077SOL    HW120690   1.870   1.805  11.649 -0.7909 -1.6761  1.6030
 3077SOL    HW220691   1.905   1.915  11.744  1.2793  1.1970 -2.7550
 3078SOL     OW20692   0.817   2.202   6.011  0.4642  0.2647 -0.4203
 3078SOL    HW120693   0.770   2.138   5.958 -1.3959  1.6611 -0.4761
 3078SOL    HW220694   0.813   2.282   5.958  1.2771  0.3125 -0.4063
 3079SOL     OW20695   1.979   1.990   8.238 -0.3503  0.1236 -0.3497
 3079SOL    HW120696   1.924   2.013   8.162 -0.3026  1.7257  0.1019
 3079SOL    HW220697   2.063   1.956   8.206 -0.2735 -0.3046  0.3182
 3080SOL     OW20698   2.023   2.676   5.929  0.6216  0.2143 -0.2671
 3080SOL    HW120699   2.051   2.767   5.926  2.1001 -0.3369 -3.2063
 3080SOL    HW220700   2.046   2.657   6.020 -1.0976 -0.6775 -0.0151
 3081SOL     OW20701   4.091   3.202  14.694  0.1855 -1.0326  0.4414
 3081SOL    HW120702   4.012   3.174  14.739 -0.7547  2.0848  0.6952
 3081SOL    HW220703   4.081   3.198  14.599  2.4366 -0.7005  0.1694
 3082SOL     OW20704   2.168   2.792  11.447 -0.0265  0.3193  0.1131
 3082SOL    HW120705   2.141   2.847  11.373 -1.9853 -0.4981  0.2288
 3082SOL    HW220706   2.110   2.718  11.428 -0.2888  0.9921 -1.7130
 3083SOL     OW20707   0.029   2.435   5.205  0.4224  0.3917 -0.5320
 3083SOL    HW120708   0.122   2.420   5.219  0.3649  1.5545  1.2101
 3083SOL    HW220709   0.030   2.472   5.117  1.3476 -1.9016 -1.4658
 3084SOL     OW20710   1.969   4.432  11.411 -0.4827  0.0975  0.3229
 3084SOL    HW120711   1.875   4.450  11.404 -0.2484  1.1447 -0.0656
 3084SOL    HW220712   1.990   4.385  11.491  0.8555  2.1478  1.1534
 3085SOL     OW20713   0.377   1.453   1.871  0.3282 -0.3864  0.2200
 3085SOL    HW120714   0.392   1.359   1.863 -1.6427 -0.7762  0.9085
 3085SOL    HW220715   0.320   1.469   1.796  0.5859  1.2051  0.3625
 3086SOL     OW20716   0.023   1.274   6.290  0.1187 -0.1482  0.0918
 3086SOL    HW120717   0.060   1.215   6.225 -1.2406 -1.6749  0.7221
 3086SOL    HW220718   4.724   1.348   6.233  2.4088  1.1445  0.7990
 3087SOL     OW20719   1.475   3.058   6.916  0.4985  0.2839  0.4219
 3087SOL    HW120720   1.538   3.096   6.977  2.8194 -0.2392 -1.6271
 3087SOL    HW220721   1.483   2.965   6.934  2.1719  0.0865 -1.3304
 3088SOL     OW20722   0.105   0.761   1.643  0.3514  0.7486  0.1276
 3088SOL    HW120723   0.077   0.769   1.552 -0.5133  1.6955  0.4775
 3088SOL    HW220724   0.042   0.694   1.668 -0.7550  1.1539 -1.5823
 3089SOL     OW20725   0.825   4.434   4.686 -0.0301 -0.0071 -0.6147
 3089SOL    HW120726   0.895   4.477   4.637  2.6618 -2.1588  1.2308
 3089SOL    HW220727   0.870   4.379   4.751  0.3221  0.7694 -0.2066
 3090SOL     OW20728   4.372   1.034   1.891 -0.0849  0.2487  0.5963
 3090SOL    HW120729   4.368   1.123   1.858 -1.8489 -0.3703 -0.9039
 3090SOL    HW220730   4.302   1.037   1.956 -0.1606 -0.0560  0.5300
 3091SOL     OW20731   2.709   4.531   6.447  0.1533  0.4465 -0.0979
 3091SOL    HW120732   2.755   4.612   6.423 -1.6263  0.9826 -1.7288
 3091SOL    HW220733   2.680   4.505   6.359 -1.6328  0.0094  0.6276
 3092SOL     OW20734   1.876   3.623   8.354  0.1298 -0.8011  0.0059
 3092SOL    HW120735   1.872   3.572   8.273 -0.2550  1.7666 -1.5780
 3092SOL    HW220736   1.820   3.560   8.400 -0.3669  0.1429  0.6842
 3093SOL     OW20737   4.426   0.060   1.436  0.2357 -0.3061  0.2699
 3093SOL    HW120738   4.405   0.149   1.407 -1.4658 -1.0768 -0.8939
 3093SOL    HW220739   4.521   0.063   1.430  0.4308 -1.2518  3.3180
 3094SOL     OW20740   2.867   4.375   1.875  0.2600 -0.4603  0.2330
 3094SOL    HW120741   2.813   4.436   1.926 -0.4676  0.1524 -1.2508
 3094SOL    HW220742   2.890   4.315   1.945 -0.9020  0.3176  1.2858
 3095SOL     OW20743   4.336   0.972  11.833  0.4624 -0.0791  0.7262
 3095SOL    HW120744   4.393   1.037  11.791 -0.2650 -0.0866 -0.2807
 3095SOL    HW220745   4.251   1.014  11.819  1.1434  0.9692 -0.3116
 3096SOL     OW20746   2.376   4.000   3.521 -0.1949 -0.3316  0.0495
 3096SOL    HW120747   2.457   4.026   3.476 -0.2804  1.6899  1.0593
 3096SOL    HW220748   2.373   4.052   3.601 -1.3530 -1.1011  0.4940
 3097SOL     OW20749   4.511   3.160   6.602  0.5556 -0.3473  0.5545
 3097SOL    HW120750   4.514   3.064   6.596  1.1347 -0.2337 -1.0970
 3097SOL    HW220751   4.553   3.163   6.688  1.5171 -1.3254  0.1301
 3098SOL     OW20752   2.953   0.626   8.160  0.1171 -0.1105 -0.1841
 3098SOL    HW120753   2.872   0.676   8.155  0.8463  0.9816 -0.9842
 3098SOL    HW220754   2.936   0.546   8.110  1.5454  0.7154 -2.0210
 3099SOL     OW20755   3.115   0.022   1.533 -0.3923 -0.2835 -0.2425
 3099SOL    HW120756   3.079   4.697   1.606 -0.9859 -0.8797 -0.9317
 3099SOL    HW220757   3.102   4.697   1.452 -1.3630 -0.2945 -0.0801
 3100SOL     OW20758   0.307   0.581  12.947  0.1955 -0.4812 -0.1171
 3100SOL    HW120759   0.241   0.628  12.998 -0.1138 -1.5302  0.4415
 3100SOL    HW220760   0.252   0.547  12.877  0.6115  1.1550 -1.2506
 3101SOL     OW20761   3.366   3.513   9.768 -0.0319  0.1795 -0.1174
 3101SOL    HW120762   3.295   3.463   9.728  1.8458 -0.4775 -2.6624
 3101SOL    HW220763   3.350   3.504   9.862 -0.1666 -1.6275 -0.3064
 3102SOL     OW20764   2.884   0.504  14.079  0.6901  0.0685 -0.1396
 3102SOL    HW120765   2.871   0.534  14.170 -2.3912  0.1063 -0.5983
 3102SOL    HW220766   2.918   0.581  14.034 -0.9648  0.2439 -1.0760
 3103SOL     OW20767   3.203   1.056  10.187  0.2096 -0.5509 -0.6433
 3103SOL    HW120768   3.174   1.071  10.277 -1.2522  1.2355 -1.4287
 3103SOL    HW220769   3.245   1.137  10.160 -2.6888  0.3475 -2.3452
 3104SOL     OW20770   0.868   0.435  12.157 -0.6722 -0.0370 -0.1330
 3104SOL    HW120771   0.837   0.483  12.234 -0.2694  0.2446 -0.1441
 3104SOL    HW220772   0.922   0.506  12.122 -1.1106 -0.3694 -1.4704
 3105SOL     OW20773   2.470   2.922  15.106  0.0454 -0.0113 -0.0520
 3105SOL    HW120774   2.513   2.966  15.031 -0.1125 -1.0212 -0.7311
 3105SOL    HW220775   2.398   2.984  15.116 -0.9455 -1.0775 -0.5738
 3106SOL     OW20776   1.852   0.445   4.965 -0.1770 -0.1042  0.3066
 3106SOL    HW120777   1.756   0.449   4.971 -0.2268 -1.3520  0.4918
 3106SOL    HW220778   1.862   0.463   4.872 -3.0308 -0.0310  0.0079
 3107SOL     OW20779   0.074   1.197   5.178 -0.1440 -0.7432  0.1923
 3107SOL    HW120780   0.066   1.266   5.112 -1.6548 -0.9142  0.1863
 3107SOL    HW220781   0.143   1.240   5.228 -0.5052 -1.6332  1.4446
 3108SOL     OW20782   4.555   0.809   8.264 -0.1446  0.2434  0.0170
 3108SOL    HW120783   4.512   0.832   8.346  1.9802  1.6279  0.7205
 3108SOL    HW220784   4.645   0.840   8.273 -0.5514  1.1395  0.8949
 3109SOL     OW20785   2.822   4.332  13.730 -0.0192 -0.3623  0.8226
 3109SOL    HW120786   2.799   4.416  13.770 -1.5463 -0.7374  0.7151
 3109SOL    HW220787   2.742   4.320  13.679  2.6023  0.4761 -3.5097
 3110SOL     OW20788   2.114   0.690  10.728 -0.2405 -0.4568 -0.3401
 3110SOL    HW120789   2.063   0.771  10.727 -0.1619 -0.4038  0.4875
 3110SOL    HW220790   2.053   0.641  10.783  1.9355 -0.5825  1.9296
 3111SOL     OW20791   4.419   0.374   6.797 -0.1180 -0.1016 -0.4700
 3111SOL    HW120792   4.390   0.447   6.743  1.3559 -0.9418 -2.3866
 3111SOL    HW220793   4.358   0.301   6.786  1.2023 -1.4490  1.0362
 3112SOL     OW20794   4.698   2.707  10.322 -0.5716 -0.1789  0.4810
 3112SOL    HW120795   4.713   2.623  10.277 -1.1009 -1.2048  2.2448
 3112SOL    HW220796   0.028   2.684  10.397 -0.0692  1.1040  0.4977
 3113SOL     OW20797   4.541   4.210   0.483 -0.3122  0.3929  0.0693
 3113SOL    HW120798   4.570   4.132   0.532  2.2534  1.8256  0.8293
 3113SOL    HW220799   4.495   4.166   0.412  0.0555  0.0531  0.0399
 3114SOL     OW20800   0.073   0.240  15.386  0.0187  0.3834  0.2526
 3114SOL    HW120801   0.075   0.294  15.307 -2.5384  1.2371  0.7613
 3114SOL    HW220802   0.066   0.158  15.337  0.3586  0.5980 -0.1488
 3115SOL     OW20803   0.625   0.768  13.180 -0.4148 -0.3054  0.7050
 3115SOL    HW120804   0.707   0.792  13.135  1.0636 -0.7747  3.1394
 3115SOL    HW220805   0.607   0.833  13.249  2.2819  1.1337  0.0666
 3116SOL     OW20806   3.079   4.265   6.754  0.1326  0.0970 -0.1771
 3116SOL    HW120807   2.988   4.255   6.785  0.1390  0.3608 -0.0717
 3116SOL    HW220808   3.126   4.194   6.797 -1.4036  1.4287  3.7384
 3117SOL     OW20809   4.611   0.583  12.139  0.1911 -0.7914  0.1386
 3117SOL    HW120810   4.628   0.494  12.109 -0.5778 -1.2911  1.2031
 3117SOL    HW220811   4.522   0.567  12.169 -0.0919  2.0495  0.8198
 3118SOL     OW20812   3.437   4.578   5.121  0.4676 -0.8393  0.1173
 3118SOL    HW120813   3.387   4.650   5.160  0.3720 -1.2885  0.8392
 3118SOL    HW220814   3.394   4.583   5.036 -0.7319 -1.9626  0.6516
 3119SOL     OW20815   0.161   1.142  11.205 -0.1465  0.1834 -0.5205
 3119SOL    HW120816   0.145   1.222  11.154 -2.0837  0.5372  0.6231
 3119SOL    HW220817   0.085   1.084  11.196  0.3791 -0.5285 -0.2704
 3120SOL     OW20818   4.054   0.087   7.354 -0.3122  0.5065  0.3712
 3120SOL    HW120819   4.148   0.107   7.351  0.0397 -0.8256  2.0048
 3120SOL    HW220820   4.019   0.143   7.423 -0.4869 -1.8716  2.2174
 3121SOL     OW20821   3.840   1.277   5.401  0.0889  0.0950  0.3030
 3121SOL    HW120822   3.934   1.292   5.394  0.3480 -0.7263  2.0328
 3121SOL    HW220823   3.815   1.268   5.309  3.2231 -0.8410 -0.4722
 3122SOL     OW20824   3.480   0.798   5.838 -0.0432 -0.2182 -0.3836
 3122SOL    HW120825   3.565   0.779   5.797  1.0222 -2.2697  2.8035
 3122SOL    HW220826   3.496   0.878   5.887  0.0287 -1.1573  1.1429
 3123SOL     OW20827   2.344   2.008   5.589  0.1939 -0.2328  0.2260
 3123SOL    HW120828   2.253   1.998   5.618  0.5407 -1.0224  1.0431
 3123SOL    HW220829   2.326   2.019   5.496  1.6210  2.5658  0.2813
 3124SOL     OW20830   2.921   1.439  15.371  0.0015  0.0850 -0.3628
 3124SOL    HW120831   2.984   1.422  15.441 -0.9032 -1.4795  0.0799
 3124SOL    HW220832   2.836   1.414  15.410  0.4797 -0.1893  0.5030
 3125SOL     OW20833   4.058   4.489  15.972  0.5142  0.3999 -0.3282
 3125SOL    HW120834   4.051   4.549  16.046  1.6616  1.3141 -0.9757
 3125SOL    HW220835   4.143   4.498  15.930  1.6666  0.0957  1.9056
 3126SOL     OW20836   3.424   1.540   4.282  0.1853 -0.1033 -0.5620
 3126SOL    HW120837   3.429   1.454   4.324 -2.2123  0.1019  0.1465
 3126SOL    HW220838   3.364   1.583   4.343 -0.5992 -2.5131  0.3553
 3127SOL     OW20839   0.789   2.841   8.767 -0.0639 -0.8996 -0.0550
 3127SOL    HW120840   0.795   2.876   8.855 -0.9162  1.2767 -0.8630
 3127SOL    HW220841   0.699   2.808   8.762 -1.0570  1.6098  1.2631
 3128SOL     OW20842   0.480   2.012   0.804 -0.3931  0.0716 -0.1488
 3128SOL    HW120843   0.445   1.932   0.845  0.1757 -0.6351 -1.0317
 3128SOL    HW220844   0.573   2.005   0.827 -0.4169 -1.5515 -0.5009
 3129SOL     OW20845   1.128   1.053   9.727  0.1090 -0.0261 -0.0179
 3129SOL    HW120846   1.131   1.148   9.742 -1.8677 -0.0879  0.7203
 3129SOL    HW220847   1.210   1.028   9.769  0.6700  1.6363 -0.1134
 3130SOL     OW20848   1.775   0.277   2.945  0.3778 -0.7027 -0.4946
 3130SOL    HW120849   1.834   0.345   2.980  1.6644 -1.9508 -0.2400
 3130SOL    HW220850   1.710   0.269   3.015  0.5806  2.8797  0.1355
 3131SOL     OW20851   3.972   1.097   3.329  0.0900 -0.0049 -0.0462
 3131SOL    HW120852   3.968   1.175   3.384 -0.3879  0.1997 -0.3734
 3131SOL    HW220853   3.891   1.051   3.352  0.4274 -1.1633 -1.1874
 3132SOL     OW20854   0.484   0.706  11.064 -0.1472 -0.1658  0.2657
 3132SOL    HW120855   0.556   0.646  11.081 -0.9655 -0.9659  0.9006
 3132SOL    HW220856   0.544   0.772  11.030 -0.4481 -1.0992 -2.0812
 3133SOL     OW20857   4.144   3.341   1.736 -0.3664 -0.2363 -0.4302
 3133SOL    HW120858   4.061   3.351   1.690  0.0915  2.5449 -0.6842
 3133SOL    HW220859   4.202   3.403   1.691  2.9867 -2.7838  0.4108
 3134SOL     OW20860   0.013   2.012   8.080  0.3788 -0.0925 -0.0100
 3134SOL    HW120861   0.044   2.040   8.166 -0.0750  1.9400 -0.5293
 3134SOL    HW220862   4.681   2.083   8.052 -1.6621 -1.7424 -0.0732
 3135SOL     OW20863   0.847   2.886   9.054  0.2590 -0.4112 -0.3054
 3135SOL    HW120864   0.801   2.823   9.110  0.7299  0.4855  1.0806
 3135SOL    HW220865   0.933   2.871   9.094 -0.2720 -1.0598  0.6046
 3136SOL     OW20866   2.458   0.514   1.748  0.1272  0.3574  0.3586
 3136SOL    HW120867   2.418   0.430   1.768  0.4988  0.3835  1.2073
 3136SOL    HW220868   2.495   0.554   1.827 -0.1758 -2.2887  1.8247
 3137SOL     OW20869   3.513   2.613  15.472 -0.4282  0.2030  0.0277
 3137SOL    HW120870   3.600   2.613  15.512  0.1329  0.3799 -1.1869
 3137SOL    HW220871   3.466   2.689  15.508  0.8073  0.3142  1.3988
 3138SOL     OW20872   2.976   0.492   8.660  0.0382 -0.3210 -0.1855
 3138SOL    HW120873   2.889   0.501   8.621 -0.2168 -3.1604 -0.2619
 3138SOL    HW220874   3.033   0.520   8.588 -0.9884 -0.6118 -1.1167
 3139SOL     OW20875   3.906   4.667   4.596  0.2215  0.6608 -0.4085
 3139SOL    HW120876   3.897   4.708   4.510  3.3175  1.4311 -0.3633
 3139SOL    HW220877   3.881   4.579   4.566  1.6938  0.6588 -1.6061
 3140SOL     OW20878   3.015   3.850   7.566  0.1683  0.0107  0.6588
 3140SOL    HW120879   2.936   3.866   7.617  0.3923 -0.8603  1.2644
 3140SOL    HW220880   3.019   3.754   7.566 -2.0860 -0.0753  2.9781
 3141SOL     OW20881   3.815   4.580   8.131 -0.1567 -0.4192 -0.2645
 3141SOL    HW120882   3.801   4.511   8.196 -0.7937 -0.0831 -0.0419
 3141SOL    HW220883   3.906   4.606   8.139 -0.3374  0.5512 -1.3852
 3142SOL     OW20884   1.582   1.942  12.244 -0.4224  0.1452 -0.0537
 3142SOL    HW120885   1.673   1.913  12.237  0.0317  1.4266  0.4939
 3142SOL    HW220886   1.597   2.031  12.212  1.0399  0.3103  1.0959
 3143SOL     OW20887   3.609   4.136   4.012  1.0176  0.7755 -0.2714
 3143SOL    HW120888   3.650   4.192   3.946  1.7286  0.9472  0.3092
 3143SOL    HW220889   3.676   4.070   4.031 -2.0755 -1.5021  2.7293
 3144SOL     OW20890   1.761   4.454   5.889  0.7739 -0.2616 -0.7081
 3144SOL    HW120891   1.697   4.387   5.864  1.4634 -0.4696 -1.9216
 3144SOL    HW220892   1.762   4.501   5.806 -0.1758 -2.5842 -2.0692
 3145SOL     OW20893   4.647   0.388  15.900 -0.0322  0.1192  0.0986
 3145SOL    HW120894   4.670   0.334  15.824  1.1624  2.0157 -0.8885
 3145SOL    HW220895   4.560   0.420  15.878  1.4383  2.0106 -3.1334
 3146SOL     OW20896   0.097   0.736   0.300 -0.2139  0.6448 -0.6786
 3146SOL    HW120897   0.066   0.704   0.385  0.2453 -0.7069 -1.0151
 3146SOL    HW220898   0.130   0.653   0.264 -1.1016 -0.6453  1.5152
 3147SOL     OW20899   3.323   2.623  12.238 -0.3874  0.6093  0.0141
 3147SOL    HW120900   3.338   2.715  12.261  0.0209  1.4792 -3.7759
 3147SOL    HW220901   3.261   2.601  12.307 -0.5309 -1.6971 -0.8510
 3148SOL     OW20902   4.433   3.781   1.746  0.1316  0.3383  0.1990
 3148SOL    HW120903   4.488   3.785   1.668  0.1478  1.3543  0.2559
 3148SOL    HW220904   4.500   3.771   1.814 -0.0047  0.0435  0.2908
 3149SOL     OW20905   0.197   1.508  14.285 -0.0683  0.1610 -0.1327
 3149SOL    HW120906   0.204   1.485  14.378  1.1119 -1.4013 -0.5944
 3149SOL    HW220907   0.103   1.523  14.279 -0.2289  0.1353  2.1280
 3150SOL     OW20908   0.878   1.536  11.116 -0.6263 -0.3270  0.0310
 3150SOL    HW120909   0.889   1.449  11.078 -2.0761 -0.9289  1.0047
 3150SOL    HW220910   0.971   1.554  11.105 -0.1432 -1.5083  2.2878
 3151SOL     OW20911   1.818   1.257   4.203  0.5288 -0.2325  0.8475
 3151SOL    HW120912   1.737   1.246   4.152  2.3452 -2.6231 -1.5046
 3151SOL    HW220913   1.860   1.304   4.130  1.8784 -1.4031  0.8673
 3152SOL     OW20914   3.309   1.654   8.865 -0.1248  0.1063  0.1635
 3152SOL    HW120915   3.306   1.627   8.773 -1.0169  3.0144 -0.6546
 3152SOL    HW220916   3.351   1.739   8.865  1.5885 -0.7437  0.3293
 3153SOL     OW20917   4.352   2.679   9.055 -0.5654  0.2119  0.5406
 3153SOL    HW120918   4.342   2.749   9.120 -0.1693 -1.4931  2.4160
 3153SOL    HW220919   4.446   2.661   9.060 -0.1421  1.8426 -1.3370
 3154SOL     OW20920   1.599   3.210  14.968 -0.0635  0.3093 -0.4635
 3154SOL    HW120921   1.514   3.254  14.962  1.4352  3.3644  0.5321
 3154SOL    HW220922   1.587   3.140  14.905  1.6663  0.3335 -0.8344
 3155SOL     OW20923   2.317   4.682   3.549  0.3654 -0.2365  0.0157
 3155SOL    HW120924   2.227   4.708   3.530 -0.5080 -1.4248  2.4779
 3155SOL    HW220925   2.359   4.666   3.465  1.9770 -2.5549  1.2519
 3156SOL     OW20926   3.093   1.804   9.999 -0.1647  0.0903 -0.9466
 3156SOL    HW120927   3.074   1.817  10.092  3.2444 -0.5942 -0.1400
 3156SOL    HW220928   3.084   1.710   9.983 -0.6285 -0.1344  0.6903
 3157SOL     OW20929   1.491   4.329  13.452  0.0093 -0.5988 -0.3603
 3157SOL    HW120930   1.454   4.315  13.539 -0.9088 -1.0358 -0.8268
 3157SOL    HW220931   1.572   4.376  13.471 -0.8990  1.4583 -1.4993
 3158SOL     OW20932   0.353   0.547  16.514  0.2421  0.1255 -0.2850
 3158SOL    HW120933   0.279   0.534  16.573  0.6524  1.4076  0.5142
 3158SOL    HW220934   0.310   0.561  16.429 -1.8483  2.9722  1.2608
 3159SOL     OW20935   0.891   2.327   8.292 -0.4664 -0.3048 -0.3095
 3159SOL    HW120936   0.960   2.270   8.257  0.2977  0.6031 -0.2867
 3159SOL    HW220937   0.891   2.323   8.387 -0.4038  1.5354 -0.2427
 3160SOL     OW20938   4.607   1.373   1.156 -0.0745 -0.3754  0.7297
 3160SOL    HW120939   4.666   1.302   1.181  1.3038  0.5088  0.0037
 3160SOL    HW220940   4.675   1.441   1.148  0.3984 -0.9733 -0.3628
 3161SOL     OW20941   2.536   4.328   4.931  0.0166  0.6289  0.3297
 3161SOL    HW120942   2.567   4.253   4.982 -1.6406 -0.0611  0.3313
 3161SOL    HW220943   2.611   4.353   4.878  0.1547 -0.3835  0.0607
 3162SOL     OW20944   1.807   3.792   0.197 -0.3032  0.0367 -0.3258
 3162SOL    HW120945   1.736   3.811   0.135  0.0384  0.8803 -0.4618
 3162SOL    HW220946   1.766   3.741   0.267  0.2008 -1.8149 -1.3894
 3163SOL     OW20947   0.029   0.834   4.662  0.0269  0.0057  0.4735
 3163SOL    HW120948   0.107   0.808   4.614 -0.5732  1.8296 -1.4442
 3163SOL    HW220949   0.045   0.778   4.739 -0.4230 -1.5059 -0.5390
 3164SOL     OW20950   4.145   1.857   8.092  0.3510  0.0742  0.8312
 3164SOL    HW120951   4.078   1.795   8.122 -0.5920  0.7901  0.1989
 3164SOL    HW220952   4.134   1.927   8.157  0.5131  1.6418 -0.8460
 3165SOL     OW20953   3.612   3.184   1.462 -0.2300  0.0620 -0.1038
 3165SOL    HW120954   3.583   3.137   1.540 -1.3870 -0.7014 -0.9947
 3165SOL    HW220955   3.547   3.255   1.464  0.8751  1.0277  1.4038
 3166SOL     OW20956   0.640   1.284   8.389  0.2882  0.1450 -0.7633
 3166SOL    HW120957   0.662   1.273   8.297 -0.1395  0.7268 -0.9364
 3166SOL    HW220958   0.626   1.192   8.412  1.6081 -0.1338 -1.1269
 3167SOL     OW20959   4.149   3.265   1.238 -0.5779 -0.0337  0.0236
 3167SOL    HW120960   4.213   3.336   1.232  0.3512 -0.7464  1.3221
 3167SOL    HW220961   4.066   3.312   1.249 -1.4515 -1.4018 -0.7074
 3168SOL     OW20962   2.239   4.094   7.349 -0.2500  0.2656  0.3332
 3168SOL    HW120963   2.317   4.120   7.399  2.0160 -0.5034 -2.8721
 3168SOL    HW220964   2.280   4.015   7.316 -1.1337 -0.8661  1.9400
 3169SOL     OW20965   0.118   0.648   4.840 -0.4912 -0.4649  0.4333
 3169SOL    HW120966   0.075   0.563   4.850 -2.4018  0.2606 -1.4852
 3169SOL    HW220967   0.209   0.624   4.820 -1.2548 -3.4087  0.6285
 3170SOL     OW20968   0.419   4.380  16.040  0.6093 -0.4030  0.1674
 3170SOL    HW120969   0.388   4.429  16.116 -1.7296 -0.7586 -0.5496
 3170SOL    HW220970   0.343   4.404  15.987 -0.6504 -0.7451  1.7788
 3171SOL     OW20971   4.285   4.539  10.796 -0.5069  0.0887 -0.0520
 3171SOL    HW120972   4.360   4.575  10.747 -0.9117 -0.9998 -1.4690
 3171SOL    HW220973   4.278   4.608  10.862  0.9024  1.2649 -1.1149
 3172SOL     OW20974   1.043   1.329   4.237 -0.0648  0.0133  0.0622
 3172SOL    HW120975   1.062   1.360   4.148  2.2146 -1.6524 -0.0271
 3172SOL    HW220976   0.959   1.374   4.244  0.9668  1.6278  1.9456
 3173SOL     OW20977   2.119   1.396   0.300  0.1164  0.3125  0.3351
 3173SOL    HW120978   2.113   1.314   0.348  0.8838  0.6954  1.0992
 3173SOL    HW220979   2.081   1.464   0.356 -1.2258 -0.6506  0.5872
 3174SOL     OW20980   0.692   0.485   3.009  0.1797 -1.0753  0.1353
 3174SOL    HW120981   0.608   0.453   3.042  0.2562 -1.9578 -0.5079
 3174SOL    HW220982   0.695   0.448   2.920  1.5183  0.8067 -0.5917
 3175SOL     OW20983   2.321   1.299  10.138  0.2238  0.1747 -0.1906
 3175SOL    HW120984   2.302   1.205  10.147  0.4084  0.4881  3.8299
 3175SOL    HW220985   2.335   1.304  10.044  0.4276 -1.1196 -0.2276
 3176SOL     OW20986   3.881   3.091   1.406 -0.2113 -0.1579  0.8882
 3176SOL    HW120987   3.954   3.139   1.445 -0.5269 -0.1934  1.5147
 3176SOL    HW220988   3.841   3.048   1.481  2.5081 -0.7931  1.9608
 3177SOL     OW20989   0.440   2.752   8.494  0.6152 -0.3990 -0.6484
 3177SOL    HW120990   0.470   2.842   8.477  4.0773 -1.2198  1.0962
 3177SOL    HW220991   0.487   2.698   8.430 -1.5025 -1.0103 -1.6559
 3178SOL     OW20992   3.985   3.342   9.429 -0.3778  0.4491 -0.1032
 3178SOL    HW120993   3.962   3.260   9.472  1.2563  0.2136  0.3419
 3178SOL    HW220994   4.035   3.387   9.498 -0.3596  0.7141 -0.2895
 3179SOL     OW20995   1.125   1.683   2.297  0.7505  0.2189 -0.1630
 3179SOL    HW120996   1.151   1.772   2.270  0.6454  0.3136  0.0472
 3179SOL    HW220997   1.171   1.672   2.380 -0.9664 -0.8068  0.6399
 3180SOL     OW20998   0.944   0.176   4.751 -0.4943  0.0413  0.2947
 3180SOL    HW120999   1.000   0.103   4.777  0.5105  0.1289 -1.6391
 3180SOL    HW221000   0.976   0.257   4.790 -1.2107  0.9309 -0.9401
 3181SOL     OW21001   2.971   1.775   7.081 -0.0236 -0.1765 -0.1399
 3181SOL    HW121002   2.951   1.757   6.989 -1.2099  1.7806 -0.2626
 3181SOL    HW221003   2.971   1.690   7.124  2.5895  0.2945  0.7738
 3182SOL     OW21004   1.974   0.020   5.278 -0.1346  0.2924  0.2474
 3182SOL    HW121005   2.028   0.025   5.199  0.5110  3.3554  0.8713
 3182SOL    HW221006   1.913   0.090   5.253  1.0192  1.0294 -0.5528
 3183SOL     OW21007   0.700   1.750  13.232 -0.1972 -0.2237  1.1725
 3183SOL    HW121008   0.718   1.834  13.189  1.5266 -1.6067 -0.8673
 3183SOL    HW221009   0.783   1.703  13.234  0.8058  1.5696  1.4913
 3184SOL     OW21010   3.148   2.431  12.796 -0.2586 -0.3343 -0.0600
 3184SOL    HW121011   3.142   2.505  12.857  0.2047 -0.4900  0.1705
 3184SOL    HW221012   3.183   2.367  12.858 -0.6460  2.2540  2.8247
 3185SOL     OW21013   2.776   2.631   6.287 -0.0695  0.2721  0.0295
 3185SOL    HW121014   2.830   2.558   6.317  2.3322  0.9300 -2.6956
 3185SOL    HW221015   2.795   2.616   6.194  0.7120 -0.0589  0.2434
 3186SOL     OW21016   4.172   4.701   1.711  0.0861 -0.4561  0.1063
 3186SOL    HW121017   4.115   0.025   1.650 -0.7607 -0.4174  0.9281
 3186SOL    HW221018   4.186   4.634   1.643  0.5571 -2.3762  2.1028
 3187SOL     OW21019   2.127   2.232   5.332 -0.2883  0.1177 -0.0832
 3187SOL    HW121020   2.087   2.162   5.280  0.3960  1.1955 -2.0489
 3187SOL    HW221021   2.068   2.308   5.321 -0.7444 -0.1985  0.1867
 3188SOL     OW21022   1.509   1.118  15.388 -0.3016 -0.6275  0.3815
 3188SOL    HW121023   1.575   1.110  15.457  1.1467  0.0768 -0.9202
 3188SOL    HW221024   1.440   1.171  15.429  0.2248  0.7987 -0.5893
 3189SOL     OW21025   1.037   0.999   9.470 -0.2688  0.4666 -0.2075
 3189SOL    HW121026   1.054   1.015   9.562  0.2398  0.9364 -0.3781
 3189SOL    HW221027   1.033   1.090   9.438  0.3370  1.2179  1.8402
 3190SOL     OW21028   0.610   0.186   2.791 -0.4236 -0.0883 -0.1251
 3190SOL    HW121029   0.691   0.214   2.834 -0.8893 -0.2588  0.8598
 3190SOL    HW221030   0.633   0.116   2.729 -1.7992 -0.7962  0.1513
 3191SOL     OW21031   3.203   1.651   7.691  0.4671 -0.4514  0.3618
 3191SOL    HW121032   3.189   1.573   7.745 -0.1026 -0.6751 -0.1200
 3191SOL    HW221033   3.132   1.703   7.729  0.2020  0.7812 -1.8525
 3192SOL     OW21034   1.005   0.179  13.535  0.4818  0.1888 -0.1709
 3192SOL    HW121035   0.913   0.170  13.559  1.4874 -3.4043  2.3863
 3192SOL    HW221036   1.034   0.163  13.625 -0.0559 -0.7956 -0.1729
 3193SOL     OW21037   0.221   0.942   5.067  0.2595 -0.0384 -0.0220
 3193SOL    HW121038   0.189   0.969   4.980 -1.8819 -1.1472  0.4207
 3193SOL    HW221039   0.206   1.021   5.119  0.1223  1.0319 -1.6553
 3194SOL     OW21040   3.624   3.313   3.879  0.2507  0.1640 -0.2443
 3194SOL    HW121041   3.670   3.318   3.962  2.9387  0.9625 -1.7835
 3194SOL    HW221042   3.643   3.221   3.863  0.4339 -0.0807  1.3879
 3195SOL     OW21043   3.634   0.190   5.147  0.0418 -1.1546  0.4172
 3195SOL    HW121044   3.656   0.235   5.065  3.1889  0.6472  2.2571
 3195SOL    HW221045   3.561   0.249   5.164  0.7265  0.0825 -0.9370
 3196SOL     OW21046   1.760   4.707   9.555 -0.0459  0.1349  0.3484
 3196SOL    HW121047   1.767   4.646   9.628  2.0115  1.0389  0.8991
 3196SOL    HW221048   1.725   4.659   9.480  2.2622  1.5719 -1.6543
 3197SOL     OW21049   3.628   1.368  14.195 -0.6536  0.0805  0.4383
 3197SOL    HW121050   3.567   1.424  14.148 -0.1768  0.4033  0.2095
 3197SOL    HW221051   3.634   1.409  14.282  0.6528  0.4931  0.1476
 3198SOL     OW21052   2.480   2.849  12.791 -0.2556 -0.8611  0.1909
 3198SOL    HW121053   2.495   2.854  12.885 -1.6914 -0.2246  0.3794
 3198SOL    HW221054   2.396   2.894  12.779  1.1708  2.0246  1.0457
 3199SOL     OW21055   2.572   2.438   9.135  0.2168 -0.5223  0.1308
 3199SOL    HW121056   2.664   2.462   9.122  0.6677 -1.9095  0.8376
 3199SOL    HW221057   2.553   2.494   9.211  0.1342  2.4191 -2.0357
 3200SOL     OW21058   4.550   1.461   1.829  1.1549 -0.4742 -0.3953
 3200SOL    HW121059   4.590   1.534   1.875 -0.2676 -1.1124  1.8498
 3200SOL    HW221060   4.620   1.414   1.784 -1.6190 -2.0066 -3.1637
 3201SOL     OW21061   0.979   2.687   3.802 -0.2407 -0.0192 -0.1376
 3201SOL    HW121062   1.044   2.749   3.835 -0.4868 -0.9742  2.0796
 3201SOL    HW221063   0.925   2.664   3.877 -0.3342 -0.4048 -0.3219
 3202SOL     OW21064   4.106   2.378   5.563  0.1938  0.1380 -0.0693
 3202SOL    HW121065   4.051   2.402   5.638  0.5717  0.9726 -0.0520
 3202SOL    HW221066   4.184   2.433   5.574  0.0491  0.4371 -0.5682
 3203SOL     OW21067   1.642   4.151   6.101  0.1985  0.6229  0.2234
 3203SOL    HW121068   1.623   4.066   6.141  2.6555 -0.4609 -0.9277
 3203SOL    HW221069   1.605   4.207   6.169 -0.7173  2.1618 -1.5754
 3204SOL     OW21070   4.048   2.330   4.219 -0.2027 -0.3191 -0.2841
 3204SOL    HW121071   4.029   2.309   4.128 -1.6579  1.5885 -0.4315
 3204SOL    HW221072   4.050   2.244   4.261 -0.6743 -0.0196  0.3612
 3205SOL     OW21073   1.650   3.680   2.165 -0.4025  0.2807  0.5322
 3205SOL    HW121074   1.587   3.613   2.192 -0.3320 -0.5855 -1.4542
 3205SOL    HW221075   1.610   3.711   2.083  0.5577  0.8613  0.2847
 3206SOL     OW21076   1.271   3.985  14.347  0.5096 -0.5403  0.3858
 3206SOL    HW121077   1.238   3.949  14.265  1.0390 -0.5015  0.1613
 3206SOL    HW221078   1.258   3.904  14.397  0.6742 -2.1774 -2.2398
 3207SOL     OW21079   3.199   2.072   6.931 -0.2661 -0.3064  0.0671
 3207SOL    HW121080   3.160   2.159   6.923  0.2089 -0.0185  0.8747
 3207SOL    HW221081   3.187   2.054   7.024 -1.0486 -1.8610 -0.3331
 3208SOL     OW21082   2.879   3.943   5.462  0.3247 -0.3643 -0.1960
 3208SOL    HW121083   2.806   3.935   5.523  0.3343  0.3993 -0.0755
 3208SOL    HW221084   2.951   3.908   5.516  0.0495 -0.6948 -0.0450
 3209SOL     OW21085   2.636   3.678   5.018  0.6711  0.3571 -0.1845
 3209SOL    HW121086   2.671   3.603   5.067  1.3209  1.0995  0.4976
 3209SOL    HW221087   2.553   3.695   5.063  0.3867  1.2734 -1.0570
 3210SOL     OW21088   3.279   3.149  10.641 -0.1189 -0.3895  0.4707
 3210SOL    HW121089   3.268   3.242  10.660 -0.6571 -0.5519  0.9531
 3210SOL    HW221090   3.367   3.132  10.676  0.2451 -0.6331 -0.5702
 3211SOL     OW21091   1.266   1.520   1.088 -0.2356  0.0418  0.4807
 3211SOL    HW121092   1.264   1.615   1.078  0.3751  0.1361  1.2005
 3211SOL    HW221093   1.174   1.494   1.097  0.0406 -1.3691 -0.6683
 3212SOL     OW21094   3.877   1.409  15.635 -0.8433 -0.3804  0.2461
 3212SOL    HW121095   3.817   1.472  15.595 -0.8636 -1.8302 -1.9997
 3212SOL    HW221096   3.893   1.454  15.718  1.6614  1.1434 -1.0706
 3213SOL     OW21097   4.397   0.690  17.269 -0.1799  0.0852  0.1033
 3213SOL    HW121098   4.374   0.770  17.222  3.1314  0.9838  0.0015
 3213SOL    HW221099   4.404   0.624  17.200 -1.1292 -1.6766  1.6929
 3214SOL     OW21100   2.444   1.786  14.053  0.0716 -0.4178 -0.1008
 3214SOL    HW121101   2.482   1.800  14.139 -0.9129  0.2313  0.2205
 3214SOL    HW221102   2.402   1.864  14.017  1.3487  0.5406  0.5407
 3215SOL     OW21103   0.453   2.274   1.053  0.5274  0.5246 -0.1409
 3215SOL    HW121104   0.500   2.246   1.132 -0.7509  0.0514  0.4394
 3215SOL    HW221105   0.490   2.360   1.035  1.0029  0.3036 -0.2279
 3216SOL     OW21106   3.630   0.800   6.668 -0.1162  0.7529  0.0915
 3216SOL    HW121107   3.658   0.891   6.675  0.4496  0.8712 -3.6015
 3216SOL    HW221108   3.689   0.778   6.596 -0.5841  1.4155 -0.5010
 3217SOL     OW21109   0.092   1.032   4.211  0.9193  0.3475 -0.0849
 3217SOL    HW121110   0.144   0.959   4.243 -2.1951 -1.5943  0.6304
 3217SOL    HW221111   0.020   1.027   4.274  0.5810  1.2071 -0.4100
 3218SOL     OW21112   3.929   3.495   3.002  0.5749  0.7339  0.5002
 3218SOL    HW121113   3.881   3.449   3.071 -0.1535  0.2497 -0.3324
 3218SOL    HW221114   3.917   3.586   3.031 -1.7536  0.9368 -1.1128
 3219SOL     OW21115   3.759   2.300   2.185  0.7013  0.5869 -0.6991
 3219SOL    HW121116   3.782   2.212   2.155 -1.6507  0.4234 -2.0357
 3219SOL    HW221117   3.822   2.306   2.257  0.2916 -1.6916 -0.1403
 3220SOL     OW21118   4.120   0.282   1.834 -0.2907  0.9966 -0.1498
 3220SOL    HW121119   4.071   0.224   1.894  0.2908  0.4441 -0.2143
 3220SOL    HW221120   4.150   0.349   1.895  0.6995  1.0808 -0.7397
 3221SOL     OW21121   2.331   2.920   6.509  0.4396  0.3794 -0.4129
 3221SOL    HW121122   2.309   2.839   6.554 -1.3795  1.4058  0.5335
 3221SOL    HW221123   2.342   2.987   6.577 -0.7997  1.1543 -0.9692
 3222SOL     OW21124   3.155   3.198  12.539  0.7611  0.5546  0.2001
 3222SOL    HW121125   3.184   3.200  12.448 -0.5129 -0.7286 -0.2330
 3222SOL    HW221126   3.060   3.206  12.528  0.7570  0.3573  0.0836
 3223SOL     OW21127   4.248   0.184   2.909  0.4263 -0.2837  0.7030
 3223SOL    HW121128   4.182   0.220   2.848  0.6083 -2.2766 -0.6794
 3223SOL    HW221129   4.327   0.195   2.856  0.2493 -2.3847  0.0140
 3224SOL     OW21130   0.656   3.787   2.278  0.1294 -0.1951 -0.5891
 3224SOL    HW121131   0.584   3.837   2.238 -0.1068 -2.4265 -2.9482
 3224SOL    HW221132   0.645   3.811   2.370 -1.9327  0.5088 -1.0205
 3225SOL     OW21133   3.427   3.340   5.503 -0.2907 -0.2366 -0.4534
 3225SOL    HW121134   3.514   3.306   5.523  1.1967  1.5358 -3.9388
 3225SOL    HW221135   3.375   3.260   5.497  1.8138 -1.5156 -1.3070
 3226SOL     OW21136   3.920   1.143   0.303 -0.5170  0.0252  0.2415
 3226SOL    HW121137   3.967   1.219   0.269  0.4717 -0.2459  0.9887
 3226SOL    HW221138   3.828   1.165   0.294 -0.3084  0.4271 -0.9026
 3227SOL     OW21139   1.861   2.094   1.000 -0.1097 -0.7544  0.2474
 3227SOL    HW121140   1.878   2.059   1.088 -1.2723  1.1384  1.2149
 3227SOL    HW221141   1.777   2.139   0.995  0.7682  0.7306 -1.0317
 3228SOL     OW21142   3.144   1.338   3.670  0.0939  0.3280 -0.6648
 3228SOL    HW121143   3.216   1.304   3.617  0.2165 -0.0971 -0.2252
 3228SOL    HW221144   3.077   1.338   3.601  0.9082  1.0822 -1.4439
 3229SOL     OW21145   4.021   3.941   5.405 -0.2617  0.5195 -0.0709
 3229SOL    HW121146   3.974   3.935   5.322 -0.3569  0.0846  0.0129
 3229SOL    HW221147   4.013   4.034   5.425 -0.1726  0.6010 -0.4193
 3230SOL     OW21148   0.009   4.666  16.193  0.0394 -0.2576 -0.5648
 3230SOL    HW121149   0.005   4.570  16.190  1.5455 -0.1952 -4.2136
 3230SOL    HW221150   0.037   4.685  16.282 -0.1668 -0.7667 -0.3896
 3231SOL     OW21151   0.127   4.024  14.578  0.3492 -0.5391  0.0988
 3231SOL    HW121152   0.045   4.060  14.545  1.7372  0.0181 -2.7628
 3231SOL    HW221153   0.160   4.107  14.613  0.0628 -0.4731  0.2138
 3232SOL     OW21154   0.044   4.396  16.197 -0.5845 -0.3466  0.4474
 3232SOL    HW121155   4.676   4.370  16.193 -0.9768  1.3442 -1.7093
 3232SOL    HW221156   0.072   4.369  16.284 -0.7947  1.5081  1.0987
 3233SOL     OW21157   0.586   2.621   4.958  0.3635 -0.1044 -0.1279
 3233SOL    HW121158   0.623   2.668   4.883  0.4587 -0.9848 -0.6372
 3233SOL    HW221159   0.533   2.559   4.908  0.2089  0.7154 -0.9848
 3234SOL     OW21160   3.177   1.348  15.489  0.2609  0.2775  0.2590
 3234SOL    HW121161   3.203   1.263  15.524 -0.2600 -0.3874 -0.9732
 3234SOL    HW221162   3.149   1.321  15.402  0.4225 -0.0423  0.3101
 3235SOL     OW21163   3.053   3.133   9.626  0.7871  0.2982 -0.0753
 3235SOL    HW121164   3.076   3.111   9.536  1.0365  0.4696 -0.0541
 3235SOL    HW221165   3.069   3.048   9.666 -1.5838 -1.2011 -2.3850
 3236SOL     OW21166   1.733   2.947   9.048  0.4510  0.6893 -0.1538
 3236SOL    HW121167   1.798   2.882   9.023 -1.3517 -1.9092  1.8388
 3236SOL    HW221168   1.787   3.026   9.054  3.4345 -1.2264 -1.6600
 3237SOL     OW21169   3.731   0.343   6.128 -0.4014 -0.0681 -0.8623
 3237SOL    HW121170   3.725   0.437   6.146  3.5666  0.0461 -0.2896
 3237SOL    HW221171   3.772   0.317   6.210 -0.4450 -2.4024 -1.5893
 3238SOL     OW21172   0.535   4.432  14.581 -0.1356 -0.1813 -0.2057
 3238SOL    HW121173   0.448   4.409  14.548 -0.9775  2.5793  0.0991
 3238SOL    HW221174   0.551   4.515  14.537  0.7643 -0.5048 -0.4975
 3239SOL     OW21175   3.951   1.699   8.187 -0.7049  0.2535  0.4099
 3239SOL    HW121176   3.904   1.774   8.224 -2.2422 -2.3018  3.6537
 3239SOL    HW221177   3.920   1.644   8.259 -0.3726  0.7842  0.9603
 3240SOL     OW21178   1.152   4.158  10.597  0.3879  0.1356  0.0739
 3240SOL    HW121179   1.222   4.120  10.650  0.4865  0.5531  0.2467
 3240SOL    HW221180   1.080   4.122  10.648 -0.4455  1.1372 -0.4095
 3241SOL     OW21181   2.847   3.382   7.213  0.3779 -0.5950  0.5572
 3241SOL    HW121182   2.942   3.376   7.208  0.5113  0.5309  1.7777
 3241SOL    HW221183   2.826   3.308   7.270  0.6195  0.1815  1.6661
 3242SOL     OW21184   1.250   2.239   6.831 -0.3468  0.6145  0.2236
 3242SOL    HW121185   1.308   2.315   6.828  0.2902  0.0975 -0.7041
 3242SOL    HW221186   1.196   2.255   6.753 -0.5705 -1.4624 -0.0604
 3243SOL     OW21187   3.440   2.991   6.389 -0.0925 -0.0199 -0.1950
 3243SOL    HW121188   3.358   2.965   6.347 -0.3666  0.6417 -0.0697
 3243SOL    HW221189   3.506   2.970   6.324  1.1011 -0.6627  1.2274
 3244SOL     OW21190   1.492   4.321   9.332  0.0573  0.2036  0.5045
 3244SOL    HW121191   1.396   4.315   9.331  0.1033 -0.3520 -0.1313
 3244SOL    HW221192   1.502   4.226   9.337 -0.7083  0.0869 -0.1296
 3245SOL     OW21193   0.075   4.287   5.097  0.0662 -1.1857 -0.1117
 3245SOL    HW121194   4.709   4.314   5.111  0.8681  2.5589 -1.9624
 3245SOL    HW221195   0.075   4.214   5.035 -0.4699 -1.9807  0.8366
 3246SOL     OW21196   0.536   1.111   3.124 -0.2397 -0.1861 -0.0630
 3246SOL    HW121197   0.596   1.183   3.104  0.2964 -0.7817 -0.5978
 3246SOL    HW221198   0.573   1.038   3.074  0.0112 -0.5535  0.6668
 3247SOL     OW21199   4.333   4.360  17.500  0.0631 -0.0688  0.0739
 3247SOL    HW121200   4.307   4.379  17.590 -0.5953  0.1044 -0.1557
 3247SOL    HW221201   4.362   4.450  17.488  0.6878 -0.2190  0.4113
 3248SOL     OW21202   4.253   1.498  17.678  0.2286  0.3319  0.0529
 3248SOL    HW121203   4.299   1.421  17.645 -0.5594 -0.4241  0.7267
 3248SOL    HW221204   4.171   1.455   0.002  1.2595 -0.4548  2.2977
 3249SOL     OW21205   3.954   1.536  17.569  0.0106  0.1508  0.1133
 3249SOL    HW121206   4.017   1.505  17.504  0.7890  0.6182  0.6492
 3249SOL    HW221207   3.935   1.451  17.608  0.9373  0.0901  0.4346
 3250SOL     OW21208   4.355   1.522   5.776  0.1767  0.0127  0.2910
 3250SOL    HW121209   4.389   1.502   5.689 -0.6429 -1.5632  0.3406
 3250SOL    HW221210   4.416   1.480   5.835 -0.2049 -0.6243  0.2289
 3251SOL     OW21211   2.430   4.133   3.752 -0.2308 -0.5396  0.4396
 3251SOL    HW121212   2.442   4.065   3.818 -1.3386 -1.3444 -0.1842
 3251SOL    HW221213   2.463   4.209   3.799 -2.1239  1.2712 -1.1581
 3252SOL     OW21214   0.979   0.256   6.240 -0.2980  0.2606  0.0359
 3252SOL    HW121215   1.011   0.335   6.196 -1.1345 -0.2604 -1.5008
 3252SOL    HW221216   0.933   0.294   6.315  0.0513  0.8068 -0.0270
 3253SOL     OW21217   2.946   4.632   8.582 -0.0144  0.0902  0.1496
 3253SOL    HW121218   2.856   4.639   8.613 -0.3472 -0.0453 -0.7961
 3253SOL    HW221219   2.996   4.685   8.645 -1.3978  0.1634  1.1759
 3254SOL     OW21220   1.532   3.415   4.469 -0.4389 -0.1460 -0.3581
 3254SOL    HW121221   1.476   3.339   4.454  1.6002 -1.4299 -1.4883
 3254SOL    HW221222   1.490   3.482   4.415 -1.5112 -0.4113  0.1568
 3255SOL     OW21223   2.822   2.464  12.440  0.2699 -0.6268 -0.1731
 3255SOL    HW121224   2.772   2.399  12.489 -0.8778 -0.6129 -1.3418
 3255SOL    HW221225   2.874   2.507  12.509 -1.9066  0.8448  0.5580
 3256SOL     OW21226   4.236   1.370   5.155 -0.1598  0.2240  0.6454
 3256SOL    HW121227   4.295   1.321   5.212 -1.2755 -1.4496  0.3711
 3256SOL    HW221228   4.298   1.433   5.118  1.0860 -2.0556 -1.1192
 3257SOL     OW21229   4.526   1.804   1.264  0.7624  0.6193  0.2457
 3257SOL    HW121230   4.604   1.824   1.212 -1.7486  1.8365 -3.0780
 3257SOL    HW221231   4.488   1.750   1.195  2.0425 -0.5536  0.4588
 3258SOL     OW21232   1.328   4.016  10.765 -0.7727  0.2257 -0.0358
 3258SOL    HW121233   1.387   3.976  10.701  1.4766 -0.5264  2.4727
 3258SOL    HW221234   1.386   4.087  10.793 -0.5171 -0.4284  1.1428
 3259SOL     OW21235   1.012   4.254   1.415  0.2089  0.5343 -0.3020
 3259SOL    HW121236   0.951   4.284   1.348 -0.3971  0.5332  0.2545
 3259SOL    HW221237   0.954   4.188   1.453  0.0809  0.5748 -0.4268
 3260SOL     OW21238   3.471   3.824   0.713 -0.0396  0.2416  0.6963
 3260SOL    HW121239   3.534   3.762   0.675 -0.2606  0.7359 -0.4521
 3260SOL    HW221240   3.477   3.909   0.670  0.7932  0.5923  1.4880
 3261SOL     OW21241   4.532   1.369   2.173  0.8575 -0.1208 -0.3845
 3261SOL    HW121242   4.481   1.349   2.252 -0.5309  1.0927 -0.9654
 3261SOL    HW221243   4.569   1.456   2.188 -0.2761  0.4449 -0.8869
 3262SOL     OW21244   3.697   4.216   7.582 -0.2579 -0.4619 -0.3249
 3262SOL    HW121245   3.725   4.249   7.667  1.3366 -3.6135  0.3650
 3262SOL    HW221246   3.602   4.223   7.589 -0.1692 -0.1285  0.6035
 3263SOL     OW21247   3.109   0.136  12.658  0.2646  0.3693 -0.5839
 3263SOL    HW121248   3.022   0.161  12.689  1.3955  1.3698  1.8110
 3263SOL    HW221249   3.100   0.148  12.564 -0.2294  1.3888 -0.4001
 3264SOL     OW21250   1.249   4.697   5.557  0.0919  0.0672 -0.0469
 3264SOL    HW121251   1.294   0.053   5.583  0.4111  0.4905 -1.8884
 3264SOL    HW221252   1.242   4.648   5.639  0.3260  1.1152  0.5913
 3265SOL     OW21253   1.452   1.286   0.661 -0.4188  0.2238  0.0515
 3265SOL    HW121254   1.416   1.343   0.728  0.8839  2.1273 -0.8523
 3265SOL    HW221255   1.473   1.345   0.588 -2.2711  2.5634  1.4109
 3266SOL     OW21256   4.154   2.984   5.224  0.1275  0.3135  0.2643
 3266SOL    HW121257   4.122   3.074   5.232  1.8347  0.9539 -0.0994
 3266SOL    HW221258   4.164   2.970   5.318  0.2671  1.9160  0.5041
 3267SOL     OW21259   1.033   1.083   2.426  0.4449  0.7818 -0.0723
 3267SOL    HW121260   1.076   1.038   2.352 -0.5685  1.2347 -0.9327
 3267SOL    HW221261   0.950   1.108   2.387  0.9178 -3.4679 -3.8492
 3268SOL     OW21262   2.906   0.566   3.248 -0.1227  0.3522  0.1138
 3268SOL    HW121263   2.861   0.483   3.265 -0.7406  0.5785 -0.4567
 3268SOL    HW221264   2.915   0.594   3.339  0.2895 -2.6784  1.0307
 3269SOL     OW21265   2.202   3.219   4.613 -0.7404  0.1196  0.0233
 3269SOL    HW121266   2.161   3.133   4.608  1.2256 -0.7428 -1.3954
 3269SOL    HW221267   2.171   3.255   4.696  1.2374 -0.0107  0.8161
 3270SOL     OW21268   2.424   4.094   0.092 -0.1007 -0.0205 -0.0618
 3270SOL    HW121269   2.452   4.026   0.031 -1.2271 -2.2542  1.9016
 3270SOL    HW221270   2.394   4.044   0.168  2.4438 -0.0709  0.9288
 3271SOL     OW21271   0.516   2.637  12.424  0.9119  0.0042 -0.4405
 3271SOL    HW121272   0.423   2.618  12.413  0.9780 -1.8048  2.1182
 3271SOL    HW221273   0.512   2.670  12.514 -0.2047  1.1168 -0.8967
 3272SOL     OW21274   2.191   3.768  13.971 -0.1772  0.1501  0.3591
 3272SOL    HW121275   2.158   3.704  13.908 -0.0638  1.6529 -1.2291
 3272SOL    HW221276   2.188   3.718  14.053  1.4082  1.3019  1.1050
 3273SOL     OW21277   3.930   3.570   7.875 -0.3503  0.0116  0.3082
 3273SOL    HW121278   3.861   3.609   7.929 -1.6689 -0.3957 -1.0830
 3273SOL    HW221279   4.005   3.606   7.924  0.8098  1.1250 -2.2758
 3274SOL     OW21280   4.665   2.593  10.676 -0.5932  0.0981 -0.0086
 3274SOL    HW121281   0.015   2.615  10.620 -1.6902  0.5073 -1.3173
 3274SOL    HW221282   4.649   2.662  10.740 -1.0428  0.4007 -0.4386
 3275SOL     OW21283   4.072   4.044  16.832 -0.6111 -1.0092  0.7866
 3275SOL    HW121284   4.047   3.958  16.867  2.3076 -0.5107  4.1437
 3275SOL    HW221285   4.166   4.042  16.854  0.0379  1.0967 -1.8399
 3276SOL     OW21286   3.222   0.811   0.310 -0.2439  0.3303  0.1041
 3276SOL    HW121287   3.253   0.766   0.231 -1.0850  3.0259 -1.7442
 3276SOL    HW221288   3.310   0.831   0.343 -0.3669  0.8670  0.1065
 3277SOL     OW21289   2.063   3.173   2.246  0.0062 -0.1335 -0.2949
 3277SOL    HW121290   2.135   3.112   2.236  2.0279  2.4201 -1.3259
 3277SOL    HW221291   2.083   3.246   2.187  1.2949  0.1186  0.4792
 3278SOL     OW21292   2.385   0.856   0.118  0.1846  0.4555  0.4160
 3278SOL    HW121293   2.461   0.799   0.123  0.0309  0.3267  1.3040
 3278SOL    HW221294   2.380   0.886   0.209  0.5932  2.6321 -0.2902
 3279SOL     OW21295   0.625   4.081  13.042  0.5197 -0.1413 -0.6378
 3279SOL    HW121296   0.642   4.003  13.095  0.9208  0.7108  0.4715
 3279SOL    HW221297   0.580   4.045  12.965 -1.6502  0.9726  0.1251
 3280SOL     OW21298   0.750   1.162  15.321 -0.3467  0.5816  0.0543
 3280SOL    HW121299   0.825   1.221  15.332 -0.5102  0.7907  0.0425
 3280SOL    HW221300   0.784   1.095  15.380  0.9237 -0.5669 -1.9965
 3281SOL     OW21301   4.530   0.400   3.040  0.2170  0.2273  0.2306
 3281SOL    HW121302   4.527   0.353   3.123  0.7892 -2.7825 -1.4352
 3281SOL    HW221303   4.526   0.317   2.992 -0.2006 -0.8716  2.2052
 3282SOL     OW21304   2.347   4.680   6.164  0.4732  0.0177  0.5338
 3282SOL    HW121305   2.263   4.716   6.193  0.3408 -0.1492  0.3624
 3282SOL    HW221306   2.411   0.006   6.213  1.1867 -1.5423  1.2025
 3283SOL     OW21307   2.742   1.398   8.496 -0.4587 -0.2527  0.5432
 3283SOL    HW121308   2.806   1.469   8.492 -0.7785  0.0307  0.4309
 3283SOL    HW221309   2.669   1.443   8.539 -0.5720  0.7513 -0.6598
 3284SOL     OW21310   2.005   1.046  11.971  0.4621 -0.6417 -0.3947
 3284SOL    HW121311   1.911   1.034  11.979  0.3534  1.9211  2.3417
 3284SOL    HW221312   2.034   1.005  12.053  0.9176 -0.7279 -0.5953
 3285SOL     OW21313   2.037   1.773   0.254 -0.3472  0.0514 -0.3539
 3285SOL    HW121314   2.030   1.723   0.335  2.2476 -2.4946 -1.7022
 3285SOL    HW221315   1.958   1.747   0.208  0.1952 -1.5012 -0.3959
 3286SOL     OW21316   2.493   1.744  13.776 -0.1936  0.0527 -0.0961
 3286SOL    HW121317   2.485   1.728  13.870  2.3365 -0.2136  0.0560
 3286SOL    HW221318   2.526   1.833  13.772  1.5382 -0.7409 -3.3020
 3287SOL     OW21319   3.572   4.353   1.919  0.4573 -0.1256  0.2963
 3287SOL    HW121320   3.633   4.425   1.908  0.2434  0.2669  1.6403
 3287SOL    HW221321   3.495   4.396   1.882  1.1156  1.5073  0.8433
 3288SOL     OW21322   0.871   3.581  15.895  0.3852  0.1057 -0.1171
 3288SOL    HW121323   0.821   3.501  15.905  0.9655 -0.0471  1.5985
 3288SOL    HW221324   0.874   3.586  15.799  1.0751  0.2595 -0.0916
 3289SOL     OW21325   2.286   1.316   3.214 -0.3483 -0.0475 -0.3311
 3289SOL    HW121326   2.246   1.240   3.256 -3.0068  0.8428 -1.2693
 3289SOL    HW221327   2.367   1.278   3.178 -0.6723 -0.9229 -0.1444
 3290SOL     OW21328   0.747   4.064  12.476  0.1307  0.0636 -0.1298
 3290SOL    HW121329   0.653   4.046  12.466 -0.1017  0.0977  2.0214
 3290SOL    HW221330   0.732   4.143  12.528 -0.0920 -0.1352  0.1053
 3291SOL     OW21331   1.838   1.761  16.507 -0.2619 -0.3342 -0.4139
 3291SOL    HW121332   1.833   1.765  16.602 -0.8093  0.9345 -0.4956
 3291SOL    HW221333   1.746   1.768  16.484 -0.3432  0.0194  0.0184
 3292SOL     OW21334   0.769   3.488   4.220 -0.2321 -0.4577  0.7102
 3292SOL    HW121335   0.815   3.459   4.141  0.3929  1.9153  0.1958
 3292SOL    HW221336   0.730   3.572   4.193 -1.5864 -1.6572 -1.1199
 3293SOL     OW21337   2.302   2.347   2.597  0.2403 -0.2219 -0.1999
 3293SOL    HW121338   2.281   2.258   2.570  1.4357 -0.4349 -0.4408
 3293SOL    HW221339   2.344   2.386   2.520 -2.3080 -0.6723 -1.7962
 3294SOL     OW21340   3.286   1.597   8.588 -0.1394  0.0451  0.1791
 3294SOL    HW121341   3.354   1.606   8.522  0.0218  0.5934  0.4140
 3294SOL    HW221342   3.241   1.682   8.582 -0.0184  0.1792  1.1220
 3295SOL     OW21343   0.347   2.504  10.608 -0.0385 -0.4598 -0.1670
 3295SOL    HW121344   0.382   2.450  10.536 -1.1687 -1.5110  0.0661
 3295SOL    HW221345   0.329   2.449  10.684 -0.4903  2.6690  1.9478
 3296SOL     OW21346   2.709   4.661  15.983 -0.0447 -0.0926 -0.3457
 3296SOL    HW121347   2.641   4.689  16.043  0.6987 -1.2641  1.0232
 3296SOL    HW221348   2.733   0.025  15.954  0.4578  0.7323  2.6228
 3297SOL     OW21349   1.216   3.644   4.538 -0.3444  0.0247 -0.2924
 3297SOL    HW121350   1.144   3.699   4.569  1.2136  0.9963  1.5630
 3297SOL    HW221351   1.236   3.699   4.463 -0.6787 -0.9930 -1.1404
 3298SOL     OW21352   4.631   2.687   2.941 -0.1235  0.1917  0.4778
 3298SOL    HW121353   4.586   2.720   3.020 -1.8570 -0.7029 -0.1321
 3298SOL    HW221354   4.722   2.697   2.968  0.5922  0.5649 -2.1138
 3299SOL     OW21355   3.371   2.689   4.787  0.2794 -0.0561  0.1965
 3299SOL    HW121356   3.333   2.691   4.700 -1.1976  2.3834  0.8882
 3299SOL    HW221357   3.376   2.596   4.806 -0.0906  0.0623  0.8924
 3300SOL     OW21358   1.840   4.055   4.702 -0.0594 -0.1322 -0.3667
 3300SOL    HW121359   1.935   4.045   4.702 -0.0326  0.1550  0.2021
 3300SOL    HW221360   1.808   3.965   4.694 -2.5327  0.6164  0.8874
 3301SOL     OW21361   0.041   3.123   7.877  0.0356  0.0984 -0.3962
 3301SOL    HW121362   0.113   3.184   7.891  1.8291 -2.1449  0.0927
 3301SOL    HW221363   0.053   3.047   7.934  0.0945  0.9792  0.7580
 3302SOL     OW21364   4.606   3.768   4.916  0.3215  0.0227  0.1409
 3302SOL    HW121365   4.524   3.719   4.919  0.5781 -0.6616 -3.2706
 3302SOL    HW221366   4.671   3.702   4.941 -1.6565 -1.5537  1.1069
 3303SOL     OW21367   1.401   2.599   5.676  0.1808 -0.4136  0.4387
 3303SOL    HW121368   1.333   2.567   5.736  1.7266  0.1985  2.5283
 3303SOL    HW221369   1.460   2.524   5.682  2.9528  1.7308  0.2947
 3304SOL     OW21370   1.270   0.748   5.344  0.3855 -0.0520  0.6655
 3304SOL    HW121371   1.252   0.654   5.346  1.2102 -0.2071  0.9959
 3304SOL    HW221372   1.204   0.784   5.403  2.5456 -0.0129  3.0738
 3305SOL     OW21373   1.740   2.198   5.946  0.4116 -0.2850 -0.0096
 3305SOL    HW121374   1.747   2.236   5.858 -2.7674  0.1864 -0.0580
 3305SOL    HW221375   1.818   2.242   5.981  1.4229 -0.9098 -1.4582
 3306SOL     OW21376   4.636   0.033   3.975  0.3069 -0.1029 -0.1919
 3306SOL    HW121377   4.583   4.715   4.043 -1.2127  2.2327  0.1058
 3306SOL    HW221378   4.566   0.072   3.922  2.3227  0.4210 -2.4307
 3307SOL     OW21379   1.388   1.858   7.679  0.5735  0.6815  0.5058
 3307SOL    HW121380   1.361   1.944   7.646 -0.4767 -0.3207 -1.2623
 3307SOL    HW221381   1.473   1.847   7.637 -1.6461 -2.0667 -3.2528
 3308SOL     OW21382   4.011   1.182   1.809  0.3615 -0.3002 -0.3749
 3308SOL    HW121383   4.056   1.266   1.814 -0.5336  0.1397  0.2096
 3308SOL    HW221384   4.012   1.169   1.714 -0.2679 -0.0271 -0.4146
 3309SOL     OW21385   4.190   1.146   2.264 -0.2650 -0.0389 -0.6765
 3309SOL    HW121386   4.148   1.134   2.349  1.9308  0.5054  0.4896
 3309SOL    HW221387   4.163   1.229   2.226 -0.9002 -0.3907 -0.9887
 3310SOL     OW21388   1.117   0.518  15.220  0.3892 -0.4996  0.0860
 3310SOL    HW121389   1.150   0.596  15.264  0.9255 -2.8239  3.7914
 3310SOL    HW221390   1.192   0.466  15.190  1.3280  0.6138  0.5061
 3311SOL     OW21391   4.296   0.700  11.140 -0.1500  0.5817  0.2757
 3311SOL    HW121392   4.263   0.771  11.194 -0.1644 -0.7422  2.0068
 3311SOL    HW221393   4.281   0.720  11.047  2.0652 -2.8720 -0.8250
 3312SOL     OW21394   3.244   2.074  10.089  0.4462 -0.1243 -0.0531
 3312SOL    HW121395   3.249   2.148  10.150 -1.5141 -1.5158  1.8108
 3312SOL    HW221396   3.307   2.012  10.125 -2.1938 -1.5174  2.1656
 3313SOL     OW21397   3.946   2.450   3.357  0.2582 -0.2721  0.0650
 3313SOL    HW121398   3.930   2.544   3.368 -0.2029 -0.0554 -2.3979
 3313SOL    HW221399   4.014   2.454   3.289  0.4263  0.7966  0.3013
 3314SOL     OW21400   1.715   1.580   2.040  0.1281 -0.2278  0.2001
 3314SOL    HW121401   1.649   1.557   1.975 -1.9372  1.4283  1.7188
 3314SOL    HW221402   1.773   1.626   1.981 -2.3208  0.1465 -1.9223
 3315SOL     OW21403   3.773   1.630   7.527 -0.0213  0.8186 -0.3359
 3315SOL    HW121404   3.683   1.604   7.508 -0.0450  0.6953 -0.0472
 3315SOL    HW221405   3.773   1.648   7.621  1.2742  0.1454 -0.1967
 3316SOL     OW21406   1.047   3.481   2.887 -0.7389  0.2635 -0.0656
 3316SOL    HW121407   1.088   3.431   2.817 -1.4184 -0.3179 -0.0485
 3316SOL    HW221408   0.970   3.516   2.842 -2.0562  1.7598  3.3519
 3317SOL     OW21409   2.272   3.641   7.122 -0.4910 -0.5370 -0.3499
 3317SOL    HW121410   2.177   3.648   7.114 -0.5602 -1.5798 -0.5277
 3317SOL    HW221411   2.283   3.546   7.123 -2.2798 -0.7630 -3.4531
 3318SOL     OW21412   1.008   1.661   7.167  0.3213 -0.2980  0.3352
 3318SOL    HW121413   1.040   1.608   7.241 -0.9318  1.3773  2.0828
 3318SOL    HW221414   1.019   1.597   7.097 -0.1679  1.3637 -1.2668
 3319SOL     OW21415   3.514   0.204   6.440  0.5867  0.0458 -0.3180
 3319SOL    HW121416   3.532   0.297   6.427 -0.2101  0.5479  2.1389
 3319SOL    HW221417   3.489   0.204   6.533 -0.7725 -1.5501 -0.6875
 3320SOL     OW21418   0.820   1.573   9.972 -0.2385 -0.1246  0.2307
 3320SOL    HW121419   0.789   1.531   9.892 -0.5241 -1.5084  1.0688
 3320SOL    HW221420   0.901   1.612   9.939 -0.3824 -0.0927 -0.0837
 3321SOL     OW21421   0.928   0.659   6.817  0.5120 -0.7726 -0.9897
 3321SOL    HW121422   1.023   0.653   6.805  1.0349  2.0765  1.6546
 3321SOL    HW221423   0.890   0.572   6.830 -0.4693 -0.1437  0.3631
 3322SOL     OW21424   2.374   3.536   9.579  0.5746  0.2687 -0.7384
 3322SOL    HW121425   2.360   3.625   9.548 -0.0380 -0.1360 -1.6341
 3322SOL    HW221426   2.448   3.540   9.638  1.5603 -1.5347 -1.8457
 3323SOL     OW21427   3.334   3.897   8.396  0.5219 -0.0513  0.3304
 3323SOL    HW121428   3.351   3.984   8.432  0.6987 -0.9382  2.3885
 3323SOL    HW221429   3.261   3.860   8.446 -0.7441  1.4009 -0.4312
 3324SOL     OW21430   0.035   4.470   2.721 -0.2002  0.2823 -0.0419
 3324SOL    HW121431   0.020   4.417   2.800  2.7697 -1.8146 -0.8922
 3324SOL    HW221432   0.130   4.463   2.726 -0.0291  1.4272 -1.4640
 3325SOL     OW21433   2.540   3.657   7.440 -0.0561 -0.3893  0.2302
 3325SOL    HW121434   2.634   3.639   7.435 -0.2781 -1.8532  1.4205
 3325SOL    HW221435   2.529   3.653   7.535 -1.4608 -1.6399  0.0160
 3326SOL     OW21436   4.070   1.385   8.215  0.6451 -0.3412  0.2862
 3326SOL    HW121437   3.977   1.372   8.199  1.2920 -3.0706 -1.3349
 3326SOL    HW221438   4.113   1.316   8.164  1.2542  1.1199 -1.1570
 3327SOL     OW21439   4.142   2.034   1.854  0.0115 -0.7214  0.1151
 3327SOL    HW121440   4.208   2.094   1.887 -0.0658 -1.9510  2.4651
 3327SOL    HW221441   4.150   2.062   1.763  0.6562  0.8939  0.6649
 3328SOL     OW21442   2.743   1.497   4.078  0.4362 -0.2948  0.0397
 3328SOL    HW121443   2.768   1.537   3.995  0.3393  0.7405  0.5137
 3328SOL    HW221444   2.815   1.521   4.137  1.3682 -0.8834 -0.8403
 3329SOL     OW21445   3.009   4.046   1.269 -0.5311 -0.2096  0.0198
 3329SOL    HW121446   2.993   4.013   1.181  0.4937  0.3577 -0.3775
 3329SOL    HW221447   2.928   4.095   1.288  0.8888  2.1889 -0.1164
 3330SOL     OW21448   4.563   2.317   6.178 -0.1807  0.3086 -0.3152
 3330SOL    HW121449   4.604   2.301   6.093 -0.3903  1.0014 -0.5448
 3330SOL    HW221450   4.473   2.338   6.153 -0.2596  0.3362 -0.0065
 3331SOL     OW21451   1.306   3.032   3.723  0.4999  0.3734 -0.7159
 3331SOL    HW121452   1.358   3.109   3.703  0.4330 -0.5584 -4.4744
 3331SOL    HW221453   1.328   3.027   3.816 -0.9571 -1.4475 -0.4600
 3332SOL     OW21454   0.682   0.534   4.953 -0.2898  0.0932 -0.5451
 3332SOL    HW121455   0.745   0.480   4.999 -0.6515  1.2562  1.3031
 3332SOL    HW221456   0.712   0.620   4.981 -0.9950 -0.7588  2.7773
 3333SOL     OW21457   2.696   3.907   1.182 -0.1608 -0.0550 -0.1070
 3333SOL    HW121458   2.680   3.941   1.094  0.0889  0.4959  0.0634
 3333SOL    HW221459   2.764   3.842   1.162  0.1314  0.3808 -0.5317
 3334SOL     OW21460   0.107   0.277   2.193  0.5869 -0.2492  0.4887
 3334SOL    HW121461   0.126   0.286   2.099  0.8519  1.8628  0.7530
 3334SOL    HW221462   0.173   0.336   2.229 -0.4314  2.4240 -2.0246
 3335SOL     OW21463   2.945   3.723   3.499 -0.0498  0.2879 -0.1559
 3335SOL    HW121464   3.031   3.743   3.538  0.6274 -0.1857 -1.3918
 3335SOL    HW221465   2.908   3.683   3.578 -1.7893  2.1815 -0.0408
 3336SOL     OW21466   4.533   4.272  16.165  0.0462 -0.0567  0.5593
 3336SOL    HW121467   4.547   4.188  16.208 -2.6654 -0.7302  0.1321
 3336SOL    HW221468   4.438   4.275  16.173 -0.0949  0.0142 -1.1993
 3337SOL     OW21469   2.789   3.291   5.990  0.5993  0.3232  0.3579
 3337SOL    HW121470   2.700   3.272   6.021  0.8150 -1.3721 -0.0751
 3337SOL    HW221471   2.822   3.333   6.069  1.8112 -2.5160  1.3324
 3338SOL     OW21472   1.514   1.531  12.310 -0.4912 -0.1500  0.2362
 3338SOL    HW121473   1.562   1.567  12.236 -0.4598 -4.0012 -1.6382
 3338SOL    HW221474   1.582   1.471  12.341  1.2085  1.0553 -1.1775
 3339SOL     OW21475   3.645   0.650  15.876 -0.3280  0.1487 -0.2998
 3339SOL    HW121476   3.667   0.628  15.966 -0.7356 -2.0414 -0.7441
 3339SOL    HW221477   3.576   0.716  15.883  0.7932  0.8863  3.5266
 3340SOL     OW21478   3.147   4.268  17.515  0.6606  0.0583 -0.5049
 3340SOL    HW121479   3.153   4.174  17.501 -0.0267 -0.0577  0.0213
 3340SOL    HW221480   3.225   4.282  17.569 -0.7106  1.9469  1.0056
 3341SOL     OW21481   4.719   1.818   3.920  0.4694 -0.7279 -0.2347
 3341SOL    HW121482   4.633   1.806   3.879 -0.6774 -1.7608  2.4888
 3341SOL    HW221483   0.036   1.733   3.912 -0.8427 -1.3956  0.0216
 3342SOL     OW21484   1.023   3.405  10.589 -0.1737  0.4720  0.1891
 3342SOL    HW121485   1.095   3.378  10.648  0.1994 -0.9460 -0.9078
 3342SOL    HW221486   0.949   3.439  10.639  1.0376 -1.1788  3.1598
 3343SOL     OW21487   0.481   1.611   5.012 -0.1581 -0.2444  0.2925
 3343SOL    HW121488   0.411   1.571   4.960 -0.6817 -0.4848  1.1686
 3343SOL    HW221489   0.468   1.705   5.002 -0.9595 -0.7178 -2.9164
 3344SOL     OW21490   1.806   2.617  12.335 -0.0995  0.1291 -0.1397
 3344SOL    HW121491   1.805   2.538  12.281 -1.5102 -0.9108  1.4239
 3344SOL    HW221492   1.786   2.577  12.420  0.9702  0.7729  0.4139
 3345SOL     OW21493   2.167   4.027  14.232 -0.1831 -0.6855 -1.1525
 3345SOL    HW121494   2.151   4.119  14.250  1.5665 -0.6200  0.0647
 3345SOL    HW221495   2.205   4.034  14.145  0.7789  2.9689 -0.4063
 3346SOL     OW21496   4.334   3.050   7.865 -0.2282  0.1265 -0.0249
 3346SOL    HW121497   4.273   3.005   7.923  1.4148 -0.3679  1.2883
 3346SOL    HW221498   4.285   3.068   7.785  0.8925  0.1808 -0.6998
 3347SOL     OW21499   0.908   3.664   4.444 -0.1892  0.2351  0.0837
 3347SOL    HW121500   0.817   3.691   4.450 -0.3267 -0.0845 -0.6033
 3347SOL    HW221501   0.901   3.592   4.381  0.2846 -1.1821  1.6525
 3348SOL     OW21502   1.502   1.183  12.909  0.1183 -0.2897 -0.2887
 3348SOL    HW121503   1.411   1.171  12.882  0.4730  0.1347 -1.6783
 3348SOL    HW221504   1.485   1.218  12.996  2.5354  2.2713 -0.8459
 3349SOL     OW21505   3.102   4.414   2.716  0.0491  0.2147 -0.3517
 3349SOL    HW121506   3.099   4.509   2.727  2.9118  0.2719  0.0254
 3349SOL    HW221507   3.195   4.401   2.699 -0.4505  1.1630 -3.8035
 3350SOL     OW21508   4.499   4.231   2.763  0.8007  0.4978 -0.2372
 3350SOL    HW121509   4.590   4.207   2.745  0.1867 -2.4916  0.5729
 3350SOL    HW221510   4.480   4.311   2.715  2.3036  0.9840 -0.0258
 3351SOL     OW21511   4.618   4.719   2.203 -0.0884  0.3884 -0.2684
 3351SOL    HW121512   4.707   0.024   2.226 -0.3061  0.4658  0.4957
 3351SOL    HW221513   4.626   4.720   2.108  0.0792 -1.2165 -0.2712
 3352SOL     OW21514   1.961   2.639  11.370  0.4021 -0.4617  0.2959
 3352SOL    HW121515   1.949   2.551  11.335  0.7313 -0.5948  0.5181
 3352SOL    HW221516   1.895   2.697  11.332  1.9474  1.5666  0.7569
 3353SOL     OW21517   4.507   2.169   5.651  0.5929 -0.0198 -0.0890
 3353SOL    HW121518   4.511   2.176   5.556  1.0009 -1.0836 -0.1447
 3353SOL    HW221519   4.593   2.203   5.674 -0.5514  2.8840 -0.1432
 3354SOL     OW21520   2.624   1.864   5.453  0.0379  0.2575 -0.0854
 3354SOL    HW121521   2.562   1.791   5.447 -0.9568  1.0914  0.0848
 3354SOL    HW221522   2.676   1.828   5.526  0.3849  2.1113  0.5662
 3355SOL     OW21523   2.951   3.633   1.844  0.1378 -0.0176 -0.4870
 3355SOL    HW121524   2.909   3.709   1.804 -0.0630 -0.1382 -0.5092
 3355SOL    HW221525   3.041   3.631   1.814  0.2382 -0.0478 -0.1849
 3356SOL     OW21526   4.489   4.385  15.911  0.1123  0.3591 -0.4474
 3356SOL    HW121527   4.418   4.449  15.907  2.8955  3.6426  1.6611
 3356SOL    HW221528   4.475   4.354  16.000  1.5010 -1.5998 -0.9022
 3357SOL     OW21529   4.022   3.235   2.410 -0.1580  0.3096  0.4013
 3357SOL    HW121530   3.974   3.193   2.481 -1.6925  0.7254 -0.4003
 3357SOL    HW221531   4.011   3.172   2.339 -0.4867  0.8704 -0.0501
 3358SOL     OW21532   0.455   4.171   7.699 -0.4430 -0.1624 -0.0801
 3358SOL    HW121533   0.458   4.077   7.683  0.1526  0.1402 -1.8134
 3358SOL    HW221534   0.464   4.183   7.793 -0.1367  0.3628 -0.1774
 3359SOL     OW21535   3.615   2.603   8.239 -0.1364 -0.6761 -0.2150
 3359SOL    HW121536   3.523   2.626   8.225 -0.2055  0.0832  1.4876
 3359SOL    HW221537   3.623   2.635   8.329 -0.1431  3.3626 -1.6555
 3360SOL     OW21538   1.979   1.392   9.322 -0.4877  0.8830  0.7241
 3360SOL    HW121539   1.936   1.425   9.244  1.6122  0.5783 -0.5552
 3360SOL    HW221540   2.014   1.470   9.366  1.7615  1.5907 -2.3290
 3361SOL     OW21541   2.191   1.471  17.572  0.2078 -0.2413 -0.3015
 3361SOL    HW121542   2.218   1.531  17.642  2.5790 -0.0846 -1.3514
 3361SOL    HW221543   2.119   1.421  17.609 -2.2611  3.4361 -0.1400
 3362SOL     OW21544   2.337   0.190   0.161 -0.1444 -0.0043 -0.7018
 3362SOL    HW121545   2.400   0.149   0.101  0.3736 -1.3732  0.7841
 3362SOL    HW221546   2.256   0.141   0.145 -0.2410  0.3315 -1.2393
 3363SOL     OW21547   4.140   0.719  12.496  0.5065 -0.0881 -0.2288
 3363SOL    HW121548   4.140   0.630  12.461 -0.6373  0.0429 -0.5449
 3363SOL    HW221549   4.180   0.703  12.581 -1.2022  1.9935  0.9558
 3364SOL     OW21550   4.584   3.477  17.604 -0.2657 -0.2119  0.0219
 3364SOL    HW121551   4.672   3.449  17.626 -0.8006 -1.6443  0.3334
 3364SOL    HW221552   4.594   3.570  17.623 -1.2694 -0.5955  2.4398
 3365SOL     OW21553   2.365   3.877   3.103  0.4239 -0.9426  0.1823
 3365SOL    HW121554   2.310   3.812   3.059 -0.3307 -0.0576 -0.2050
 3365SOL    HW221555   2.312   3.957   3.108 -0.0144 -1.0955 -1.7010
 3366SOL     OW21556   4.431   0.772  14.230 -0.0944  0.3996 -0.3607
 3366SOL    HW121557   4.451   0.860  14.260  0.6383  0.2820 -0.4797
 3366SOL    HW221558   4.368   0.737  14.292 -1.6490  0.7189 -1.7646
 3367SOL     OW21559   0.801   0.329   0.216  0.8803  0.2680 -0.3361
 3367SOL    HW121560   0.845   0.284   0.288 -0.3514  2.1461  1.6062
 3367SOL    HW221561   0.865   0.395   0.187  1.2190  0.0246 -0.1422
 3368SOL     OW21562   3.648   4.578   3.035 -0.1666  0.2745  0.8047
 3368SOL    HW121563   3.599   4.641   3.087  1.3898 -0.5587  3.2689
 3368SOL    HW221564   3.670   4.627   2.956 -0.1699 -0.9955  0.0085
 3369SOL     OW21565   3.381   3.324  12.857 -0.2055 -0.0727  0.3155
 3369SOL    HW121566   3.335   3.242  12.839  0.9083 -0.6855  0.2592
 3369SOL    HW221567   3.355   3.367  12.775  3.3981 -1.5679 -1.6117
 3370SOL     OW21568   3.767   1.216   7.240  0.6337 -0.6333  0.0606
 3370SOL    HW121569   3.786   1.266   7.161 -0.2395  0.6906  0.6905
 3370SOL    HW221570   3.837   1.152   7.227 -0.5057 -2.1439  1.2554
 3371SOL     OW21571   1.472   1.563  14.884 -0.2291  0.0598 -0.1593
 3371SOL    HW121572   1.448   1.498  14.818 -1.2453 -0.1125  0.3901
 3371SOL    HW221573   1.433   1.636  14.837  0.3694 -0.2864 -1.2068
 3372SOL     OW21574   3.219   3.100  13.949 -0.2884 -0.4554  0.1330
 3372SOL    HW121575   3.173   3.070  13.871 -1.0033  1.0125 -0.0052
 3372SOL    HW221576   3.148   3.117  14.012  0.2616 -0.6310  0.7986
 3373SOL     OW21577   3.731   3.794   9.558 -0.3941  0.0694  0.2614
 3373SOL    HW121578   3.655   3.780   9.502 -0.7847 -0.8938  1.0423
 3373SOL    HW221579   3.696   3.867   9.610  0.6806 -0.0375  1.1210
 3374SOL     OW21580   0.300   0.452   1.749  0.5027  0.6364  0.2424
 3374SOL    HW121581   0.377   0.463   1.693  0.5599 -0.7241  0.0455
 3374SOL    HW221582   0.323   0.511   1.820  2.6417  1.6923 -1.3259
 3375SOL     OW21583   3.580   1.620   1.886  0.1474 -0.4545  0.0306
 3375SOL    HW121584   3.510   1.596   1.825 -0.7400 -0.9184  1.2309
 3375SOL    HW221585   3.636   1.674   1.830  0.3380 -2.2039 -1.4377
 3376SOL     OW21586   3.877   3.205   5.632 -0.5703 -0.3506 -0.6694
 3376SOL    HW121587   3.969   3.223   5.650 -0.7754 -0.7721  0.7932
 3376SOL    HW221588   3.841   3.272   5.690 -2.1844  0.2615 -2.3963
 3377SOL     OW21589   3.808   3.964   3.905 -0.1105  0.3852 -0.6569
 3377SOL    HW121590   3.892   4.008   3.920 -0.0963 -0.2102  1.0308
 3377SOL    HW221591   3.795   3.976   3.811  1.2955 -0.2615 -0.9243
 3378SOL     OW21592   2.021   1.453  12.118  0.1433  0.5054 -0.7038
 3378SOL    HW121593   2.039   1.455  12.212 -0.6292  1.2785 -0.5702
 3378SOL    HW221594   1.933   1.416  12.126 -0.0301  1.0572 -0.0676
 3379SOL     OW21595   1.200   2.343   5.197  0.0028 -0.1487 -0.1892
 3379SOL    HW121596   1.130   2.406   5.184 -1.2112 -1.3749  0.4045
 3379SOL    HW221597   1.271   2.389   5.152 -0.5691  0.0866 -0.8495
 3380SOL     OW21598   1.714   3.316  16.865 -0.6134 -0.2125 -0.2865
 3380SOL    HW121599   1.684   3.382  16.803 -2.7861 -1.4015 -0.4926
 3380SOL    HW221600   1.628   3.301  16.905 -1.3202  1.0851 -1.3403
 3381SOL     OW21601   2.984   2.996   5.664 -1.0134  0.0508 -0.6729
 3381SOL    HW121602   2.957   3.080   5.699  0.0281  0.0464  0.1471
 3381SOL    HW221603   2.927   2.939   5.716  1.2273 -1.2376  0.3499
 3382SOL     OW21604   2.939   1.510   8.756  0.3810 -0.3507  0.0761
 3382SOL    HW121605   2.987   1.504   8.838 -0.1572 -1.2442  0.3339
 3382SOL    HW221606   2.852   1.486   8.788  0.3292  1.2760  1.1342
 3383SOL     OW21607   1.217   0.139   5.067  0.0839 -0.3741  0.1665
 3383SOL    HW121608   1.163   0.094   5.002 -1.0559  1.3862 -0.1169
 3383SOL    HW221609   1.210   0.076   5.138  1.1123 -1.1794 -0.4371
 3384SOL     OW21610   2.619   2.672   8.626  0.1524 -0.1398  0.4365
 3384SOL    HW121611   2.654   2.676   8.715 -2.5252  0.4699  1.4805
 3384SOL    HW221612   2.698   2.676   8.573 -1.6433 -0.8293 -2.3130
 3385SOL     OW21613   4.476   2.700   3.851  0.6083 -0.4492  0.7160
 3385SOL    HW121614   4.423   2.621   3.846 -1.8884  1.0770  2.9159
 3385SOL    HW221615   4.490   2.716   3.944 -1.7419  0.0452  1.0076
 3386SOL     OW21616   1.739   3.734   1.753  0.2866 -0.1739 -0.1155
 3386SOL    HW121617   1.752   3.766   1.842  1.2922  2.4034 -1.1924
 3386SOL    HW221618   1.716   3.643   1.771  2.5516 -0.9223 -1.0048
 3387SOL     OW21619   4.301   1.660   6.018  0.5363  0.2598 -0.1092
 3387SOL    HW121620   4.308   1.565   6.009 -1.0146  0.0934  0.5090
 3387SOL    HW221621   4.301   1.687   5.926  0.5769  1.7357  0.3232
 3388SOL     OW21622   1.453   3.029   7.738 -0.1566 -0.6129 -0.0449
 3388SOL    HW121623   1.379   3.071   7.782  2.4540  2.0215  1.9144
 3388SOL    HW221624   1.490   2.979   7.811 -0.2783  0.2462  0.6053
 3389SOL     OW21625   0.350   3.757   9.584  0.2764 -0.3959 -0.0818
 3389SOL    HW121626   0.298   3.834   9.609 -1.0365 -1.6509  0.9670
 3389SOL    HW221627   0.361   3.716   9.669 -0.5889 -1.7685 -0.6338
 3390SOL     OW21628   2.862   2.721  16.827 -0.2975  0.4346  0.1832
 3390SOL    HW121629   2.897   2.798  16.873  0.0255  1.3461 -1.5715
 3390SOL    HW221630   2.931   2.725  16.761  1.9477 -0.2848  2.5002
 3391SOL     OW21631   1.916   1.719   8.813 -0.2664  0.1089 -0.6598
 3391SOL    HW121632   2.002   1.721   8.772  0.2524 -0.2530  0.3957
 3391SOL    HW221633   1.939   1.717   8.906 -1.2467  1.9612 -0.3592
 3392SOL     OW21634   4.032   3.541   6.728 -0.1751  0.0318 -0.3290
 3392SOL    HW121635   3.994   3.611   6.674 -0.1194 -1.8664 -2.8321
 3392SOL    HW221636   4.009   3.568   6.817 -1.3203  1.3305 -1.0152
 3393SOL     OW21637   1.104   1.174   7.030 -0.0937  0.0723  0.5569
 3393SOL    HW121638   1.155   1.099   7.061  0.0601 -1.0851 -2.5235
 3393SOL    HW221639   1.082   1.140   6.943 -0.3837 -0.5450  0.8709
 3394SOL     OW21640   2.534   4.598   2.765 -0.3298 -0.2228 -0.0021
 3394SOL    HW121641   2.458   4.616   2.822 -1.3043  1.3554 -1.8147
 3394SOL    HW221642   2.513   4.506   2.751  1.8855 -0.2879 -2.8791
 3395SOL     OW21643   2.568   0.615   2.415  0.2871  0.1325 -0.8942
 3395SOL    HW121644   2.555   0.710   2.408 -0.8660  0.0539  0.1651
 3395SOL    HW221645   2.501   0.603   2.482  1.8208 -1.1912  0.4036
 3396SOL     OW21646   3.581   3.493  12.498 -0.3998 -0.4901  0.5590
 3396SOL    HW121647   3.600   3.410  12.455 -1.4471  1.0736 -2.9178
 3396SOL    HW221648   3.500   3.465  12.540 -0.6220 -1.0076 -0.2168
 3397SOL     OW21649   3.217   1.626  17.245  0.4847 -0.4186 -0.2331
 3397SOL    HW121650   3.151   1.557  17.250  1.1687 -1.1946 -1.9210
 3397SOL    HW221651   3.196   1.686  17.317 -1.1623 -1.2934  0.0152
 3398SOL     OW21652   4.646   0.956  11.895 -0.0786 -0.1532 -0.7226
 3398SOL    HW121653   4.604   0.969  11.980 -1.2325 -1.6620 -1.0551
 3398SOL    HW221654   0.010   0.933  11.922 -0.3786  1.1936  1.3417
 3399SOL     OW21655   2.867   0.004   6.341 -0.6553 -0.4622  0.3244
 3399SOL    HW121656   2.824   0.062   6.405 -2.3647 -0.7229 -0.5836
 3399SOL    HW221657   2.947   0.054   6.324  0.3976 -1.2010  3.1161
 3400SOL     OW21658   0.631   1.785   8.811  0.0291 -0.1598  0.3360
 3400SOL    HW121659   0.660   1.740   8.732 -0.6168 -0.2421  0.1455
 3400SOL    HW221660   0.593   1.866   8.778 -1.7119 -0.7989  0.7506
 3401SOL     OW21661   1.253   0.709  14.978 -0.5579  0.0839  0.2505
 3401SOL    HW121662   1.236   0.634  14.921 -0.8545 -0.1507  0.6447
 3401SOL    HW221663   1.214   0.682  15.061  0.8459 -1.6949  0.3397
 3402SOL     OW21664   2.889   3.279  15.295 -0.1867 -0.2936  0.0259
 3402SOL    HW121665   2.953   3.246  15.232 -1.9598 -3.1326 -0.2755
 3402SOL    HW221666   2.833   3.208  15.325  1.4905 -1.5261  0.2110
 3403SOL     OW21667   0.359   4.589  13.046 -0.5934  0.9339 -0.1189
 3403SOL    HW121668   0.420   4.562  13.115  0.8021  0.3214 -1.6107
 3403SOL    HW221669   0.420   4.617  12.978 -0.9591  0.2369 -0.7388
 3404SOL     OW21670   4.161   2.002   0.356 -0.2253  0.2112 -0.2484
 3404SOL    HW121671   4.186   2.094   0.349 -0.3336  0.2713  0.1361
 3404SOL    HW221672   4.154   1.982   0.263  0.6273 -0.1194 -0.2388
 3405SOL     OW21673   3.407   1.760   8.224  0.0357  0.4366 -0.7443
 3405SOL    HW121674   3.476   1.802   8.173 -0.9091  0.2404 -2.1708
 3405SOL    HW221675   3.336   1.824   8.217 -0.3682 -0.1623 -2.1198
 3406SOL     OW21676   3.544   0.708  12.272 -0.1405  0.5226  0.0516
 3406SOL    HW121677   3.481   0.732  12.340  0.2243  0.4327  0.4239
 3406SOL    HW221678   3.484   0.671  12.207  0.6371  0.5753 -0.6925
 3407SOL     OW21679   3.845   0.034  16.933  0.1075  0.3238  0.1293
 3407SOL    HW121680   3.897   0.091  16.989 -1.3717  2.7142 -0.9602
 3407SOL    HW221681   3.755   0.064  16.947 -0.2961 -1.0583  0.5300
 3408SOL     OW21682   4.275   2.742   7.452  0.3612  0.4183  0.2238
 3408SOL    HW121683   4.284   2.745   7.357  0.4941  0.9681  0.2562
 3408SOL    HW221684   4.355   2.788   7.478  0.2810  0.9844 -0.5480
 3409SOL     OW21685   0.606   4.320   8.572 -0.1067  0.0782 -0.0050
 3409SOL    HW121686   0.518   4.284   8.581  0.2915 -1.0807 -0.8556
 3409SOL    HW221687   0.591   4.388   8.506  0.9753  0.2367 -0.0965
 3410SOL     OW21688   1.153   4.163   2.882  0.2160  0.7793 -0.1545
 3410SOL    HW121689   1.097   4.088   2.860  1.8341 -0.9279  1.6011
 3410SOL    HW221690   1.224   4.151   2.819  2.4029  2.1626  2.0593
 3411SOL     OW21691   0.829   0.360   4.355  0.2599  0.2770 -0.4987
 3411SOL    HW121692   0.910   0.337   4.309  0.2703 -1.2288  0.2566
 3411SOL    HW221693   0.793   0.427   4.296  0.7699  1.5889  0.6918
 3412SOL     OW21694   4.698   0.748   3.360 -0.2825 -0.3870  0.3327
 3412SOL    HW121695   4.611   0.781   3.341 -0.0598  0.4165  0.6945
 3412SOL    HW221696   4.673   0.679   3.422 -0.3364 -1.5283 -0.9624
 3413SOL     OW21697   1.773   3.930   6.452 -0.2614 -0.3298 -0.2051
 3413SOL    HW121698   1.832   3.999   6.420 -0.8954 -0.0667 -0.8102
 3413SOL    HW221699   1.695   3.958   6.404 -0.0808  0.9450  0.2230
 3414SOL     OW21700   2.680   0.235   9.522  0.6549 -0.7316  0.6526
 3414SOL    HW121701   2.635   0.242   9.438 -0.0100  1.5881  1.1893
 3414SOL    HW221702   2.602   0.209   9.571  1.9246 -1.0835  2.4821
 3415SOL     OW21703   1.184   4.701   9.134 -0.4568  0.6177  0.2687
 3415SOL    HW121704   1.099   4.669   9.103 -0.7756  0.3526  1.4380
 3415SOL    HW221705   1.178   0.066   9.100 -1.1570 -0.6206 -2.9679
 3416SOL     OW21706   2.747   0.310   4.919 -0.2287 -0.1590 -0.3351
 3416SOL    HW121707   2.655   0.299   4.944 -0.6861  2.8091 -0.7482
 3416SOL    HW221708   2.761   0.245   4.850  3.2852  1.3166 -1.0060
 3417SOL     OW21709   0.551   3.797   3.754 -0.6054  0.1029  0.2203
 3417SOL    HW121710   0.502   3.715   3.752 -1.2616  0.5368 -1.6612
 3417SOL    HW221711   0.552   3.820   3.661 -3.6664 -0.4189  0.0479
 3418SOL     OW21712   0.627   0.094   0.713 -0.3999  0.7821 -0.1464
 3418SOL    HW121713   0.575   0.015   0.697 -1.0445  1.8223 -3.0752
 3418SOL    HW221714   0.704   0.073   0.660  1.0275  3.3422  0.9046
 3419SOL     OW21715   0.969   3.900   5.188 -0.0825  0.2715 -0.5438
 3419SOL    HW121716   0.983   3.995   5.179  0.9908  0.0310 -1.4721
 3419SOL    HW221717   1.001   3.879   5.276 -1.7326  1.3765  0.3064
 3420SOL     OW21718   2.057   1.094   3.978 -0.3610 -0.8176 -0.1511
 3420SOL    HW121719   2.031   1.161   4.041 -3.8804 -2.6047  0.2845
 3420SOL    HW221720   2.079   1.138   3.896  2.4305  2.8246  2.5745
 3421SOL     OW21721   4.118   4.443   8.455 -0.4353  0.3923 -0.2818
 3421SOL    HW121722   4.132   4.417   8.546 -0.5218 -1.1388 -0.7042
 3421SOL    HW221723   4.098   4.536   8.469 -0.2915  0.7009 -2.0823
 3422SOL     OW21724   1.016   2.120   1.867  0.1056  0.4985 -0.0361
 3422SOL    HW121725   1.038   2.186   1.932  1.0007 -1.0423  1.2227
 3422SOL    HW221726   0.983   2.047   1.920 -0.5373  1.9968  1.6071
 3423SOL     OW21727   3.715   1.395   1.662  0.6578 -0.2602  0.0758
 3423SOL    HW121728   3.744   1.389   1.571 -1.0619  0.4565 -0.5262
 3423SOL    HW221729   3.755   1.478   1.689  1.9323 -0.3547 -1.4838
 3424SOL     OW21730   0.796   2.154  12.931  0.6332  0.2256  0.4188
 3424SOL    HW121731   0.725   2.095  12.955 -1.7974  3.3608  0.9144
 3424SOL    HW221732   0.760   2.202  12.856 -0.3972 -1.1324  0.0455
 3425SOL     OW21733   1.963   0.517   7.757 -0.2067  0.3710 -0.0647
 3425SOL    HW121734   1.996   0.567   7.683  0.1791 -1.0217 -0.8197
 3425SOL    HW221735   2.043   0.485   7.798 -0.0480 -0.6291 -1.1441
 3426SOL     OW21736   3.135   2.636   3.020 -0.5973  0.5097  0.1167
 3426SOL    HW121737   3.091   2.643   3.104 -1.4461  1.4504 -0.3961
 3426SOL    HW221738   3.162   2.727   3.007 -0.0860 -0.0650 -2.9419
 3427SOL     OW21739   3.325   1.866   4.039 -0.1172  0.4028 -0.0958
 3427SOL    HW121740   3.291   1.907   3.960 -2.3400  2.6742  2.0258
 3427SOL    HW221741   3.420   1.868   4.028 -0.1543 -2.4314 -0.8675
 3428SOL     OW21742   2.941   0.261  16.233  0.2665  0.7024  0.4228
 3428SOL    HW121743   2.904   0.270  16.145  1.2817 -1.3643 -0.2185
 3428SOL    HW221744   2.874   0.203  16.269 -1.1211  0.6010 -2.2733
 3429SOL     OW21745   3.728   1.150   8.424 -0.0453 -0.6190 -0.0316
 3429SOL    HW121746   3.714   1.186   8.512 -1.4944  0.6157 -0.7891
 3429SOL    HW221747   3.644   1.180   8.389  0.3051 -1.9141 -1.9696
 3430SOL     OW21748   2.099   0.565   8.691  0.3351 -0.0758  0.2487
 3430SOL    HW121749   2.039   0.531   8.757 -2.4526  0.7244 -1.8871
 3430SOL    HW221750   2.184   0.561   8.734  1.3435 -0.2082 -1.7460
 3431SOL     OW21751   2.877   1.195   4.313  0.5393  0.1141  0.4353
 3431SOL    HW121752   2.922   1.276   4.292  2.2019 -0.9640 -0.1623
 3431SOL    HW221753   2.838   1.156   4.234 -2.6269 -0.1817  2.1561
 3432SOL     OW21754   0.498   1.931   2.560 -0.5532 -0.3788  0.0530
 3432SOL    HW121755   0.454   2.015   2.548  0.3695 -0.1092 -1.3370
 3432SOL    HW221756   0.494   1.894   2.472 -1.5915 -2.5396  1.0036
 3433SOL     OW21757   0.840   1.065   8.565  0.2584 -0.1116  0.0272
 3433SOL    HW121758   0.900   1.026   8.629  0.0243  2.0727  1.6090
 3433SOL    HW221759   0.906   1.070   8.496  1.2026  0.8929  0.9977
 3434SOL     OW21760   2.194   4.695  11.008  0.2086 -0.0207 -0.5873
 3434SOL    HW121761   2.111   0.011  10.982  1.2573  2.8430  0.6161
 3434SOL    HW221762   2.218   4.639  10.934 -0.3287  1.0745 -1.5808
 3435SOL     OW21763   3.855   2.976   5.766  0.0205 -0.0094  0.1572
 3435SOL    HW121764   3.901   2.915   5.707 -1.8194 -0.1546 -1.1298
 3435SOL    HW221765   3.840   3.053   5.711  0.7898  0.6115  0.8286
 3436SOL     OW21766   0.099   0.875   6.222 -0.0551  0.7195  0.5406
 3436SOL    HW121767   0.095   0.934   6.146 -0.8396 -1.2945 -0.9780
 3436SOL    HW221768   0.164   0.811   6.192 -0.6570 -0.4669  1.7542
 3437SOL     OW21769   3.379   4.099  11.064  0.2743 -0.2683  0.0605
 3437SOL    HW121770   3.360   4.121  10.973 -0.6680 -2.6341 -0.3374
 3437SOL    HW221771   3.365   4.004  11.071 -0.7080 -0.2637 -1.9251
 3438SOL     OW21772   2.991   3.786   1.395  0.1276 -0.1278 -0.0593
 3438SOL    HW121773   3.046   3.741   1.331  0.5272 -0.9922  0.8690
 3438SOL    HW221774   3.002   3.877   1.368  0.0349 -0.2522 -0.5060
 3439SOL     OW21775   2.973   2.437   6.404 -0.0319  0.0970 -0.5847
 3439SOL    HW121776   3.037   2.500   6.439  1.2757 -0.3526 -2.1494
 3439SOL    HW221777   3.003   2.362   6.454 -2.8590 -1.2610 -0.9303
 3440SOL     OW21778   4.645   1.873   3.425 -0.0309 -0.2672  0.0983
 3440SOL    HW121779   0.008   1.883   3.387 -0.0814  0.8886  0.2982
 3440SOL    HW221780   4.589   1.917   3.361 -0.4170 -0.3086  0.4057
 3441SOL     OW21781   2.511   2.928   4.875 -0.6226  0.2520  0.1760
 3441SOL    HW121782   2.558   2.950   4.795 -0.9121  0.5237  0.0796
 3441SOL    HW221783   2.582   2.922   4.939 -0.1924  2.4169 -0.0904
 3442SOL     OW21784   1.018   1.662   3.143 -0.3648 -0.1046  0.1887
 3442SOL    HW121785   1.019   1.729   3.211 -2.6879 -1.4662  1.5699
 3442SOL    HW221786   1.010   1.586   3.201 -4.0234  1.4949  1.7697
 3443SOL     OW21787   1.280   4.080  15.550 -0.0288  0.2293  0.8180
 3443SOL    HW121788   1.284   3.993  15.589 -2.3020 -0.0539  0.4400
 3443SOL    HW221789   1.363   4.080  15.503 -0.3882 -0.1186  0.1863
 3444SOL     OW21790   1.465   3.654   0.700  0.3428  0.0861  0.5756
 3444SOL    HW121791   1.443   3.720   0.634 -2.1120 -1.3003 -0.0092
 3444SOL    HW221792   1.445   3.701   0.782  0.2422 -1.2634  1.3259
 3445SOL     OW21793   1.368   2.041   9.268  0.0816 -0.3188  0.6470
 3445SOL    HW121794   1.442   2.007   9.216 -0.6939  0.0982 -0.7195
 3445SOL    HW221795   1.370   2.134   9.243  0.9319 -0.7286 -0.8557
 3446SOL     OW21796   1.476   1.654   4.102  0.1283  0.6205 -0.0773
 3446SOL    HW121797   1.568   1.666   4.078 -0.1673  2.3710 -0.3672
 3446SOL    HW221798   1.437   1.637   4.016 -0.2218  1.3703 -0.0656
 3447SOL     OW21799   2.493   3.376   6.251  0.0121  0.6400 -0.0338
 3447SOL    HW121800   2.556   3.421   6.195 -0.0482  1.3731  0.4778
 3447SOL    HW221801   2.412   3.424   6.232 -0.9047 -0.2152  1.6797
 3448SOL     OW21802   3.247   2.336   2.145 -0.0667  0.2734 -0.2351
 3448SOL    HW121803   3.333   2.372   2.166 -0.4429  0.2085  1.3512
 3448SOL    HW221804   3.267   2.287   2.065  2.1923 -0.6384  0.8720
 3449SOL     OW21805   3.394   2.478   9.293 -0.3115 -0.4721  0.6733
 3449SOL    HW121806   3.420   2.558   9.246  0.1754 -0.7249  0.5114
 3449SOL    HW221807   3.464   2.475   9.358  0.9351 -0.6008 -0.6567
 3450SOL     OW21808   1.218   0.243   3.225  0.0174 -0.5536 -0.5153
 3450SOL    HW121809   1.296   0.271   3.273  0.8417  1.2025 -2.8584
 3450SOL    HW221810   1.194   0.321   3.175 -0.1535 -0.3181 -0.0706
 3451SOL     OW21811   2.450   4.356   2.988 -0.2881  0.5091  0.4017
 3451SOL    HW121812   2.397   4.435   2.982 -0.6968  0.1427 -0.8159
 3451SOL    HW221813   2.536   4.394   3.007 -0.1505 -0.2048  1.2016
 3452SOL     OW21814   0.974   2.305   7.759 -0.3019  0.2595 -0.0157
 3452SOL    HW121815   1.033   2.368   7.719  2.6640 -1.2367  2.0100
 3452SOL    HW221816   1.023   2.271   7.834 -0.3097  0.7365  0.2039
 3453SOL     OW21817   2.828   0.835   5.772 -0.4964 -0.6205  0.6577
 3453SOL    HW121818   2.827   0.928   5.792  1.3998 -0.7290  1.2444
 3453SOL    HW221819   2.921   0.820   5.789 -0.6239 -0.9994  1.0330
 3454SOL     OW21820   3.014   0.431   7.022 -0.2303 -0.3452  0.1285
 3454SOL    HW121821   3.086   0.459   7.079 -0.7771 -0.2351  0.7716
 3454SOL    HW221822   2.938   0.474   7.062 -0.3752  1.6989 -2.3736
 3455SOL     OW21823   3.751   4.434   6.762  0.3665 -0.6268  0.0367
 3455SOL    HW121824   3.803   4.445   6.842  1.1702 -1.1354 -0.4232
 3455SOL    HW221825   3.819   4.440   6.695 -1.3824  2.3146 -1.4791
 3456SOL     OW21826   1.049   3.574   5.948 -0.4245  0.5525  0.5152
 3456SOL    HW121827   1.066   3.502   5.887  1.3430  0.5501  1.0179
 3456SOL    HW221828   0.966   3.540   5.983 -0.1282  0.4946  1.1473
 3457SOL     OW21829   3.727   0.938   5.898 -0.4173 -0.1508 -0.6731
 3457SOL    HW121830   3.719   1.030   5.873 -0.8132 -0.0664 -0.2361
 3457SOL    HW221831   3.816   0.942   5.931 -0.2749  0.1799 -1.1025
 3458SOL     OW21832   0.719   1.277   8.078 -0.3295  0.2586 -0.3059
 3458SOL    HW121833   0.784   1.209   8.061 -0.6385 -0.2765  0.6573
 3458SOL    HW221834   0.769   1.354   8.108  0.2779  0.4916 -1.9257
 3459SOL     OW21835   4.540   3.263  13.893 -0.4422 -0.3794 -0.2318
 3459SOL    HW121836   4.461   3.224  13.930 -2.1822  0.8812 -2.6390
 3459SOL    HW221837   4.503   3.348  13.870 -0.1215 -0.6949 -1.8592
 3460SOL     OW21838   0.501   3.513   8.954 -0.3835 -0.1894  0.5788
 3460SOL    HW121839   0.431   3.477   9.010 -2.1595 -2.1534 -2.9113
 3460SOL    HW221840   0.452   3.576   8.901 -1.1919 -0.1646  1.3529
 3461SOL     OW21841   0.449   0.208   4.011  0.4806 -0.2331  0.0533
 3461SOL    HW121842   0.409   0.295   4.018  2.4465  0.5932  1.2861
 3461SOL    HW221843   0.444   0.170   4.099 -0.3038  0.1580  0.1789
 3462SOL     OW21844   1.888   3.832   8.914 -0.2751  0.4627 -0.4109
 3462SOL    HW121845   1.870   3.831   9.009 -0.7371 -1.0827 -0.5153
 3462SOL    HW221846   1.913   3.923   8.898  1.5864 -0.0051 -0.1775
 3463SOL     OW21847   4.367   0.040   3.876 -0.0056  0.0075  0.3703
 3463SOL    HW121848   4.309   0.054   3.801 -0.5596  0.2953  0.8529
 3463SOL    HW221849   4.304   4.709   3.922 -0.6490  0.5098  0.0950
 3464SOL     OW21850   1.614   2.410   7.724 -0.0833 -0.1677  0.0130
 3464SOL    HW121851   1.639   2.426   7.815  3.8765 -0.0236 -1.0892
 3464SOL    HW221852   1.539   2.470   7.718  1.8346  2.0828 -1.4023
 3465SOL     OW21853   3.693   3.778   4.046  0.6578  0.4175  0.0857
 3465SOL    HW121854   3.707   3.737   3.961  0.0859  0.6760 -0.1325
 3465SOL    HW221855   3.718   3.867   4.018 -0.9949  0.7383 -0.3603
 3466SOL     OW21856   0.268   4.374  10.163  0.4998 -0.3360 -0.3331
 3466SOL    HW121857   0.359   4.362  10.190  0.6963 -1.5412 -1.5204
 3466SOL    HW221858   0.270   4.294  10.110  0.7960 -0.8576  0.4752
 3467SOL     OW21859   4.225   3.415   8.957  0.1697  0.5277  0.1499
 3467SOL    HW121860   4.206   3.362   9.034 -1.1552  1.9936  0.8272
 3467SOL    HW221861   4.284   3.477   8.999  1.4582 -1.2982  1.0349
 3468SOL     OW21862   1.473   2.650   9.367 -0.3693  0.1898  0.5292
 3468SOL    HW121863   1.498   2.718   9.429  3.1313  0.5276 -1.1959
 3468SOL    HW221864   1.517   2.577   9.412  0.3558 -0.2320 -0.8457
 3469SOL     OW21865   2.376   0.829  16.611  0.1329 -0.1052  0.3226
 3469SOL    HW121866   2.303   0.793  16.561 -1.5984  0.8251  2.2032
 3469SOL    HW221867   2.444   0.764  16.625 -1.3579 -1.2144  2.2892
 3470SOL     OW21868   1.288   0.162  11.452 -0.4845  0.3764 -0.4977
 3470SOL    HW121869   1.346   0.153  11.528 -0.4078  0.5334 -0.5384
 3470SOL    HW221870   1.235   0.239  11.470 -0.9189  0.4755 -2.2323
 3471SOL     OW21871   3.898   1.362  10.844  0.0346  0.2632  0.0116
 3471SOL    HW121872   3.886   1.326  10.756  0.4561 -0.9965  0.4594
 3471SOL    HW221873   3.987   1.334  10.864  0.1883  0.8553  0.1361
 3472SOL     OW21874   1.393   4.031   5.084  0.3025  0.3967 -0.8608
 3472SOL    HW121875   1.478   4.038   5.040 -0.2511  1.1518 -1.8269
 3472SOL    HW221876   1.374   4.123   5.101  0.7132  0.6219 -1.6090
 3473SOL     OW21877   0.578   4.049   5.018  0.3934 -0.3779  0.0632
 3473SOL    HW121878   0.641   4.026   4.950 -1.2787 -0.5164 -1.4167
 3473SOL    HW221879   0.535   3.964   5.032 -1.2941  0.5307  0.4021
 3474SOL     OW21880   0.933   1.584  12.337  0.6910 -0.0548 -0.0388
 3474SOL    HW121881   0.856   1.619  12.382  0.6571  0.0886 -0.2059
 3474SOL    HW221882   1.000   1.638  12.380  1.5310 -2.3696  1.5974
 3475SOL     OW21883   0.614   4.169  13.438 -0.7112 -0.0506  0.7644
 3475SOL    HW121884   0.672   4.243  13.450 -0.9036  0.3583 -0.8129
 3475SOL    HW221885   0.568   4.169  13.522  0.6135 -1.2272  1.4759
 3476SOL     OW21886   1.768   3.579   5.386  0.0582  0.4881 -0.2965
 3476SOL    HW121887   1.848   3.540   5.421  0.3529  1.8702  0.5534
 3476SOL    HW221888   1.704   3.527   5.434  0.1484 -0.1845 -0.8997
 3477SOL     OW21889   3.274   3.931   7.626 -0.8533 -0.0990  0.2862
 3477SOL    HW121890   3.300   3.870   7.695  0.2434  0.6513  0.5233
 3477SOL    HW221891   3.188   3.904   7.594 -0.9919  2.2013 -1.2819
 3478SOL     OW21892   0.282   3.739   6.593 -0.5428  0.4120  0.3224
 3478SOL    HW121893   0.255   3.739   6.501  0.5261 -1.6328  0.0068
 3478SOL    HW221894   0.292   3.834   6.600 -3.2807  0.8413 -1.6420
 3479SOL     OW21895   1.200   1.837   4.148  0.1731 -0.0637 -0.5634
 3479SOL    HW121896   1.168   1.850   4.058 -0.5828 -3.3092 -0.7710
 3479SOL    HW221897   1.232   1.925   4.169 -0.5068 -0.1780  0.9520
 3480SOL     OW21898   3.229   1.328   7.280 -0.4026  0.2920  0.3284
 3480SOL    HW121899   3.233   1.422   7.262  1.4827  0.2804  0.7172
 3480SOL    HW221900   3.292   1.296   7.216  1.9325 -1.1815  3.3565
 3481SOL     OW21901   2.613   3.027   2.673  0.2774  0.3357 -0.1145
 3481SOL    HW121902   2.605   3.028   2.578 -0.7675 -1.2584 -0.0514
 3481SOL    HW221903   2.686   3.089   2.674  0.6537 -0.1015  0.1598
 3482SOL     OW21904   1.305   2.876   5.783  0.0381  0.1604 -0.2257
 3482SOL    HW121905   1.338   2.944   5.842 -0.0302  0.5669 -0.6591
 3482SOL    HW221906   1.379   2.834   5.739 -1.1218 -1.1540 -0.9337
 3483SOL     OW21907   0.446   3.765   4.978  0.1248  0.4622  0.1559
 3483SOL    HW121908   0.422   3.677   4.949 -0.6345  0.1674  1.6959
 3483SOL    HW221909   0.540   3.764   4.962  0.4169  0.2544  1.9050
 3484SOL     OW21910   1.057   4.708  14.028 -0.4578 -0.4376 -0.0002
 3484SOL    HW121911   1.144   0.015  14.002 -1.0518 -0.7158 -2.2610
 3484SOL    HW221912   1.081   4.616  14.019  1.9798  0.3125 -1.2917
 3485SOL     OW21913   2.008   1.801  10.111  0.5549  0.0763  0.2218
 3485SOL    HW121914   2.029   1.732  10.174 -0.4324 -0.2491  0.2052
 3485SOL    HW221915   1.978   1.872  10.167 -1.3449 -0.6882  0.1970
 3486SOL     OW21916   0.598   1.052   9.152  0.1665  0.0420 -0.3849
 3486SOL    HW121917   0.656   1.106   9.204  2.0870 -0.0338 -2.4572
 3486SOL    HW221918   0.664   0.986   9.129 -0.2676 -0.2589 -0.7733
 3487SOL     OW21919   4.468   4.373   1.038  0.5519 -0.9792  0.1752
 3487SOL    HW121920   4.442   4.368   1.130 -0.4491  1.3035  0.0410
 3487SOL    HW221921   4.415   4.301   1.007  0.4025 -0.6076 -0.4232
 3488SOL     OW21922   3.905   0.859   2.140 -0.4882  0.1452 -0.5626
 3488SOL    HW121923   3.877   0.950   2.130  1.0714  0.5744 -1.0589
 3488SOL    HW221924   3.968   0.845   2.069 -1.4497  1.1042 -1.5866
 3489SOL     OW21925   4.428   1.105   6.728  0.4744 -0.4070 -0.2801
 3489SOL    HW121926   4.483   1.100   6.650 -1.2092  0.0463 -1.4959
 3489SOL    HW221927   4.490   1.093   6.800 -0.1925 -0.1613  0.3300
 3490SOL     OW21928   3.535   2.545   4.424 -0.4579  0.4279  0.9758
 3490SOL    HW121929   3.577   2.504   4.499  3.4225  1.0825 -0.8225
 3490SOL    HW221930   3.535   2.469   4.365  2.0633  2.2093 -1.3245
 3491SOL     OW21931   2.605   2.965   7.285  0.2162 -0.5420 -0.0134
 3491SOL    HW121932   2.699   2.979   7.294  0.1809 -0.2439 -0.0912
 3491SOL    HW221933   2.585   3.046   7.237  1.0455 -0.4353 -0.1827
 3492SOL     OW21934   0.046   1.747   5.328 -0.4117 -0.1411  0.3480
 3492SOL    HW121935   0.099   1.819   5.295 -0.7896 -0.6027 -1.2510
 3492SOL    HW221936   0.083   1.736   5.416  2.5480  1.2578 -0.7180
 3493SOL     OW21937   2.288   0.803   9.428  0.2711 -0.9723  0.5569
 3493SOL    HW121938   2.271   0.872   9.363 -0.8887 -1.2159  0.6091
 3493SOL    HW221939   2.328   0.731   9.380  2.1138  0.4748 -0.0578
 3494SOL     OW21940   0.509   0.770   2.513  0.0394  0.1490 -0.0427
 3494SOL    HW121941   0.551   0.690   2.547 -0.6394 -0.3547 -0.3917
 3494SOL    HW221942   0.416   0.748   2.508  0.4104 -1.5674  0.3515
 3495SOL     OW21943   1.471   0.887   1.434 -0.0165 -0.6377  0.1176
 3495SOL    HW121944   1.531   0.819   1.463  0.4387 -0.0951  0.4364
 3495SOL    HW221945   1.525   0.946   1.381  0.1133 -2.6892 -2.0413
 3496SOL     OW21946   1.482   1.611   8.255 -0.3035 -0.3407 -0.2235
 3496SOL    HW121947   1.526   1.526   8.262  0.1025  0.0341  1.6670
 3496SOL    HW221948   1.425   1.584   8.183 -0.4887 -0.1344 -0.1567
 3497SOL     OW21949   3.874   4.403   2.283  0.0630 -0.4818  0.4659
 3497SOL    HW121950   3.794   4.355   2.262 -0.3782 -0.5999  2.4922
 3497SOL    HW221951   3.877   4.469   2.213 -0.4094 -0.6405  0.2970
 3498SOL     OW21952   1.009   0.968  14.982  0.1357  0.1176 -0.5147
 3498SOL    HW121953   1.021   0.989  15.075 -1.6365  2.3023 -0.7894
 3498SOL    HW221954   0.950   1.039  14.958  0.3943 -0.0442 -1.6412
 3499SOL     OW21955   1.463   0.629   1.152  0.5910 -0.6408  0.3326
 3499SOL    HW121956   1.544   0.584   1.176  1.4408  0.0692 -1.2203
 3499SOL    HW221957   1.502   0.716   1.141 -0.6576 -0.2670 -1.1484
 3500SOL     OW21958   1.615   1.037  15.011  0.3017 -0.3191  0.2754
 3500SOL    HW121959   1.640   0.974  15.079  1.2745 -0.7998 -0.5211
 3500SOL    HW221960   1.665   1.010  14.934 -0.7132  1.4442 -0.9802
 3501SOL     OW21961   0.762   3.095   5.315  0.2027 -0.6989 -1.2523
 3501SOL    HW121962   0.762   3.141   5.399  0.1617 -0.8535 -1.1689
 3501SOL    HW221963   0.771   3.005   5.346 -0.9108 -0.1487  0.6959
 3502SOL     OW21964   3.737   4.712   6.991  0.2169 -0.4988 -0.6862
 3502SOL    HW121965   3.644   0.003   7.007  0.5866  0.2216  0.7965
 3502SOL    HW221966   3.752   0.036   6.910  0.7858  1.6030  0.6474
 3503SOL     OW21967   2.596   2.741   0.029  0.5919  0.1951  0.3963
 3503SOL    HW121968   2.625   2.757   0.119 -0.0609  1.5683  0.3507
 3503SOL    HW221969   2.672   2.705  17.682  0.1381 -1.5682  1.0264
 3504SOL     OW21970   1.642   2.146  15.848  0.6293  0.4731  0.2874
 3504SOL    HW121971   1.607   2.150  15.759  3.2160  5.1459 -0.5257
 3504SOL    HW221972   1.678   2.235  15.854 -2.0386  1.6268 -1.0519
 3505SOL     OW21973   3.799   2.870   3.859  0.1046  0.0794 -0.1102
 3505SOL    HW121974   3.767   2.925   3.931 -1.3083  0.6451 -1.1617
 3505SOL    HW221975   3.750   2.907   3.785  0.2533 -0.4385 -0.4695
 3506SOL     OW21976   3.347   4.180   4.630 -0.5705  0.0463 -0.0739
 3506SOL    HW121977   3.261   4.146   4.653 -1.3994  1.9623 -0.3527
 3506SOL    HW221978   3.369   4.107   4.572 -1.5726  1.0836 -1.7627
 3507SOL     OW21979   3.038   3.089  15.635 -0.4030 -0.6245  0.5083
 3507SOL    HW121980   3.100   3.024  15.600 -0.1551 -0.2671  0.2914
 3507SOL    HW221981   3.043   3.161  15.573 -0.9292 -0.7606  0.3055
 3508SOL     OW21982   3.320   3.568   7.169 -0.2478 -0.2778 -0.0615
 3508SOL    HW121983   3.341   3.643   7.224  2.1992 -0.0971 -1.2212
 3508SOL    HW221984   3.408   3.540   7.143  0.3244  1.0952  0.4196
 3509SOL     OW21985   2.500   0.407   5.187  0.2490  0.2305  0.5925
 3509SOL    HW121986   2.493   0.372   5.098  1.6621  1.8308 -0.1635
 3509SOL    HW221987   2.594   0.427   5.188 -0.0541  1.8191 -1.6858
 3510SOL     OW21988   1.823   2.812   9.747  0.2406 -0.3071  0.8925
 3510SOL    HW121989   1.900   2.863   9.774 -0.4637  1.3090 -0.1778
 3510SOL    HW221990   1.790   2.795   9.835 -0.2996 -1.4445  0.4714
 3511SOL     OW21991   2.204   2.767  16.538 -0.3763 -0.3294  0.0910
 3511SOL    HW121992   2.184   2.686  16.493  0.0772  0.5538 -1.7043
 3511SOL    HW221993   2.264   2.726  16.600  0.4162 -1.3827 -1.3699
 3512SOL     OW21994   2.968   3.350   6.224 -0.2300  0.1948 -0.3079
 3512SOL    HW121995   2.989   3.257   6.231 -0.4404  0.0460 -1.5837
 3512SOL    HW221996   2.882   3.347   6.267  0.3760  2.1261  1.0168
 3513SOL     OW21997   4.662   2.824  13.408 -0.2343 -0.0406  0.1687
 3513SOL    HW121998   4.595   2.756  13.417  0.2821 -0.2941  2.0424
 3513SOL    HW221999   0.008   2.770  13.370  0.4504  1.1670 -0.2667
 3514SOL     OW22000   4.222   4.654   2.635 -0.4835  0.7189 -0.3207
 3514SOL    HW122001   4.173   4.678   2.557  1.8312  3.1405 -1.0106
 3514SOL    HW222002   4.140   4.620   2.671 -0.3304  1.5091  0.7820
 3515SOL     OW22003   2.165   2.697   6.830 -0.2569  0.1712  0.4826
 3515SOL    HW122004   2.214   2.665   6.754  1.6572  0.6962  1.4796
 3515SOL    HW222005   2.205   2.649   6.903 -1.5394 -0.1394  0.9635
 3516SOL     OW22006   0.098   0.657   0.587  0.1613  0.3541 -0.0823
 3516SOL    HW122007   0.149   0.602   0.646  1.1609 -0.0067 -1.2972
 3516SOL    HW222008   0.170   0.714   0.561  0.1666  0.1768 -0.4628
 3517SOL     OW22009   4.335   3.719  11.957 -0.1941  0.1963 -0.1745
 3517SOL    HW122010   4.296   3.661  12.022 -1.5410  1.2858 -0.0098
 3517SOL    HW222011   4.408   3.751  12.010 -0.2124  1.0397 -0.6590
 3518SOL     OW22012   1.489   1.854   3.329 -0.0352 -0.1693 -0.2118
 3518SOL    HW122013   1.437   1.895   3.261 -1.3933  2.6471  2.5125
 3518SOL    HW222014   1.480   1.760   3.314  0.4623 -0.1591 -0.5498
 3519SOL     OW22015   2.408   3.529   3.302 -0.0735 -0.2007 -0.0872
 3519SOL    HW122016   2.456   3.481   3.369 -1.0486  0.0566  0.7889
 3519SOL    HW222017   2.458   3.610   3.298  0.4410 -0.3610  3.5107
 3520SOL     OW22018   1.585   2.923   0.430  0.0224  0.2143 -0.0510
 3520SOL    HW122019   1.611   2.946   0.519 -0.8334 -0.3580  0.3519
 3520SOL    HW222020   1.615   3.005   0.392  3.1875 -1.1283 -0.4171
 3521SOL     OW22021   2.960   2.648   4.474 -0.3510  0.1017  0.2239
 3521SOL    HW122022   2.867   2.658   4.456 -0.5032 -0.6031  0.6408
 3521SOL    HW222023   2.983   2.692   4.392  3.1607  1.2145  1.8001
 3522SOL     OW22024   2.640   3.553   2.995  0.2847  0.0782  0.4163
 3522SOL    HW122025   2.617   3.578   2.906 -0.2259  0.7108  0.7288
 3522SOL    HW222026   2.568   3.490   3.003 -0.9943  1.5987  0.8659
 3523SOL     OW22027   4.455   4.058   6.341 -0.9468  0.6137  0.0144
 3523SOL    HW122028   4.495   4.014   6.266  0.6021  2.2552 -0.1031
 3523SOL    HW222029   4.497   4.017   6.417  0.9960  0.1159 -1.3353
 3524SOL     OW22030   4.376   1.009   8.015 -0.2622 -0.3574 -0.4503
 3524SOL    HW122031   4.386   1.058   8.097 -0.4058 -1.2611  0.1065
 3524SOL    HW222032   4.283   0.985   8.019  0.0660 -1.1954  2.3224
 3525SOL     OW22033   1.307   4.429  10.300 -0.1218 -0.1101 -0.5654
 3525SOL    HW122034   1.345   4.341  10.300  0.8404  0.3138 -0.5106
 3525SOL    HW222035   1.390   4.475  10.297  0.8310 -1.9038 -1.8576
 3526SOL     OW22036   4.667   2.699   7.847 -0.5147 -0.1553  0.2192
 3526SOL    HW122037   4.696   2.688   7.757 -3.5015  0.0597 -0.7604
 3526SOL    HW222038   4.578   2.669   7.831 -0.1119 -0.3616 -1.6029
 3527SOL     OW22039   0.127   3.508   3.735 -0.5912 -0.2912  0.0723
 3527SOL    HW122040   0.155   3.598   3.748  1.1338 -0.7411 -0.4788
 3527SOL    HW222041   0.046   3.520   3.685 -1.4641  1.0621  1.8137
 3528SOL     OW22042   2.199   0.256   8.155 -0.0160  0.5165  0.0705
 3528SOL    HW122043   2.155   0.200   8.091  2.8191 -1.2056 -0.3728
 3528SOL    HW222044   2.179   0.206   8.235 -1.6103  2.3929  0.8447
 3529SOL     OW22045   1.638   0.828   8.551  0.7056  0.2459  0.2174
 3529SOL    HW122046   1.680   0.786   8.626 -1.4256 -1.8622  0.2345
 3529SOL    HW222047   1.689   0.907   8.534  3.1237 -0.9019  2.1831
 3530SOL     OW22048   2.334   0.829  13.554 -0.2843  0.2689  0.0391
 3530SOL    HW122049   2.325   0.737  13.530 -0.1343  0.6739 -1.5343
 3530SOL    HW222050   2.359   0.823  13.647 -0.1630  0.2042  0.0033
 3531SOL     OW22051   2.075   0.438   2.786  0.1721 -0.5441  0.5768
 3531SOL    HW122052   2.011   0.493   2.831  0.9481  1.6867 -1.0766
 3531SOL    HW222053   2.057   0.457   2.694 -0.0992 -2.3084  0.2682
 3532SOL     OW22054   3.236   3.042   2.276  0.4948 -0.6068 -0.4179
 3532SOL    HW122055   3.189   3.120   2.307  1.7426 -0.3357  0.8113
 3532SOL    HW222056   3.279   3.084   2.202  0.9516  1.0187  0.7691
 3533SOL     OW22057   2.508   4.488   5.641  0.0915  0.5364 -0.4915
 3533SOL    HW122058   2.430   4.486   5.696 -0.2303  3.6206 -0.8399
 3533SOL    HW222059   2.519   4.583   5.632 -0.8463  0.6462 -0.4470
 3534SOL     OW22060   3.145   2.857  12.836 -0.1855  0.4305 -0.1139
 3534SOL    HW122061   3.099   2.795  12.892 -1.3422  0.7001 -0.7540
 3534SOL    HW222062   3.205   2.805  12.783 -0.0941 -0.0598  0.4767
 3535SOL     OW22063   3.684   2.815  14.454 -0.4339 -0.0421 -0.3806
 3535SOL    HW122064   3.604   2.764  14.443 -0.0590 -0.8181  0.4597
 3535SOL    HW222065   3.694   2.844  14.363 -3.1362  0.6128 -0.4806
 3536SOL     OW22066   3.526   0.102   7.307  0.0433 -0.2215 -0.9405
 3536SOL    HW122067   3.505   0.181   7.257  0.6552 -1.0777 -2.5449
 3536SOL    HW222068   3.562   0.035   7.249  2.9418 -1.2108  2.0205
 3537SOL     OW22069   3.941   3.372   9.768 -0.1753 -0.1626 -0.1223
 3537SOL    HW122070   3.903   3.454   9.739  1.3529  0.2091 -1.0843
 3537SOL    HW222071   4.018   3.406   9.814 -0.2634  2.1914 -1.7033
 3538SOL     OW22072   0.603   3.843   2.536  0.4580  0.4334 -0.1551
 3538SOL    HW122073   0.547   3.920   2.550 -1.3251 -0.6177 -1.6552
 3538SOL    HW222074   0.559   3.781   2.594  0.1738  0.6743 -0.1119
 3539SOL     OW22075   0.390   3.086   7.345  0.5690 -0.0437  0.1717
 3539SOL    HW122076   0.325   3.032   7.300 -0.0476  0.6786  0.1855
 3539SOL    HW222077   0.451   3.017   7.370  2.0160  0.8456 -0.8953
 3540SOL     OW22078   3.710   3.223  17.632 -0.4439  0.1893  0.9039
 3540SOL    HW122079   3.711   3.249  17.540 -0.4283 -1.0253  0.5477
 3540SOL    HW222080   3.767   3.293  17.665 -1.4493  2.5790 -2.5497
 3541SOL     OW22081   0.154   4.430  15.957 -0.6349  0.3677  0.2472
 3541SOL    HW122082   0.089   4.462  15.895  0.4954  2.0183 -0.0799
 3541SOL    HW222083   0.113   4.444  16.042  0.9158  1.3449  0.8313
 3542SOL     OW22084   3.421   1.891   8.810  0.2143  0.1447  0.1197
 3542SOL    HW122085   3.436   1.918   8.720 -0.2077 -0.8529 -0.2452
 3542SOL    HW222086   3.512   1.878   8.839 -0.3004 -0.2706  1.5431
 3543SOL     OW22087   2.581   0.631   6.562  0.3634 -0.3531  0.5841
 3543SOL    HW122088   2.584   0.607   6.655 -0.2451  0.7175  0.8703
 3543SOL    HW222089   2.488   0.653   6.554  0.1549 -1.6315 -0.5094
 3544SOL     OW22090   2.662   3.011   3.509 -0.2764 -0.1114 -0.2837
 3544SOL    HW122091   2.602   3.007   3.583 -0.1654  0.0047 -0.1860
 3544SOL    HW222092   2.609   3.079   3.468  2.3077 -0.0313 -3.5095
 3545SOL     OW22093   3.695   2.145   8.809 -0.7798 -0.1573  0.8860
 3545SOL    HW122094   3.670   2.068   8.759 -0.7101  1.5855 -1.8539
 3545SOL    HW222095   3.756   2.108   8.874  0.2702  1.7200  0.9797
 3546SOL     OW22096   0.790   1.001   3.714 -0.2482 -0.0140 -0.9642
 3546SOL    HW122097   0.852   1.067   3.744 -1.5037  0.8373 -0.2407
 3546SOL    HW222098   0.761   1.048   3.637 -1.0597 -0.3446 -0.8660
 3547SOL     OW22099   2.847   0.826  13.566 -0.0936 -0.0792  0.4103
 3547SOL    HW122100   2.875   0.916  13.551 -0.2402 -0.2898 -1.0705
 3547SOL    HW222101   2.788   0.836  13.641 -1.5110 -0.7881 -0.6242
 3548SOL     OW22102   3.128   4.450   5.509 -0.3591  0.2358 -0.2043
 3548SOL    HW122103   3.210   4.498   5.491 -1.8378  1.3656 -3.9528
 3548SOL    HW222104   3.137   4.373   5.453  1.0936  0.1151  0.1751
 3549SOL     OW22105   3.267   2.713   5.035  0.3077 -0.0881  0.3815
 3549SOL    HW122106   3.294   2.715   4.944  0.1025 -0.0794  0.3213
 3549SOL    HW222107   3.270   2.807   5.055 -2.0938 -0.1186  0.8802
 3550SOL     OW22108   3.171   0.459   7.973  0.1119 -0.6376  0.2707
 3550SOL    HW122109   3.246   0.434   8.027  1.7956  0.9307 -1.3444
 3550SOL    HW222110   3.204   0.541   7.938 -0.6570 -0.1120  0.7807
 3551SOL     OW22111   2.576   1.056   6.244 -0.1462 -0.2696  0.7963
 3551SOL    HW122112   2.511   0.987   6.233  1.5336 -1.6591 -0.6130
 3551SOL    HW222113   2.658   1.009   6.228 -1.4713 -2.3298  0.1053
 3552SOL     OW22114   0.493   4.014   9.844 -0.7046  0.6346 -0.9341
 3552SOL    HW122115   0.481   3.919   9.842  0.3900  0.4502  0.5982
 3552SOL    HW222116   0.456   4.054   9.766  0.6416  3.1415 -0.2919
 3553SOL     OW22117   1.934   3.281   8.398  0.0108 -0.3475  0.0277
 3553SOL    HW122118   1.886   3.331   8.464  1.9604 -1.1542  2.0547
 3553SOL    HW222119   1.878   3.271   8.321 -0.8226  1.0994  0.4359
 3554SOL     OW22120   0.670   1.706   8.525 -0.2892 -0.0932  0.4243
 3554SOL    HW122121   0.594   1.697   8.468 -0.5123  0.2379  0.6713
 3554SOL    HW222122   0.738   1.675   8.465 -0.8451  2.2327 -1.3806
 3555SOL     OW22123   3.751   0.311   1.268 -0.1212 -0.1462  0.8827
 3555SOL    HW122124   3.741   0.391   1.216  0.3112  0.3369  1.5579
 3555SOL    HW222125   3.744   0.344   1.357 -1.2900 -1.8785  1.4412
 3556SOL     OW22126   2.371   1.499   6.458  0.2564 -0.3663  0.6238
 3556SOL    HW122127   2.324   1.494   6.541  0.4164 -0.5864  0.6995
 3556SOL    HW222128   2.342   1.424   6.406  1.5545  0.0676 -0.7208
 3557SOL     OW22129   0.368   0.986   3.304  0.5272  0.1019 -0.3111
 3557SOL    HW122130   0.438   1.018   3.247  1.3988 -0.3152  0.5147
 3557SOL    HW222131   0.290   1.017   3.258 -0.3350 -2.7606 -0.7420
 3558SOL     OW22132   0.767   3.237   7.097 -0.2820  0.0397  0.1093
 3558SOL    HW122133   0.748   3.149   7.129 -1.8116  0.6842  0.9442
 3558SOL    HW222134   0.678   3.270   7.100 -0.4967 -0.5626  0.3408
 3559SOL     OW22135   4.670   2.712   6.907  0.1725 -0.3402  0.1260
 3559SOL    HW122136   4.675   2.749   6.819  0.3412 -0.1833  0.2017
 3559SOL    HW222137   4.603   2.764   6.951 -0.0119  0.2111 -0.8049
 3560SOL     OW22138   4.601   1.132   2.060 -0.6832 -0.1968 -0.2263
 3560SOL    HW122139   4.544   1.095   1.993 -0.9480  2.0992 -1.2356
 3560SOL    HW222140   4.549   1.202   2.099 -2.0982 -1.4009  0.0484
 3561SOL     OW22141   0.084   2.562  17.534  0.7983 -0.0768  0.0045
 3561SOL    HW122142   0.121   2.517  17.458 -0.0561 -1.0334  0.1476
 3561SOL    HW222143   4.716   2.544  17.514  0.6491  0.5470  0.1350
 3562SOL     OW22144   1.358   1.855   2.103 -0.3977 -0.1709  0.1331
 3562SOL    HW122145   1.403   1.879   2.022 -0.9815 -0.8557 -0.3941
 3562SOL    HW222146   1.429   1.856   2.167 -1.0167  0.1219  0.8116
 3563SOL     OW22147   4.284   3.161  16.364 -0.1489 -0.3957 -0.2931
 3563SOL    HW122148   4.285   3.177  16.269 -0.0528 -0.8706 -0.3712
 3563SOL    HW222149   4.201   3.199  16.395  0.9163 -1.3764  3.7515
 3564SOL     OW22150   2.914   3.051   6.134 -0.4644  0.0721  0.2738
 3564SOL    HW122151   2.870   3.072   6.051  2.9119 -2.8300 -2.2484
 3564SOL    HW222152   3.003   3.065   6.102 -0.3818  0.8561  0.8643
 3565SOL     OW22153   4.529   0.317   8.722  0.3548 -0.2982  0.0332
 3565SOL    HW122154   4.503   0.281   8.807 -3.3701  2.1830 -0.0334
 3565SOL    HW222155   4.624   0.319   8.728  0.2672  1.0187  1.1363
 3566SOL     OW22156   2.807   1.629   9.929 -0.3085 -0.0310  0.0891
 3566SOL    HW122157   2.796   1.540   9.964  1.2675 -0.5042 -0.6108
 3566SOL    HW222158   2.903   1.630   9.931 -0.2921 -0.9583  0.1405
 3567SOL     OW22159   3.828   0.641   3.481 -0.2365  0.3021  0.2075
 3567SOL    HW122160   3.916   0.622   3.448 -0.5940 -2.2847  0.7599
 3567SOL    HW222161   3.798   0.552   3.498 -0.3838  0.2725 -0.2066
 3568SOL     OW22162   2.957   1.409   1.844 -1.0292  0.2533  0.0379
 3568SOL    HW122163   3.018   1.418   1.771 -0.8637  0.0197  0.1485
 3568SOL    HW222164   2.977   1.484   1.899 -2.1692 -1.2338  2.4540
 3569SOL     OW22165   2.275   1.377   2.606  0.8300  0.0039  0.0221
 3569SOL    HW122166   2.206   1.439   2.630  1.5553 -0.0473  2.2487
 3569SOL    HW222167   2.333   1.390   2.681 -0.9645  0.9374  1.2726
 3570SOL     OW22168   3.126   3.757   4.978  0.1212  0.0148  0.1115
 3570SOL    HW122169   3.111   3.780   5.070 -1.2787  1.2054 -0.4035
 3570SOL    HW222170   3.041   3.729   4.943  0.1440 -0.0024  0.0695
 3571SOL     OW22171   1.119   0.386   4.824 -0.0270 -0.4379  0.0781
 3571SOL    HW122172   1.099   0.476   4.796  0.3006 -0.2354  0.4762
 3571SOL    HW222173   1.207   0.396   4.861  0.5874 -0.3289 -1.4011
 3572SOL     OW22174   1.147   1.713   5.428  0.2041  0.4038 -0.1639
 3572SOL    HW122175   1.125   1.772   5.355  2.6893  1.0704 -0.4109
 3572SOL    HW222176   1.089   1.641   5.405 -0.0696  1.2141 -2.0888
 3573SOL     OW22177   4.328   0.581   6.635 -0.1344  0.0350  0.7281
 3573SOL    HW122178   4.297   0.546   6.552 -1.1665  2.4739  0.1083
 3573SOL    HW222179   4.390   0.648   6.608  0.3012 -0.9021 -0.5925
 3574SOL     OW22180   0.076   3.766  12.600 -0.5286  0.2932 -0.1846
 3574SOL    HW122181   0.001   3.810  12.639  0.5244  0.1258  2.0119
 3574SOL    HW222182   0.079   3.680  12.642  0.7564  0.5569  0.2729
 3575SOL     OW22183   4.140   2.983  15.931  0.0784 -0.7726 -0.0575
 3575SOL    HW122184   4.070   2.920  15.915  0.8624 -1.1168 -2.1844
 3575SOL    HW222185   4.087   3.048  15.976 -1.7343 -3.3266  1.5218
 3576SOL     OW22186   2.974   2.041   2.179  0.4583  0.5901  0.1325
 3576SOL    HW122187   3.060   2.001   2.166  1.6936  2.9911  0.9025
 3576SOL    HW222188   2.963   2.020   2.272  0.3872  2.2989  0.5054
 3577SOL     OW22189   3.412   1.385   5.456 -0.4613 -0.3662  0.0241
 3577SOL    HW122190   3.500   1.352   5.475 -0.1623  1.2294  1.3880
 3577SOL    HW222191   3.383   1.424   5.539  0.2514  2.9075 -1.2555
 3578SOL     OW22192   2.762   3.738   9.533  0.6093  0.9010  0.3296
 3578SOL    HW122193   2.721   3.708   9.613 -2.6972 -1.7894 -2.3986
 3578SOL    HW222194   2.846   3.780   9.552  1.6194 -2.0740  2.4281
 3579SOL     OW22195   1.558   4.538  17.642 -0.1548  0.5564  0.2757
 3579SOL    HW122196   1.486   4.518  17.583 -0.2307  1.0004  0.2177
 3579SOL    HW222197   1.540   4.458  17.693 -1.4326  1.0779  0.6394
 3580SOL     OW22198   4.046   4.696   5.459 -0.0591 -0.4214  0.7481
 3580SOL    HW122199   4.133   4.721   5.430 -0.7625  1.7505  0.5411
 3580SOL    HW222200   4.054   4.713   5.552 -1.6850  1.4833  0.5356
 3581SOL     OW22201   0.764   4.688  15.012 -0.2825 -0.4445 -0.3734
 3581SOL    HW122202   0.822   0.032  14.978  0.5731 -0.4121  1.1437
 3581SOL    HW222203   0.749   4.648  14.926  4.0128 -0.3787 -1.1581
 3582SOL     OW22204   0.064   2.060  16.241  0.3230 -0.5193  0.3018
 3582SOL    HW122205   0.108   2.145  16.246  2.0262 -1.4320  0.7701
 3582SOL    HW222206   0.025   2.087  16.158 -0.8401  1.4643  1.4890
 3583SOL     OW22207   1.014   2.343   4.460 -0.1193  0.5610  0.4281
 3583SOL    HW122208   1.091   2.361   4.515  0.1074 -0.7046  0.5161
 3583SOL    HW222209   1.033   2.256   4.426  1.1873 -0.2307  3.1705
 3584SOL     OW22210   1.744   1.689   8.615  0.1941  0.2327  0.1615
 3584SOL    HW122211   1.805   1.697   8.541 -2.8515 -0.2362 -2.3766
 3584SOL    HW222212   1.798   1.706   8.692 -0.6557  1.5297  0.4700
 3585SOL     OW22213   3.515   0.651   1.545 -0.3439  0.0518  0.0794
 3585SOL    HW122214   3.488   0.723   1.601  1.1474 -0.1487  1.0539
 3585SOL    HW222215   3.609   0.667   1.534  0.2293 -2.8390  0.7414
 3586SOL     OW22216   3.648   0.797  10.398 -0.5208  0.0832  0.3259
 3586SOL    HW122217   3.569   0.757  10.361 -0.2668  1.0776 -1.2936
 3586SOL    HW222218   3.705   0.794  10.320  0.9014 -0.2425  1.3829
 3587SOL     OW22219   1.733   0.934  14.769 -0.2680  0.2678 -0.2531
 3587SOL    HW122220   1.818   0.897  14.793  0.1497  0.5954 -1.2696
 3587SOL    HW222221   1.678   0.855  14.764  1.3942 -0.7783 -1.8900
 3588SOL     OW22222   4.219   1.624  10.808 -0.1201 -0.1794 -0.6073
 3588SOL    HW122223   4.258   1.561  10.747 -2.3778 -0.8150 -1.4103
 3588SOL    HW222224   4.291   1.632  10.870 -2.4972 -1.5908  2.3475
 3589SOL     OW22225   4.140   2.404   7.209 -0.0558 -0.2113 -0.1867
 3589SOL    HW122226   4.216   2.347   7.221 -1.5115 -2.3971 -1.4184
 3589SOL    HW222227   4.061   2.351   7.201 -0.7133  0.7036  0.3126
 3590SOL     OW22228   3.371   3.939   3.167 -0.1779  0.3377  0.1146
 3590SOL    HW122229   3.329   3.922   3.252  1.2344 -0.1662  0.7146
 3590SOL    HW222230   3.464   3.916   3.177  0.0473  1.7373  1.1601
 3591SOL     OW22231   3.952   2.111  11.259 -0.1814  0.7866 -0.2595
 3591SOL    HW122232   3.984   2.086  11.346  0.3502 -0.9729 -0.9578
 3591SOL    HW222233   4.002   2.053  11.201 -2.5425 -0.5237 -0.9536
 3592SOL     OW22234   2.958   4.237  17.311  0.2016 -0.1120  0.0972
 3592SOL    HW122235   3.043   4.266  17.345 -0.2708  1.3506  0.0315
 3592SOL    HW222236   2.912   4.318  17.331  1.7434  0.2701  2.1137
 3593SOL     OW22237   1.895   4.280   4.922 -0.1938 -0.0392  0.4662
 3593SOL    HW122238   1.892   4.199   4.871 -2.1053 -0.9497  2.0482
 3593SOL    HW222239   1.952   4.323   4.858 -1.6833  1.3992  0.0968
 3594SOL     OW22240   0.559   2.695   8.793 -0.3337 -0.1662  0.0600
 3594SOL    HW122241   0.492   2.695   8.725  0.7595  1.7205 -1.0332
 3594SOL    HW222242   0.624   2.628   8.770  2.2059  1.3554  2.8318
 3595SOL     OW22243   0.578   3.777   9.440 -0.6220 -0.0842  0.1633
 3595SOL    HW122244   0.566   3.727   9.360  0.1945  1.6416 -1.0328
 3595SOL    HW222245   0.505   3.747   9.494 -1.5121  2.1779  0.2154
 3596SOL     OW22246   4.090   3.575   8.406 -0.6324 -0.3465  0.1741
 3596SOL    HW122247   4.003   3.552   8.375 -0.4075 -1.8026  0.6077
 3596SOL    HW222248   4.124   3.605   8.322 -0.7033 -2.1747 -0.4936
 3597SOL     OW22249   2.651   2.797   7.480 -0.0912 -0.2124 -0.1623
 3597SOL    HW122250   2.640   2.864   7.548 -0.4302  0.5415 -0.9566
 3597SOL    HW222251   2.619   2.848   7.405 -2.3172 -1.5483 -0.1354
 3598SOL     OW22252   4.173   3.162  13.608  0.3493 -0.3828 -0.7940
 3598SOL    HW122253   4.192   3.238  13.664  0.5123 -1.8031  1.0567
 3598SOL    HW222254   4.150   3.213  13.529 -1.0032  1.1093  0.5566
 3599SOL     OW22255   2.609   0.445  10.862  0.0893  0.0697  0.0393
 3599SOL    HW122256   2.696   0.429  10.897 -0.4520  1.2190  1.9119
 3599SOL    HW222257   2.627   0.481  10.776 -0.7717  0.3041 -0.0474
 3600SOL     OW22258   4.632   3.527  11.552  0.2569  0.2319 -0.2962
 3600SOL    HW122259   4.617   3.435  11.571  0.1129  0.0869 -1.1272
 3600SOL    HW222260   4.567   3.563  11.613 -0.1012 -0.2441 -0.4042
 3601SOL     OW22261   0.831   1.399   9.571 -0.5726  0.5657  0.3222
 3601SOL    HW122262   0.810   1.366   9.658 -0.0302 -0.7529 -0.0428
 3601SOL    HW222263   0.740   1.418   9.546 -1.3118 -2.2219  0.8328
 3602SOL     OW22264   0.922   2.312  13.279 -0.1673 -0.6870  0.2145
 3602SOL    HW122265   0.834   2.323  13.243  0.0434 -1.9492 -0.6691
 3602SOL    HW222266   0.916   2.222  13.310 -2.4173 -0.9547 -0.9848
 3603SOL     OW22267   4.136   4.258   8.234 -0.0794 -0.3852  0.1194
 3603SOL    HW122268   4.127   4.326   8.301  1.4814 -0.1890  0.1319
 3603SOL    HW222269   4.144   4.317   8.158  0.6067  1.4215  1.5840
 3604SOL     OW22270   3.991   4.518   7.728 -0.3951  0.2553  0.3815
 3604SOL    HW122271   3.928   4.577   7.768  1.8115  1.7291  1.7123
 3604SOL    HW222272   3.944   4.466   7.663  0.5451 -0.3190  0.1535
 3605SOL     OW22273   0.320   4.075  17.042  0.3427 -0.7716  0.4138
 3605SOL    HW122274   0.242   4.106  17.088  0.1550  0.1968 -0.5670
 3605SOL    HW222275   0.299   3.982  17.030 -0.7327 -0.0433 -3.1825
 3606SOL     OW22276   2.409   0.325  11.000  0.7076 -0.4353  0.2354
 3606SOL    HW122277   2.328   0.346  10.954  1.0191 -1.3050 -0.7085
 3606SOL    HW222278   2.478   0.365  10.947 -0.9601  0.5999 -1.1433
 3607SOL     OW22279   0.686   0.129  12.394  0.7168 -0.6287  0.5165
 3607SOL    HW122280   0.635   0.202  12.358  1.9168  0.7494  1.6323
 3607SOL    HW222281   0.747   0.168  12.457  0.8666  0.7563 -0.5014
 3608SOL     OW22282   2.077   3.250   5.279  0.1920  0.4750  0.7332
 3608SOL    HW122283   2.023   3.291   5.347  0.6157 -1.0651  2.0081
 3608SOL    HW222284   2.163   3.289   5.289  0.1547  0.4866  1.0122
 3609SOL     OW22285   0.819   2.342   8.564  0.2265 -0.8098  0.2280
 3609SOL    HW122286   0.831   2.432   8.594  0.5600 -1.2156  1.3092
 3609SOL    HW222287   0.733   2.336   8.523  1.5018 -0.0543 -2.5322
 3610SOL     OW22288   4.615   2.920   4.996 -0.1713 -0.2307 -0.1168
 3610SOL    HW122289   4.559   2.860   4.946 -0.0921 -0.2044 -0.2374
 3610SOL    HW222290   4.548   2.981   5.027  0.3166 -1.0099  2.4160
 3611SOL     OW22291   3.814   1.476  14.906 -0.2724 -0.2596 -0.3173
 3611SOL    HW122292   3.720   1.476  14.926 -0.0580 -1.2973  0.7228
 3611SOL    HW222293   3.854   1.525  14.978 -0.0377 -1.2364  0.2271
 3612SOL     OW22294   3.856   4.406   0.583 -0.2335  0.5671  0.3142
 3612SOL    HW122295   3.901   4.409   0.668 -0.4549 -0.3462  0.4638
 3612SOL    HW222296   3.883   4.486   0.539  0.4729 -0.6708 -1.5034
 3613SOL     OW22297   1.005   0.038  12.671 -0.0100 -0.3843  0.3667
 3613SOL    HW122298   1.026   0.017  12.762 -1.9596  0.8343  1.0783
 3613SOL    HW222299   0.948   0.111  12.693 -1.7716 -2.1084  1.5900
 3614SOL     OW22300   1.768   1.993  10.478 -0.3374  0.2740  0.0169
 3614SOL    HW122301   1.787   2.066  10.537  0.0695 -0.0206  0.2460
 3614SOL    HW222302   1.678   1.972  10.504 -0.0620  0.0809  0.8172
 3615SOL     OW22303   1.194   1.378   1.720 -0.0276  0.1527 -0.6743
 3615SOL    HW122304   1.191   1.335   1.635 -2.9979 -1.0214  0.0434
 3615SOL    HW222305   1.183   1.469   1.692  0.9718 -0.0149 -1.6167
 3616SOL     OW22306   2.497   4.161   8.701 -0.3114 -0.7410 -0.2150
 3616SOL    HW122307   2.428   4.221   8.730 -0.4112 -0.9685  0.0106
 3616SOL    HW222308   2.448   4.112   8.635  0.7746 -3.4206  1.0062
 3617SOL     OW22309   3.641   1.869   0.493 -0.0149 -0.4793  0.5594
 3617SOL    HW122310   3.657   1.823   0.411  1.0473 -1.4939  1.3316
 3617SOL    HW222311   3.553   1.837   0.514 -0.1521 -0.5328 -0.0855
 3618SOL     OW22312   1.507   4.047   0.470 -0.3923 -0.2639 -0.4114
 3618SOL    HW122313   1.574   4.026   0.535 -2.9674  1.7829  2.8594
 3618SOL    HW222314   1.449   3.972   0.482 -2.9972  1.1818 -3.8282
 3619SOL     OW22315   2.513   0.476   4.369  0.4716 -0.4646  0.3771
 3619SOL    HW122316   2.508   0.394   4.320  2.2043  1.1265 -2.4366
 3619SOL    HW222317   2.602   0.468   4.402  0.8565 -0.0215 -0.5799
 3620SOL     OW22318   4.651   3.565   6.035  0.2670 -0.4544  0.0484
 3620SOL    HW122319   4.666   3.634   5.970  1.3127 -0.7965 -0.0665
 3620SOL    HW222320   4.696   3.599   6.112  0.7729  1.5253 -1.1242
 3621SOL     OW22321   3.469   2.262   8.858 -0.7683 -0.2433 -0.1913
 3621SOL    HW122322   3.554   2.223   8.837  0.3636  1.8953  0.4203
 3621SOL    HW222323   3.474   2.269   8.954  0.0091 -1.5114 -0.1388
 3622SOL     OW22324   2.755   1.559   2.744 -0.5062 -0.3893 -0.1019
 3622SOL    HW122325   2.739   1.520   2.830 -1.5280  2.2174  0.9077
 3622SOL    HW222326   2.669   1.584   2.711 -0.5695 -0.1566  0.2334
 3623SOL     OW22327   3.926   2.639   8.048 -0.2299  0.2681 -0.1399
 3623SOL    HW122328   3.849   2.642   8.106 -0.5354 -2.0104 -0.4236
 3623SOL    HW222329   3.905   2.693   7.972 -2.7903 -0.9052 -0.2899
 3624SOL     OW22330   0.994   1.314  12.352  0.2251  0.7088  0.3465
 3624SOL    HW122331   1.086   1.298  12.334 -0.1014 -0.9772  0.1531
 3624SOL    HW222332   0.980   1.409  12.345 -0.9653  0.2857 -3.0392
 3625SOL     OW22333   2.501   2.628  15.856 -0.1922 -0.6579 -0.3316
 3625SOL    HW122334   2.485   2.722  15.863 -0.5470 -0.5624 -2.5137
 3625SOL    HW222335   2.436   2.594  15.919 -1.1419 -0.2417 -1.0939
 3626SOL     OW22336   2.616   3.635   6.969  0.3813 -0.0986 -0.0969
 3626SOL    HW122337   2.647   3.623   7.059  0.4060  2.7034  0.2446
 3626SOL    HW222338   2.649   3.565   6.913  2.9438  0.1631  1.0662
 3627SOL     OW22339   2.264   0.449   3.259  0.5041  0.2040 -0.0320
 3627SOL    HW122340   2.230   0.386   3.322  0.6658 -1.8552 -1.9927
 3627SOL    HW222341   2.292   0.389   3.190  0.4082 -0.7937  0.8006
 3628SOL     OW22342   1.650   1.962   4.539  0.2644 -0.0096 -0.0047
 3628SOL    HW122343   1.727   1.954   4.595 -0.4918 -0.6138  0.9428
 3628SOL    HW222344   1.640   1.873   4.506  1.3116 -0.9029  2.1273
 3629SOL     OW22345   3.058   1.979   5.194 -0.1190  0.3719  0.2068
 3629SOL    HW122346   2.973   2.005   5.227 -0.3875 -0.2374 -0.0023
 3629SOL    HW222347   3.055   2.022   5.108  1.1188 -0.2953 -0.1757
 3630SOL     OW22348   4.178   2.539  17.239 -0.6576  0.5615  0.3686
 3630SOL    HW122349   4.152   2.618  17.192 -2.5521 -1.8488 -2.6771
 3630SOL    HW222350   4.128   2.471  17.194  0.2976 -0.7625  1.2914
 3631SOL     OW22351   4.289   2.056  15.872 -0.0799 -0.4600 -0.9822
 3631SOL    HW122352   4.290   1.995  15.799  0.7219  0.6098 -1.8854
 3631SOL    HW222353   4.211   2.098  15.837 -0.9919 -0.8693  0.5844
 3632SOL     OW22354   2.549   2.636   0.740  0.1003  0.8437 -0.1624
 3632SOL    HW122355   2.609   2.697   0.696  0.7381 -0.5518 -1.2573
 3632SOL    HW222356   2.469   2.642   0.688  1.2203  0.3244 -1.9754
 3633SOL     OW22357   0.548   4.369   7.514 -0.2771 -0.1279  0.0121
 3633SOL    HW122358   0.569   4.317   7.437 -1.3707 -3.9786  2.3230
 3633SOL    HW222359   0.529   4.303   7.581 -1.7903 -0.8582 -1.1370
 3634SOL     OW22360   0.131   1.088  14.777 -0.3115 -0.4510 -0.2579
 3634SOL    HW122361   0.152   0.996  14.793 -0.4970 -0.4302  0.0978
 3634SOL    HW222362   0.126   1.078  14.682 -0.3418  0.1858 -0.3199
 3635SOL     OW22363   3.108   3.118  11.863 -0.7511 -0.6119  0.2273
 3635SOL    HW122364   3.100   3.023  11.859 -0.3613 -0.7961  3.8289
 3635SOL    HW222365   3.202   3.133  11.870 -0.8079  0.3259 -0.7902
 3636SOL     OW22366   3.560   2.275   5.165 -0.2727  0.2286 -0.0697
 3636SOL    HW122367   3.544   2.342   5.232 -3.7116  0.7309 -1.4173
 3636SOL    HW222368   3.644   2.310   5.137 -1.9185  3.4333 -1.0107
 3637SOL     OW22369   0.994   1.439   5.681 -0.0849  0.1687  0.1380
 3637SOL    HW122370   1.075   1.484   5.654 -0.7894  0.6342 -1.2073
 3637SOL    HW222371   0.950   1.507   5.732  0.3711  0.1641  0.5339
 3638SOL     OW22372   3.051   3.580   5.192  0.3920  0.0407  0.1518
 3638SOL    HW122373   3.087   3.594   5.280  0.5379 -1.8878  0.3944
 3638SOL    HW222374   2.956   3.589   5.198  0.1546 -2.0078 -0.7911
 3639SOL     OW22375   1.098   2.841   9.104 -0.5711  0.0086 -0.2658
 3639SOL    HW122376   1.137   2.754   9.107 -0.2061  0.1672 -0.3236
 3639SOL    HW222377   1.160   2.892   9.157  1.5613 -0.4196 -2.3412
 3640SOL     OW22378   1.394   0.155   5.721  0.4663  0.2481 -0.2181
 3640SOL    HW122379   1.455   0.130   5.651  0.9644  1.0984 -0.0784
 3640SOL    HW222380   1.458   0.175   5.788  1.8544 -0.2166 -1.4071
 3641SOL     OW22381   3.093   2.681  13.248  0.3840 -0.0583 -0.2796
 3641SOL    HW122382   3.116   2.740  13.320  0.1315  0.8633 -0.9500
 3641SOL    HW222383   3.045   2.612  13.293 -0.2778  3.0958  3.7668
 3642SOL     OW22384   3.990   1.928   5.528 -0.9214  0.4875  0.4238
 3642SOL    HW122385   3.975   2.023   5.520  1.3553  0.8704  0.4968
 3642SOL    HW222386   4.043   1.931   5.608  2.9355 -1.4385 -2.0610
 3643SOL     OW22387   0.186   0.066  10.913 -0.2356  0.5316  0.5074
 3643SOL    HW122388   0.253   0.079  10.981 -0.7490 -0.7038  1.2524
 3643SOL    HW222389   0.185   4.694  10.905  0.9014  0.4732  0.9900
 3644SOL     OW22390   0.075   1.266  14.218 -0.3273 -0.2609 -0.0241
 3644SOL    HW122391   4.724   1.278  14.160  0.5883 -1.7325 -1.5346
 3644SOL    HW222392   0.139   1.335  14.198 -0.5309  0.4034  1.6273
 3645SOL     OW22393   3.944   3.852   1.661 -0.3113  0.1724 -0.5659
 3645SOL    HW122394   3.944   3.872   1.755 -0.7787 -2.0688 -0.0862
 3645SOL    HW222395   4.034   3.864   1.633  0.8184 -1.0030  2.5031
 3646SOL     OW22396   0.148   0.549  12.093  0.7150 -0.2267  0.4785
 3646SOL    HW122397   0.074   0.594  12.133  1.4429 -1.6309  3.4463
 3646SOL    HW222398   0.110   0.461  12.100  0.2197 -0.0772 -0.3590
 3647SOL     OW22399   2.757   3.157   5.033 -0.1621 -0.2181  0.2517
 3647SOL    HW122400   2.732   3.065   5.036  0.2084 -0.3694 -1.1854
 3647SOL    HW222401   2.844   3.150   5.074  0.0733 -0.6372 -0.3142
 3648SOL     OW22402   2.780   3.781  17.332  0.4757  0.8725 -0.3355
 3648SOL    HW122403   2.747   3.862  17.371 -0.2322  1.2603 -1.7470
 3648SOL    HW222404   2.810   3.819  17.249 -1.7651  1.0664 -1.0397
 3649SOL     OW22405   1.584   0.273   5.873 -0.8432  0.0482 -0.0479
 3649SOL    HW122406   1.562   0.362   5.844  0.6835  0.0544 -1.1703
 3649SOL    HW222407   1.675   0.275   5.844 -0.8416 -1.3966 -0.1479
 3650SOL     OW22408   1.673   4.008   8.361 -0.2970  0.7706  0.0309
 3650SOL    HW122409   1.744   3.977   8.418 -0.7579  0.5323  0.4774
 3650SOL    HW222410   1.641   4.080   8.415 -0.0328  2.0212 -1.4908
 3651SOL     OW22411   4.382   1.663  11.245 -0.0907 -0.2467  0.2513
 3651SOL    HW122412   4.388   1.595  11.313 -0.6974 -0.6925 -0.1487
 3651SOL    HW222413   4.385   1.744  11.296 -2.2217 -0.4250  0.6467
 3652SOL     OW22414   0.707   4.432  16.584  0.3119 -0.2303 -0.2487
 3652SOL    HW122415   0.643   4.372  16.547 -0.3869 -0.5420  1.4967
 3652SOL    HW222416   0.794   4.418  16.545  0.1394 -2.3468  0.1443
 3653SOL     OW22417   0.254   0.494   4.468  0.0935 -0.4189 -0.0715
 3653SOL    HW122418   0.306   0.418   4.496 -1.0282 -1.4202 -0.7092
 3653SOL    HW222419   0.290   0.558   4.528  0.7825 -0.0720 -0.8539
 3654SOL     OW22420   2.580   3.569   4.352  0.3794  0.1733  0.4224
 3654SOL    HW122421   2.505   3.530   4.307  1.2074 -0.6078 -0.2618
 3654SOL    HW222422   2.606   3.491   4.402  0.8197  1.0609  1.5722
 3655SOL     OW22423   4.050   4.069   3.944 -0.1991  0.1956 -0.8593
 3655SOL    HW122424   4.053   4.090   4.037  1.5700  0.5928 -1.0107
 3655SOL    HW222425   4.135   4.027   3.931 -0.4970 -0.5367 -0.4599
 3656SOL     OW22426   1.031   2.149   1.601  0.1060  0.1988 -0.4068
 3656SOL    HW122427   1.124   2.128   1.594 -0.0253 -0.9542  1.2052
 3656SOL    HW222428   1.016   2.132   1.694 -2.3375  0.7413 -0.7103
 3657SOL     OW22429   1.128   0.933  15.494  0.2173 -0.4768  0.0434
 3657SOL    HW122430   1.104   0.891  15.577 -1.5802 -0.7627 -0.6167
 3657SOL    HW222431   1.095   1.023  15.502 -0.1250 -0.6536  0.6511
 3658SOL     OW22432   1.576   0.179  11.042 -0.3808  0.5626  0.2237
 3658SOL    HW122433   1.541   0.090  11.039  1.4474 -0.2772  2.8217
 3658SOL    HW222434   1.502   0.214  11.091 -0.8277  0.4246 -0.3519
 3659SOL     OW22435   0.973   3.710  11.065  0.2210 -0.0490  0.3812
 3659SOL    HW122436   0.993   3.803  11.058 -2.0310  0.2220 -2.6577
 3659SOL    HW222437   1.013   3.684  11.148  2.5986  1.7815 -0.1964
 3660SOL     OW22438   2.089   1.138   7.247 -0.4290 -0.1254  0.3015
 3660SOL    HW122439   2.039   1.057   7.233  0.7924 -0.6649 -0.9495
 3660SOL    HW222440   2.138   1.142   7.165  0.3999 -2.7234  0.6716
 3661SOL     OW22441   4.181   4.205   6.109 -0.1544  0.3356  0.5419
 3661SOL    HW122442   4.179   4.115   6.078  0.4761  0.4204  0.2558
 3661SOL    HW222443   4.164   4.237   6.020 -0.5726  1.2782  0.9567
 3662SOL     OW22444   2.336   3.889  14.374  0.1554  0.1213 -0.5037
 3662SOL    HW122445   2.249   3.922  14.349 -0.6755 -1.8709 -0.2932
 3662SOL    HW222446   2.393   3.938  14.315  0.1203  0.0873 -0.5667
 3663SOL     OW22447   3.613   0.722   3.330  0.2286 -0.1073 -0.2938
 3663SOL    HW122448   3.630   0.674   3.249  0.9966  1.7001 -1.2037
 3663SOL    HW222449   3.685   0.686   3.380  0.1254 -0.8638 -0.6863
 3664SOL     OW22450   1.239   2.369  12.425 -0.0353 -0.6211 -0.1593
 3664SOL    HW122451   1.187   2.305  12.473  1.7874 -1.4778  0.6872
 3664SOL    HW222452   1.190   2.369  12.343 -2.7903  1.8551  1.5241
 3665SOL     OW22453   3.026   3.206   5.194  0.3571  0.3043 -0.0212
 3665SOL    HW122454   3.105   3.191   5.140 -0.3806 -0.4170 -0.9042
 3665SOL    HW222455   3.054   3.272   5.257 -0.6792 -0.1614  0.9032
 3666SOL     OW22456   0.589   1.047   4.921 -0.2491 -0.0770  0.9042
 3666SOL    HW122457   0.536   0.972   4.951 -0.0917 -1.8481 -3.2931
 3666SOL    HW222458   0.656   1.043   4.989  1.6420  1.9450 -0.8584
 3667SOL     OW22459   3.447   1.490   1.097  0.4498  0.4457 -0.6324
 3667SOL    HW122460   3.367   1.531   1.130  1.0084  1.7503 -0.9125
 3667SOL    HW222461   3.511   1.527   1.157  0.8805  0.6439 -1.2253
 3668SOL     OW22462   2.618   2.006  17.362 -0.3438  0.3326 -0.1399
 3668SOL    HW122463   2.575   2.092  17.358 -0.5017  0.3207  1.3097
 3668SOL    HW222464   2.565   1.976  17.436 -0.6941  0.0597 -0.5048
 3669SOL     OW22465   4.430   0.955   2.930  0.0234 -0.2050  0.3187
 3669SOL    HW122466   4.477   0.894   2.987  1.1860 -0.3725 -0.8235
 3669SOL    HW222467   4.474   0.960   2.845 -1.3741 -1.0406 -0.4513
 3670SOL     OW22468   1.974   0.292   7.349  0.2969  0.5296  0.0451
 3670SOL    HW122469   1.942   0.382   7.357  0.2991  0.4443  0.9765
 3670SOL    HW222470   1.946   0.264   7.436  0.3462  0.9105  0.1819
 3671SOL     OW22471   2.852   1.925   3.702 -0.2640  0.6068  0.1456
 3671SOL    HW122472   2.837   2.007   3.654  0.9488  1.4103  1.1374
 3671SOL    HW222473   2.806   1.874   3.635 -1.3417 -2.1313  2.9854
 3672SOL     OW22474   1.797   2.132   1.380  0.9903  0.1509 -0.0815
 3672SOL    HW122475   1.720   2.077   1.368 -0.5512  1.8294  2.0346
 3672SOL    HW222476   1.851   2.111   1.304 -1.1434  0.5374 -1.6911
 3673SOL     OW22477   4.345   0.771   5.490 -0.4632  0.3662  0.2187
 3673SOL    HW122478   4.351   0.680   5.518  1.4088 -0.0770 -1.5972
 3673SOL    HW222479   4.435   0.804   5.497 -0.2294 -0.3781  0.7692
 3674SOL     OW22480   2.829   1.123   2.342  0.6744 -0.1912 -0.5327
 3674SOL    HW122481   2.821   1.217   2.327 -0.7066 -0.2997 -0.5512
 3674SOL    HW222482   2.919   1.127   2.373  0.0765  0.4088  1.0868
 3675SOL     OW22483   3.100   2.465   5.583 -0.2492  0.0710 -0.0578
 3675SOL    HW122484   3.134   2.387   5.627 -0.3223  0.1963  0.2214
 3675SOL    HW222485   3.041   2.418   5.523 -0.7923 -0.7668  1.1150
 3676SOL     OW22486   2.965   0.428   7.753  0.2648 -0.0253 -0.0771
 3676SOL    HW122487   3.047   0.471   7.779  1.5885 -1.9161 -1.0433
 3676SOL    HW222488   2.969   0.354   7.814  0.8196  1.3762  1.5666
 3677SOL     OW22489   1.921   2.018   7.963  0.8179 -0.2286  0.0049
 3677SOL    HW122490   1.926   1.933   7.919 -0.6674  0.0687 -0.7318
 3677SOL    HW222491   1.984   2.068   7.911 -0.9270  2.9381  0.9893
 3678SOL     OW22492   0.406   2.390  16.921 -0.4996 -0.0139  0.1497
 3678SOL    HW122493   0.471   2.333  16.879 -1.3808  0.1499 -1.4275
 3678SOL    HW222494   0.454   2.399  17.003  0.9013 -3.6635 -0.2629
 3679SOL     OW22495   3.712   2.537   0.526 -0.6921  0.0841  0.2892
 3679SOL    HW122496   3.748   2.452   0.553  1.6678  1.2552  0.7900
 3679SOL    HW222497   3.671   2.516   0.442 -0.4168 -0.8814  0.3973
 3680SOL     OW22498   3.730   1.118   4.242 -0.1106  0.3438  0.1921
 3680SOL    HW122499   3.702   1.205   4.215  0.7406  0.9708  1.2951
 3680SOL    HW222500   3.696   1.060   4.175 -0.9795  0.1766  0.7770
 3681SOL     OW22501   2.505   4.613   7.000  0.2945 -0.2335  0.1066
 3681SOL    HW122502   2.468   4.699   7.023 -1.1019 -0.7307 -0.3152
 3681SOL    HW222503   2.430   4.556   6.988  0.6743 -0.5270 -0.8940
 3682SOL     OW22504   0.050   2.849   5.362 -0.5084 -0.1501 -0.4532
 3682SOL    HW122505   4.680   2.864   5.354 -0.5885 -0.5700 -0.3180
 3682SOL    HW222506   0.088   2.898   5.289 -0.9431  0.3436 -0.3440
 3683SOL     OW22507   0.557   4.480   2.591 -0.4981  0.2247 -0.0558
 3683SOL    HW122508   0.530   4.534   2.517  2.5298 -0.4190 -1.6104
 3683SOL    HW222509   0.612   4.412   2.554 -0.4384  0.8122 -1.0539
 3684SOL     OW22510   2.993   4.546   7.161  0.0224 -0.3652 -0.8684
 3684SOL    HW122511   3.030   4.582   7.080 -1.2288  2.0654 -0.3512
 3684SOL    HW222512   2.926   4.611   7.183  0.0591 -0.4289 -0.5645
 3685SOL     OW22513   0.072   2.753   8.314 -0.2869 -0.0094  1.5661
 3685SOL    HW122514   0.130   2.722   8.384 -0.7366  2.3935  2.9920
 3685SOL    HW222515   4.718   2.771   8.366 -1.1622  0.4445  0.0888
 3686SOL     OW22516   0.066   0.497   7.437 -0.5850  0.2024  0.6565
 3686SOL    HW122517   0.040   0.584   7.408  0.1090  0.1186 -0.1987
 3686SOL    HW222518   0.097   0.520   7.524 -0.5926  2.0291  0.1792
 3687SOL     OW22519   2.551   1.866   8.395 -0.3991 -0.1323  0.3157
 3687SOL    HW122520   2.587   1.791   8.349  2.8334  0.6639  1.5169
 3687SOL    HW222521   2.612   1.878   8.469 -0.7988  0.8676  0.4845
 3688SOL     OW22522   1.523   0.819   3.759  0.4388  0.1770  0.5496
 3688SOL    HW122523   1.577   0.824   3.680  0.2897 -0.9803  0.3670
 3688SOL    HW222524   1.475   0.738   3.740  2.1211 -1.2929  2.6414
 3689SOL     OW22525   0.796   1.248   1.072  0.2663 -0.0306  0.2522
 3689SOL    HW122526   0.800   1.203   0.987 -2.6248 -0.1979  0.2049
 3689SOL    HW222527   0.748   1.181   1.120  1.7720 -0.4190  1.2102
 3690SOL     OW22528   4.053   0.280   8.955 -0.2777 -0.0270 -0.0982
 3690SOL    HW122529   4.108   0.232   9.017 -0.7726 -1.8690 -1.0864
 3690SOL    HW222530   4.083   0.371   8.959  1.4275 -0.5267 -1.6935
 3691SOL     OW22531   2.698   1.960   6.647  0.1511  0.6762 -0.1716
 3691SOL    HW122532   2.705   2.045   6.603  4.1212  0.1746 -0.5163
 3691SOL    HW222533   2.748   1.972   6.728 -1.9652 -0.1975  1.2990
 3692SOL     OW22534   4.399   0.457   7.069 -0.4251 -0.0514 -0.9828
 3692SOL    HW122535   4.388   0.419   6.981 -0.3601 -2.5776  0.1107
 3692SOL    HW222536   4.494   0.459   7.073 -0.4761  0.7593 -0.2785
 3693SOL     OW22537   2.776   0.388   8.495 -0.3893 -0.6582 -0.0371
 3693SOL    HW122538   2.818   0.364   8.412  0.3823  0.6935 -0.0414
 3693SOL    HW222539   2.793   0.306   8.542 -0.1880 -1.5860 -1.7161
 3694SOL     OW22540   3.216   3.522  10.499  0.1960  0.3106 -0.1274
 3694SOL    HW122541   3.207   3.614  10.526  2.7844  0.0030  1.8200
 3694SOL    HW222542   3.280   3.480  10.557  0.3972 -1.7304 -1.8373
 3695SOL     OW22543   4.276   3.143  12.593 -0.0622 -0.0939  0.2766
 3695SOL    HW122544   4.185   3.164  12.610 -0.6255 -1.1208 -1.5199
 3695SOL    HW222545   4.272   3.110  12.503 -1.2356  1.8222 -0.3578
 3696SOL     OW22546   3.424   3.717   4.446  0.2165 -0.1256  0.1221
 3696SOL    HW122547   3.379   3.665   4.380 -0.0137 -0.8194  0.8261
 3696SOL    HW222548   3.515   3.699   4.423 -0.4958 -1.4245 -1.6401
 3697SOL     OW22549   1.887   3.584   0.560  0.4371 -0.1106  0.4067
 3697SOL    HW122550   1.815   3.625   0.512  1.9507  1.9405 -0.0728
 3697SOL    HW222551   1.827   3.529   0.610  1.3976 -1.5110  0.0376
 3698SOL     OW22552   3.194   0.874   9.303  0.3487  0.3370  0.6531
 3698SOL    HW122553   3.226   0.943   9.361 -0.4141  2.2299 -1.1877
 3698SOL    HW222554   3.161   0.925   9.229 -0.0624 -0.9965 -0.0660
 3699SOL     OW22555   1.845   3.978   2.890 -0.0666 -0.2170  0.6600
 3699SOL    HW122556   1.937   3.988   2.867 -0.3781 -1.6555 -1.2552
 3699SOL    HW222557   1.845   3.886   2.864 -0.6421  1.0830 -3.9837
 3700SOL     OW22558   4.358   4.354   7.465 -0.2289 -0.3849 -0.6661
 3700SOL    HW122559   4.422   4.417   7.498 -0.3227  0.3056 -1.7790
 3700SOL    HW222560   4.409   4.272   7.465 -0.5711 -0.5911  0.1406
 3701SOL     OW22561   4.646   0.514   7.039  0.2538 -0.1056 -0.5717
 3701SOL    HW122562   4.669   0.588   7.096 -0.4674 -0.5565  0.2995
 3701SOL    HW222563   4.674   0.547   6.954 -0.9888  1.5959 -0.3203
 3702SOL     OW22564   3.739   2.101   5.630  0.3671  0.1490 -0.0429
 3702SOL    HW122565   3.686   2.025   5.604 -0.7483  1.3223 -1.1759
 3702SOL    HW222566   3.802   2.109   5.558  0.3071 -0.8888 -0.2088
 3703SOL     OW22567   1.546   0.039   7.568 -0.0172 -0.3061  0.3008
 3703SOL    HW122568   1.510   4.688   7.520  0.5269  0.9301 -2.0369
 3703SOL    HW222569   1.457   0.061   7.595 -0.4808 -0.8542 -0.7693
 3704SOL     OW22570   1.458   3.366   8.131  0.3090  0.0872  0.0210
 3704SOL    HW122571   1.365   3.346   8.123  0.2545  0.6705 -0.7230
 3704SOL    HW222572   1.450   3.426   8.205  0.3212 -0.2969  0.3330
 3705SOL     OW22573   4.180   1.949   8.753  0.2255 -0.5004  0.1751
 3705SOL    HW122574   4.197   1.907   8.837  1.6228  1.7650  1.0375
 3705SOL    HW222575   4.268   1.957   8.716  0.2331 -0.0227  0.2957
 3706SOL     OW22576   1.371   3.390   7.661  0.1976  0.3092 -0.0247
 3706SOL    HW122577   1.429   3.429   7.726  1.1152  0.9063 -1.2104
 3706SOL    HW222578   1.289   3.403   7.709 -0.3646  2.8331 -1.6651
 3707SOL     OW22579   3.466   1.438  16.454  0.2193  0.4107  0.6510
 3707SOL    HW122580   3.443   1.519  16.409  1.8953 -0.5878 -1.9842
 3707SOL    HW222581   3.378   1.410  16.481  1.4395 -3.9414  0.1176
 3708SOL     OW22582   4.391   3.728  15.863  0.2787 -0.7263  0.7826
 3708SOL    HW122583   4.481   3.736  15.834 -0.0130  0.5138  0.2246
 3708SOL    HW222584   4.369   3.820  15.880  0.3698 -0.6923  0.7158
 3709SOL     OW22585   1.902   0.467   5.453  0.3515  0.3480  0.1574
 3709SOL    HW122586   1.944   0.509   5.378  0.7543 -0.3526 -0.0216
 3709SOL    HW222587   1.962   0.401   5.489  0.9235  0.6441 -0.2507
 3710SOL     OW22588   2.039   2.988   5.222  0.1237  0.2357 -0.4984
 3710SOL    HW122589   2.042   3.081   5.247 -1.0142  0.0082  0.4744
 3710SOL    HW222590   2.132   2.965   5.227 -0.9342 -3.5210  1.7749
 3711SOL     OW22591   0.166   2.642   3.606  0.2595 -0.2202  0.0778
 3711SOL    HW122592   0.098   2.707   3.592 -1.0888 -1.5971  0.1604
 3711SOL    HW222593   0.135   2.614   3.692  2.1734 -1.5989  0.3190
 3712SOL     OW22594   0.081   2.558   5.458  0.4300  0.0050 -0.1497
 3712SOL    HW122595   0.051   2.497   5.390 -0.3543 -1.1794  1.2663
 3712SOL    HW222596   0.035   2.634   5.421 -1.3527 -1.7078 -1.4716
 3713SOL     OW22597   2.461   1.759  15.766  0.3594 -0.6101  0.1668
 3713SOL    HW122598   2.553   1.734  15.751  0.0035 -0.7925 -1.6560
 3713SOL    HW222599   2.423   1.672  15.773  0.4925 -0.7964 -1.4623
 3714SOL     OW22600   1.285   0.552  11.785 -0.2014  0.2946  0.3836
 3714SOL    HW122601   1.243   0.497  11.720 -0.2138  0.3669  0.3299
 3714SOL    HW222602   1.316   0.483  11.843 -0.9624  0.1435  0.6097
 3715SOL     OW22603   2.916   4.514   5.260  0.2382 -0.4044 -0.1827
 3715SOL    HW122604   2.889   4.449   5.325 -0.2258  0.7899  0.8141
 3715SOL    HW222605   2.868   4.472   5.188  2.8847  0.1189 -2.2402
 3716SOL     OW22606   2.391   2.861   9.376 -0.8171 -0.5377  0.0587
 3716SOL    HW122607   2.353   2.939   9.335  1.2367  1.9011  2.8384
 3716SOL    HW222608   2.483   2.887   9.372 -0.9854  0.0802  0.1489
 3717SOL     OW22609   3.554   0.218   5.893 -0.4889  0.0025 -0.2720
 3717SOL    HW122610   3.574   0.276   5.819 -0.3517  1.7694  1.1446
 3717SOL    HW222611   3.604   0.251   5.968  1.3764 -1.8405 -0.6970
 3718SOL     OW22612   1.480   4.135   4.368  0.0194 -0.2140 -0.1101
 3718SOL    HW122613   1.550   4.161   4.428  1.2671 -1.3178 -1.0953
 3718SOL    HW222614   1.403   4.125   4.425 -0.6281 -0.3848 -1.0007
 3719SOL     OW22615   3.067   0.205   3.816 -0.0520  0.8109 -0.1617
 3719SOL    HW122616   3.073   0.198   3.911  1.1759  2.0811 -0.1609
 3719SOL    HW222617   2.971   0.203   3.809 -0.2252  1.3253  2.1087
 3720SOL     OW22618   0.992   1.241   6.479 -0.5106  0.1252  0.3552
 3720SOL    HW122619   1.012   1.149   6.496 -0.6526 -0.1259 -0.7921
 3720SOL    HW222620   0.901   1.237   6.450 -0.6436  3.2264  0.2941
 3721SOL     OW22621   3.871   2.522   0.808  0.3398  0.1247  0.3243
 3721SOL    HW122622   3.946   2.575   0.782  0.8540 -1.0058 -0.5515
 3721SOL    HW222623   3.847   2.559   0.892  0.9955 -0.3505  0.7165
 3722SOL     OW22624   3.745   2.225  11.027  0.2893  0.2178 -0.1039
 3722SOL    HW122625   3.680   2.167  10.987  0.1477  0.7097 -0.5882
 3722SOL    HW222626   3.814   2.220  10.961 -0.1803 -0.0424 -0.5693
 3723SOL     OW22627   2.622   2.880  15.622 -0.4542 -0.1300  0.3136
 3723SOL    HW122628   2.569   2.865  15.544  0.1988  0.2637 -0.2111
 3723SOL    HW222629   2.555   2.876  15.690 -0.6190 -2.3278  0.0097
 3724SOL     OW22630   3.831   4.153  13.246  0.0279  0.1684  0.3192
 3724SOL    HW122631   3.907   4.160  13.188 -0.2376  0.6417  0.0310
 3724SOL    HW222632   3.827   4.245  13.272  2.2357  0.9390 -2.0349
 3725SOL     OW22633   3.043   4.620   3.035  0.0408 -0.3224 -0.2597
 3725SOL    HW122634   2.963   4.576   3.062  0.1049 -1.2092 -1.5138
 3725SOL    HW222635   3.030   4.641   2.942 -1.0427 -1.0049 -0.2645
 3726SOL     OW22636   0.806   1.350   1.994  0.2811 -0.7232  0.2072
 3726SOL    HW122637   0.873   1.382   2.055 -0.9802  1.5900  0.3589
 3726SOL    HW222638   0.725   1.335   2.042 -0.1146  0.5879 -0.0686
 3727SOL     OW22639   4.207   0.423   0.088 -0.4442 -0.5438  0.3115
 3727SOL    HW122640   4.244   0.471   0.162  0.7332 -0.4999 -0.2990
 3727SOL    HW222641   4.288   0.418   0.037 -1.8572  0.7357 -2.0361
 3728SOL     OW22642   2.063   1.782   7.856  0.2946  0.5564  0.0490
 3728SOL    HW122643   2.116   1.786   7.936  0.1597 -0.7144  0.2014
 3728SOL    HW222644   2.135   1.806   7.798 -0.7608  3.1272 -0.1802
 3729SOL     OW22645   1.979   1.981   1.234 -0.6682  0.0700  0.4279
 3729SOL    HW122646   2.048   2.041   1.207 -1.4690  0.5283 -0.5933
 3729SOL    HW222647   2.035   1.922   1.284  0.2927 -0.3275 -1.1171
 3730SOL     OW22648   1.193   0.634   5.620 -0.0913  0.4951  0.1410
 3730SOL    HW122649   1.241   0.557   5.649  0.5530  0.6042 -0.6571
 3730SOL    HW222650   1.101   0.608   5.623 -0.2004  0.6032 -2.8596
 3731SOL     OW22651   2.380   1.006  13.314  0.7673  0.7159  0.0482
 3731SOL    HW122652   2.446   0.943  13.283  0.3935  0.0369  0.6379
 3731SOL    HW222653   2.383   0.996  13.409  2.7516  2.2637  0.1467
 3732SOL     OW22654   3.901   1.145   6.145  0.9937 -0.5481  0.4606
 3732SOL    HW122655   3.973   1.207   6.159  1.4413 -1.2161  1.1469
 3732SOL    HW222656   3.841   1.187   6.085 -0.0404 -1.5422  0.8098
 3733SOL     OW22657   1.724   0.215  17.084  0.4007 -0.3614 -0.6966
 3733SOL    HW122658   1.693   0.246  17.169  0.7084 -1.8714 -0.0236
 3733SOL    HW222659   1.640   0.213  17.038  0.8334 -3.3220 -1.3633
 3734SOL     OW22660   2.110   3.001   4.402  0.1390 -0.0931 -0.2313
 3734SOL    HW122661   2.110   2.983   4.496 -0.1055 -4.8296 -1.1277
 3734SOL    HW222662   2.017   3.001   4.376  0.1781  2.1264 -0.3235
 3735SOL     OW22663   2.663   0.405   2.659  0.3998 -0.0830 -0.3950
 3735SOL    HW122664   2.660   0.344   2.733  1.7144 -0.0042 -0.2728
 3735SOL    HW222665   2.637   0.487   2.701  2.3817 -0.3700  1.4006
 3736SOL     OW22666   1.613   4.265   2.343 -0.1711 -0.2045  0.0452
 3736SOL    HW122667   1.563   4.191   2.307 -0.5902  0.0926  0.0268
 3736SOL    HW222668   1.558   4.343   2.343  0.5396  0.2904  2.6856
 3737SOL     OW22669   1.463   0.450   0.720  0.3976 -0.0591 -0.0250
 3737SOL    HW122670   1.429   0.411   0.801 -1.4743  2.2643  0.2955
 3737SOL    HW222671   1.551   0.473   0.749  0.9540 -3.0730  0.7836
 3738SOL     OW22672   2.309   2.744   8.143  0.0124  0.6382 -0.3334
 3738SOL    HW122673   2.376   2.688   8.182 -2.2409 -0.4392  1.9804
 3738SOL    HW222674   2.313   2.726   8.049 -0.7244  0.0893 -0.2637
 3739SOL     OW22675   1.968   0.147   5.599  0.3153  0.3695  0.0442
 3739SOL    HW122676   1.937   0.136   5.510 -0.8858 -1.7885  0.7247
 3739SOL    HW222677   2.008   0.234   5.606 -1.8157  1.4137 -0.5795
 3740SOL     OW22678   1.470   3.743   7.827  0.0887 -0.0559  0.6207
 3740SOL    HW122679   1.473   3.650   7.807  0.0925  0.3564 -1.2630
 3740SOL    HW222680   1.377   3.765   7.834 -0.2424 -0.8920 -1.4841
 3741SOL     OW22681   3.802   1.287  13.385  0.3035  0.6162  0.0296
 3741SOL    HW122682   3.852   1.205  13.389 -0.4830  0.2349  1.8019
 3741SOL    HW222683   3.781   1.290  13.478 -1.0177  0.4014 -0.2528
 3742SOL     OW22684   4.167   4.356   8.711 -0.9395 -0.2319 -0.0125
 3742SOL    HW122685   4.205   4.276   8.674 -0.3016  0.1906 -0.2819
 3742SOL    HW222686   4.245   4.404   8.740 -1.6408  1.8518 -1.6256
 3743SOL     OW22687   3.766   4.169   6.417  0.1998  0.2628  0.1858
 3743SOL    HW122688   3.850   4.178   6.371  1.7074  0.0205  2.8802
 3743SOL    HW222689   3.725   4.253   6.396  0.2845  0.8140  2.2908
 3744SOL     OW22690   3.922   0.172   0.197 -0.2918  0.1497  0.4076
 3744SOL    HW122691   3.849   0.129   0.241 -0.2110  0.0958  0.4887
 3744SOL    HW222692   4.002   0.130   0.228 -1.2064 -3.3607 -2.0009
 3745SOL     OW22693   3.013   4.560  10.129  0.0076  0.2849  0.2769
 3745SOL    HW122694   2.997   4.648  10.163 -1.3214 -0.5775  1.8584
 3745SOL    HW222695   3.077   4.572  10.058 -0.1589  0.7309  0.2002
 3746SOL     OW22696   3.187   4.237   1.310  0.4932  0.6067  0.0939
 3746SOL    HW122697   3.130   4.161   1.324  1.0932 -0.6472 -4.1314
 3746SOL    HW222698   3.140   4.287   1.243 -1.9529 -4.0011 -1.6319
 3747SOL     OW22699   4.514   1.705   7.934  0.3757  0.3863 -0.6878
 3747SOL    HW122700   4.601   1.728   7.903  1.0800  1.6368  2.2680
 3747SOL    HW222701   4.512   1.610   7.934  0.9252  0.3800  1.3650
 3748SOL     OW22702   0.998   2.876  11.832 -0.3386 -0.2369  0.1618
 3748SOL    HW122703   0.916   2.831  11.852 -0.6927  0.8951  1.2789
 3748SOL    HW222704   0.972   2.968  11.829  0.0093 -0.1247  0.4330
 3749SOL     OW22705   4.055   1.709  16.865 -0.1598 -0.7215  0.0658
 3749SOL    HW122706   3.998   1.686  16.939 -0.0523 -1.2677 -0.0197
 3749SOL    HW222707   4.086   1.621  16.843  1.6010 -0.1721  0.4011
 3750SOL     OW22708   0.717   3.268  14.176 -0.0029 -0.2141  0.3145
 3750SOL    HW122709   0.722   3.179  14.140 -0.5927 -0.0318 -0.2151
 3750SOL    HW222710   0.744   3.311  14.095  1.1808 -0.4617  0.5845
 3751SOL     OW22711   2.109   3.841   4.012  0.9713 -0.4345 -0.0557
 3751SOL    HW122712   2.015   3.842   4.029  0.2835  0.3527 -3.8094
 3751SOL    HW222713   2.111   3.751   3.980 -1.2147 -0.2936 -0.5585
 3752SOL     OW22714   2.990   0.066   5.147 -0.8626 -0.5764 -0.9219
 3752SOL    HW122715   3.049   0.086   5.219 -0.4679 -0.7713 -1.1898
 3752SOL    HW222716   2.945   4.720   5.192 -2.1748  1.0957  0.3984
 3753SOL     OW22717   2.083   0.876   0.002  0.3314 -0.2562  0.0477
 3753SOL    HW122718   2.015   0.855  17.636  0.0904  0.2821  0.1262
 3753SOL    HW222719   2.108   0.961  17.664  0.5336 -1.5385 -2.7898
 3754SOL     OW22720   0.908   3.729   1.669 -0.2907  0.1117 -0.6735
 3754SOL    HW122721   0.926   3.635   1.655  0.1738 -0.2517  2.3651
 3754SOL    HW222722   0.850   3.720   1.744 -0.3823  3.0393 -0.4293
 3755SOL     OW22723   4.367   2.537  12.706  0.6745  0.3266 -0.3249
 3755SOL    HW122724   4.363   2.525  12.801 -1.5982  3.1738 -0.0506
 3755SOL    HW222725   4.279   2.509  12.680 -0.1732  1.7206  1.0214
 3756SOL     OW22726   3.861   1.968   9.196 -0.5226  0.1655  0.0055
 3756SOL    HW122727   3.939   1.976   9.141 -1.4951  2.6196 -1.0279
 3756SOL    HW222728   3.902   1.925   9.270  1.3112  0.7231 -0.6985
 3757SOL     OW22729   2.884   1.414   6.740 -0.8079 -0.0345  0.7937
 3757SOL    HW122730   2.886   1.318   6.734  0.4342 -0.0479  1.3486
 3757SOL    HW222731   2.808   1.430   6.684 -0.0876  1.3061  0.2016
 3758SOL     OW22732   3.930   0.203   5.126  0.1462  0.7560 -0.1733
 3758SOL    HW122733   3.948   0.199   5.220 -1.4185  0.7301  0.1092
 3758SOL    HW222734   3.836   0.189   5.137  0.6175 -1.0978  1.4178
 3759SOL     OW22735   4.326   1.032   6.044 -0.0448  0.5832 -0.3639
 3759SOL    HW122736   4.275   0.979   6.105 -0.3207 -0.3283 -1.3858
 3759SOL    HW222737   4.273   1.008   5.967 -1.0832 -0.7089  0.7439
 3760SOL     OW22738   2.172   4.373   0.094 -0.3865  0.2628  0.3271
 3760SOL    HW122739   2.107   4.443   0.087  2.5485  3.1323  1.6630
 3760SOL    HW222740   2.253   4.423   0.086 -0.7361  1.1657  2.3917
 3761SOL     OW22741   4.070   1.036  17.684  0.3071  0.8007 -0.0454
 3761SOL    HW122742   4.145   0.985  17.654 -0.0016 -0.2477  0.9595
 3761SOL    HW222743   4.084   1.004   0.075 -2.3681 -2.4801 -0.7884
 3762SOL     OW22744   2.913   4.524  13.432 -0.2808 -0.1021  0.2275
 3762SOL    HW122745   2.884   4.468  13.504  1.3011 -1.2159 -0.0003
 3762SOL    HW222746   2.997   4.563  13.455  0.2184  1.2096 -3.8835
 3763SOL     OW22747   2.102   3.292  16.450 -0.4569 -0.2511  0.4388
 3763SOL    HW122748   2.095   3.206  16.410  0.4651 -0.3169  0.4133
 3763SOL    HW222749   2.062   3.285  16.536 -2.6678  0.5685 -0.5377
 3764SOL     OW22750   4.188   2.519  12.940  0.9909 -0.0994  0.4591
 3764SOL    HW122751   4.171   2.591  12.879  0.8541  0.2302  0.8917
 3764SOL    HW222752   4.126   2.532  13.011 -1.0197  0.5463 -1.3878
 3765SOL     OW22753   3.109   3.289   8.732  0.0571  0.0976 -0.3349
 3765SOL    HW122754   3.165   3.326   8.800  1.2920 -0.7010 -0.9170
 3765SOL    HW222755   3.052   3.363   8.713  1.1035  0.6574 -1.3039
 3766SOL     OW22756   3.108   0.387  11.563 -0.3905 -0.4849 -0.2537
 3766SOL    HW122757   3.094   0.294  11.583 -3.0805 -0.0170 -0.0063
 3766SOL    HW222758   3.101   0.410  11.656  0.5926  0.1653 -0.3379
 3767SOL     OW22759   3.704   4.270   8.116  0.4616  0.5228  0.0018
 3767SOL    HW122760   3.653   4.241   8.192 -0.4921  2.1824 -0.0029
 3767SOL    HW222761   3.791   4.273   8.156 -0.5875 -1.1983  2.3924
 3768SOL     OW22762   4.569   2.575   3.575 -0.3550  0.0663 -0.5563
 3768SOL    HW122763   4.540   2.645   3.633  0.9322 -1.4355  1.8970
 3768SOL    HW222764   4.572   2.614   3.487  1.4305 -1.6444 -1.2841
 3769SOL     OW22765   1.405   4.169   8.787  0.0885  0.0029 -0.3685
 3769SOL    HW122766   1.354   4.091   8.812  1.1685  0.0755  2.0365
 3769SOL    HW222767   1.331   4.230   8.784 -0.2818 -0.3791  1.1291
 3770SOL     OW22768   3.122   4.025   5.615 -0.1483  0.3486  0.3447
 3770SOL    HW122769   3.111   4.120   5.614  0.6051  0.4307  0.5817
 3770SOL    HW222770   3.194   4.025   5.552  1.6549  0.2613  2.4089
 3771SOL     OW22771   1.901   1.056   6.984 -0.0265 -0.0575  0.4545
 3771SOL    HW122772   1.985   1.025   6.951 -0.9191  0.0678 -1.9201
 3771SOL    HW222773   1.836   1.017   6.925  0.6949 -0.5356 -0.0284
 3772SOL     OW22774   1.907   3.117   7.516 -0.1756  0.2170 -0.1154
 3772SOL    HW122775   1.974   3.072   7.465 -0.0349  0.4871 -0.1712
 3772SOL    HW222776   1.866   3.052   7.572  1.5181 -1.5486 -0.9521
 3773SOL     OW22777   3.486   0.951   3.303 -0.6772 -0.6001 -0.3892
 3773SOL    HW122778   3.427   0.938   3.377 -0.9613  0.8608 -0.3595
 3773SOL    HW222779   3.509   0.859   3.290 -1.5419 -0.5195 -2.4112
 3774SOL     OW22780   3.641   3.680   4.692 -0.2770  0.2141 -0.2892
 3774SOL    HW122781   3.584   3.757   4.691 -0.1462  0.3133 -0.0833
 3774SOL    HW222782   3.625   3.644   4.779  1.1309 -1.2658 -0.6600
 3775SOL     OW22783   1.552   1.303   3.212 -0.6562 -0.3816  0.7281
 3775SOL    HW122784   1.601   1.226   3.241 -1.5064 -1.0817  0.2614
 3775SOL    HW222785   1.547   1.296   3.117 -2.7385  2.1188  0.6495
 3776SOL     OW22786   1.213   2.086   2.521  0.1221  0.0892  0.0966
 3776SOL    HW122787   1.243   2.000   2.551  1.6898 -0.0386 -1.8319
 3776SOL    HW222788   1.215   2.068   2.427 -1.0823 -1.8234  0.4359
 3777SOL     OW22789   4.412   3.236   5.719  0.9002  0.2266  0.4468
 3777SOL    HW122790   4.508   3.242   5.720  1.1345 -3.3452 -2.5135
 3777SOL    HW222791   4.379   3.263   5.805  0.5566  0.5671  0.2065
 3778SOL     OW22792   3.721   1.377   3.450 -0.0727 -0.0584 -0.2079
 3778SOL    HW122793   3.813   1.362   3.474 -0.2260 -2.3411 -1.1073
 3778SOL    HW222794   3.712   1.346   3.360  0.2704 -1.8614  0.3870
 3779SOL     OW22795   4.396   2.057  11.215  0.0972 -0.1657 -0.5985
 3779SOL    HW122796   4.401   2.009  11.298  0.3015  4.4685  2.0707
 3779SOL    HW222797   4.408   1.986  11.151  1.8687 -1.8013  1.5427
 3780SOL     OW22798   1.780   2.903   7.699 -0.4347  0.2269  0.7117
 3780SOL    HW122799   1.742   2.847   7.631  1.5705 -0.1442 -0.1084
 3780SOL    HW222800   1.874   2.885   7.691  0.0084  2.5687  0.7028
 3781SOL     OW22801   0.595   1.166   0.033 -0.2405  0.5626  0.1515
 3781SOL    HW122802   0.519   1.116   0.063 -0.5182  1.7423  1.4290
 3781SOL    HW222803   0.617   1.229   0.102 -0.2978 -0.1528  0.8133
 3782SOL     OW22804   3.632   4.569   8.743 -0.0988 -0.0303  0.1792
 3782SOL    HW122805   3.719   4.528   8.742 -1.0154 -1.9097 -2.3210
 3782SOL    HW222806   3.585   4.528   8.670  1.2134 -1.2554  0.0082
 3783SOL     OW22807   3.869   4.298   4.581  0.4624  0.0468  0.3220
 3783SOL    HW122808   3.931   4.350   4.531 -1.5792  1.1097 -1.0708
 3783SOL    HW222809   3.875   4.209   4.545  1.9325  0.4394 -0.4159
 3784SOL     OW22810   3.041   2.240   4.519 -0.1603  0.2696 -0.2924
 3784SOL    HW122811   3.072   2.150   4.519  1.8286  0.9608 -0.0375
 3784SOL    HW222812   3.092   2.276   4.591  0.1464  0.0237 -0.3898
 3785SOL     OW22813   3.896   0.549   2.735 -0.0109 -0.0874  0.3066
 3785SOL    HW122814   3.972   0.590   2.694 -0.7378  0.8020 -0.1562
 3785SOL    HW222815   3.901   0.464   2.691 -3.5860 -0.4934  0.6753
 3786SOL     OW22816   3.975   2.154   2.683  0.3158  0.4816  0.5043
 3786SOL    HW122817   4.065   2.171   2.654  0.9416 -0.3035  1.9862
 3786SOL    HW222818   3.982   2.164   2.778 -1.5899  1.1020  0.5616
 3787SOL     OW22819   3.331   0.921   6.629 -0.5337 -0.3825  0.1152
 3787SOL    HW122820   3.263   0.906   6.564  2.3051 -0.5472 -2.8395
 3787SOL    HW222821   3.373   0.836   6.634 -0.0184 -0.0955  0.7256
 3788SOL     OW22822   1.055   1.789   9.863  0.1147 -0.4081 -0.0934
 3788SOL    HW122823   0.967   1.825   9.865  0.8273  1.4928 -2.6477
 3788SOL    HW222824   1.049   1.726   9.791 -0.7151  1.3284 -1.5333
 3789SOL     OW22825   3.201   3.149  15.862  0.2728  0.1261 -0.2316
 3789SOL    HW122826   3.231   3.060  15.881  0.0795 -0.1091 -1.0340
 3789SOL    HW222827   3.125   3.144  15.804 -0.0771  0.3266  0.2078
 3790SOL     OW22828   2.676   1.161  10.390  0.0053 -0.4637 -0.0502
 3790SOL    HW122829   2.683   1.089  10.328  1.2145  0.9710 -1.5652
 3790SOL    HW222830   2.594   1.146  10.437  0.1971  0.8809  0.7348
 3791SOL     OW22831   3.472   0.574   1.273 -0.1438  0.0624  0.0159
 3791SOL    HW122832   3.558   0.594   1.236 -0.4553  0.1720 -0.6690
 3791SOL    HW222833   3.481   0.604   1.363 -0.8465 -2.3113  0.8656
 3792SOL     OW22834   4.357   2.795   8.830 -0.0258  0.0275 -0.1455
 3792SOL    HW122835   4.356   2.753   8.915  0.2375 -0.3383 -0.3233
 3792SOL    HW222836   4.310   2.877   8.849 -2.0484 -0.9940 -0.6955
 3793SOL     OW22837   2.919   0.994  10.554  0.6717 -0.1297 -0.3671
 3793SOL    HW122838   2.900   0.901  10.544 -0.3458  0.2332 -1.8875
 3793SOL    HW222839   2.869   1.005  10.634  0.2874 -2.1665 -0.3236
 3794SOL     OW22840   3.215   4.532   9.310 -0.8774  0.0313 -0.2494
 3794SOL    HW122841   3.122   4.549   9.294 -1.0508  0.1744  0.9777
 3794SOL    HW222842   3.259   4.616   9.324  1.1688 -1.1734  0.6099
 3795SOL     OW22843   0.540   0.821   1.316  0.0456 -0.2260  0.0686
 3795SOL    HW122844   0.451   0.854   1.325  1.2904  1.7882  4.7693
 3795SOL    HW222845   0.531   0.726   1.328  2.4306 -0.7160 -1.9573
 3796SOL     OW22846   4.601   0.951   0.776  0.1629 -0.2682  0.5549
 3796SOL    HW122847   4.697   0.946   0.779  0.2228  0.9928  1.0279
 3796SOL    HW222848   4.586   0.949   0.682 -2.0721  2.3637  0.8303
 3797SOL     OW22849   1.950   3.245   4.221  0.0984 -0.1307 -0.3860
 3797SOL    HW122850   1.937   3.324   4.168  0.1284 -1.4719 -2.4234
 3797SOL    HW222851   1.884   3.260   4.288  0.9047  2.0686 -0.1061
 3798SOL     OW22852   0.618   3.517   2.234 -0.3035 -0.0989 -0.5104
 3798SOL    HW122853   0.619   3.611   2.218 -0.9552  0.6535  3.9363
 3798SOL    HW222854   0.658   3.507   2.148  2.2339  1.8662  0.4268
 3799SOL     OW22855   4.313   4.503   3.575  0.5060 -0.1146  0.1877
 3799SOL    HW122856   4.279   4.502   3.486 -2.3093  3.0849  1.2064
 3799SOL    HW222857   4.279   4.585   3.611  2.3205 -0.5361  2.8531
 3800SOL     OW22858   4.432   3.707   4.541 -0.2731 -0.2820  0.1756
 3800SOL    HW122859   4.445   3.753   4.458  1.4196 -0.1814  0.4998
 3800SOL    HW222860   4.388   3.773   4.595 -2.5088 -0.3155 -1.6145
 3801SOL     OW22861   3.867   0.142  11.733  0.1310  0.0109 -0.2736
 3801SOL    HW122862   3.911   0.069  11.690 -2.1774 -0.4260 -1.8964
 3801SOL    HW222863   3.785   0.138  11.683 -1.2602 -2.8463  2.2925
 3802SOL     OW22864   3.964   2.175   7.280  0.5639  0.2904 -0.1477
 3802SOL    HW122865   3.950   2.212   7.367  1.1397  0.2402 -0.0281
 3802SOL    HW222866   3.943   2.082   7.293 -3.3101  0.7300 -3.5109
 3803SOL     OW22867   3.185   2.353  13.197  0.3059 -0.1674  0.2530
 3803SOL    HW122868   3.200   2.371  13.290 -1.0821  0.7426  0.2920
 3803SOL    HW222869   3.227   2.434  13.166  1.4354 -0.3546  1.2715
 3804SOL     OW22870   3.425   0.601   3.717  0.2775 -0.5327 -0.2297
 3804SOL    HW122871   3.382   0.517   3.705 -1.9162  0.2513  2.1647
 3804SOL    HW222872   3.352   0.663   3.722 -1.0482 -2.0862 -0.3675
 3805SOL     OW22873   2.864   3.636  12.452 -0.5469  0.6255 -0.3521
 3805SOL    HW122874   2.927   3.624  12.524 -0.9762 -0.7819 -0.2142
 3805SOL    HW222875   2.879   3.725  12.422  0.7708  0.7604  0.6930
 3806SOL     OW22876   1.995   1.881   3.507  0.0622 -0.6501 -0.3320
 3806SOL    HW122877   2.003   1.973   3.483  1.4246 -1.3143 -2.3541
 3806SOL    HW222878   1.906   1.856   3.531  0.2473 -1.0129 -0.0207
 3807SOL     OW22879   0.881   3.310   2.384 -0.8617  0.5698 -0.2273
 3807SOL    HW122880   0.921   3.259   2.455 -0.2170 -1.4879 -2.0856
 3807SOL    HW222881   0.832   3.379   2.430 -2.7956 -1.4804  0.8260
 3808SOL     OW22882   1.662   2.555   7.986  0.6758  0.1170  0.1800
 3808SOL    HW122883   1.708   2.566   8.069 -3.5571 -1.0783  2.6655
 3808SOL    HW222884   1.616   2.472   7.993 -1.5227  1.4041  1.0037
 3809SOL     OW22885   1.423   1.343   1.902  0.3475 -0.6748 -0.3905
 3809SOL    HW122886   1.450   1.430   1.931 -1.3142 -0.4781  0.5740
 3809SOL    HW222887   1.346   1.367   1.850  0.5433 -0.5003 -0.5992
 3810SOL     OW22888   0.279   1.888   7.874 -0.4704 -0.2532  0.1593
 3810SOL    HW122889   0.272   1.976   7.910  0.5213 -0.5749  1.1639
 3810SOL    HW222890   0.292   1.906   7.781  2.0401  1.9397  0.9236
 3811SOL     OW22891   2.741   3.525   1.334  0.4796 -0.1993 -0.0414
 3811SOL    HW122892   2.812   3.587   1.316  2.3007 -2.7046 -1.5697
 3811SOL    HW222893   2.699   3.521   1.248 -0.7578  0.3786  0.5418
 3812SOL     OW22894   2.935   3.824   4.638  0.8565 -0.0709  0.5746
 3812SOL    HW122895   2.845   3.854   4.643  0.2787 -2.0677  2.1130
 3812SOL    HW222896   2.935   3.754   4.704 -2.8740  0.4275  1.0795
 3813SOL     OW22897   4.034   0.477   4.868 -0.7063  0.1230 -0.1657
 3813SOL    HW122898   4.101   0.539   4.838 -0.1688 -0.6391 -0.5568
 3813SOL    HW222899   4.042   0.414   4.796 -1.4669 -0.0122 -0.1260
 3814SOL     OW22900   2.709   2.693  12.858  0.3564 -0.1930 -0.1610
 3814SOL    HW122901   2.739   2.714  12.947  1.9335 -0.1803 -0.6934
 3814SOL    HW222902   2.659   2.615  12.879 -0.7860  0.0638 -1.9313
 3815SOL     OW22903   1.811   2.527   2.500 -0.2481 -0.0440  0.1028
 3815SOL    HW122904   1.838   2.543   2.409 -3.2083 -1.5450 -1.0198
 3815SOL    HW222905   1.898   2.500   2.531  0.4838 -0.3002 -2.1743
 3816SOL     OW22906   1.495   3.346  10.620  0.3542 -0.1798 -0.0903
 3816SOL    HW122907   1.511   3.435  10.651 -0.7848 -0.0178  0.0221
 3816SOL    HW222908   1.479   3.356  10.526 -0.8563 -0.5566  0.0812
 3817SOL     OW22909   0.833   4.267   8.700 -0.4568 -0.1670 -0.2044
 3817SOL    HW122910   0.816   4.307   8.786  0.6604  0.9289 -0.4958
 3817SOL    HW222911   0.748   4.290   8.663  1.3706  2.5959 -2.6460
 3818SOL     OW22912   4.313   1.812   0.726 -0.3063  0.0449  0.6358
 3818SOL    HW122913   4.338   1.902   0.707 -0.1627  0.2271  1.6717
 3818SOL    HW222914   4.393   1.793   0.775  1.5570 -0.3918 -2.6132
 3819SOL     OW22915   2.410   3.206   0.841  0.0240 -0.3773 -0.2672
 3819SOL    HW122916   2.475   3.187   0.908  0.7482 -1.3242 -1.2400
 3819SOL    HW222917   2.475   3.226   0.773  0.2578  2.6296  0.8483
 3820SOL     OW22918   0.995   3.967   6.142 -0.0462  0.3297 -0.0994
 3820SOL    HW122919   0.945   3.899   6.096  2.6882 -0.7454 -1.4962
 3820SOL    HW222920   0.946   3.988   6.221  1.0937 -1.7925  1.1708
 3821SOL     OW22921   0.950   3.882   2.241  0.5710  0.1615 -0.2194
 3821SOL    HW122922   0.936   3.957   2.184  2.3031  0.6049 -0.0587
 3821SOL    HW222923   0.863   3.871   2.280  0.9200  0.8713  0.7828
 3822SOL     OW22924   0.535   1.587   2.299 -0.2055  0.6874 -0.3096
 3822SOL    HW122925   0.452   1.597   2.252 -0.8314 -1.6398  0.3008
 3822SOL    HW222926   0.571   1.673   2.277  0.8182  0.4469  0.4322
 3823SOL     OW22927   2.358   2.701   5.353 -0.5116  0.0570 -0.2089
 3823SOL    HW122928   2.316   2.679   5.269 -0.7322  1.4872 -0.4629
 3823SOL    HW222929   2.322   2.641   5.418  0.1202  0.0511  0.1335
 3824SOL     OW22930   1.731   2.324   6.646 -0.2793 -0.1489 -0.3006
 3824SOL    HW122931   1.754   2.386   6.577 -0.7368 -1.3439 -1.5203
 3824SOL    HW222932   1.803   2.261   6.649 -1.2669 -1.2948 -0.4733
 3825SOL     OW22933   0.329   4.520   8.156  0.4253 -0.1427  0.2011
 3825SOL    HW122934   0.332   4.426   8.137  2.2948  0.1158 -0.8046
 3825SOL    HW222935   0.421   4.540   8.140  0.4245 -0.1502  0.1879
 3826SOL     OW22936   3.992   4.026   7.567  0.2314  0.6409  0.5469
 3826SOL    HW122937   4.047   4.050   7.492 -0.3424 -2.2299 -0.7907
 3826SOL    HW222938   3.963   4.113   7.594  0.5799  1.6233 -2.2888
 3827SOL     OW22939   2.144   0.812   7.407  0.1517 -0.5676  0.0659
 3827SOL    HW122940   2.077   0.862   7.360  1.3684  0.3782 -0.6819
 3827SOL    HW222941   2.194   0.883   7.447 -0.1643 -0.0792 -0.4086
 3828SOL     OW22942   3.596   1.968   3.320 -0.2881 -0.1086 -0.0064
 3828SOL    HW122943   3.629   1.886   3.358  1.2919  1.0917  1.2055
 3828SOL    HW222944   3.501   1.956   3.324 -0.2333 -0.6220 -0.2070
 3829SOL     OW22945   4.130   1.162   0.973  0.1099 -0.2880 -0.1724
 3829SOL    HW122946   4.148   1.126   0.886  0.7445  0.2458 -0.2556
 3829SOL    HW222947   4.217   1.153   1.011 -0.1133  0.7298  0.5858
 3830SOL     OW22948   0.700   2.619   6.135 -0.1791 -0.4250 -0.5701
 3830SOL    HW122949   0.791   2.649   6.147  0.3341 -1.8187 -0.9893
 3830SOL    HW222950   0.664   2.693   6.086  0.6690  2.1108  2.6313
 3831SOL     OW22951   1.437   3.467   6.148 -0.5060 -0.0270 -0.0188
 3831SOL    HW122952   1.344   3.460   6.125 -0.6995 -1.3857  1.2339
 3831SOL    HW222953   1.485   3.405   6.093 -1.4798 -0.7539 -0.0534
 3832SOL     OW22954   0.266   3.538   5.379 -0.5333 -0.3905 -0.4503
 3832SOL    HW122955   0.270   3.604   5.309 -0.0969 -1.1033 -1.0943
 3832SOL    HW222956   0.226   3.463   5.335 -3.6495  1.4461 -0.7672
 3833SOL     OW22957   1.366   3.054   3.993 -0.4344 -0.6668  0.1579
 3833SOL    HW122958   1.453   3.094   3.984  0.1371 -1.6418  1.4395
 3833SOL    HW222959   1.357   3.036   4.086  0.4775 -0.8498  0.2183
 3834SOL     OW22960   0.086   1.277   4.046  0.0650 -0.1001 -0.1489
 3834SOL    HW122961   0.072   1.189   4.083 -2.3461  0.4220  0.1475
 3834SOL    HW222962   0.173   1.294   4.082 -0.1869  1.1494 -0.1363
 3835SOL     OW22963   0.886   0.128  11.720  0.3955 -0.0493  0.1548
 3835SOL    HW122964   0.894   0.104  11.812  3.9803 -0.3305 -0.2239
 3835SOL    HW222965   0.945   0.072  11.670 -0.3126 -1.1469  0.5690
 3836SOL     OW22966   2.192   1.307   5.739  0.1617 -0.3657 -0.1811
 3836SOL    HW122967   2.245   1.378   5.777 -0.0632 -0.6715  0.6963
 3836SOL    HW222968   2.148   1.286   5.822 -0.4189  0.9919 -0.1333
 3837SOL     OW22969   4.668   2.083   5.150  0.1276 -0.2691  0.4669
 3837SOL    HW122970   4.644   2.014   5.090 -0.6391  0.8357 -0.4999
 3837SOL    HW222971   4.642   2.037   5.229  2.3453 -1.1023  0.7138
 3838SOL     OW22972   3.221   3.985   4.841 -0.0833 -0.0334  0.1332
 3838SOL    HW122973   3.167   3.927   4.893 -2.0086 -0.7917 -2.6894
 3838SOL    HW222974   3.145   4.022   4.796  0.1263 -0.3779 -0.5037
 3839SOL     OW22975   1.875   1.612  16.790 -0.1418 -0.4158 -0.8836
 3839SOL    HW122976   1.878   1.519  16.769  0.8518 -0.2732 -1.3963
 3839SOL    HW222977   1.965   1.640  16.772 -0.0242 -0.9036 -1.0511
 3840SOL     OW22978   0.034   0.319   5.379 -0.2221  0.3184  0.1644
 3840SOL    HW122979   0.081   0.393   5.341 -1.2666  1.3272  0.8396
 3840SOL    HW222980   4.676   0.358   5.349 -0.6961 -0.0321  1.0157
 3841SOL     OW22981   4.586   0.221  10.409 -0.2300  0.0057  0.1920
 3841SOL    HW122982   4.505   0.269  10.420 -0.3465 -0.0518 -0.3916
 3841SOL    HW222983   4.633   0.259  10.334 -4.0888 -0.6482 -2.5680
 3842SOL     OW22984   3.687   1.287   3.206  0.0875  0.4154 -0.0561
 3842SOL    HW122985   3.706   1.195   3.185 -0.3796  0.4465 -0.5967
 3842SOL    HW222986   3.703   1.344   3.131  0.4155  0.2327 -0.1255
 3843SOL     OW22987   2.333   3.531   4.880  0.0321  0.0535  0.4586
 3843SOL    HW122988   2.284   3.449   4.887  0.9569 -0.5852 -0.5131
 3843SOL    HW222989   2.422   3.497   4.886 -0.0464 -0.3571 -0.6933
 3844SOL     OW22990   2.388   3.692   6.034 -0.2381 -0.3178 -0.2046
 3844SOL    HW122991   2.337   3.744   6.097 -2.3569 -1.0142 -1.3419
 3844SOL    HW222992   2.400   3.749   5.958  1.2327 -0.1990  0.1276
 3845SOL     OW22993   3.388   2.860   4.413 -0.5241 -0.0022  0.3997
 3845SOL    HW122994   3.322   2.827   4.474 -0.6044  2.5726  1.7207
 3845SOL    HW222995   3.400   2.786   4.353  1.2238  3.1440 -3.1401
 3846SOL     OW22996   2.385   1.462   5.245 -0.0471  0.3627  0.3125
 3846SOL    HW122997   2.474   1.431   5.230 -0.7315 -0.1533 -2.8001
 3846SOL    HW222998   2.349   1.400   5.309  2.0597  0.1940  1.2925
 3847SOL     OW22999   0.803   3.087   3.369 -0.0246 -0.4913 -0.3999
 3847SOL    HW123000   0.828   3.045   3.286  0.1920  0.8173 -1.0041
 3847SOL    HW223001   0.889   3.081   3.411 -1.1852 -1.1988  1.8625
 3848SOL     OW23002   3.964   2.461   4.935 -0.2468  0.3799  0.5359
 3848SOL    HW123003   4.017   2.421   4.866  0.2077 -0.1260  1.1830
 3848SOL    HW223004   3.926   2.526   4.876  2.9861  2.0485  0.2812
 3849SOL     OW23005   0.339   0.069   3.181 -0.7047 -0.0489  0.1264
 3849SOL    HW123006   0.403   0.039   3.117 -2.3372 -1.1526 -0.9773
 3849SOL    HW223007   0.262   0.079   3.125  0.4978 -0.4087 -1.6106
 3850SOL     OW23008   4.709   3.095  16.567  0.4180 -0.6550  0.6692
 3850SOL    HW123009   4.691   3.099  16.661  0.4481  0.2327  0.6358
 3850SOL    HW223010   4.634   3.140  16.528  0.7856 -0.0262  0.6874
 3851SOL     OW23011   2.627   3.368   4.518 -0.0039 -0.6925  0.1529
 3851SOL    HW123012   2.684   3.305   4.562 -0.7962 -0.3964  1.5856
 3851SOL    HW223013   2.632   3.445   4.575  0.4579 -2.0074  1.8851
 3852SOL     OW23014   1.640   3.606  10.583 -0.5714  0.5739 -0.3932
 3852SOL    HW123015   1.577   3.602  10.655  0.9424  1.2585  0.9764
 3852SOL    HW223016   1.703   3.659  10.633  0.3307  0.4750 -1.4174
 3853SOL     OW23017   1.805   1.370   8.540  0.5882  0.4991  0.1213
 3853SOL    HW123018   1.804   1.409   8.453 -0.7812  3.3378  1.3628
 3853SOL    HW223019   1.735   1.421   8.581 -0.2995 -1.4325  1.0054
 3854SOL     OW23020   3.890   4.075   6.779 -0.6116  0.0887  0.2744
 3854SOL    HW123021   3.939   4.158   6.779  0.9972 -0.8359 -3.1630
 3854SOL    HW223022   3.900   4.053   6.872  1.2778 -0.4267 -0.0471
 3855SOL     OW23023   1.939   1.710   9.069 -0.6083  0.2665  0.4563
 3855SOL    HW123024   1.877   1.759   9.123  0.8022 -0.8497  3.0321
 3855SOL    HW223025   1.918   1.617   9.082  0.5344 -0.0079  0.2645
 3856SOL     OW23026   4.340   1.812   4.364  0.1197 -0.3766  0.2188
 3856SOL    HW123027   4.268   1.752   4.344 -1.0573  0.3971  2.2069
 3856SOL    HW223028   4.379   1.782   4.446  1.3775 -0.6654 -0.4905
 3857SOL     OW23029   1.104   3.408   3.941  0.2586 -0.1717 -0.1609
 3857SOL    HW123030   1.054   3.480   3.902  1.8985  1.7978  1.3443
 3857SOL    HW223031   1.156   3.388   3.863 -2.6891 -1.0585 -1.8823
 3858SOL     OW23032   0.470   1.074  13.165  0.0880  0.2914  0.0877
 3858SOL    HW123033   0.454   0.990  13.122 -1.0338  0.2374  0.6246
 3858SOL    HW223034   0.538   1.050  13.227  0.9848  1.7443 -0.3201
 3859SOL     OW23035   3.472   1.769   7.760  0.2185  0.3574  0.1858
 3859SOL    HW123036   3.432   1.718   7.689  0.6301 -2.2384  1.7810
 3859SOL    HW223037   3.426   1.746   7.841  0.7143 -0.2632  0.2944
 3860SOL     OW23038   1.344   3.622   3.014 -0.0267  0.1635 -0.3214
 3860SOL    HW123039   1.326   3.529   3.032  0.0261  0.3935  0.9589
 3860SOL    HW223040   1.399   3.636   3.091 -0.1928 -1.0789  0.0435
 3861SOL     OW23041   3.908   1.909  13.047  0.6187  0.6651 -0.1337
 3861SOL    HW123042   3.827   1.936  13.089  0.8108 -1.2293  1.4173
 3861SOL    HW223043   3.932   1.992  13.005  0.8237  0.0473 -1.2469
 3862SOL     OW23044   2.647   4.232   9.098  0.1725 -0.0332  0.2112
 3862SOL    HW123045   2.589   4.291   9.146 -0.1562  1.3524 -1.8939
 3862SOL    HW223046   2.702   4.203   9.171  0.3314  1.2719  0.6180
 3863SOL     OW23047   4.081   4.275   3.372  0.2356 -0.0355  0.4526
 3863SOL    HW123048   4.063   4.294   3.280  3.0234 -0.3880 -0.1599
 3863SOL    HW223049   4.039   4.348   3.417 -0.2634 -0.6575  0.9920
 3864SOL     OW23050   2.929   0.983   1.081  0.5506 -0.1439  0.3700
 3864SOL    HW123051   2.898   0.995   0.991  0.8845 -0.8736  0.1548
 3864SOL    HW223052   3.017   1.021   1.087  0.2125  0.8489 -0.9917
 3865SOL     OW23053   2.721   0.871  16.217  0.4915  0.2541 -0.4746
 3865SOL    HW123054   2.728   0.803  16.284 -0.4548 -0.9177 -1.5667
 3865SOL    HW223055   2.675   0.940  16.265  0.8294 -0.2121  0.5244
 3866SOL     OW23056   1.113   0.473   7.255  0.1825  0.1155  0.2113
 3866SOL    HW123057   1.166   0.547   7.224  0.1525 -0.2906 -0.8195
 3866SOL    HW223058   1.103   0.416   7.179  0.7062 -0.8940  0.8999
 3867SOL     OW23059   2.866   1.461   0.497  0.7545  0.3021 -0.0410
 3867SOL    HW123060   2.872   1.429   0.407  1.5731  1.6527 -0.4739
 3867SOL    HW223061   2.940   1.522   0.495  1.5074 -0.5910  0.5456
 3868SOL     OW23062   1.583   0.695   8.307  0.1056  0.4405 -0.2215
 3868SOL    HW123063   1.608   0.739   8.388 -0.9626 -0.5039  0.6370
 3868SOL    HW223064   1.671   0.665   8.287  1.4256  2.2303  2.9995
 3869SOL     OW23065   0.484   3.989  12.825  0.0536 -0.8619 -0.2010
 3869SOL    HW123066   0.482   3.893  12.828 -0.0212 -0.8849 -0.9052
 3869SOL    HW223067   0.394   4.002  12.797 -0.2889 -1.2428  0.7197
 3870SOL     OW23068   0.201   1.230   8.910 -0.1888  0.0503  0.6006
 3870SOL    HW123069   0.293   1.225   8.935 -0.4531  2.7259  2.0649
 3870SOL    HW223070   0.165   1.175   8.979 -1.5482 -1.1979 -1.0929
 3871SOL     OW23071   3.764   1.640  15.551 -1.4472 -0.0554  0.4000
 3871SOL    HW123072   3.807   1.630  15.467 -1.5775  0.6144  0.2553
 3871SOL    HW223073   3.684   1.685  15.524 -0.8491  1.5269  1.2722
 3872SOL     OW23074   3.537   3.404   0.164  0.3742 -0.0878  0.3013
 3872SOL    HW123075   3.536   3.409   0.068 -0.9034 -0.8526  0.2749
 3872SOL    HW223076   3.444   3.401   0.185 -0.1543  0.9981 -1.8466
 3873SOL     OW23077   2.207   2.547   3.216 -0.0547 -0.5527 -0.5123
 3873SOL    HW123078   2.139   2.602   3.256  0.5617 -0.6597  0.6932
 3873SOL    HW223079   2.250   2.495   3.284 -1.5565 -2.3070 -0.9397
 3874SOL     OW23080   2.635   3.796  12.496  0.0312 -0.2777 -0.0108
 3874SOL    HW123081   2.666   3.872  12.546 -0.0832  0.7961 -1.5669
 3874SOL    HW223082   2.708   3.735  12.487  1.9233  1.8650  0.7634
 3875SOL     OW23083   0.383   4.587   7.591 -0.2061 -0.0104  0.1902
 3875SOL    HW123084   0.425   4.502   7.606 -1.9553 -1.2010 -1.7162
 3875SOL    HW223085   0.438   4.620   7.520  0.1323 -1.5640 -0.2855
 3876SOL     OW23086   3.436   2.135  14.576  0.0841 -0.0359  0.5987
 3876SOL    HW123087   3.387   2.095  14.504  0.2903 -0.2736  0.5899
 3876SOL    HW223088   3.421   2.069  14.644 -0.5233  0.5672  1.0393
 3877SOL     OW23089   1.711   1.039   7.183 -0.1244  0.2155 -0.4111
 3877SOL    HW123090   1.639   0.989   7.146 -1.9146  2.5751 -0.0829
 3877SOL    HW223091   1.771   1.050   7.109  0.4876 -1.2655 -0.1500
 3878SOL     OW23092   0.387   1.001   4.401  0.0271 -0.3302 -0.4048
 3878SOL    HW123093   0.469   1.006   4.450 -0.0169  0.3385 -0.4047
 3878SOL    HW223094   0.407   1.054   4.324 -1.6986 -1.4898 -1.6434
 3879SOL     OW23095   0.016   1.703   0.402  0.6705  0.2527  0.1888
 3879SOL    HW123096   0.078   1.643   0.360 -1.1006  0.0244 -2.1704
 3879SOL    HW223097   4.690   1.651   0.465  3.1049  0.0735  1.9515
 3880SOL     OW23098   2.952   3.172   3.826  0.0787 -0.6535  0.2151
 3880SOL    HW123099   2.909   3.195   3.908 -0.4102 -1.0162  0.0564
 3880SOL    HW223100   2.985   3.083   3.831 -0.4678 -0.9677 -1.9368
 3881SOL     OW23101   0.531   3.398  13.055 -0.7909  0.1192 -0.0949
 3881SOL    HW123102   0.447   3.428  13.021 -0.9869  1.2209  1.3437
 3881SOL    HW223103   0.587   3.468  13.020  2.6923 -2.3618  0.4748
 3882SOL     OW23104   4.463   3.696   2.219 -0.3948 -0.0630  0.2228
 3882SOL    HW123105   4.400   3.675   2.150 -0.2963 -2.8368  1.0064
 3882SOL    HW223106   4.402   3.695   2.292  0.1732 -0.6448  0.6831
 3883SOL     OW23107   3.675   4.023   7.869  0.4699  0.2104 -0.5016
 3883SOL    HW123108   3.742   3.965   7.905  0.8041  0.6434 -0.4379
 3883SOL    HW223109   3.728   4.101   7.853 -0.1706  0.6362 -0.5607
 3884SOL     OW23110   0.260   0.967   0.525 -0.0586 -0.3613 -0.1937
 3884SOL    HW123111   0.216   0.993   0.606 -0.1864  0.8235 -0.6559
 3884SOL    HW223112   0.336   0.924   0.566  0.3292  1.3648  0.9015
 3885SOL     OW23113   4.455   2.652   5.347  0.4771  0.2970  0.1366
 3885SOL    HW123114   4.454   2.576   5.406  0.3400 -0.6860 -1.1320
 3885SOL    HW223115   4.365   2.649   5.313  0.5019 -1.3462  0.1969
 3886SOL     OW23116   1.606   2.929   4.569 -0.3466 -0.4289  0.2559
 3886SOL    HW123117   1.551   2.986   4.515  1.1250  1.1497  0.4345
 3886SOL    HW223118   1.536   2.877   4.609  0.5306 -4.7194 -3.7962
 3887SOL     OW23119   2.327   1.682   6.254  0.1882  0.0370 -0.3358
 3887SOL    HW123120   2.346   1.622   6.326  3.4294 -0.7411 -1.8633
 3887SOL    HW223121   2.304   1.616   6.189  3.3918  0.4691 -1.8907
 3888SOL     OW23122   0.378   4.238   1.471  1.0191  0.1534  0.0317
 3888SOL    HW123123   0.360   4.325   1.507 -1.5268 -0.2246 -0.3015
 3888SOL    HW223124   0.337   4.184   1.538 -3.4195  2.3255 -0.8986
 3889SOL     OW23125   0.385   0.911   6.969  0.3186  0.1512  0.0799
 3889SOL    HW123126   0.444   0.980   6.939 -1.2731  1.0089 -1.0812
 3889SOL    HW223127   0.299   0.952   6.974 -0.2964 -0.9978 -0.9656
 3890SOL     OW23128   2.941   1.065   3.830 -0.2035  0.9933 -0.5389
 3890SOL    HW123129   3.028   1.060   3.790 -0.8101 -4.4382 -1.1255
 3890SOL    HW223130   2.960   1.155   3.858  0.7127  1.1035 -1.4736
 3891SOL     OW23131   4.121   1.695   1.477 -0.0723 -0.4658  0.1351
 3891SOL    HW123132   4.179   1.764   1.445  0.8431 -0.8731  0.9203
 3891SOL    HW223133   4.161   1.617   1.439  1.4726  0.4251 -0.0637
 3892SOL     OW23134   3.249   3.077   6.856 -0.5933 -0.5467 -0.2748
 3892SOL    HW123135   3.306   3.150   6.830  0.9817 -2.0128 -0.9590
 3892SOL    HW223136   3.170   3.120   6.888  0.5733  1.0900  0.4559
 3893SOL     OW23137   2.480   2.252  17.347 -0.2475  0.2178 -0.3525
 3893SOL    HW123138   2.446   2.249  17.436  1.0494  1.5032  0.1632
 3893SOL    HW223139   2.504   2.344  17.344 -0.1899  0.2080 -0.1814
 3894SOL     OW23140   4.391   0.095  14.283  0.6791 -0.7289  0.2009
 3894SOL    HW123141   4.346   0.178  14.302  0.2887 -0.7835 -0.4763
 3894SOL    HW223142   4.316   0.039  14.264 -0.9818  1.3043  0.7913
 3895SOL     OW23143   4.272   1.337   3.114 -0.6385  0.3598  0.0931
 3895SOL    HW123144   4.187   1.383   3.120 -1.3075 -0.6166 -2.2111
 3895SOL    HW223145   4.317   1.358   3.196 -1.2421  0.7706  0.3290
 3896SOL     OW23146   0.718   3.603  13.904 -0.5213  0.1939  0.0340
 3896SOL    HW123147   0.782   3.531  13.906 -1.7975 -0.9328  0.5326
 3896SOL    HW223148   0.782   3.667  13.872 -1.2625 -0.4175 -2.6834
 3897SOL     OW23149   2.554   4.622   3.280  0.0040  0.2911 -0.6148
 3897SOL    HW123150   2.602   4.619   3.197  1.4284 -1.9790  0.2872
 3897SOL    HW223151   2.471   4.577   3.264 -0.7527  1.6000 -0.3651
 3898SOL     OW23152   4.356   4.158  13.920  0.2508  0.0191 -0.1046
 3898SOL    HW123153   4.441   4.125  13.950 -0.5380 -1.1461  0.8496
 3898SOL    HW223154   4.393   4.199  13.842 -0.1214 -1.2863 -0.9749
 3899SOL     OW23155   1.252   1.390   2.293  0.4974  0.0178 -0.3767
 3899SOL    HW123156   1.167   1.385   2.249 -0.9341  0.4681  2.2787
 3899SOL    HW223157   1.248   1.342   2.376 -0.0521 -1.5979 -1.3630
 3900SOL     OW23158   0.769   0.110  13.894  0.1560 -0.3616  0.1334
 3900SOL    HW123159   0.759   0.044  13.963 -1.3654  1.6797  1.8775
 3900SOL    HW223160   0.707   0.177  13.922 -0.9484 -1.2318 -0.2422
 3901SOL     OW23161   0.323   2.437   5.214  0.1332  0.4554 -0.1961
 3901SOL    HW123162   0.307   2.527   5.184  4.0224  1.0339 -0.5073
 3901SOL    HW223163   0.358   2.457   5.301  0.8395  1.9764 -0.8417
 3902SOL     OW23164   1.520   1.778   6.824  0.3886 -0.2343 -0.0413
 3902SOL    HW123165   1.555   1.842   6.761  1.3072  0.6204  1.3342
 3902SOL    HW223166   1.505   1.704   6.765  0.9248 -0.6818  0.3847
 3903SOL     OW23167   0.836   0.359   7.664 -0.3688 -0.2143  0.2303
 3903SOL    HW123168   0.857   0.425   7.599 -0.6613  0.8417  1.2097
 3903SOL    HW223169   0.744   0.342   7.647 -0.7339  1.8451  0.2158
 3904SOL     OW23170   3.261   3.034   2.777  0.0473 -0.3898  0.3321
 3904SOL    HW123171   3.293   3.118   2.811  0.0512 -1.0968  2.0684
 3904SOL    HW223172   3.342   3.011   2.732 -0.5342 -1.6587 -0.0551
 3905SOL     OW23173   4.515   0.763   5.221 -0.0710 -0.1767 -1.2070
 3905SOL    HW123174   4.593   0.745   5.167 -0.0205  1.0555 -1.5474
 3905SOL    HW223175   4.557   0.816   5.289 -1.8255  1.3314 -1.3147
 3906SOL     OW23176   3.846   2.828   8.360  0.4963 -0.3321  0.1073
 3906SOL    HW123177   3.851   2.897   8.426  1.1657 -0.5070  0.2465
 3906SOL    HW223178   3.755   2.801   8.373  0.6934 -0.6741  0.8262
 3907SOL     OW23179   1.106   0.499   2.333 -0.8072  0.0959  0.2506
 3907SOL    HW123180   1.188   0.477   2.378 -0.5741 -0.2462 -0.3421
 3907SOL    HW223181   1.133   0.544   2.253  2.2706 -0.7289  0.8222
 3908SOL     OW23182   1.672   3.152   9.659  0.1984 -0.3392 -0.2238
 3908SOL    HW123183   1.765   3.133   9.643  0.6333  0.9498  0.7526
 3908SOL    HW223184   1.675   3.221   9.726  1.9420  1.0016 -1.6908
 3909SOL     OW23185   0.506   1.683  16.998  0.7558  0.8217  0.6125
 3909SOL    HW123186   0.543   1.697  16.911 -1.4805 -0.5917 -0.5521
 3909SOL    HW223187   0.489   1.774  17.024 -1.5514  1.0181 -1.6146
 3910SOL     OW23188   2.119   1.048  13.586 -0.2881  0.3042 -0.3088
 3910SOL    HW123189   2.186   0.980  13.592 -0.1038  0.3416 -1.9580
 3910SOL    HW223190   2.115   1.070  13.679 -0.4996 -2.0154  0.2299
 3911SOL     OW23191   1.724   3.010   6.268 -0.1204  0.4164 -0.4256
 3911SOL    HW123192   1.690   2.931   6.309 -2.2879  0.9981 -1.1013
 3911SOL    HW223193   1.779   3.042   6.339 -0.4688 -1.6757  0.7847
 3912SOL     OW23194   3.004   1.502   8.511 -0.1957 -0.3192 -0.4847
 3912SOL    HW123195   2.966   1.489   8.598 -1.2338  0.0799 -0.8859
 3912SOL    HW223196   3.024   1.595   8.517 -1.3848 -0.2380  2.2301
 3913SOL     OW23197   0.557   4.518   7.907 -0.2327 -0.4007 -0.0162
 3913SOL    HW123198   0.648   4.540   7.890 -0.5304  1.4120  0.7452
 3913SOL    HW223199   0.512   4.602   7.905  1.4029  0.5216  2.7030
 3914SOL     OW23200   2.706   0.404   3.327 -0.4067  0.1079 -0.3484
 3914SOL    HW123201   2.674   0.373   3.411  0.0407  0.8069  0.0922
 3914SOL    HW223202   2.702   0.324   3.275  0.1052  0.3196 -0.7272
 3915SOL     OW23203   0.022   2.134  17.197  0.6571 -0.2430  0.8623
 3915SOL    HW123204   0.116   2.114  17.204  0.4764 -1.2152  0.4892
 3915SOL    HW223205   4.720   2.075  17.126  0.3591  2.1258 -0.9775
 3916SOL     OW23206   3.746   0.482   8.886 -0.3901  0.6963 -0.4197
 3916SOL    HW123207   3.748   0.577   8.880  0.6102  0.7300  0.4751
 3916SOL    HW223208   3.741   0.459   8.793 -1.5389 -0.4569 -0.0599
 3917SOL     OW23209   4.048   2.741   7.652 -0.2073 -0.4886  0.3770
 3917SOL    HW123210   3.979   2.708   7.594 -1.6247  2.5758  0.3003
 3917SOL    HW223211   4.125   2.735   7.596 -0.3252  0.6903  0.0882
 3918SOL     OW23212   0.904   3.191   3.987  0.1871  0.1991  0.6914
 3918SOL    HW123213   0.991   3.228   3.974 -0.2213  1.2057  0.8858
 3918SOL    HW223214   0.861   3.274   3.967 -0.0123 -0.1919 -0.5117
 3919SOL     OW23215   1.667   1.916   5.500  0.0104  0.4166  0.4719
 3919SOL    HW123216   1.741   1.883   5.550 -2.5401 -2.8920  2.0665
 3919SOL    HW223217   1.594   1.929   5.560  0.3682 -0.4641  1.0950
 3920SOL     OW23218   1.463   1.074   0.931 -0.3315  0.6935 -0.0400
 3920SOL    HW123219   1.378   1.094   0.893  0.4442  1.8576 -1.1729
 3920SOL    HW223220   1.465   1.148   0.993 -1.8925 -0.0240  0.8578
 3921SOL     OW23221   3.216   1.442   1.963  0.1622 -0.4105 -0.4122
 3921SOL    HW123222   3.250   1.353   1.955  0.1425 -0.3564 -1.0279
 3921SOL    HW223223   3.128   1.418   1.992 -0.1066 -1.3868 -2.0763
 3922SOL     OW23224   1.299   3.905   5.535 -0.0210  0.2860  0.0599
 3922SOL    HW123225   1.232   3.942   5.478 -0.3079 -0.4282 -0.0661
 3922SOL    HW223226   1.259   3.831   5.581  0.4576 -0.1916 -0.2941
 3923SOL     OW23227   1.103   2.120   5.060  0.2567  0.6150 -0.0341
 3923SOL    HW123228   1.194   2.104   5.035 -0.0865  0.1956 -1.0271
 3923SOL    HW223229   1.116   2.204   5.103  3.8015 -0.0863  0.2989
 3924SOL     OW23230   0.511   1.529   6.366 -0.6788  0.0996 -0.0142
 3924SOL    HW123231   0.573   1.566   6.429  0.9208 -2.3181 -0.1452
 3924SOL    HW223232   0.575   1.503   6.300 -1.9231 -2.7681 -0.1170
 3925SOL     OW23233   3.010   2.721   0.872 -0.3195 -0.1835 -0.7155
 3925SOL    HW123234   2.921   2.749   0.889  0.3338  0.0273  2.2985
 3925SOL    HW223235   2.990   2.629   0.855  0.4584 -0.3326 -0.8545
 3926SOL     OW23236   0.584   2.606  12.056 -0.4425  0.0817  0.5953
 3926SOL    HW123237   0.584   2.510  12.056  0.6683  0.0578 -3.5382
 3926SOL    HW223238   0.490   2.614  12.070 -0.6697 -1.7639  0.1993
 3927SOL     OW23239   0.004   3.151   4.560 -0.3596 -0.1140 -0.4456
 3927SOL    HW123240   4.694   3.226   4.513 -1.8349  0.1180  1.0250
 3927SOL    HW223241   4.663   3.085   4.537 -4.0255  3.1942  0.4722
 3928SOL     OW23242   1.649   2.368   3.382  0.3232 -0.4671  0.0447
 3928SOL    HW123243   1.568   2.336   3.342 -0.0368 -1.1073  1.3005
 3928SOL    HW223244   1.621   2.454   3.414  0.7749  0.3476 -1.7150
 3929SOL     OW23245   1.604   1.918   2.989  0.0477  0.2553 -0.1520
 3929SOL    HW123246   1.611   1.986   2.922 -1.7278  0.3001 -0.2997
 3929SOL    HW223247   1.685   1.930   3.039  0.1891  1.4654 -0.6787
 3930SOL     OW23248   2.273   3.083   8.721 -0.3011 -0.8338 -0.2007
 3930SOL    HW123249   2.254   2.990   8.730 -1.5083 -0.6845 -1.1088
 3930SOL    HW223250   2.204   3.121   8.776 -0.7140  1.4532 -2.2499
 3931SOL     OW23251   1.105   1.334   2.764  0.6441  0.5565 -0.0228
 3931SOL    HW123252   1.035   1.392   2.733  0.4132  0.1862 -0.2058
 3931SOL    HW223253   1.062   1.248   2.760 -0.6283  1.1720  0.2613
 3932SOL     OW23254   3.592   3.658   3.646 -0.3895 -0.8846  0.1340
 3932SOL    HW123255   3.676   3.650   3.690 -1.1020  0.1157  1.6477
 3932SOL    HW223256   3.561   3.746   3.667 -2.6128 -2.0894  1.8802
 3933SOL     OW23257   1.325   1.122   5.126 -0.9038  0.1544 -0.0652
 3933SOL    HW123258   1.345   1.127   5.032  0.5709  0.1633  0.2436
 3933SOL    HW223259   1.348   1.207   5.163 -0.9281 -0.3822  1.1925
 3934SOL     OW23260   2.032   1.278  16.909 -0.2881  0.0715 -0.0261
 3934SOL    HW123261   1.955   1.288  16.854 -0.5316  1.2074  0.5271
 3934SOL    HW223262   2.097   1.322  16.854 -0.1206 -1.6623 -1.2231
 3935SOL     OW23263   3.135   2.354   0.131  0.3077 -0.2186 -0.0358
 3935SOL    HW123264   3.162   2.326   0.043 -0.2052  0.5286 -0.4266
 3935SOL    HW223265   3.203   2.418   0.151 -0.7901  0.4916  1.3616
 3936SOL     OW23266   0.151   1.315  10.727  0.6970 -0.1463  0.1237
 3936SOL    HW123267   0.114   1.366  10.799 -1.1651 -0.7103 -0.4376
 3936SOL    HW223268   0.234   1.286  10.765  1.0957  1.0033  0.1631
 3937SOL     OW23269   4.296   0.732   5.069  0.1662  0.3939  0.0640
 3937SOL    HW123270   4.378   0.748   5.116  0.4360  0.3947 -0.4034
 3937SOL    HW223271   4.239   0.807   5.084 -0.1650 -0.0893  1.2011
 3938SOL     OW23272   0.048   2.741  11.027 -0.0100 -0.0271  0.0948
 3938SOL    HW123273   4.686   2.702  11.045  0.5452  0.0692  2.9750
 3938SOL    HW223274   0.056   2.805  11.098  1.6525 -0.1457  0.0136
 3939SOL     OW23275   2.799   0.674  10.906 -0.1899 -0.0398 -0.1718
 3939SOL    HW123276   2.830   0.588  10.935 -1.6922 -0.6954 -0.5046
 3939SOL    HW223277   2.794   0.709  10.995  0.7224  0.3740 -0.2804
 3940SOL     OW23278   3.067   0.254   9.554 -0.4724  0.4750  0.4011
 3940SOL    HW123279   3.109   0.176   9.592  1.8583  2.0370  1.0274
 3940SOL    HW223280   3.133   0.286   9.492 -1.5118 -0.4122 -1.1736
 3941SOL     OW23281   0.388   2.887   8.905 -0.1732  0.0324 -0.1307
 3941SOL    HW123282   0.469   2.838   8.893 -0.4166  0.1759 -2.5221
 3941SOL    HW223283   0.375   2.918   8.994  0.0799  2.7812 -1.0332
 3942SOL     OW23284   3.778   0.370   3.509  0.1851 -0.2390  0.9128
 3942SOL    HW123285   3.712   0.390   3.443 -0.3462 -0.2409  1.4466
 3942SOL    HW223286   3.825   0.310   3.451  0.5664 -1.5764  2.6103
 3943SOL     OW23287   1.618   1.245   6.341 -0.4629  0.7128  0.2752
 3943SOL    HW123288   1.604   1.206   6.427  0.4582 -0.8016 -0.2682
 3943SOL    HW223289   1.551   1.313   6.350 -1.2568 -0.2470  1.5868
 3944SOL     OW23290   2.220   4.556   7.402 -0.1750  0.2548  0.0310
 3944SOL    HW123291   2.198   4.636   7.449  1.0338  0.3758  0.3820
 3944SOL    HW223292   2.208   4.485   7.464  2.2522 -0.9307 -0.8697
 3945SOL     OW23293   1.656   3.954   7.727  0.1593  0.4384  0.0935
 3945SOL    HW123294   1.704   3.882   7.685  0.3401  0.5640  0.0830
 3945SOL    HW223295   1.575   3.953   7.677  0.3961  1.6731 -0.3021
 3946SOL     OW23296   3.347   1.843   3.432  0.0138 -0.4939 -0.5215
 3946SOL    HW123297   3.362   1.748   3.432 -0.0917 -0.5102 -0.4942
 3946SOL    HW223298   3.304   1.852   3.348 -1.9289 -0.1151  0.5122
 3947SOL     OW23299   2.560   4.189   9.671  0.0518  0.6783 -0.4401
 3947SOL    HW123300   2.610   4.130   9.728  0.7489  2.8801  1.2052
 3947SOL    HW223301   2.510   4.234   9.739  0.4542  2.1640 -1.1365
 3948SOL     OW23302   4.558   3.891   6.560 -0.2666  0.3307 -0.3646
 3948SOL    HW123303   4.610   3.950   6.614  0.8820  1.0110 -2.2131
 3948SOL    HW223304   4.561   3.807   6.607 -0.8503  0.9137  0.7188
 3949SOL     OW23305   0.842   1.267   7.403  0.1151 -0.2132  0.2704
 3949SOL    HW123306   0.926   1.296   7.367  0.4263  0.2617  1.3620
 3949SOL    HW223307   0.822   1.342   7.460  1.3737  0.7364 -0.5254
 3950SOL     OW23308   2.001   4.413   2.220  0.0637 -0.2808  0.2262
 3950SOL    HW123309   2.054   4.487   2.192  0.9909 -1.0895 -0.1581
 3950SOL    HW223310   1.956   4.450   2.296  1.0735 -0.1022  0.7388
 3951SOL     OW23311   3.692   2.139   4.448  0.3459 -0.5256 -0.2459
 3951SOL    HW123312   3.659   2.124   4.359  1.5687  0.8382 -0.9192
 3951SOL    HW223313   3.711   2.232   4.440  1.1485 -0.6431  0.2895
 3952SOL     OW23314   3.187   2.120   3.835  0.2827 -0.2110  0.1133
 3952SOL    HW123315   3.261   2.077   3.791  0.1788  0.8020 -1.0342
 3952SOL    HW223316   3.134   2.143   3.760  0.5418 -2.3595 -0.7258
 3953SOL     OW23317   4.235   3.585  11.513 -0.5825 -0.0139  0.3787
 3953SOL    HW123318   4.293   3.563  11.585  1.0536 -0.3733 -1.0416
 3953SOL    HW223319   4.271   3.529  11.444 -1.8085  1.0666 -1.1444
 3954SOL     OW23320   3.776   1.607   2.756 -0.1288 -0.2796  0.1205
 3954SOL    HW123321   3.711   1.637   2.820 -0.2707  0.5885 -0.4365
 3954SOL    HW223322   3.817   1.690   2.731 -2.3289  0.7721  0.0209
 3955SOL     OW23323   2.810   0.667  11.431  0.7919 -0.4927  0.1168
 3955SOL    HW123324   2.742   0.728  11.403  1.3826 -0.0973 -0.4428
 3955SOL    HW223325   2.871   0.682  11.359 -0.4393  3.7238 -0.0426
 3956SOL     OW23326   1.166   4.155  16.358  0.5225  0.6016  0.4681
 3956SOL    HW123327   1.111   4.194  16.426 -1.3947 -1.1878 -0.0605
 3956SOL    HW223328   1.139   4.211  16.284  1.0448  0.7216  0.3710
 3957SOL     OW23329   1.381   0.546   7.416 -0.6493 -0.3555  0.2825
 3957SOL    HW123330   1.395   0.559   7.322 -1.0475  0.7764  0.3827
 3957SOL    HW223331   1.297   0.590   7.426 -1.4322 -1.7038 -0.4076
 3958SOL     OW23332   2.075   2.318   4.330 -0.2526  0.2521  0.2614
 3958SOL    HW123333   2.109   2.329   4.419 -1.7162 -2.7020  1.1928
 3958SOL    HW223334   2.018   2.241   4.334  0.2870 -0.2198 -0.9265
 3959SOL     OW23335   4.545   4.003   6.066 -0.1525 -0.5082 -0.1814
 3959SOL    HW123336   4.626   4.053   6.062 -0.7452  0.6167  2.1129
 3959SOL    HW223337   4.567   3.938   5.999 -0.7435 -0.8641 -0.0258
 3960SOL     OW23338   1.490   2.785   6.961  0.3910  0.3636  0.2971
 3960SOL    HW123339   1.404   2.787   6.919  0.3773  2.0038  0.4115
 3960SOL    HW223340   1.487   2.728   7.038  0.1361 -2.1552 -1.5818
 3961SOL     OW23341   3.635   1.674  15.048 -0.2227 -0.3409  0.3204
 3961SOL    HW123342   3.599   1.594  15.086 -1.4549 -0.7052 -1.6335
 3961SOL    HW223343   3.728   1.658  15.064  0.3649  1.6558 -1.1171
 3962SOL     OW23344   1.244   0.427   2.584 -0.0588 -0.0188 -0.6929
 3962SOL    HW123345   1.323   0.481   2.581  1.0001 -1.6258 -1.5237
 3962SOL    HW223346   1.276   0.339   2.566  3.0794  0.8771  0.4755
 3963SOL     OW23347   4.381   0.238   8.995  0.0701  0.3394  0.1676
 3963SOL    HW123348   4.343   0.324   8.976  1.2797  0.8371 -0.0246
 3963SOL    HW223349   4.305   0.181   9.004 -1.1756  1.9432 -0.0775
 3964SOL     OW23350   3.200   0.053   9.673  0.0864 -0.0705 -0.2749
 3964SOL    HW123351   3.243   0.011   9.598 -1.2603 -0.6234 -0.7371
 3964SOL    HW223352   3.262   0.125   9.678 -0.6117  0.4648  0.6501
 3965SOL     OW23353   0.363   2.249   5.512 -0.0559  0.5361 -0.1344
 3965SOL    HW123354   0.371   2.261   5.606  1.4472 -1.9991  0.0564
 3965SOL    HW223355   0.404   2.329   5.477 -0.5730  0.6308 -0.5233
 3966SOL     OW23356   1.134   1.743  12.707 -1.7895 -0.1405 -0.6461
 3966SOL    HW123357   1.070   1.717  12.773 -0.6808  0.4872  0.6763
 3966SOL    HW223358   1.208   1.688  12.733 -0.6257  2.2810  1.1143
 3967SOL     OW23359   4.213   0.436   7.853  0.5024  0.4961 -0.1715
 3967SOL    HW123360   4.139   0.496   7.856 -0.4727 -0.7255  0.5074
 3967SOL    HW223361   4.174   0.348   7.846  0.6960  0.3335  0.7777
 3968SOL     OW23362   1.215   4.366   6.063  0.0995 -0.4204 -0.1959
 3968SOL    HW123363   1.271   4.403   5.995 -0.4551  1.2504  0.2469
 3968SOL    HW223364   1.132   4.413   6.056 -0.2101 -1.0770 -0.8246
 3969SOL     OW23365   2.089   1.538   5.578  0.2404 -0.0741 -0.4750
 3969SOL    HW123366   2.114   1.463   5.524 -0.3119 -0.1703 -0.5981
 3969SOL    HW223367   2.167   1.541   5.634 -0.1733 -0.4951  0.1338
 3970SOL     OW23368   0.542   1.796  12.120 -0.5263  0.3433  0.0971
 3970SOL    HW123369   0.620   1.835  12.159 -0.0875  0.8047 -1.2563
 3970SOL    HW223370   0.540   1.811  12.025  3.5333  0.2487  0.0080
 3971SOL     OW23371   2.445   3.380   9.335  0.2732  0.0038 -0.0547
 3971SOL    HW123372   2.540   3.364   9.338 -0.0376 -1.7491  0.5209
 3971SOL    HW223373   2.430   3.409   9.425 -0.0790  1.3210 -0.5373
 3972SOL     OW23374   0.965   0.205   5.238 -0.0587  0.6449 -0.0426
 3972SOL    HW123375   0.917   0.151   5.301 -1.8665  1.3933 -0.7891
 3972SOL    HW223376   1.045   0.153   5.240 -1.2130 -1.1100  0.1524
 3973SOL     OW23377   3.036   3.633   3.239  0.3110 -0.2479  0.6148
 3973SOL    HW123378   2.976   3.635   3.314 -0.6589 -1.8493 -0.1154
 3973SOL    HW223379   2.990   3.687   3.175 -1.4642 -1.5267  0.8146
 3974SOL     OW23380   4.503   3.106   2.688 -0.1491  0.4110 -0.5521
 3974SOL    HW123381   4.504   3.010   2.694 -0.3883  0.4703  0.4237
 3974SOL    HW223382   4.435   3.115   2.622 -0.6374  0.8503  0.0125
 3975SOL     OW23383   3.555   3.029   2.951 -0.4791 -0.1323  0.0481
 3975SOL    HW123384   3.533   3.014   3.043 -1.2234  0.5542 -0.0156
 3975SOL    HW223385   3.490   3.098   2.937  1.1413  1.2259 -0.7210
 3976SOL     OW23386   4.587   2.721   2.447 -0.0406 -0.2977 -0.1277
 3976SOL    HW123387   4.604   2.764   2.530  0.1336 -2.7685  1.1354
 3976SOL    HW223388   4.658   2.657   2.448  0.2594 -0.0324 -2.7318
 3977SOL     OW23389   0.322   0.322   9.383  0.1144  0.2395  0.0697
 3977SOL    HW123390   0.308   0.379   9.307 -1.2366 -1.0184 -0.6274
 3977SOL    HW223391   0.252   0.346   9.443 -2.2609 -3.9662 -1.0095
 3978SOL     OW23392   2.247   3.672   2.940 -0.3161  0.2671 -0.0220
 3978SOL    HW123393   2.241   3.579   2.919  0.2475  0.3773 -0.6759
 3978SOL    HW223394   2.277   3.709   2.857  1.8192 -2.6646 -0.5528
 3979SOL     OW23395   3.167   3.472   3.402  0.0387 -0.4439 -0.2183
 3979SOL    HW123396   3.134   3.531   3.334  0.4615  1.1541  0.9502
 3979SOL    HW223397   3.087   3.463   3.454 -1.2321  1.0792 -1.8893
 3980SOL     OW23398   2.692   3.587   9.755  0.9766 -0.2517  0.1455
 3980SOL    HW123399   2.708   3.578   9.849 -0.1876  1.1884  0.4779
 3980SOL    HW223400   2.763   3.531   9.721  0.1941 -1.4409  0.4965
 3981SOL     OW23401   0.445   0.450   2.254 -0.1294  0.1257  0.1470
 3981SOL    HW123402   0.367   0.443   2.309  0.6780 -1.6940  1.0583
 3981SOL    HW223403   0.425   0.371   2.204 -0.9625 -0.1168  0.8761
 3982SOL     OW23404   4.461   0.866   3.346 -0.7080 -0.2152  0.3308
 3982SOL    HW123405   4.369   0.863   3.321 -0.2385  1.1550 -1.6065
 3982SOL    HW223406   4.468   0.861   3.441  0.9630  1.3297  0.3004
 3983SOL     OW23407   3.926   0.949   8.464  0.3971  0.4696  0.7871
 3983SOL    HW123408   3.950   0.987   8.549 -0.4800  1.9217  0.3743
 3983SOL    HW223409   3.853   1.006   8.440  0.5860  0.4728  0.2233
 3984SOL     OW23410   1.666   0.917  14.406  0.8967  0.1552  0.2860
 3984SOL    HW123411   1.717   0.932  14.486 -0.6843  0.6690  1.2053
 3984SOL    HW223412   1.609   0.848  14.440 -2.6041  1.1977 -3.5441
 3985SOL     OW23413   2.057   0.369   5.139  0.1096  0.2208 -0.6730
 3985SOL    HW123414   2.060   0.445   5.081 -1.3207  1.9688  1.5058
 3985SOL    HW223415   1.970   0.335   5.119 -0.5076  1.6042 -0.3585
 3986SOL     OW23416   1.024   1.233   6.009  0.0998 -0.6535  0.3489
 3986SOL    HW123417   1.012   1.167   6.077 -0.9843 -0.9244 -0.0981
 3986SOL    HW223418   1.038   1.186   5.927 -1.5531  0.2616 -0.4719
 3987SOL     OW23419   0.388   0.648   5.282 -0.1729  0.2231  0.5503
 3987SOL    HW123420   0.473   0.691   5.267 -0.5883  1.2216  1.0639
 3987SOL    HW223421   0.384   0.662   5.377 -1.5696  0.7297  0.4052
 3988SOL     OW23422   1.323   2.649  13.885  0.2603 -0.2673 -0.7355
 3988SOL    HW123423   1.336   2.613  13.972  2.2055 -0.5894 -1.1691
 3988SOL    HW223424   1.280   2.733  13.901  0.8349 -0.4188  1.5381
 3989SOL     OW23425   0.100   1.260   9.850 -0.5717 -0.1824 -0.3585
 3989SOL    HW123426   0.169   1.194   9.839  1.9746  2.4263  0.1403
 3989SOL    HW223427   0.063   1.238   9.936 -0.8650  1.2356 -0.1207
 3990SOL     OW23428   1.709   2.618   4.773 -0.7157 -0.1495  0.5812
 3990SOL    HW123429   1.801   2.616   4.797 -0.4865  0.1435 -0.2717
 3990SOL    HW223430   1.716   2.569   4.691  1.7003  1.9524 -0.4772
 3991SOL     OW23431   1.279   0.671   0.957  0.2060  0.4048  0.1220
 3991SOL    HW123432   1.332   0.643   1.031  0.5680 -0.0826 -0.3217
 3991SOL    HW223433   1.225   0.592   0.955 -2.1205  2.0122 -0.9233
 3992SOL     OW23434   2.959   0.184  13.485  0.6383 -0.1236  1.0925
 3992SOL    HW123435   3.015   0.111  13.462  0.9983  0.6254 -0.3884
 3992SOL    HW223436   3.007   0.258  13.447  0.8707 -0.8805 -0.0789
 3993SOL     OW23437   4.617   2.491   0.075  0.1497 -0.4446 -0.0575
 3993SOL    HW123438   4.533   2.502   0.029  0.6403 -0.5813 -0.9842
 3993SOL    HW223439   4.672   2.449   0.010 -1.8267 -0.0774 -1.9996
 3994SOL     OW23440   4.177   1.983  12.774 -0.0843  0.0210  0.1560
 3994SOL    HW123441   4.161   2.066  12.818 -2.2005 -0.6745  0.7136
 3994SOL    HW223442   4.254   2.001  12.720  1.4159 -1.0431  1.9394
 3995SOL     OW23443   0.434   4.093   1.892  0.2486 -0.2005  0.1020
 3995SOL    HW123444   0.463   4.150   1.963 -2.2277 -0.5973  1.4388
 3995SOL    HW223445   0.420   4.009   1.935  1.7748 -1.4941 -1.8791
 3996SOL     OW23446   3.090   0.684   0.515  0.0209 -0.0258  0.2547
 3996SOL    HW123447   3.005   0.724   0.500  1.0569  0.8429 -3.1032
 3996SOL    HW223448   3.135   0.746   0.459 -0.4597 -0.5005 -0.6495
 3997SOL     OW23449   2.391   4.690   6.580 -0.0556  0.2243 -0.9322
 3997SOL    HW123450   2.346   4.626   6.635 -0.7579  0.8281 -0.8080
 3997SOL    HW223451   2.324   0.034   6.575  0.9479  1.5004  2.6885
 3998SOL     OW23452   4.660   0.946   7.978 -0.1911 -0.1420 -0.2109
 3998SOL    HW123453   4.667   0.850   7.976 -2.0025 -0.2944  1.7403
 3998SOL    HW223454   4.567   0.967   7.989  0.2880  1.8504 -0.0210
 3999SOL     OW23455   3.799   0.761   8.903 -0.7030  0.2214 -0.0591
 3999SOL    HW123456   3.868   0.825   8.886 -0.2203  0.2777  2.0192
 3999SOL    HW223457   3.782   0.776   8.996  1.4258 -0.2032  0.3996
 4000SOL     OW23458   0.770   4.362   5.099  0.0701  0.0227 -0.2449
 4000SOL    HW123459   0.684   4.321   5.106  0.1087  0.0163  0.1630
 4000SOL    HW223460   0.758   4.457   5.094 -2.5601 -0.3315 -0.3887
 4001SOL     OW23461   1.331   0.159   2.483 -0.2110 -0.1903  0.0034
 4001SOL    HW123462   1.373   0.153   2.397 -1.2943  0.4684 -0.5679
 4001SOL    HW223463   1.391   0.097   2.524  0.0002 -0.4951 -0.7665
 4002SOL     OW23464   3.399   0.871   2.082  0.2744 -0.5102 -0.1300
 4002SOL    HW123465   3.418   0.965   2.078  1.1797 -0.6595  0.7181
 4002SOL    HW223466   3.471   0.850   2.141 -0.0078 -3.3667 -0.8352
 4003SOL     OW23467   2.951   1.078   4.558  0.4192  0.0731  0.0320
 4003SOL    HW123468   2.886   1.139   4.593 -0.8639 -2.0389  1.3819
 4003SOL    HW223469   2.969   1.122   4.475 -4.4738 -0.3136 -1.2520
 4004SOL     OW23470   3.915   4.700  11.959  0.1769  0.1496  0.7373
 4004SOL    HW123471   3.906   0.040  11.889 -1.6415 -0.1865  0.6687
 4004SOL    HW223472   3.957   4.629  11.910  1.0654  0.6633  0.7556
 4005SOL     OW23473   0.422   0.616  17.271 -0.1823 -0.3933 -0.2389
 4005SOL    HW123474   0.512   0.629  17.299  0.4615  1.7383 -3.2075
 4005SOL    HW223475   0.380   0.681  17.328  1.1654 -0.0703  0.3682
 4006SOL     OW23476   0.451   1.297   3.507  0.0057 -0.2024 -0.4197
 4006SOL    HW123477   0.424   1.328   3.420 -0.1467  0.9082  0.0103
 4006SOL    HW223478   0.542   1.325   3.510 -0.4546  1.1898  0.9778
 4007SOL     OW23479   3.866   3.830  16.410  0.0895  0.0046  0.5153
 4007SOL    HW123480   3.871   3.921  16.440 -1.9355 -0.3204  1.8420
 4007SOL    HW223481   3.777   3.813  16.441  0.4885 -2.1950  0.4748
 4008SOL     OW23482   1.156   1.216  10.632 -0.1083  0.2504  0.6155
 4008SOL    HW123483   1.093   1.281  10.665 -2.8514 -2.5349  0.7893
 4008SOL    HW223484   1.129   1.144  10.688  1.3303 -1.2785 -0.6440
 4009SOL     OW23485   4.307   3.277   8.455  0.1689 -0.3542 -0.1708
 4009SOL    HW123486   4.315   3.342   8.385  1.6967 -1.0487 -0.6371
 4009SOL    HW223487   4.220   3.241   8.436 -0.3469  1.7215 -1.7696
 4010SOL     OW23488   2.012   4.366   2.527 -0.2527 -0.0544  0.0731
 4010SOL    HW123489   2.015   4.311   2.448  0.1104 -1.0559  0.7886
 4010SOL    HW223490   2.000   4.304   2.599  0.4977  0.2221  0.4338
 4011SOL     OW23491   4.407   2.727   6.655 -0.4423 -0.5683 -0.3667
 4011SOL    HW123492   4.367   2.716   6.742  1.5178 -1.0790  0.4667
 4011SOL    HW223493   4.385   2.642   6.619 -1.1844 -0.2780 -0.5902
 4012SOL     OW23494   3.167   2.851   7.514  0.0174 -0.1160 -0.3593
 4012SOL    HW123495   3.081   2.811   7.515  0.3822 -0.8493  2.4575
 4012SOL    HW223496   3.208   2.832   7.598  1.0860 -2.3237 -1.3937
 4013SOL     OW23497   1.943   3.615   4.795 -0.1391  0.4735 -0.3165
 4013SOL    HW123498   1.887   3.692   4.803 -0.4290  0.3750 -1.3596
 4013SOL    HW223499   2.016   3.640   4.851  1.0363 -0.0024 -1.6361
 4014SOL     OW23500   2.816   2.149   1.301 -0.4175  0.3846 -0.0143
 4014SOL    HW123501   2.873   2.139   1.377  0.6631 -1.4796 -1.0774
 4014SOL    HW223502   2.885   2.133   1.236 -0.8156 -1.4308  0.0127
 4015SOL     OW23503   3.626   0.793   2.218  0.2743  0.2910  0.6310
 4015SOL    HW123504   3.698   0.800   2.281  0.4577  2.5949  0.1627
 4015SOL    HW223505   3.687   0.780   2.145  1.6451 -1.0572  2.0033
 4016SOL     OW23506   2.582   1.628  11.758 -0.6290 -0.0819 -0.0916
 4016SOL    HW123507   2.641   1.651  11.686 -0.3945  1.5369  0.6174
 4016SOL    HW223508   2.505   1.678  11.732  0.3276  1.5845  0.2217
 4017SOL     OW23509   0.859   4.213   7.542  0.6893  0.2045 -0.8717
 4017SOL    HW123510   0.789   4.278   7.537 -0.6487 -1.3017 -1.6046
 4017SOL    HW223511   0.937   4.266   7.522  1.2617 -0.3831 -0.1810
 4018SOL     OW23512   1.579   3.549   9.422  0.1959 -0.1362 -0.0850
 4018SOL    HW123513   1.499   3.597   9.443  0.5027 -0.1883  1.1959
 4018SOL    HW223514   1.649   3.610   9.444 -0.2460  0.4830 -0.4031
 4019SOL     OW23515   1.216   0.223  12.151 -0.2556 -0.4559 -0.2004
 4019SOL    HW123516   1.153   0.268  12.208  3.3403  1.0091  2.6573
 4019SOL    HW223517   1.238   0.142  12.197  1.9288 -0.8600 -1.9994
 4020SOL     OW23518   2.715   3.437   9.391 -0.4884  0.5378  0.1801
 4020SOL    HW123519   2.737   3.365   9.449 -1.0166  1.0434  1.0231
 4020SOL    HW223520   2.756   3.506   9.443  0.3824  0.6285 -0.6256
 4021SOL     OW23521   4.724   0.326  10.214  0.2174  0.2643 -0.2016
 4021SOL    HW123522   4.705   0.363  10.128  1.5523 -0.0303 -0.6152
 4021SOL    HW223523   0.084   0.287  10.190 -0.0136  0.0982 -0.7487
 4022SOL     OW23524   1.625   0.479   3.962 -0.0163 -0.0034 -0.0186
 4022SOL    HW123525   1.623   0.384   3.972  1.7669  0.2813  2.9953
 4022SOL    HW223526   1.562   0.476   3.889  0.1873 -1.5555 -0.1216
 4023SOL     OW23527   4.596   0.904  10.936 -1.0960 -0.5746 -0.1841
 4023SOL    HW123528   4.620   0.936  11.023 -1.6406  1.6703 -0.8567
 4023SOL    HW223529   4.627   0.814  10.935 -0.0808 -0.2508  1.0990
 4024SOL     OW23530   1.401   1.926  11.978  0.1929  0.1485  0.2766
 4024SOL    HW123531   1.308   1.917  11.957  0.3189 -0.9337  0.1668
 4024SOL    HW223532   1.404   1.879  12.062  1.5482 -0.9103 -0.3701
 4025SOL     OW23533   0.205   0.826   3.514  0.1832 -0.2221  0.4544
 4025SOL    HW123534   0.263   0.866   3.449 -0.4257  0.6821  0.4766
 4025SOL    HW223535   0.124   0.814   3.465 -0.7841 -1.9261  2.4975
 4026SOL     OW23536   2.381   1.366   7.660  0.0052  0.4627 -0.2910
 4026SOL    HW123537   2.298   1.379   7.706  1.1046  0.9590  1.5433
 4026SOL    HW223538   2.440   1.342   7.731 -1.3313 -1.4631  0.1784
 4027SOL     OW23539   1.624   3.011   3.868 -0.3515 -0.1519 -0.3539
 4027SOL    HW123540   1.567   2.939   3.839  0.3519 -0.0512 -2.0017
 4027SOL    HW223541   1.642   2.976   3.955 -0.3627 -0.4889 -0.4856
 4028SOL     OW23542   1.304   1.135   6.347 -0.3861  0.2983  0.2251
 4028SOL    HW123543   1.356   1.064   6.308 -0.6978  0.3890 -0.3596
 4028SOL    HW223544   1.316   1.199   6.277 -0.0299 -0.4055 -0.3657
 4029SOL     OW23545   3.340   0.664   8.387 -0.5067  0.1941 -0.1502
 4029SOL    HW123546   3.384   0.748   8.373  0.0809  0.3045  2.5188
 4029SOL    HW223547   3.397   0.616   8.447 -1.7132 -1.3802 -0.2732
 4030SOL     OW23548   2.462   4.106   2.881 -0.0870  0.1475  0.3529
 4030SOL    HW123549   2.441   4.032   2.938 -0.9289 -0.5947 -0.8984
 4030SOL    HW223550   2.437   4.189   2.921 -0.1093 -0.0999  0.8445
 4031SOL     OW23551   0.906   0.968   4.433 -0.2204  0.5681 -0.4646
 4031SOL    HW123552   0.957   0.917   4.371  0.3031 -0.7174  1.0186
 4031SOL    HW223553   0.959   1.047   4.427 -1.4514  1.5192  1.0461
 4032SOL     OW23554   4.157   4.338   1.420  0.0398  0.0897  0.1078
 4032SOL    HW123555   4.079   4.302   1.378 -1.3864 -0.5503  3.2948
 4032SOL    HW223556   4.146   4.430   1.395  0.5751  0.6914  2.0577
 4033SOL     OW23557   3.576   2.296  12.533 -0.0417  0.5691 -0.0345
 4033SOL    HW123558   3.547   2.300  12.442  0.4839 -0.3616 -0.2445
 4033SOL    HW223559   3.515   2.350  12.583  1.0142  0.5186  1.3127
 4034SOL     OW23560   3.983   2.415  10.651  0.4974 -0.0868 -0.2729
 4034SOL    HW123561   3.965   2.410  10.745 -0.1068 -1.1380 -0.4460
 4034SOL    HW223562   3.899   2.376  10.632  2.5370 -4.9471  0.6990
 4035SOL     OW23563   3.062   3.061  17.461  0.3049  0.0599  0.2786
 4035SOL    HW123564   2.993   3.082  17.398 -0.4021 -2.2661  0.2774
 4035SOL    HW223565   3.109   3.144  17.468 -0.8301  0.9550 -2.7710
 4036SOL     OW23566   2.362   3.183  11.916  0.6972  0.2885 -0.1182
 4036SOL    HW123567   2.359   3.274  11.887  0.8317 -0.0762 -1.2924
 4036SOL    HW223568   2.267   3.167  11.919  0.4416  1.9738  0.6796
 4037SOL     OW23569   4.490   4.009   3.063  0.0812 -0.6116 -0.6506
 4037SOL    HW123570   4.417   3.973   3.012  0.7317 -2.0566 -0.5723
 4037SOL    HW223571   4.443   4.079   3.108 -1.1436 -0.8804 -1.5115
 4038SOL     OW23572   3.384   1.682   7.469  0.4038 -0.2211 -0.4053
 4038SOL    HW123573   3.409   1.609   7.412 -1.5500 -0.4341 -1.0156
 4038SOL    HW223574   3.322   1.650   7.535  0.0626 -0.3352 -0.7784
 4039SOL     OW23575   1.458   3.737  16.353  0.0690 -0.2695 -0.3275
 4039SOL    HW123576   1.487   3.776  16.270  2.4568 -2.8580 -0.7135
 4039SOL    HW223577   1.479   3.803  16.419 -0.4657 -1.9008  1.4718
 4040SOL     OW23578   1.369   3.332   4.987  0.8359 -0.5331  0.6951
 4040SOL    HW123579   1.396   3.335   4.895 -2.1572 -2.3086 -0.2616
 4040SOL    HW223580   1.374   3.426   5.003 -2.0393 -0.2129 -0.1732
 4041SOL     OW23581   2.565   0.055  10.814 -0.9593 -0.5553  0.0481
 4041SOL    HW123582   2.484   0.025  10.774 -1.4887  2.3571 -1.1014
 4041SOL    HW223583   2.573   4.724  10.891 -1.2535 -1.0189 -0.2541
 4042SOL     OW23584   0.882   0.573   3.150  0.4488  0.0834 -0.0314
 4042SOL    HW123585   0.870   0.535   3.238 -2.0725 -2.7532 -1.6212
 4042SOL    HW223586   0.824   0.520   3.096  0.1529  0.0067  0.3587
 4043SOL     OW23587   2.906   1.978  15.565 -0.5405  0.1166 -0.0185
 4043SOL    HW123588   2.852   1.930  15.503  0.2116  0.0943 -0.6621
 4043SOL    HW223589   2.982   1.996  15.510 -2.1623  1.3562 -1.8441
 4044SOL     OW23590   1.320   3.234   7.425 -0.1148 -0.4036  0.3719
 4044SOL    HW123591   1.230   3.209   7.448  0.1380 -3.7462 -2.2777
 4044SOL    HW223592   1.338   3.283   7.505  3.4113 -0.5371 -0.3524
 4045SOL     OW23593   2.319   2.810   4.715 -0.3029 -0.3945  0.2087
 4045SOL    HW123594   2.354   2.866   4.785 -1.1628  0.4392 -0.0310
 4045SOL    HW223595   2.387   2.743   4.722  0.1893 -0.0505 -1.2257
 4046SOL     OW23596   0.930   1.497   2.651 -0.3735 -0.2282  0.6328
 4046SOL    HW123597   0.875   1.471   2.577  2.8564  0.2042 -1.9543
 4046SOL    HW223598   0.934   1.592   2.641 -0.2757 -0.4991 -1.8438
 4047SOL     OW23599   1.678   0.315  17.680 -0.2462  1.0315  0.3740
 4047SOL    HW123600   1.666   0.223  17.658 -0.2970  0.7946  1.3966
 4047SOL    HW223601   1.690   0.312   0.076 -1.7146  1.4182  0.5650
 4048SOL     OW23602   1.109   0.171   7.945 -0.3205  0.1861 -0.2548
 4048SOL    HW123603   1.156   0.088   7.955  1.4082  1.2277  0.2872
 4048SOL    HW223604   1.044   0.165   8.015  0.5616 -0.2248  0.5366
 4049SOL     OW23605   4.182   2.984   4.699  0.1233 -0.4364 -0.0414
 4049SOL    HW123606   4.147   2.987   4.610 -0.1501  0.3722  0.0972
 4049SOL    HW223607   4.124   3.046   4.741 -0.0122 -1.1563  0.8227
 4050SOL     OW23608   2.834   2.688  13.112  0.6818 -0.1632  0.0815
 4050SOL    HW123609   2.867   2.739  13.186  1.0120 -0.8688  0.4343
 4050SOL    HW223610   2.799   2.611  13.157  4.0003 -1.8035 -0.1423
 4051SOL     OW23611   3.452   2.506   1.909  0.5483  0.3293  0.1535
 4051SOL    HW123612   3.419   2.423   1.945 -0.6412  1.5057  1.7529
 4051SOL    HW223613   3.544   2.482   1.920  0.1028 -2.2323 -1.6305
 4052SOL     OW23614   2.310   2.963   7.546 -0.2788 -0.4716 -0.1214
 4052SOL    HW123615   2.308   2.891   7.610  1.8693 -1.0466 -0.6952
 4052SOL    HW223616   2.360   3.035   7.584 -1.6391 -0.4703  1.6739
 4053SOL     OW23617   4.716   4.538   4.686 -0.2438 -0.3820  0.4647
 4053SOL    HW123618   0.010   4.626   4.717  0.4842  0.9907 -3.8404
 4053SOL    HW223619   0.056   4.526   4.616 -0.7940 -3.3680  0.4693
 4054SOL     OW23620   1.277   0.616  13.313 -0.0407 -0.0933 -0.1438
 4054SOL    HW123621   1.221   0.682  13.353  2.3899  1.9916 -0.1218
 4054SOL    HW223622   1.292   0.561  13.389  2.7203 -0.7766 -1.1729
 4055SOL     OW23623   1.606   3.963  10.702  0.3328  0.3615 -0.2342
 4055SOL    HW123624   1.638   3.886  10.748  1.5120  0.3007 -1.1408
 4055SOL    HW223625   1.661   4.031  10.742  2.0000 -1.4254  0.5096
 4056SOL     OW23626   1.716   0.189   8.488  0.5939  0.2747 -0.1780
 4056SOL    HW123627   1.719   0.256   8.557 -1.3103 -0.6133  0.7713
 4056SOL    HW223628   1.738   0.241   8.411  0.3176  1.6268  0.6414
 4057SOL     OW23629   0.993   2.882   7.204  0.4080 -0.2284  0.8425
 4057SOL    HW123630   1.055   2.817   7.238  1.3412  0.6979  0.9343
 4057SOL    HW223631   1.064   2.932   7.164  0.7340 -2.2286 -1.0862
 4058SOL     OW23632   0.593   4.049   8.963 -0.1363 -0.5252  0.2925
 4058SOL    HW123633   0.570   4.133   9.001  1.3320 -0.3966  0.8859
 4058SOL    HW223634   0.508   4.006   8.977 -0.7564  1.0113  1.2365
 4059SOL     OW23635   1.623   3.841   0.003  0.8030  0.1304 -0.3112
 4059SOL    HW123636   1.537   3.883   0.013  0.2789 -1.5008  2.1288
 4059SOL    HW223637   1.599   3.793  17.623  1.7809  2.2218 -1.8702
 4060SOL     OW23638   3.612   0.682   3.883 -0.7243 -0.2327 -0.4913
 4060SOL    HW123639   3.547   0.649   3.821  0.6277 -0.3078 -1.8785
 4060SOL    HW223640   3.653   0.596   3.897  0.2973  0.2389 -0.6062
 4061SOL     OW23641   3.333   1.531   2.887  0.3889 -0.1331 -0.0379
 4061SOL    HW123642   3.314   1.594   2.817  1.0553  0.7023  0.5245
 4061SOL    HW223643   3.375   1.463   2.833 -0.1362  0.7552 -1.5859
 4062SOL     OW23644   4.021   0.595   6.499 -0.0206 -0.0901 -0.1487
 4062SOL    HW123645   4.096   0.632   6.452  1.0146 -1.3786  0.5044
 4062SOL    HW223646   4.044   0.504   6.515 -0.9020  0.1818  2.5582
 4063SOL     OW23647   4.043   1.214  10.406 -0.7003 -0.3423 -0.1326
 4063SOL    HW123648   4.002   1.205  10.492 -0.1226 -0.8084  0.0933
 4063SOL    HW223649   4.032   1.309  10.398 -2.0171 -0.5628 -0.9747
 4064SOL     OW23650   2.479   0.017  16.483 -1.0943  0.4711 -0.6376
 4064SOL    HW123651   2.431   0.001  16.565  0.8109 -0.4148  0.3252
 4064SOL    HW223652   2.444   4.669  16.431 -0.9872  0.0415 -0.1236
 4065SOL     OW23653   3.092   0.602  15.935 -0.3861 -0.0305 -0.0786
 4065SOL    HW123654   3.131   0.662  15.872 -1.4057 -1.9761 -2.5500
 4065SOL    HW223655   3.147   0.524  15.933 -0.1914  0.0193  2.7860
 4066SOL     OW23656   0.048   1.400  15.334  0.3904 -0.4388 -0.5485
 4066SOL    HW123657   4.678   1.392  15.351  0.3083 -1.2542 -1.3717
 4066SOL    HW223658   0.067   1.454  15.411 -2.1971 -0.9138  0.4265
 4067SOL     OW23659   4.362   1.291  17.557 -0.7869  0.7125  0.7653
 4067SOL    HW123660   4.366   1.195  17.562  0.0741  0.7659  1.1816
 4067SOL    HW223661   4.437   1.316  17.503 -1.0417 -0.3255 -0.0694
 4068SOL     OW23662   4.081   1.315   6.246 -0.6441  0.1611  0.0217
 4068SOL    HW123663   4.102   1.400   6.285 -2.2353 -0.6170  2.5325
 4068SOL    HW223664   4.129   1.259   6.306  1.4950 -0.6778 -2.4945
 4069SOL     OW23665   0.840   1.600  16.555  0.0405 -0.1790 -0.1297
 4069SOL    HW123666   0.895   1.564  16.485  0.1059 -1.4524  0.5826
 4069SOL    HW223667   0.911   1.618  16.616  0.2490 -1.0374 -0.1130
 4070SOL     OW23668   0.794   4.162  11.764  0.2496 -0.0614  0.1957
 4070SOL    HW123669   0.820   4.230  11.701 -0.5859  1.1512  1.1462
 4070SOL    HW223670   0.703   4.188  11.753  0.6140 -0.0075 -2.5478
 4071SOL     OW23671   1.968   1.573   6.729 -0.3470 -0.3084  0.9386
 4071SOL    HW123672   1.982   1.612   6.816  0.2574  0.6039  0.4352
 4071SOL    HW223673   1.941   1.652   6.682 -0.4092 -0.8380  0.0979
 4072SOL     OW23674   1.117   0.173   4.054 -0.1508  0.1050  0.2369
 4072SOL    HW123675   1.175   0.205   4.123 -0.2197 -1.5190  1.0416
 4072SOL    HW223676   1.059   0.247   4.037 -1.2248 -0.7943 -0.0223
 4073SOL     OW23677   2.236   3.825   9.178 -0.9732  0.0055 -0.1453
 4073SOL    HW123678   2.168   3.889   9.200 -1.0020 -0.6083  1.5313
 4073SOL    HW223679   2.276   3.797   9.260  1.5563  0.3016 -1.2771
 4074SOL     OW23680   4.034   0.794  12.051 -0.1959  0.3049 -0.2886
 4074SOL    HW123681   4.044   0.801  12.146  3.1591  1.9343 -0.7615
 4074SOL    HW223682   4.123   0.800  12.015  0.2554  1.3276  1.0179
 4075SOL     OW23683   1.916   4.302  12.725  0.1762  1.1880  0.5032
 4075SOL    HW123684   1.952   4.214  12.714  1.4213  1.8542 -0.8453
 4075SOL    HW223685   1.949   4.336  12.642  2.1883 -0.4654  0.6416
 4076SOL     OW23686   4.545   2.392   1.593 -0.3527 -0.5534  0.1225
 4076SOL    HW123687   4.608   2.396   1.664  1.2001 -0.2117 -1.2914
 4076SOL    HW223688   4.564   2.478   1.556  0.6824  0.2776  2.6438
 4077SOL     OW23689   2.408   1.111   4.276  0.5844  0.5788 -0.7089
 4077SOL    HW123690   2.461   1.182   4.241  0.2742  0.2213 -1.8953
 4077SOL    HW223691   2.363   1.167   4.340  2.8124  0.1614  1.2402
 4078SOL     OW23692   2.284   0.854  16.220 -0.1801  0.1107 -0.4205
 4078SOL    HW123693   2.232   0.832  16.297 -0.4521  1.7860 -0.1257
 4078SOL    HW223694   2.218   0.894  16.164 -0.1123  0.1148 -0.4988
 4079SOL     OW23695   2.303   2.978  12.566 -0.7765 -0.0639  0.0058
 4079SOL    HW123696   2.219   3.021  12.585 -0.2388  1.2777 -0.6539
 4079SOL    HW223697   2.272   2.899  12.523  1.6679 -2.7304  3.1694
 4080SOL     OW23698   3.933   4.175   2.598 -0.0145 -0.4011  0.1747
 4080SOL    HW123699   3.933   4.156   2.691 -3.3545  0.2455  0.3288
 4080SOL    HW223700   4.027   4.164   2.585  0.1744  0.8131  0.5219
 4081SOL     OW23701   1.720   3.005   0.662  0.1325  0.7307  0.1634
 4081SOL    HW123702   1.667   3.085   0.657 -0.9340  0.0506  0.3584
 4081SOL    HW223703   1.786   3.020   0.729  0.1857 -0.4888  0.3950
 4082SOL     OW23704   3.632   2.417   8.019 -0.0968  0.2163  0.0480
 4082SOL    HW123705   3.646   2.470   8.097 -0.0845  1.3866 -0.7601
 4082SOL    HW223706   3.695   2.461   7.963  0.8274 -2.5136 -1.0450
 4083SOL     OW23707   0.664   0.914   8.192  0.1057 -0.1848  0.8365
 4083SOL    HW123708   0.580   0.876   8.167 -1.1768  1.6587  2.3389
 4083SOL    HW223709   0.660   0.935   8.285  0.5440 -2.3991  1.3676
 4084SOL     OW23710   4.052   0.186   4.085 -0.1813  0.2745  0.5203
 4084SOL    HW123711   4.100   0.107   4.059  1.3406  1.0939  0.8808
 4084SOL    HW223712   3.967   0.143   4.100  0.1308  0.3693  2.5414
 4085SOL     OW23713   0.949   0.912   1.352 -0.2857  0.1013  0.0235
 4085SOL    HW123714   1.007   0.945   1.284  0.9572  1.4145  1.7052
 4085SOL    HW223715   0.985   0.825   1.368  2.0883  0.9219 -0.8010
 4086SOL     OW23716   0.403   4.144   8.573 -0.2526 -0.2179 -0.4802
 4086SOL    HW123717   0.332   4.085   8.546  1.3972 -3.0185  1.3845
 4086SOL    HW223718   0.474   4.080   8.569 -0.3737 -0.4696  1.5891
 4087SOL     OW23719   3.170   1.071   7.424 -0.1680  0.2239  0.3278
 4087SOL    HW123720   3.181   1.156   7.382  1.4939 -0.9267 -1.5296
 4087SOL    HW223721   3.185   1.087   7.517  0.1425 -1.2089  0.5355
 4088SOL     OW23722   2.092   0.290   4.430 -0.2951 -0.0856  0.0812
 4088SOL    HW123723   2.069   0.333   4.348  0.7884  0.0822 -0.1358
 4088SOL    HW223724   2.123   0.207   4.396 -1.0926  0.4232 -1.8779
 4089SOL     OW23725   3.259   1.130   9.463  0.4944 -0.1787  0.1156
 4089SOL    HW123726   3.293   1.074   9.533  2.0623 -0.7424 -1.1108
 4089SOL    HW223727   3.336   1.152   9.411  0.1037 -0.2763 -0.5126
 4090SOL     OW23728   3.182   4.352   7.168 -0.8556 -0.5173  0.0365
 4090SOL    HW123729   3.113   4.418   7.166 -0.1826  0.1872 -0.0699
 4090SOL    HW223730   3.170   4.307   7.252 -1.8807  2.1781  1.3475
 4091SOL     OW23731   1.708   1.351  12.401 -0.1440  0.4370  0.0899
 4091SOL    HW123732   1.765   1.360  12.477 -1.0828 -1.4950  1.0103
 4091SOL    HW223733   1.724   1.257  12.390 -0.9250  0.1800  1.2029
 4092SOL     OW23734   2.015   0.094   4.658  0.0915 -0.2650  0.3601
 4092SOL    HW123735   2.006   0.002   4.634  2.0050 -0.7544  1.5279
 4092SOL    HW223736   2.043   0.127   4.572 -0.4899 -3.1133 -0.9416
 4093SOL     OW23737   4.016   4.130  10.978 -0.8033 -0.5011 -1.0209
 4093SOL    HW123738   3.927   4.136  10.944 -1.4708 -2.9470  0.2651
 4093SOL    HW223739   4.051   4.217  10.960  1.2631 -0.7983  1.5062
 4094SOL     OW23740   1.714   1.826   2.198 -0.1166  0.2302 -0.1418
 4094SOL    HW123741   1.736   1.871   2.116  2.8981  0.4812  0.8072
 4094SOL    HW223742   1.720   1.735   2.169  3.5249  1.1915 -2.2928
 4095SOL     OW23743   1.031   2.296   6.986  0.6246  0.2651  0.1201
 4095SOL    HW123744   1.121   2.274   6.962  0.8420 -0.0531  1.2075
 4095SOL    HW223745   1.007   2.235   7.056  0.1755  0.4802  0.1503
 4096SOL     OW23746   2.235   3.501   7.705  0.1826  0.1479  0.3461
 4096SOL    HW123747   2.145   3.531   7.722  0.0596  0.2950 -0.5829
 4096SOL    HW223748   2.231   3.413   7.741 -1.6978  0.4972  0.9840
 4097SOL     OW23749   1.665   2.739  11.689 -0.0086  0.2909  0.1368
 4097SOL    HW123750   1.724   2.811  11.666 -0.7143  1.0087  0.5742
 4097SOL    HW223751   1.632   2.765  11.775 -0.9480  1.0694 -0.4636
 4098SOL     OW23752   2.220   1.224   2.870  0.3421  0.9458 -0.6640
 4098SOL    HW123753   2.293   1.275   2.834 -0.1612  0.1987 -2.7731
 4098SOL    HW223754   2.238   1.215   2.964  0.1045  0.0225 -0.7018
 4099SOL     OW23755   1.460   3.994   5.734 -0.4706  0.0679  0.3486
 4099SOL    HW123756   1.415   3.949   5.662  1.0711  1.2903 -1.3989
 4099SOL    HW223757   1.399   3.984   5.807 -0.4430  0.4578  0.4233
 4100SOL     OW23758   0.045   3.809  14.936  0.3111  0.3755 -0.1812
 4100SOL    HW123759   0.133   3.799  14.902 -0.2504 -0.3109 -1.4331
 4100SOL    HW223760   0.066   3.892  14.979  0.2362 -0.9938  2.5114
 4101SOL     OW23761   2.876   2.966   7.319  0.3114  0.7761  0.0026
 4101SOL    HW123762   2.867   2.885   7.370 -1.1003  0.5594 -0.6115
 4101SOL    HW223763   2.884   3.032   7.388  0.8182  0.4612  0.2431
 4102SOL     OW23764   2.746   0.878  11.180 -0.4895  0.3559  0.6028
 4102SOL    HW123765   2.838   0.855  11.186 -0.8805 -1.8295 -1.8708
 4102SOL    HW223766   2.724   0.942  11.247 -0.5798  1.6297 -0.6439
 4103SOL     OW23767   2.166   3.358   1.015  0.2991 -0.7534  0.6577
 4103SOL    HW123768   2.108   3.410   0.958  0.0671 -1.1132  0.5661
 4103SOL    HW223769   2.251   3.379   0.977 -1.1423 -0.3810 -2.3693
 4104SOL     OW23770   1.052   2.552   3.117  0.3698  0.0554 -0.2986
 4104SOL    HW123771   1.100   2.632   3.135  0.0516 -0.2266  1.7352
 4104SOL    HW223772   0.982   2.582   3.058 -1.2376 -2.3311  0.3749
 4105SOL     OW23773   1.681   1.922   6.165  0.0980  0.0291 -0.5404
 4105SOL    HW123774   1.704   2.009   6.132 -1.2595  1.4864  2.3933
 4105SOL    HW223775   1.638   1.947   6.246 -0.9232  0.3663 -1.1812
 4106SOL     OW23776   4.417   0.528   3.373 -0.0606 -0.6269  0.6560
 4106SOL    HW123777   4.393   0.440   3.401 -0.6820 -0.8727 -0.6846
 4106SOL    HW223778   4.500   0.540   3.421  0.9605 -0.8722 -1.0604
 4107SOL     OW23779   0.830   0.695   9.865 -0.5984  0.5348  0.0191
 4107SOL    HW123780   0.817   0.661   9.776  1.0322 -2.2803  0.8521
 4107SOL    HW223781   0.742   0.690   9.900 -0.1386 -2.2922  0.7275
 4108SOL     OW23782   1.300   0.432   5.117 -0.0052 -0.1053 -0.1664
 4108SOL    HW123783   1.255   0.360   5.073 -1.3705 -0.5847  2.0106
 4108SOL    HW223784   1.245   0.440   5.195 -0.8155 -2.2221 -0.5001
 4109SOL     OW23785   3.426   1.292   3.318  0.2809 -0.3478  0.3356
 4109SOL    HW123786   3.513   1.252   3.310  1.3287  2.2346 -1.2642
 4109SOL    HW223787   3.391   1.305   3.230  0.0564  1.1166  0.6360
 4110SOL     OW23788   0.366   2.866  10.404  0.6145 -0.7175  0.4129
 4110SOL    HW123789   0.431   2.920  10.360 -0.8497  0.3912 -0.3850
 4110SOL    HW223790   0.411   2.848  10.487 -0.5653  0.2272  1.2623
 4111SOL     OW23791   0.681   1.493  12.152  0.1664  0.4347 -0.0526
 4111SOL    HW123792   0.630   1.566  12.116 -2.0618 -0.3470  1.5357
 4111SOL    HW223793   0.765   1.516  12.112  0.0183 -0.9167 -1.1377
 4112SOL     OW23794   2.374   4.404   4.184  0.7003  0.1004 -0.0922
 4112SOL    HW123795   2.468   4.411   4.196  0.6451  1.5070 -0.3912
 4112SOL    HW223796   2.337   4.419   4.271  0.4036  2.4220 -0.6095
 4113SOL     OW23797   1.115   2.113   7.210  0.1042  0.0748  0.2745
 4113SOL    HW123798   1.186   2.086   7.152  0.0420 -0.7191  0.5706
 4113SOL    HW223799   1.119   2.045   7.276 -2.7927 -0.7051 -0.3312
 4114SOL     OW23800   4.048   3.943  15.681 -0.5558 -0.2273 -0.1773
 4114SOL    HW123801   3.966   3.963  15.725 -0.2675  2.5674 -0.9029
 4114SOL    HW223802   4.058   3.847  15.681  0.5450 -0.1140  0.6678
 4115SOL     OW23803   2.866   3.932   8.497  0.4087  0.0070  0.4602
 4115SOL    HW123804   2.877   3.915   8.403  0.4180  2.6662 -0.0412
 4115SOL    HW223805   2.772   3.929   8.514  0.6623 -1.1921  1.5961
 4116SOL     OW23806   3.191   0.363   6.066 -0.1967 -0.3661 -0.1312
 4116SOL    HW123807   3.284   0.382   6.077 -0.2921 -0.0807  0.1683
 4116SOL    HW223808   3.147   0.445   6.088  1.9426  0.6926  0.1768
 4117SOL     OW23809   2.371   1.208   6.809  0.2214 -0.2467 -0.0662
 4117SOL    HW123810   2.339   1.271   6.744  0.6667 -0.2117 -0.2552
 4117SOL    HW223811   2.459   1.198   6.773  0.8833 -0.4797  1.6618
 4118SOL     OW23812   2.281   0.781   3.832 -0.0040  0.0128  0.8667
 4118SOL    HW123813   2.306   0.818   3.917  1.2146  0.4579  0.3176
 4118SOL    HW223814   2.351   0.718   3.814 -1.0134 -1.1693  1.1345
 4119SOL     OW23815   3.525   3.938   0.976 -0.7512  0.3756  0.0006
 4119SOL    HW123816   3.498   4.029   0.967  2.1054  1.1761 -0.2427
 4119SOL    HW223817   3.493   3.915   0.889  1.4463 -0.5421 -0.5552
 4120SOL     OW23818   1.753   1.336   2.508 -0.0632 -0.0281 -0.2876
 4120SOL    HW123819   1.668   1.376   2.522  0.7288  0.6497  2.6106
 4120SOL    HW223820   1.775   1.307   2.596  2.7036  1.2858 -0.5225
 4121SOL     OW23821   0.582   0.584  16.625 -0.0016  0.1159 -0.0028
 4121SOL    HW123822   0.631   0.525  16.568  0.1315  0.4865 -0.2706
 4121SOL    HW223823   0.496   0.588  16.582 -1.2562  1.5779  2.6095
 4122SOL     OW23824   0.374   0.950  11.330  0.1528  0.1288  0.1297
 4122SOL    HW123825   0.286   0.984  11.317  0.8229  1.3947 -1.0703
 4122SOL    HW223826   0.395   0.997  11.411 -0.4848  1.1031 -0.2893
 4123SOL     OW23827   2.713   2.930   4.645 -0.0522  0.1851 -0.0202
 4123SOL    HW123828   2.731   3.012   4.691  2.7426  1.1456 -2.8774
 4123SOL    HW223829   2.803   2.927   4.614  0.5185 -2.4870  1.7798
 4124SOL     OW23830   0.030   0.053   6.038  0.0349  0.4576 -0.2888
 4124SOL    HW123831   4.690   4.716   6.002 -0.1333  0.3590  0.1900
 4124SOL    HW223832   0.015   0.027   6.129  0.7179  1.5600  0.1346
 4125SOL     OW23833   3.792   2.099   3.883 -0.1862  0.3661 -0.0533
 4125SOL    HW123834   3.879   2.081   3.918  0.6032  0.7158 -1.8068
 4125SOL    HW223835   3.753   2.012   3.882  1.6768 -0.4691  0.7300
 4126SOL     OW23836   0.637   4.222   4.264  0.0499 -0.8172 -0.1448
 4126SOL    HW123837   0.581   4.270   4.325 -0.3198  1.7671 -2.4967
 4126SOL    HW223838   0.688   4.292   4.222 -0.4277  0.4775  1.4326
 4127SOL     OW23839   4.521   3.633   2.677 -0.5541 -0.0027  0.3305
 4127SOL    HW123840   4.460   3.560   2.669 -1.1602  0.7819 -2.3333
 4127SOL    HW223841   4.493   3.687   2.603 -0.0775 -0.8028 -0.4309
 4128SOL     OW23842   3.552   3.101   6.612 -0.2465  0.6064 -0.1034
 4128SOL    HW123843   3.525   3.063   6.529 -0.4197 -1.8362  1.0845
 4128SOL    HW223844   3.640   3.130   6.586  0.2946 -1.3277 -0.3851
 4129SOL     OW23845   0.318   3.331  15.294  0.2662 -0.1862 -0.7060
 4129SOL    HW123846   0.395   3.367  15.249  1.9945 -1.4439  1.2239
 4129SOL    HW223847   0.269   3.304  15.216  2.7333 -1.3928 -1.8709
 4130SOL     OW23848   0.065   3.786  12.901 -0.5238 -0.3767 -0.1456
 4130SOL    HW123849   0.037   3.825  12.984 -1.7585 -1.0839 -0.2370
 4130SOL    HW223850   0.042   3.857  12.841  1.7572  0.1073 -0.4520
 4131SOL     OW23851   0.260   0.343  10.963 -0.1041 -0.3010  0.1335
 4131SOL    HW123852   0.312   0.421  10.981  0.6574 -0.8920  0.4950
 4131SOL    HW223853   0.215   0.331  11.046 -1.7595 -0.8163 -0.8532
 4132SOL     OW23854   0.819   1.244  14.025 -0.4723 -0.2413 -0.4892
 4132SOL    HW123855   0.783   1.317  14.075 -1.9723 -1.4088  0.1414
 4132SOL    HW223856   0.904   1.279  13.999 -0.5599  0.1766 -0.2139
 4133SOL     OW23857   2.296   3.817  11.547 -0.1234 -0.0460 -0.1488
 4133SOL    HW123858   2.225   3.881  11.542  1.1254  1.1265 -2.5754
 4133SOL    HW223859   2.376   3.866  11.530 -0.5022  0.3906 -0.6704
 4134SOL     OW23860   0.110   2.537   3.838 -0.4384 -0.1856  0.5689
 4134SOL    HW123861   0.052   2.558   3.912  0.2312  1.3156  0.6836
 4134SOL    HW223862   0.183   2.584   3.878 -0.5023 -0.9853  1.6267
 4135SOL     OW23863   3.585   2.856  15.320 -0.1733 -0.0549 -0.2563
 4135SOL    HW123864   3.535   2.870  15.400  1.5024 -0.7112  0.9115
 4135SOL    HW223865   3.588   2.760  15.324 -2.4995 -0.1723 -1.3921
 4136SOL     OW23866   0.451   3.978   4.620  0.4058 -0.2200 -0.3175
 4136SOL    HW123867   0.497   4.058   4.644  1.4738 -1.6080  2.3202
 4136SOL    HW223868   0.414   4.012   4.539 -0.0638 -1.6686 -0.7152
 4137SOL     OW23869   4.190   1.972   5.281  0.5437  0.2930 -0.0635
 4137SOL    HW123870   4.236   1.914   5.342  1.3559  1.3414  0.3246
 4137SOL    HW223871   4.223   2.056   5.314  0.0883  0.7424 -0.7563
 4138SOL     OW23872   1.666   0.049  17.586  0.1221 -0.6077 -0.4831
 4138SOL    HW123873   1.626   4.687  17.600 -1.5360  0.6914  2.8800
 4138SOL    HW223874   1.611   0.076  17.513  2.0552  0.7627 -1.4127
 4139SOL     OW23875   0.420   1.025   9.998 -0.0630  0.2136  0.3055
 4139SOL    HW123876   0.379   1.035   9.912 -0.7820 -1.5138  0.4521
 4139SOL    HW223877   0.403   1.112  10.034 -0.6327  0.7173 -1.1870
 4140SOL     OW23878   3.882   1.668   6.359  0.1347  0.8715  0.0843
 4140SOL    HW123879   3.940   1.656   6.434  0.6845 -0.8064 -0.6044
 4140SOL    HW223880   3.920   1.750   6.329  0.5858 -0.4990 -3.0802
 4141SOL     OW23881   0.382   3.068   6.961  0.0908 -0.2268 -0.0021
 4141SOL    HW123882   0.428   3.048   6.880 -1.8756  0.1473 -1.2134
 4141SOL    HW223883   0.303   3.016   6.952  0.7425 -0.3429 -4.7141
 4142SOL     OW23884   1.267   1.359   8.648  0.1360 -0.3989 -0.2483
 4142SOL    HW123885   1.358   1.330   8.652  0.5501  0.6526 -2.0600
 4142SOL    HW223886   1.280   1.441   8.602  0.1308  0.1211  0.6907
 4143SOL     OW23887   4.528   2.980   8.277  0.4512 -0.3279  0.7260
 4143SOL    HW123888   4.473   2.942   8.209 -0.4983 -1.4882  2.1352
 4143SOL    HW223889   4.472   2.978   8.355  3.1571 -1.2766  2.6235
 4144SOL     OW23890   1.369   1.408   2.786  0.6818  0.5285  0.4619
 4144SOL    HW123891   1.360   1.499   2.757 -2.3517  0.5026  1.3412
 4144SOL    HW223892   1.277   1.381   2.784  0.1639  2.1466  2.7115
 4145SOL     OW23893   2.320   0.880   9.871 -0.0161  0.3871 -0.6494
 4145SOL    HW123894   2.279   0.928   9.800  2.7384  0.1960 -2.3939
 4145SOL    HW223895   2.318   0.791   9.834  1.3290  0.1154 -0.0698
 4146SOL     OW23896   0.254   1.713  10.570 -0.0074  0.2489 -0.2315
 4146SOL    HW123897   0.227   1.730  10.661  0.5479 -0.2774  0.0306
 4146SOL    HW223898   0.218   1.627  10.549  0.6826  0.3091 -1.6420
 4147SOL     OW23899   0.126   3.825   3.243 -0.3202  0.4301  0.2120
 4147SOL    HW123900   0.201   3.785   3.198 -0.5437 -1.0232  1.1245
 4147SOL    HW223901   0.144   3.805   3.335 -0.9698 -2.0592 -0.1940
 4148SOL     OW23902   2.588   0.323   5.553  0.1501 -0.1934 -0.1676
 4148SOL    HW123903   2.516   0.279   5.509 -0.6793 -0.0567  1.0624
 4148SOL    HW223904   2.644   0.337   5.476  0.6008  0.7577  0.3263
 4149SOL     OW23905   2.737   4.712  12.900 -0.0804 -0.6424 -0.5215
 4149SOL    HW123906   2.745   4.617  12.895 -0.6553 -0.6712 -1.0505
 4149SOL    HW223907   2.689   0.004  12.981  1.0884  1.0593 -0.1871
 4150SOL     OW23908   0.700   4.274  12.629 -0.5565 -0.2942 -0.1333
 4150SOL    HW123909   0.756   4.337  12.583 -1.9950 -0.0468 -1.5391
 4150SOL    HW223910   0.701   4.309  12.718  0.4147  1.1257 -0.6968
 4151SOL     OW23911   2.802   2.866   6.975 -0.0451  0.0494  0.3377
 4151SOL    HW123912   2.795   2.782   7.020 -1.3243 -0.3962 -0.6974
 4151SOL    HW223913   2.891   2.885   7.007  0.1077  0.4762 -0.3439
 4152SOL     OW23914   4.385   0.358   8.153 -0.1205 -0.2048  0.1563
 4152SOL    HW123915   4.464   0.365   8.206  0.8497 -0.1349 -1.2752
 4152SOL    HW223916   4.357   0.449   8.155 -0.1270 -0.1462 -2.2418
 4153SOL     OW23917   3.020   0.479   6.304  0.1506 -0.7522  0.5446
 4153SOL    HW123918   2.962   0.498   6.377  0.0669  0.3504  0.2054
 4153SOL    HW223919   2.964   0.504   6.230  2.0693  0.5355 -0.4858
 4154SOL     OW23920   2.052   3.502   3.189 -0.2788 -0.3881 -0.1788
 4154SOL    HW123921   2.049   3.597   3.184 -1.2579 -0.4964 -1.5960
 4154SOL    HW223922   2.107   3.471   3.116  0.8848  0.6345  0.2540
 4155SOL     OW23923   0.428   2.860   6.480  0.1801  0.1496  0.2159
 4155SOL    HW123924   0.381   2.802   6.540 -0.6846 -0.7055 -1.2816
 4155SOL    HW223925   0.363   2.879   6.412 -0.8001  1.6629  1.5834
 4156SOL     OW23926   3.781   4.095   3.656  0.2226 -0.0802 -0.2160
 4156SOL    HW123927   3.862   4.146   3.654 -1.3962  2.4147 -2.4575
 4156SOL    HW223928   3.721   4.146   3.602 -1.4434 -0.1081  1.5797
 4157SOL     OW23929   0.408   4.149   6.133 -0.2971 -0.3647  0.1706
 4157SOL    HW123930   0.368   4.145   6.047  1.2855 -2.6491 -0.4828
 4157SOL    HW223931   0.476   4.216   6.127 -2.1200  1.2817 -1.9434
 4158SOL     OW23932   3.667   4.271  14.957  0.2205 -0.3341 -0.1240
 4158SOL    HW123933   3.662   4.366  14.969  1.3299 -0.1651 -0.9987
 4158SOL    HW223934   3.761   4.257  14.969 -0.0392 -1.7247  0.1818
 4159SOL     OW23935   1.478   2.213   6.602 -0.5635  0.1084  0.3491
 4159SOL    HW123936   1.449   2.266   6.528 -1.4129 -1.0386 -0.1375
 4159SOL    HW223937   1.564   2.252   6.619 -1.1524  0.2294  3.0476
 4160SOL     OW23938   3.874   0.726   5.413 -0.2157  0.0698 -0.0893
 4160SOL    HW123939   3.914   0.812   5.398  0.3296 -0.0350  0.7941
 4160SOL    HW223940   3.794   0.743   5.463 -0.9296 -2.2225 -0.4439
 4161SOL     OW23941   4.564   4.013   3.552  0.1115  0.1509 -0.1182
 4161SOL    HW123942   4.567   4.068   3.474 -3.0699 -0.2418 -0.4944
 4161SOL    HW223943   4.627   4.056   3.611  0.5428 -2.7312  1.4988
 4162SOL     OW23944   1.743   3.456   3.125  0.8672 -0.7928  0.0392
 4162SOL    HW123945   1.710   3.545   3.131  0.4283 -0.7734 -2.5184
 4162SOL    HW223946   1.832   3.477   3.152  0.5499  2.7280 -1.6328
 4163SOL     OW23947   3.684   0.409   3.981 -0.0965 -0.3139 -0.4625
 4163SOL    HW123948   3.592   0.422   4.006 -0.0123 -0.2985 -0.1573
 4163SOL    HW223949   3.711   0.369   4.064 -0.0543 -1.4920 -1.0509
 4164SOL     OW23950   3.938   0.788  14.855 -0.2686 -0.0014 -0.2615
 4164SOL    HW123951   3.862   0.831  14.895  0.5507  1.0498  0.1668
 4164SOL    HW223952   4.006   0.824  14.912 -0.1873 -2.2668  1.0637
 4165SOL     OW23953   3.439   0.225   1.330  0.4501 -0.2836  0.9838
 4165SOL    HW123954   3.435   0.265   1.417 -1.8171 -0.0722  0.7757
 4165SOL    HW223955   3.527   0.251   1.303 -0.1616 -1.0108 -1.7236
 4166SOL     OW23956   4.525   0.785   3.621  0.0214  0.7298  0.0329
 4166SOL    HW123957   4.596   0.738   3.664 -3.1620 -2.6821  1.5888
 4166SOL    HW223958   4.469   0.795   3.698 -2.4704 -1.1487 -1.4940
 4167SOL     OW23959   3.202   0.984   7.072  0.4317 -0.0189 -0.1641
 4167SOL    HW123960   3.243   0.924   7.134 -1.5260  0.0908  1.2294
 4167SOL    HW223961   3.210   0.935   6.990  1.4535 -0.0908 -0.0237
 4168SOL     OW23962   3.623   2.524   0.264  0.2037  0.2213 -0.0590
 4168SOL    HW123963   3.556   2.592   0.258 -1.2320 -1.1636  0.2428
 4168SOL    HW223964   3.655   2.518   0.174 -1.8524  0.5276 -0.8068
 4169SOL     OW23965   2.245   1.081   7.934 -0.2542 -0.0036  0.8015
 4169SOL    HW123966   2.195   1.091   7.853  1.5282 -2.0332 -0.5224
 4169SOL    HW223967   2.327   1.129   7.920 -1.4219  1.4099 -1.1464
 4170SOL     OW23968   1.203   3.455  15.921 -0.3585  0.0228 -0.0798
 4170SOL    HW123969   1.238   3.366  15.928 -2.3182 -0.9164 -2.3615
 4170SOL    HW223970   1.242   3.486  15.839 -0.5449 -0.0195 -0.1829
 4171SOL     OW23971   2.571   3.692  17.473 -0.2215 -0.2896 -0.1994
 4171SOL    HW123972   2.568   3.598  17.491  1.0905  0.1576  2.3619
 4171SOL    HW223973   2.638   3.701  17.406 -0.8332  0.3852 -0.7168
 4172SOL     OW23974   0.493   0.817  10.149 -0.5595  0.5947  0.0211
 4172SOL    HW123975   0.477   0.896  10.099 -0.7646  1.2105  1.0525
 4172SOL    HW223976   0.519   0.761  10.076 -2.4862  1.1426 -1.0500
 4173SOL     OW23977   2.188   2.876   7.188 -0.2730  0.2195 -0.0534
 4173SOL    HW123978   2.226   2.790   7.166 -1.5149 -0.8339  1.9614
 4173SOL    HW223979   2.218   2.916   7.106 -1.8723  3.2058  0.8386
 4174SOL     OW23980   0.518   2.472  16.514  0.0086 -0.1639  0.1320
 4174SOL    HW123981   0.543   2.389  16.473  0.6404 -0.0640  0.3121
 4174SOL    HW223982   0.596   2.497  16.564  1.5944 -0.6375 -2.0991
 4175SOL     OW23983   3.967   2.031  12.272  0.6819  0.4138 -0.0015
 4175SOL    HW123984   3.991   1.986  12.191 -0.8429 -1.1178  0.3998
 4175SOL    HW223985   3.883   1.994  12.298  0.2904  2.2512  1.3708
 4176SOL     OW23986   0.983   0.993   5.466 -0.7800 -0.0423 -0.2113
 4176SOL    HW123987   1.032   1.039   5.535 -2.8423  3.4135 -1.0625
 4176SOL    HW223988   1.006   1.045   5.389 -1.0813 -0.4034 -0.5438
 4177SOL     OW23989   2.227   4.219   2.369  0.2982 -0.1344  0.5613
 4177SOL    HW123990   2.303   4.264   2.333 -0.8410  0.5873 -0.9601
 4177SOL    HW223991   2.148   4.252   2.325  0.2569 -0.0645  0.6887
 4178SOL     OW23992   2.574   2.129   5.374  0.8568 -0.3794  0.5028
 4178SOL    HW123993   2.506   2.166   5.430 -1.5124 -1.6621 -1.5432
 4178SOL    HW223994   2.575   2.034   5.386  0.7368 -0.4470 -0.0322
 4179SOL     OW23995   2.344   2.847   3.401  0.0871  0.2587  0.2662
 4179SOL    HW123996   2.322   2.938   3.419  2.8549  0.5603  2.0332
 4179SOL    HW223997   2.432   2.863   3.367  0.5126 -0.8548  0.8733
 4180SOL     OW23998   0.311   1.182   7.265  0.3086 -0.3417 -0.3832
 4180SOL    HW123999   0.381   1.138   7.314  0.5992 -0.7953 -1.2046
 4180SOL    HW224000   0.335   1.274   7.259  0.0311 -0.4620 -3.2670
 4181SOL     OW24001   3.194   3.378   9.621  0.2174  1.0215  0.3652
 4181SOL    HW124002   3.143   3.297   9.620  0.6536  0.7621 -3.3075
 4181SOL    HW224003   3.226   3.376   9.531 -0.7146 -1.3269  0.0822
 4182SOL     OW24004   0.504   4.039  14.682 -0.3355  0.3184  0.0675
 4182SOL    HW124005   0.426   4.031  14.628  1.3659  1.1934 -2.5157
 4182SOL    HW224006   0.533   3.949  14.666 -1.1869  0.1762 -0.6408
 4183SOL     OW24007   1.913   2.540   4.306 -0.2399 -0.1734  0.0469
 4183SOL    HW124008   1.977   2.469   4.302 -0.5840 -0.4600 -0.3499
 4183SOL    HW224009   1.964   2.606   4.260  0.2313 -1.0376 -0.6710
 4184SOL     OW24010   1.176   2.261   3.194 -0.2960  0.3533 -0.2849
 4184SOL    HW124011   1.177   2.309   3.111  0.7496  0.8798  0.0260
 4184SOL    HW224012   1.105   2.308   3.237  1.3074  2.9072 -0.4066
 4185SOL     OW24013   1.488   3.454  16.048 -0.6838 -0.1133 -0.3775
 4185SOL    HW124014   1.549   3.448  16.121  1.5024  1.1829 -2.1135
 4185SOL    HW224015   1.417   3.501  16.091 -1.2785 -0.4801 -0.9470
 4186SOL     OW24016   2.073   0.452   0.748 -0.1219  0.4191  0.3803
 4186SOL    HW124017   2.013   0.524   0.727 -0.1487 -0.1227 -1.4318
 4186SOL    HW224018   2.134   0.465   0.676 -0.1978  1.4101  0.4910
 4187SOL     OW24019   3.435   4.404   0.783  0.3603 -0.3083  0.5053
 4187SOL    HW124020   3.457   4.466   0.852 -1.1935 -0.8226  1.4670
 4187SOL    HW224021   3.490   4.430   0.710  0.4693 -0.5021  0.5192
 4188SOL     OW24022   4.469   1.973   2.171  0.1227  0.3857 -0.2823
 4188SOL    HW124023   4.375   1.980   2.191  0.3642  2.5215  0.1146
 4188SOL    HW224024   4.467   1.893   2.119  0.0715 -0.7585  1.4606
 4189SOL     OW24025   3.040   1.348   3.910  0.1834 -0.1579  0.3611
 4189SOL    HW124026   2.995   1.432   3.900  2.7674  1.1772 -0.0487
 4189SOL    HW224027   3.071   1.341   3.820 -2.8141 -1.6192 -0.5781
 4190SOL     OW24028   3.420   0.236   1.966  0.2160 -0.5138 -0.3102
 4190SOL    HW124029   3.335   0.214   2.005  0.5373  0.2519  0.8219
 4190SOL    HW224030   3.411   0.330   1.952  0.5467 -0.1645  1.8957
 4191SOL     OW24031   1.199   2.798   3.604  0.0612  0.2733 -0.1842
 4191SOL    HW124032   1.134   2.772   3.668  1.2174  1.6927  1.5629
 4191SOL    HW224033   1.248   2.864   3.653  1.5702 -0.8293 -0.1760
 4192SOL     OW24034   3.955   1.820   3.312 -0.5343 -0.4441  0.4129
 4192SOL    HW124035   3.900   1.771   3.251 -1.4159  2.3326 -1.0372
 4192SOL    HW224036   4.036   1.831   3.263 -0.4574 -1.0496  0.4071
 4193SOL     OW24037   3.447   2.279   9.125 -0.3295 -0.2838  0.0844
 4193SOL    HW124038   3.402   2.344   9.179 -1.0364 -1.4916  0.9518
 4193SOL    HW224039   3.512   2.246   9.188 -0.3475  0.0898  0.2957
 4194SOL     OW24040   1.741   4.363  10.096 -0.7763 -0.4743  0.2294
 4194SOL    HW124041   1.813   4.393  10.040 -0.1584 -2.8738 -0.2759
 4194SOL    HW224042   1.697   4.296  10.044  1.5222 -1.6859 -0.1873
 4195SOL     OW24043   2.065   2.535  14.487 -0.2187  0.1238 -0.4096
 4195SOL    HW124044   2.090   2.582  14.407 -1.0946  0.0913 -0.6992
 4195SOL    HW224045   2.126   2.462  14.494 -0.3348  0.0277 -0.3973
 4196SOL     OW24046   3.127   1.217   7.667 -0.3190  0.4837 -0.0532
 4196SOL    HW124047   3.059   1.227   7.600 -0.5958 -0.8596  0.0224
 4196SOL    HW224048   3.083   1.163   7.733  0.7863  0.3300  0.5587
 4197SOL     OW24049   3.734   3.092   3.695  0.1869  0.4053  0.1885
 4197SOL    HW124050   3.805   3.127   3.749 -1.7581  0.6780  2.5519
 4197SOL    HW224051   3.743   3.145   3.615 -0.1182 -2.0366 -1.4691
 4198SOL     OW24052   3.018   0.909   3.504 -0.1616 -0.3177  0.2282
 4198SOL    HW124053   3.027   0.814   3.515  3.5468  0.1075  0.7675
 4198SOL    HW224054   3.105   0.949   3.506 -0.6298  0.7467 -0.7663
 4199SOL     OW24055   0.811   2.878   1.620  0.2500  0.1422 -0.0892
 4199SOL    HW124056   0.841   2.890   1.530  3.3044 -0.9739  0.7797
 4199SOL    HW224057   0.725   2.920   1.626  1.3062  2.0834  1.4406
 4200SOL     OW24058   4.533   1.709   4.141 -0.1116  0.5402 -0.0174
 4200SOL    HW124059   4.479   1.776   4.183  0.9535 -0.4927  2.9906
 4200SOL    HW224060   4.569   1.668   4.219 -0.6215 -2.1789 -1.2251
 4201SOL     OW24061   2.787   4.388   4.803  0.1856  0.5109 -0.2563
 4201SOL    HW124062   2.826   4.463   4.846 -2.5417  0.9019  1.5272
 4201SOL    HW224063   2.819   4.403   4.714  0.1795  0.3561 -0.2844
 4202SOL     OW24064   2.334   3.892   7.740 -0.2630  0.6282  0.7092
 4202SOL    HW124065   2.253   3.884   7.790 -1.4246  0.4458 -1.2068
 4202SOL    HW224066   2.356   3.984   7.756  1.4424  0.1844  0.9127
 4203SOL     OW24067   3.633   4.560   7.263 -0.4636 -0.2371  0.1128
 4203SOL    HW124068   3.680   4.498   7.206  1.2991  0.2749  1.0112
 4203SOL    HW224069   3.679   4.544   7.345 -0.5893 -0.9818  0.0406
 4204SOL     OW24070   1.211   2.429  13.094 -0.4071  0.5243 -0.7938
 4204SOL    HW124071   1.236   2.338  13.110 -0.4449  0.8173  0.9717
 4204SOL    HW224072   1.295   2.474  13.087  0.1521 -0.7255 -1.9785
 4205SOL     OW24073   1.631   1.388   8.250  0.4423  0.0472 -0.5044
 4205SOL    HW124074   1.713   1.436   8.261  0.4463 -0.3153  1.0489
 4205SOL    HW224075   1.645   1.359   8.160 -0.3627 -0.4770 -0.4579
 4206SOL     OW24076   3.001   3.272   1.411  0.3716  0.0455  0.1669
 4206SOL    HW124077   3.015   3.178   1.415  2.3646  0.3178 -0.8670
 4206SOL    HW224078   2.906   3.269   1.424  0.3012  1.8239  0.1157
 4207SOL     OW24079   4.396   4.594   4.524 -0.4564 -0.3498  0.1126
 4207SOL    HW124080   4.469   4.563   4.471  0.0603  0.4032  0.3786
 4207SOL    HW224081   4.377   4.520   4.582 -0.0185 -1.5207 -1.2393
 4208SOL     OW24082   3.305   0.475  12.966  0.0817 -0.4161 -0.1480
 4208SOL    HW124083   3.312   0.385  12.933 -4.3304 -0.6608 -0.4867
 4208SOL    HW224084   3.330   0.527  12.890 -0.4218 -0.5122 -0.3811
 4209SOL     OW24085   3.117   2.219   7.771 -0.5929  0.3320  0.0304
 4209SOL    HW124086   3.144   2.134   7.736  1.4250  0.1814  1.9318
 4209SOL    HW224087   3.173   2.268   7.711  2.0065 -2.3087  0.2952
 4210SOL     OW24088   3.004   1.462  14.483 -0.2695  0.0420 -0.2775
 4210SOL    HW124089   2.982   1.414  14.563  0.9448  2.4501  1.5164
 4210SOL    HW224090   3.096   1.484  14.498 -0.3670  0.9245 -0.9632
 4211SOL     OW24091   1.665   4.209   4.567  0.7520 -1.0244  0.3370
 4211SOL    HW124092   1.714   4.173   4.641 -0.7904 -0.9820  1.3770
 4211SOL    HW224093   1.628   4.289   4.606  0.1585 -1.8054  1.3506
 4212SOL     OW24094   1.576   2.244   2.191  0.4144  0.9538 -0.6292
 4212SOL    HW124095   1.612   2.221   2.276  1.8189  0.9912 -1.2185
 4212SOL    HW224096   1.635   2.318   2.176  1.6211  0.1355  0.0991
 4213SOL     OW24097   4.091   3.728   7.459  0.6148  0.4154 -0.1361
 4213SOL    HW124098   4.160   3.742   7.393  0.6481 -0.9212 -0.3723
 4213SOL    HW224099   4.107   3.801   7.519  2.0257  0.6733 -0.8232
 4214SOL     OW24100   2.912   3.013   2.901 -0.5275 -0.0540  0.2552
 4214SOL    HW124101   2.882   3.099   2.929 -1.8724 -0.0895 -1.0493
 4214SOL    HW224102   2.960   2.985   2.979 -1.8284 -2.9474  0.0459
 4215SOL     OW24103   3.857   0.184   1.964  0.1407  0.1248 -0.6205
 4215SOL    HW124104   3.838   0.278   1.967  1.4641  0.3855 -0.3496
 4215SOL    HW224105   3.852   0.179   1.868  0.7496 -0.6879 -0.6059
 4216SOL     OW24106   1.547   4.427   0.758  0.1348  0.3061  0.4687
 4216SOL    HW124107   1.492   4.499   0.727  1.1113  0.8769  0.0807
 4216SOL    HW224108   1.558   4.377   0.677 -1.4149  0.3712  0.2220
 4217SOL     OW24109   0.696   3.836   3.493  0.6649 -0.1385 -0.3560
 4217SOL    HW124110   0.706   3.772   3.423  1.2270  1.1644 -1.4540
 4217SOL    HW224111   0.675   3.922   3.455 -0.5873 -0.7272 -1.0046
 4218SOL     OW24112   3.995   1.536   1.665  0.1348  0.1216 -0.1691
 4218SOL    HW124113   4.056   1.600   1.629  1.6153  0.8778  3.6749
 4218SOL    HW224114   3.983   1.483   1.587 -1.7584 -0.2438  0.3685
 4219SOL     OW24115   2.215   1.559   5.050  0.2840 -0.2561  0.1685
 4219SOL    HW124116   2.257   1.632   5.005  3.6946 -2.6674 -0.5724
 4219SOL    HW224117   2.264   1.551   5.132 -0.7312 -1.2377  0.6982
 4220SOL     OW24118   2.197   1.741   8.073 -0.2608  0.0544  0.0742
 4220SOL    HW124119   2.162   1.716   8.159  3.5231 -0.4308  1.5170
 4220SOL    HW224120   2.231   1.652   8.061 -0.7504 -0.0694 -0.3574
 4221SOL     OW24121   1.336   3.009   8.517  0.3531  0.6299  0.1869
 4221SOL    HW124122   1.338   2.914   8.508 -1.8839  0.5185  0.7880
 4221SOL    HW224123   1.427   3.022   8.490  1.0011 -2.0291  1.0944
 4222SOL     OW24124   4.562   1.017  17.598  0.4870 -0.3560 -0.9003
 4222SOL    HW124125   4.650   1.026  17.636  0.3298  2.5883 -1.1883
 4222SOL    HW224126   4.576   1.041  17.506  0.7480  0.9689 -0.5232
 4223SOL     OW24127   4.243   0.609   3.566 -0.2715 -0.2982  0.1119
 4223SOL    HW124128   4.314   0.613   3.502 -1.0478  0.8902 -0.6788
 4223SOL    HW224129   4.167   0.603   3.508 -0.0973  0.3624 -0.1837
 4224SOL     OW24130   1.211   0.004  12.918 -0.0850  0.5468  0.2213
 4224SOL    HW124131   1.259   4.717  12.836 -0.3479 -1.4949  0.3514
 4224SOL    HW224132   1.247   4.667  12.982 -0.1244 -0.0091 -0.2964
 4225SOL     OW24133   1.769   1.928   8.838  0.5598 -0.4154  0.3815
 4225SOL    HW124134   1.823   2.005   8.826 -0.4678  0.0187 -1.4092
 4225SOL    HW224135   1.820   1.856   8.800  0.5913 -0.3986  0.3928
 4226SOL     OW24136   3.133   0.600  15.159 -0.1874 -0.1968  0.4276
 4226SOL    HW124137   3.114   0.530  15.222 -1.2390  1.1608  1.6372
 4226SOL    HW224138   3.161   0.668  15.220  0.0295 -1.5226  1.8088
 4227SOL     OW24139   3.076   0.711   3.110  0.0473  0.4105  0.5475
 4227SOL    HW124140   3.014   0.652   3.153 -1.6283  0.8747 -1.2366
 4227SOL    HW224141   3.158   0.667   3.132  0.6361  1.7866  1.0763
 4228SOL     OW24142   3.536   3.111   8.554  0.1770  0.3083  0.1004
 4228SOL    HW124143   3.444   3.096   8.533 -0.4021  0.7798  2.2205
 4228SOL    HW224144   3.538   3.172   8.628 -1.8775  2.3078 -1.5029
 4229SOL     OW24145   1.915   2.788   2.724 -0.0716 -0.0412 -0.5054
 4229SOL    HW124146   1.981   2.720   2.735 -0.7873 -0.7885 -0.7931
 4229SOL    HW224147   1.834   2.739   2.740  0.0870  0.0736  0.6569
 4230SOL     OW24148   2.875   1.577   3.845  0.8308  0.2412 -0.4967
 4230SOL    HW124149   2.880   1.580   3.749  2.0704 -0.6517 -0.4694
 4230SOL    HW224150   2.921   1.659   3.862 -0.2330  0.7517 -0.0991
 4231SOL     OW24151   3.400   0.592  12.077  0.2421  0.2595 -0.4484
 4231SOL    HW124152   3.437   0.640  12.003  3.7243  0.1952  1.2387
 4231SOL    HW224153   3.307   0.579  12.056  0.2364 -0.5065  0.0749
 4232SOL     OW24154   2.139   0.799  10.238 -0.1053  0.1406 -0.3265
 4232SOL    HW124155   2.133   0.827  10.329 -0.3738 -2.0710  0.3226
 4232SOL    HW224156   2.189   0.880  10.221  1.0402 -0.4238  0.3276
 4233SOL     OW24157   1.680   4.421  12.835 -0.2043 -0.0368  0.0414
 4233SOL    HW124158   1.724   4.467  12.906 -2.1726 -0.8622  1.8076
 4233SOL    HW224159   1.748   4.365  12.796 -0.4921 -1.3253  1.3884
 4234SOL     OW24160   1.667   4.204   5.246 -0.0920 -0.2050 -0.1057
 4234SOL    HW124161   1.639   4.157   5.325 -2.8801 -2.8102 -2.6650
 4234SOL    HW224162   1.754   4.232   5.275  0.3277 -1.1868 -0.4277
 4235SOL     OW24163   4.560   1.851   1.843  0.1772 -0.1465  0.5963
 4235SOL    HW124164   4.573   1.944   1.857  1.0012 -0.3237  1.0515
 4235SOL    HW224165   4.495   1.857   1.774  0.1043 -3.0124  0.3827
 4236SOL     OW24166   2.908   2.553   6.052 -0.0429  0.1342  0.0920
 4236SOL    HW124167   2.947   2.611   5.987 -1.1671  1.2969  0.4462
 4236SOL    HW224168   2.978   2.489   6.059  0.6304  0.8888  0.2855
 4237SOL     OW24169   1.505   3.184  16.674  0.6167 -0.3076 -0.4019
 4237SOL    HW124170   1.473   3.175  16.764  0.8924 -0.3062 -0.3052
 4237SOL    HW224171   1.542   3.272  16.676 -2.6064  1.1021 -2.1449
 4238SOL     OW24172   0.801   3.862  15.933  0.1849 -0.1931  0.1229
 4238SOL    HW124173   0.843   3.777  15.946  0.6568 -0.3054 -2.1297
 4238SOL    HW224174   0.865   3.923  15.969 -1.1817  0.5454  1.2875
 4239SOL     OW24175   2.590   4.228   5.597  0.0064  0.1504  0.0348
 4239SOL    HW124176   2.585   4.252   5.505 -1.1522  2.0043  0.5972
 4239SOL    HW224177   2.568   4.310   5.641  2.9423  0.3843  1.1068
 4240SOL     OW24178   4.500   1.194   3.077 -0.5481  0.3414  0.1376
 4240SOL    HW124179   4.491   1.114   3.025  2.5650  0.2883 -0.2757
 4240SOL    HW224180   4.420   1.242   3.056 -0.2986 -0.1856 -1.9590
 4241SOL     OW24181   3.984   1.806   7.109  0.1541  0.3556  0.2094
 4241SOL    HW124182   3.893   1.824   7.088  0.2397  1.2985  0.6609
 4241SOL    HW224183   3.999   1.857   7.188 -0.0897 -0.7980  1.0066
 4242SOL     OW24184   0.292   4.127   5.493  0.2218 -0.1582 -0.2945
 4242SOL    HW124185   0.258   4.147   5.406 -0.6246  1.8962  0.5155
 4242SOL    HW224186   0.216   4.143   5.549  1.8595 -1.2113  2.2236
 4243SOL     OW24187   3.163   0.301   2.131  0.1359  0.2036  0.1431
 4243SOL    HW124188   3.089   0.308   2.070 -0.6925  1.8692  1.3461
 4243SOL    HW224189   3.113   0.287   2.211 -3.1179 -0.9665 -2.0932
 4244SOL     OW24190   1.005   1.064   4.790 -0.0999  0.0896  0.2368
 4244SOL    HW124191   1.043   1.022   4.713  0.3769  1.2818 -0.1815
 4244SOL    HW224192   1.041   1.014   4.863 -0.2036 -0.3600 -0.0226
 4245SOL     OW24193   3.149   1.488   5.101 -0.1720 -0.2834 -0.2744
 4245SOL    HW124194   3.100   1.569   5.113 -2.6337 -1.8636  0.3790
 4245SOL    HW224195   3.241   1.513   5.093 -0.1097 -0.6298 -0.6604
 4246SOL     OW24196   0.851   1.653   8.955  0.1612  0.0318 -0.0544
 4246SOL    HW124197   0.934   1.614   8.928  0.3836 -0.6820  1.6280
 4246SOL    HW224198   0.867   1.747   8.952  2.6924 -0.3073  2.7420
 4247SOL     OW24199   0.586   3.894  17.552 -0.2777 -0.2222  0.2955
 4247SOL    HW124200   0.533   3.937  17.620  0.1806 -0.5559  0.8708
 4247SOL    HW224201   0.605   3.810  17.594  1.2126 -0.0477 -0.0359
 4248SOL     OW24202   1.349   2.900  12.965  0.2750 -0.1579  0.3235
 4248SOL    HW124203   1.394   2.830  13.012 -1.3087 -1.0144  0.5740
 4248SOL    HW224204   1.352   2.875  12.873 -0.0256 -2.1424  0.8640
 4249SOL     OW24205   0.983   2.402   3.345 -0.5532  0.1370 -0.2018
 4249SOL    HW124206   0.975   2.479   3.289 -1.5174  1.5050  1.8258
 4249SOL    HW224207   0.979   2.448   3.429  1.5839  1.1704 -0.6549
 4250SOL     OW24208   2.801   0.243  12.222 -0.3104 -0.2442 -0.7330
 4250SOL    HW124209   2.755   0.160  12.232 -0.1519 -0.2635 -0.1403
 4250SOL    HW224210   2.806   0.234  12.127 -1.3908 -3.0851 -0.5307
 4251SOL     OW24211   0.340   4.288   3.847 -0.0425 -0.6311 -0.3196
 4251SOL    HW124212   0.416   4.254   3.893  0.0507 -0.5295 -0.3993
 4251SOL    HW224213   0.373   4.292   3.757  0.3551 -1.7887 -0.2159
 4252SOL     OW24214   2.223   4.532   8.161  0.4371  0.9743  0.3129
 4252SOL    HW124215   2.292   4.520   8.226 -1.4032  1.3870  2.3245
 4252SOL    HW224216   2.147   4.522   8.218  1.4956 -0.2461  1.5105
 4253SOL     OW24217   4.107   0.842   7.317  0.1356  0.2631 -0.2588
 4253SOL    HW124218   4.200   0.823   7.317 -0.1268 -1.0693 -1.1988
 4253SOL    HW224219   4.082   0.810   7.404 -0.6983  0.4582 -0.4205
 4254SOL     OW24220   4.654   1.242  17.198 -0.5164  0.2626 -0.4178
 4254SOL    HW124221   0.015   1.276  17.226 -1.4427  0.3015  2.3211
 4254SOL    HW224222   4.600   1.286  17.264 -0.0376 -3.3547  2.3811
 4255SOL     OW24223   4.484   2.913  16.266 -0.7507  0.0458 -0.0424
 4255SOL    HW124224   4.426   2.888  16.194 -1.8888 -0.5742  1.0827
 4255SOL    HW224225   4.552   2.954  16.212 -2.0545  2.0701 -0.1169
 4256SOL     OW24226   4.390   3.166  13.044 -0.2430  0.7240 -0.3897
 4256SOL    HW124227   4.425   3.177  12.955 -1.3095  0.3973 -0.8604
 4256SOL    HW224228   4.436   3.087  13.072 -1.2536  0.2539 -0.0568
 4257SOL     OW24229   2.731   2.293   8.387 -0.1712 -0.0026 -0.6154
 4257SOL    HW124230   2.716   2.293   8.292 -1.8492  0.9486 -0.3400
 4257SOL    HW224231   2.642   2.303   8.419 -0.3894 -2.0762 -0.6025
 4258SOL     OW24232   0.726   2.374   4.604 -0.2818  0.0561  0.2747
 4258SOL    HW124233   0.821   2.366   4.600 -0.1046  0.6886  2.9602
 4258SOL    HW224234   0.701   2.285   4.579 -3.1789  1.5100 -2.0490
 4259SOL     OW24235   0.652   2.076   4.544  0.0962  0.2258  0.2951
 4259SOL    HW124236   0.586   2.022   4.587  0.6059 -0.8323 -0.2410
 4259SOL    HW224237   0.725   2.013   4.539  0.9762  1.2181  0.7495
 4260SOL     OW24238   1.896   4.415   5.578  0.4158  0.6461  0.3007
 4260SOL    HW124239   1.838   4.473   5.529  1.2878 -0.5850 -2.1910
 4260SOL    HW224240   1.945   4.483   5.625  0.4458  1.4256 -0.8777
 4261SOL     OW24241   1.496   0.720   1.866 -0.3314 -0.0322 -0.0709
 4261SOL    HW124242   1.556   0.646   1.880 -0.4817 -0.4537 -1.6408
 4261SOL    HW224243   1.470   0.707   1.775 -0.8329 -0.7011  0.1650
 4262SOL     OW24244   0.486   4.456  13.664  0.3040  0.2333  0.4267
 4262SOL    HW124245   0.425   4.452  13.591 -1.0001  1.5481  1.4666
 4262SOL    HW224246   0.570   4.473  13.621  0.2963 -1.4683 -0.2517
 4263SOL     OW24247   1.472   1.686  16.707 -0.1287  0.1078  0.0290
 4263SOL    HW124248   1.512   1.771  16.726  1.4773 -0.8626  0.9322
 4263SOL    HW224249   1.495   1.661  16.617 -0.5781 -2.8008  0.7126
 4264SOL     OW24250   2.515   3.850  11.311 -0.7631  0.1274  0.2977
 4264SOL    HW124251   2.474   3.936  11.326  1.3668  0.6738  2.9983
 4264SOL    HW224252   2.600   3.890  11.295  0.2962 -0.8979  3.3013
 4265SOL     OW24253   3.143   4.147   8.825  0.6308 -0.4829 -0.1270
 4265SOL    HW124254   3.126   4.200   8.746  0.5034 -0.7414 -0.2721
 4265SOL    HW224255   3.100   4.068   8.792 -0.2531 -0.0391 -0.0394
 4266SOL     OW24256   3.096   3.855   9.685  0.7849 -0.1781  0.8484
 4266SOL    HW124257   3.118   3.775   9.734 -0.0160 -0.3277  0.9649
 4266SOL    HW224258   3.078   3.816   9.600  1.6780 -0.8480  0.9627
 4267SOL     OW24259   3.865   4.492   9.538 -0.1993 -0.3081  0.4219
 4267SOL    HW124260   3.810   4.511   9.462 -2.9929  0.5591  2.6543
 4267SOL    HW224261   3.803   4.451   9.598  0.2015  0.0644  1.0848
 4268SOL     OW24262   0.718   0.884   7.228 -0.4234  0.2613 -0.8564
 4268SOL    HW124263   0.720   0.894   7.323  3.9773 -1.9358 -0.7396
 4268SOL    HW224264   0.788   0.821   7.210 -0.6882 -0.3792  0.3846
 4269SOL     OW24265   0.307   4.316   4.888 -0.3453  0.3881  0.0640
 4269SOL    HW124266   0.217   4.312   4.919  0.2033  2.5564  1.8714
 4269SOL    HW224267   0.346   4.364   4.960  0.0034 -1.2329  0.9664
 4270SOL     OW24268   1.485   3.093   5.073  0.0713  0.0487 -0.0742
 4270SOL    HW124269   1.424   3.107   5.145 -0.3852 -0.9083 -0.2702
 4270SOL    HW224270   1.452   3.160   5.013 -0.9433 -0.4273 -0.0470
 4271SOL     OW24271   3.402   1.521   3.993  0.3137 -0.2708 -0.3948
 4271SOL    HW124272   3.364   1.433   3.999 -0.4352  0.2358  2.0287
 4271SOL    HW224273   3.381   1.557   4.079  0.4361  0.5172 -0.6907
 4272SOL     OW24274   3.581   0.712  12.797  0.0512 -0.1141  0.0567
 4272SOL    HW124275   3.518   0.640  12.796 -1.4317  1.2009  0.2015
 4272SOL    HW224276   3.645   0.683  12.732  1.1294  1.6900  0.3210
 4273SOL     OW24277   3.396   3.247   2.880 -0.2703 -0.3534 -0.0547
 4273SOL    HW124278   3.430   3.254   2.790 -1.3045  1.1086 -0.3224
 4273SOL    HW224279   3.369   3.336   2.903 -0.1902 -0.6319  1.1160
 4274SOL     OW24280   3.391   2.574  17.677 -0.3767  0.2194 -0.2497
 4274SOL    HW124281   3.465   2.598  17.621 -1.2341  1.1238 -1.0049
 4274SOL    HW224282   3.399   2.479  17.679 -0.3086  0.2471  0.6081
 4275SOL     OW24283   4.702   1.320   2.938  0.3924  0.6268  0.4209
 4275SOL    HW124284   4.710   1.234   2.980  2.4636  0.0970 -1.1001
 4275SOL    HW224285   4.607   1.327   2.942  0.2466 -1.2583  0.5801
 4276SOL     OW24286   1.093   0.787   7.507  0.7731  0.3925 -0.4585
 4276SOL    HW124287   1.062   0.875   7.524 -0.7385 -0.3517  0.6101
 4276SOL    HW224288   1.182   0.795   7.543  0.4302 -0.5139  0.6200
 4277SOL     OW24289   1.283   1.717   5.083  0.3651 -0.1055 -0.0514
 4277SOL    HW124290   1.199   1.741   5.121 -0.4306  0.2720 -2.0309
 4277SOL    HW224291   1.339   1.737   5.158  0.5943 -1.6775  0.1849
 4278SOL     OW24292   3.545   3.943   7.534  0.6901  0.1822 -0.3761
 4278SOL    HW124293   3.560   4.033   7.505 -2.9549  0.6027 -0.8704
 4278SOL    HW224294   3.461   3.941   7.580 -0.1373 -2.5309 -1.9698
 4279SOL     OW24295   2.723   4.708  12.155 -0.4707  0.3129 -0.3663
 4279SOL    HW124296   2.747   4.619  12.183 -1.0850 -0.3861 -2.0159
 4279SOL    HW224297   2.628   4.697  12.153 -0.4587 -0.0314  0.9579
 4280SOL     OW24298   0.674   0.396   8.179 -0.1296  0.0475 -0.7677
 4280SOL    HW124299   0.618   0.443   8.241 -0.8869 -0.7599 -0.8364
 4280SOL    HW224300   0.732   0.465   8.148 -3.2781  3.2004  0.3152
 4281SOL     OW24301   0.167   1.748  15.982  0.1977 -0.3259 -0.0524
 4281SOL    HW124302   0.213   1.792  15.911  0.4725  0.7722  0.8007
 4281SOL    HW224303   0.093   1.802  16.010  1.1800  1.2786 -0.5796
 4282SOL     OW24304   4.575   2.475   2.683 -0.4697  0.1108  0.6495
 4282SOL    HW124305   4.605   2.512   2.766  0.1645 -1.7788  1.2524
 4282SOL    HW224306   4.655   2.444   2.640 -0.3425  1.7072 -0.2989
 4283SOL     OW24307   3.720   0.050  10.045 -0.3340 -0.1397 -0.1703
 4283SOL    HW124308   3.813   0.033  10.063 -0.1974 -0.6506 -1.3247
 4283SOL    HW224309   3.691   4.713   9.978  1.6641 -1.5874  0.2918
 4284SOL     OW24310   2.111   0.747   3.643 -0.0885  0.2038  0.0327
 4284SOL    HW124311   2.192   0.781   3.681 -0.1116  0.7579 -0.4264
 4284SOL    HW224312   2.148   0.711   3.562 -0.1774  0.0800  0.0471
 4285SOL     OW24313   1.056   0.020  11.535 -0.9096  0.7436 -0.2063
 4285SOL    HW124314   1.007   4.702  11.464 -0.0517 -1.2785  0.3924
 4285SOL    HW224315   1.124   0.060  11.482 -0.1766  0.6084  0.6204
 4286SOL     OW24316   4.149   1.913   2.108  0.3377 -0.3032  0.4134
 4286SOL    HW124317   4.154   1.934   2.015 -0.6784  1.6455  0.7890
 4286SOL    HW224318   4.063   1.871   2.110  0.9614 -1.5826  0.1547
 4287SOL     OW24319   0.714   0.210  13.667 -0.2477 -0.1219 -0.4520
 4287SOL    HW124320   0.736   0.154  13.742 -2.5414  0.4321  0.6410
 4287SOL    HW224321   0.633   0.169  13.637  0.4929 -0.7526 -1.5724
 4288SOL     OW24322   1.164   0.984   4.591 -0.0284  0.6915 -0.2994
 4288SOL    HW124323   1.156   1.044   4.517 -0.5702  1.2823  0.2402
 4288SOL    HW224324   1.247   0.946   4.561  0.8121  0.9235  1.6906
 4289SOL     OW24325   2.609   1.693   3.232 -1.0355 -0.0486 -0.0578
 4289SOL    HW124326   2.583   1.775   3.191  0.6624 -0.0788 -1.1719
 4289SOL    HW224327   2.521   1.658   3.248 -1.2964  1.9363  2.8329
 4290SOL     OW24328   3.326   3.378   8.960  0.0794 -0.0762 -0.3518
 4290SOL    HW124329   3.237   3.369   8.992  0.1978  1.2050  0.3697
 4290SOL    HW224330   3.342   3.472   8.968  1.6397 -0.4010  0.3943
 4291SOL     OW24331   1.964   3.832   5.770  0.3133 -0.0000 -0.8487
 4291SOL    HW124332   1.872   3.857   5.769  0.5623  0.9266 -0.5776
 4291SOL    HW224333   2.002   3.893   5.833 -0.3054  0.0884 -0.5617
 4292SOL     OW24334   2.847   0.628   7.168  0.7724  0.0487 -0.2784
 4292SOL    HW124335   2.895   0.659   7.245 -0.2292  0.2942  0.2557
 4292SOL    HW224336   2.777   0.571   7.199  0.4088  1.2031  1.0415
 4293SOL     OW24337   3.630   4.305   2.172  0.3298  0.5774  0.1610
 4293SOL    HW124338   3.616   4.318   2.078  0.2546  0.7209  0.1925
 4293SOL    HW224339   3.558   4.350   2.216 -1.6176 -0.3262 -2.1416
 4294SOL     OW24340   1.212   2.917   4.808  0.0840 -0.0740 -0.2193
 4294SOL    HW124341   1.308   2.915   4.813  0.2347 -1.0285 -3.7398
 4294SOL    HW224342   1.202   2.995   4.753 -2.2569  1.7814  2.8215
 4295SOL     OW24343   1.869   2.641   6.955  0.6299  0.4056 -0.3950
 4295SOL    HW124344   1.856   2.704   7.026  0.3380  0.7074 -0.7200
 4295SOL    HW224345   1.899   2.566   7.006  0.8904  1.2232  0.6623
 4296SOL     OW24346   0.957   4.274   4.911  0.4325 -0.8219  0.0690
 4296SOL    HW124347   0.891   4.304   4.974 -0.6367  1.5888 -2.2089
 4296SOL    HW224348   1.018   4.263   4.984  2.0555 -1.0276 -1.3150
 4297SOL     OW24349   2.094   4.162   8.144  0.0452  0.1549  0.1869
 4297SOL    HW124350   2.008   4.142   8.108  0.4836  0.9153 -1.2653
 4297SOL    HW224351   2.101   4.121   8.230 -1.5376 -0.7322 -0.0988
 4298SOL     OW24352   2.095   3.421   7.028 -0.1334 -0.4236 -0.0530
 4298SOL    HW124353   2.078   3.368   7.106 -0.0792 -1.4065 -0.7137
 4298SOL    HW224354   2.174   3.379   6.994 -0.1879 -0.2425 -0.4002
 4299SOL     OW24355   2.026   3.062   8.048 -0.0266  0.1227 -0.1584
 4299SOL    HW124356   2.103   3.007   8.032  0.5964  0.7381  0.6964
 4299SOL    HW224357   2.064   3.113   8.119 -0.2361  0.2028 -0.1043
 4300SOL     OW24358   1.442   0.998   4.568 -0.4818  0.5020 -0.0910
 4300SOL    HW124359   1.438   1.084   4.525  1.2575 -0.3423 -1.9494
 4300SOL    HW224360   1.498   1.017   4.644  0.2554 -0.0015 -0.5001
 4301SOL     OW24361   1.488   3.303   9.499  0.2726 -0.5137  0.5767
 4301SOL    HW124362   1.534   3.248   9.563  1.3957 -0.0194  0.1912
 4301SOL    HW224363   1.547   3.377   9.492  0.7326 -1.1117 -2.0452
 4302SOL     OW24364   2.212   0.332   5.947 -0.5602 -0.5242 -0.6213
 4302SOL    HW124365   2.251   0.383   6.017 -1.1726 -0.0734 -0.6081
 4302SOL    HW224366   2.286   0.335   5.886  0.2272  2.3667  0.5106
 4303SOL     OW24367   1.900   1.068  13.082 -0.6991  0.0833 -0.6278
 4303SOL    HW124368   1.934   1.071  13.172 -0.9219 -0.9605 -0.5063
 4303SOL    HW224369   1.983   1.038  13.045 -0.4575  1.3712 -1.1258
 4304SOL     OW24370   1.366   3.361   3.107 -0.1072 -0.3408  0.5341
 4304SOL    HW124371   1.424   3.327   3.175  0.8477  0.6822  0.2182
 4304SOL    HW224372   1.385   3.305   3.032  0.3520 -0.1434  0.5037
 4305SOL     OW24373   2.687   2.760   0.283  0.6106 -0.0411 -0.4709
 4305SOL    HW124374   2.769   2.720   0.312  0.6416  0.5138  0.2059
 4305SOL    HW224375   2.716   2.851   0.276  0.7341  0.0500  1.2545
 4306SOL     OW24376   1.585   4.699   6.227 -0.3751 -0.0387 -0.1741
 4306SOL    HW124377   1.589   0.028   6.306  0.8318  0.2436 -0.4223
 4306SOL    HW224378   1.510   0.018   6.187  0.8667  0.1608 -2.2935
 4307SOL     OW24379   4.467   2.620   4.117 -0.2189 -0.3401 -0.3197
 4307SOL    HW124380   4.471   2.665   4.201 -0.2408 -1.6163  0.3774
 4307SOL    HW224381   4.418   2.539   4.134 -4.5467  2.4013  0.1558
 4308SOL     OW24382   1.770   4.535   3.400 -0.3680  0.1869  0.0200
 4308SOL    HW124383   1.679   4.506   3.396  0.1993 -1.6902  0.7022
 4308SOL    HW224384   1.791   4.489   3.319 -0.5146  0.6015 -0.2539
 4309SOL     OW24385   4.398   2.709  15.811  0.1301  0.2248 -0.0097
 4309SOL    HW124386   4.388   2.616  15.832  0.7868  0.3317  0.7662
 4309SOL    HW224387   4.311   2.716  15.770  0.3056 -0.4299 -0.5000
 4310SOL     OW24388   0.240   0.055   1.981  0.2214 -0.4749  0.0302
 4310SOL    HW124389   0.212   4.688   1.981 -0.5280 -0.2607 -1.7421
 4310SOL    HW224390   0.316   0.040   1.924  0.1715 -1.9283  0.3462
 4311SOL     OW24391   1.455   1.271   7.069 -0.0256 -0.5064 -0.1171
 4311SOL    HW124392   1.379   1.323   7.095  0.3528 -0.6795  1.3199
 4311SOL    HW224393   1.523   1.336   7.088 -1.0583  0.0601  1.5997
 4312SOL     OW24394   0.197   3.864   6.123 -0.8628 -0.6952 -0.2793
 4312SOL    HW124395   0.254   3.840   6.050  2.6784 -0.9652  2.5736
 4312SOL    HW224396   0.165   3.948   6.090  2.0948 -0.0954 -1.6163
 4313SOL     OW24397   0.100   0.993   3.734  0.1180 -0.8419  0.3129
 4313SOL    HW124398   0.087   1.071   3.679  1.4646 -0.5845  0.3561
 4313SOL    HW224399   0.109   0.924   3.668 -0.2967  0.4139 -1.0832
 4314SOL     OW24400   2.939   4.413  12.657 -0.3452  0.0033 -0.5635
 4314SOL    HW124401   2.919   4.431  12.749 -3.4415  0.1509 -1.2551
 4314SOL    HW224402   2.944   4.502  12.622  2.1000 -1.0842 -2.9928
 4315SOL     OW24403   4.293   3.632  17.029 -0.3413  0.1579  0.1120
 4315SOL    HW124404   4.288   3.605  17.121 -1.8405 -2.0574 -0.6144
 4315SOL    HW224405   4.260   3.721  17.041  1.2704  0.7232  0.3652
 4316SOL     OW24406   2.603   2.824   5.618  0.1730  0.3492  0.2748
 4316SOL    HW124407   2.646   2.744   5.648 -2.1411 -1.0057  0.0093
 4316SOL    HW224408   2.522   2.833   5.668 -2.0967 -0.8571 -3.1871
 4317SOL     OW24409   2.504   2.076   6.387 -0.1373  0.2381  0.4608
 4317SOL    HW124410   2.568   2.117   6.445  0.1803  0.4164 -0.0238
 4317SOL    HW224411   2.446   2.149   6.366 -0.3664  0.6526  2.5104
 4318SOL     OW24412   1.972   0.855  14.929  0.1945  0.5205 -0.5679
 4318SOL    HW124413   1.993   0.941  14.966  0.3509 -0.1146  0.8353
 4318SOL    HW224414   2.031   0.850  14.854  0.2859 -1.7585 -0.3169
 4319SOL     OW24415   2.565   0.811  17.411 -0.8118  0.2075  0.5178
 4319SOL    HW124416   2.512   0.888  17.393 -1.0542 -0.0083  0.3046
 4319SOL    HW224417   2.631   0.801  17.342 -2.2125  1.2378 -0.9855
 4320SOL     OW24418   3.361   2.407   4.663 -0.0856  0.2876 -0.0779
 4320SOL    HW124419   3.386   2.336   4.722 -0.7188  0.8804  0.9007
 4320SOL    HW224420   3.347   2.360   4.581  1.9789  0.1470 -0.3553
 4321SOL     OW24421   0.648   3.149   7.831  0.2347 -0.0329  0.0807
 4321SOL    HW124422   0.586   3.083   7.800  1.7916 -1.3094 -0.3512
 4321SOL    HW224423   0.703   3.153   7.752 -0.3095 -1.4466 -0.3636
 4322SOL     OW24424   4.533   2.593  11.084 -0.0442 -0.2567 -0.7890
 4322SOL    HW124425   4.579   2.510  11.073 -2.0629 -1.2757 -1.4982
 4322SOL    HW224426   4.484   2.570  11.162 -0.9855  0.8936 -1.0439
 4323SOL     OW24427   0.784   1.899   8.145  0.0987  0.2275  0.4730
 4323SOL    HW124428   0.714   1.963   8.137 -0.5604 -0.4502  0.8956
 4323SOL    HW224429   0.727   1.822   8.144  2.2101 -1.3394  0.9497
 4324SOL     OW24430   1.917   2.596   3.618 -0.1610 -0.0798 -0.1710
 4324SOL    HW124431   1.932   2.599   3.713  1.9468 -0.2313 -0.5155
 4324SOL    HW224432   1.835   2.645   3.632 -0.7523 -0.9406 -0.5951
 4325SOL     OW24433   3.957   2.750   9.262  0.2768  0.1651 -0.2491
 4325SOL    HW124434   3.901   2.726   9.189  0.2124  1.7010 -0.7026
 4325SOL    HW224435   3.908   2.756   9.344  0.4208  0.5248 -0.1916
 4326SOL     OW24436   2.976   3.271  13.557  0.1186 -0.0496 -0.6752
 4326SOL    HW124437   3.068   3.247  13.543  0.4089  1.5755 -1.6033
 4326SOL    HW224438   2.987   3.358  13.596 -2.2520 -0.5541  1.1326
 4327SOL     OW24439   3.112   0.327  11.825  0.8749 -0.6977  0.3666
 4327SOL    HW124440   3.116   0.350  11.918  1.1301 -0.2544  0.2464
 4327SOL    HW224441   3.157   0.243  11.829  0.8239 -0.7590 -0.4304
 4328SOL     OW24442   1.949   2.022   4.738  0.0580  0.2457  0.0043
 4328SOL    HW124443   1.952   1.930   4.761  1.1219  0.4619  0.7184
 4328SOL    HW224444   2.019   2.058   4.792 -0.8995 -1.5663  2.4272
 4329SOL     OW24445   1.556   4.641   4.483 -0.2330 -0.4603 -0.2004
 4329SOL    HW124446   1.627   4.688   4.441  0.6991 -2.3872 -0.7668
 4329SOL    HW224447   1.478   4.666   4.433  1.0018 -0.9450 -2.3467
 4330SOL     OW24448   4.716   0.060   7.647 -0.5042  0.2550  0.1967
 4330SOL    HW124449   4.690   0.129   7.585  2.3878 -0.3927 -1.7457
 4330SOL    HW224450   4.642   0.072   7.706 -0.9755 -1.4609 -0.0586
 4331SOL     OW24451   4.236   2.342   1.097 -0.1215  0.4213 -0.3755
 4331SOL    HW124452   4.274   2.421   1.058  0.4700  0.2947 -0.0602
 4331SOL    HW224453   4.309   2.317   1.155  1.1555 -2.5061 -3.2175
 4332SOL     OW24454   1.533   3.118  17.173  0.1026 -0.8548 -0.2915
 4332SOL    HW124455   1.441   3.145  17.172 -0.5223 -3.0808 -1.2595
 4332SOL    HW224456   1.544   3.048  17.237 -0.2971 -0.6540 -0.0029
 4333SOL     OW24457   1.806   4.377   3.836 -0.1769  0.1381 -0.4051
 4333SOL    HW124458   1.735   4.404   3.778 -1.2243  0.7131  1.1433
 4333SOL    HW224459   1.866   4.363   3.763  2.5409 -0.2247  1.9314
 4334SOL     OW24460   3.969   2.138   2.969  0.2949 -0.5262  0.4080
 4334SOL    HW124461   4.024   2.065   2.997 -2.5369 -3.1496 -0.9046
 4334SOL    HW224462   3.941   2.165   3.056 -1.8177 -1.3357 -0.0322
 4335SOL     OW24463   1.193   3.916  10.978 -0.3175  0.1073  0.1931
 4335SOL    HW124464   1.229   3.967  10.906 -0.0323  0.3870  0.5371
 4335SOL    HW224465   1.230   3.958  11.056 -0.1522  1.9572 -0.8871
 4336SOL     OW24466   0.279   4.276   4.596 -0.0714 -0.0144 -0.3443
 4336SOL    HW124467   0.199   4.223   4.595  0.2206 -0.4184 -1.4708
 4336SOL    HW224468   0.288   4.290   4.691 -0.4733  0.0338 -0.3130
 4337SOL     OW24469   2.278   2.503  13.001 -0.2250  0.4490  0.3292
 4337SOL    HW124470   2.224   2.450  13.059 -2.6511  1.5413 -0.9465
 4337SOL    HW224471   2.332   2.543  13.070  1.0501  2.8308 -2.0536
 4338SOL     OW24472   2.309   2.007  13.924 -0.0238  0.1799 -0.2411
 4338SOL    HW124473   2.363   2.015  13.846  0.0762  0.0494 -0.1857
 4338SOL    HW224474   2.293   2.100  13.941 -1.0817 -0.3862  1.9209
 4339SOL     OW24475   0.211   1.193   0.350 -0.2535  0.3920 -0.2617
 4339SOL    HW124476   0.265   1.257   0.396 -1.0813  0.9755 -0.1026
 4339SOL    HW224477   0.205   1.127   0.419  0.3073  0.3082 -0.2895
 4340SOL     OW24478   2.729   1.152   8.825 -0.2714 -0.2034  0.2923
 4340SOL    HW124479   2.809   1.100   8.815  0.4803  0.7623  1.3239
 4340SOL    HW224480   2.681   1.093   8.882  0.8997 -0.6960  0.7659
 4341SOL     OW24481   4.009   1.884   8.489  0.5008 -0.0671 -0.5664
 4341SOL    HW124482   4.091   1.840   8.466  0.7779  1.4553 -2.4973
 4341SOL    HW224483   4.022   1.918   8.578 -5.7700  2.2022 -0.5192
 4342SOL     OW24484   3.878   0.716   8.605 -0.5944  0.5795  0.1486
 4342SOL    HW124485   3.910   0.791   8.555 -1.0663  0.2245 -0.6841
 4342SOL    HW224486   3.806   0.761   8.648 -0.5743  1.1227 -0.3964
 4343SOL     OW24487   3.017   1.127   8.777 -0.1861 -0.0076 -0.5094
 4343SOL    HW124488   3.083   1.065   8.747 -1.1824 -0.1841 -2.3533
 4343SOL    HW224489   3.042   1.206   8.728 -0.7035  0.7978  0.5285
 4344SOL     OW24490   2.176   1.751   7.573  0.2974  0.1689  0.1029
 4344SOL    HW124491   2.187   1.705   7.490  1.7273 -0.0827  0.4333
 4344SOL    HW224492   2.084   1.775   7.560  0.2642  1.2629  2.3287
 4345SOL     OW24493   1.528   4.410   6.210 -0.0665  0.0153 -0.0251
 4345SOL    HW124494   1.568   4.490   6.244  0.8510 -1.9752  3.5843
 4345SOL    HW224495   1.505   4.432   6.120  1.2442  1.7323  0.0658
 4346SOL     OW24496   0.335   1.624   5.880 -0.6627  0.0654 -0.0796
 4346SOL    HW124497   0.385   1.674   5.815 -0.8323  0.5840  0.1914
 4346SOL    HW224498   0.281   1.695   5.916 -0.0418  0.6456 -0.2974
 4347SOL     OW24499   1.792   0.061   6.821  0.7033 -0.4961 -0.1762
 4347SOL    HW124500   1.874   0.038   6.776 -0.1744 -3.2524 -0.4048
 4347SOL    HW224501   1.824   0.131   6.878  3.0553 -1.3122 -0.4876
 4348SOL     OW24502   2.714   1.336   5.176 -0.0506  0.3975 -0.0644
 4348SOL    HW124503   2.693   1.263   5.235  3.9514  0.8208  1.8495
 4348SOL    HW224504   2.769   1.284   5.117 -0.6323  0.1031 -0.3499
 4349SOL     OW24505   2.078   0.047   7.514  0.1920 -0.0252  0.5909
 4349SOL    HW124506   2.121   0.127   7.546 -0.6735  0.0734  1.5285
 4349SOL    HW224507   2.026   0.024   7.591  0.4162 -0.4833  0.6026
 4350SOL     OW24508   2.539   0.178   7.840  0.0145  0.3731  0.0835
 4350SOL    HW124509   2.557   0.085   7.831  0.2948  0.2560  1.7981
 4350SOL    HW224510   2.523   0.180   7.935 -0.2646  0.6857  0.0322
 4351SOL     OW24511   2.206   4.290  17.495 -0.0986 -0.0471 -0.2703
 4351SOL    HW124512   2.252   4.314  17.575  0.5358 -1.0729 -0.3226
 4351SOL    HW224513   2.137   4.234  17.531 -1.0078  0.4596 -1.2247
 4352SOL     OW24514   1.470   3.558   2.360  0.1889 -0.0816  0.0367
 4352SOL    HW124515   1.527   3.565   2.437  2.4639 -3.3532 -1.3303
 4352SOL    HW224516   1.385   3.560   2.403 -0.5111 -4.7359 -1.1015
 4353SOL     OW24517   2.045   3.703  14.534  0.0894  0.5776  0.1551
 4353SOL    HW124518   2.076   3.678  14.622  2.4434 -0.6835 -1.0225
 4353SOL    HW224519   1.966   3.649  14.532 -0.1529  1.0404 -2.1963
 4354SOL     OW24520   1.749   1.312  12.140 -0.6478  0.1454 -0.0900
 4354SOL    HW124521   1.747   1.406  12.125  1.5940  0.3982  1.2163
 4354SOL    HW224522   1.729   1.313  12.234 -0.3458 -1.0274 -0.0194
 4355SOL     OW24523   4.497   3.721   3.983 -0.2256 -0.0824  0.5035
 4355SOL    HW124524   4.553   3.706   4.059  2.4962  2.4931 -1.0086
 4355SOL    HW224525   4.487   3.631   3.951 -1.7079  0.3470 -0.2138
 4356SOL     OW24526   3.820   3.700   8.974  0.0307 -0.0483 -0.0674
 4356SOL    HW124527   3.892   3.701   9.037  0.9164 -2.5781 -1.0497
 4356SOL    HW224528   3.780   3.784   8.997  1.2438 -0.3691  3.1999
 4357SOL     OW24529   1.433   3.721   5.816 -0.2612 -0.3886  0.4783
 4357SOL    HW124530   1.376   3.777   5.868 -3.2447 -0.9122 -2.1535
 4357SOL    HW224531   1.474   3.667   5.883 -1.2378 -3.1681 -1.1403
 4358SOL     OW24532   4.017   1.252   5.104 -0.0048  0.0916 -0.2965
 4358SOL    HW124533   4.092   1.281   5.156 -0.1732  2.0235 -1.1384
 4358SOL    HW224534   4.059   1.261   5.019  0.8958 -1.9884 -0.0904
 4359SOL     OW24535   0.390   3.845   5.895 -0.3794 -0.1738 -0.2486
 4359SOL    HW124536   0.452   3.865   5.825 -1.1232  0.5499 -0.7115
 4359SOL    HW224537   0.382   3.750   5.899 -1.4647 -0.1123 -0.8364
 4360SOL     OW24538   3.814   0.769  17.351 -0.9247 -0.3577 -0.2628
 4360SOL    HW124539   3.729   0.744  17.314 -0.8947  2.1578 -1.9624
 4360SOL    HW224540   3.801   0.847  17.404  0.3586  0.5539 -1.3213
 4361SOL     OW24541   1.361   1.836  11.292 -0.0152 -0.6612  0.0362
 4361SOL    HW124542   1.425   1.765  11.298  0.7443 -0.1391 -1.9844
 4361SOL    HW224543   1.284   1.785  11.320  0.7064 -0.4432  2.4533
 4362SOL     OW24544   0.833   1.803  11.824  0.2766 -0.7887 -0.3309
 4362SOL    HW124545   0.928   1.817  11.825  0.0723  0.6577 -0.1305
 4362SOL    HW224546   0.821   1.760  11.909  0.5494 -3.9502 -1.9050
 4363SOL     OW24547   4.700   4.089   5.582  0.5182  0.2011 -0.7257
 4363SOL    HW124548   4.632   4.096   5.515 -1.0233  1.9025  0.9703
 4363SOL    HW224549   0.000   3.998   5.570  1.2886  0.4875 -1.3095
 4364SOL     OW24550   0.159   3.190   8.543 -0.3954  0.4840  0.2383
 4364SOL    HW124551   0.078   3.187   8.595 -0.2689 -1.0334  0.3543
 4364SOL    HW224552   0.133   3.155   8.458 -1.1216 -0.2646  0.7699
 4365SOL     OW24553   4.409   3.210   3.017 -0.4388  0.1383  0.1342
 4365SOL    HW124554   4.444   3.295   2.991  2.1253 -0.7036  0.8549
 4365SOL    HW224555   4.445   3.145   2.957  0.7397 -0.1324  1.1209
 4366SOL     OW24556   2.370   3.929   5.454 -0.3838 -0.1532  0.8275
 4366SOL    HW124557   2.399   3.977   5.531  0.2868 -1.2854  1.2876
 4366SOL    HW224558   2.277   3.952   5.450 -0.0267  1.4376  1.9176
 4367SOL     OW24559   3.249   2.717  17.517  0.4975  0.8020  0.1889
 4367SOL    HW124560   3.292   2.647  17.567 -0.0067  0.2781 -0.1174
 4367SOL    HW224561   3.295   2.797  17.542  0.5880  1.1108 -0.9519
 4368SOL     OW24562   2.586   0.913   9.940  0.2038  0.4197 -0.7988
 4368SOL    HW124563   2.495   0.898   9.915 -0.2180 -0.1730  1.0785
 4368SOL    HW224564   2.628   0.872   9.864  1.5550  0.3067  0.0065
 4369SOL     OW24565   0.110   1.353   4.401  0.2649  0.2465  0.0032
 4369SOL    HW124566   0.143   1.286   4.462 -1.6316 -0.9290 -0.2821
 4369SOL    HW224567   0.161   1.337   4.322  0.4534 -1.5770  0.5052
 4370SOL     OW24568   0.446   3.942   2.146 -0.2094  0.7760 -0.1030
 4370SOL    HW124569   0.356   3.912   2.134 -0.3532  0.8856  0.7115
 4370SOL    HW224570   0.439   4.005   2.217  0.6368  1.9192 -1.0501
 4371SOL     OW24571   3.390   4.181   2.417  0.1622  0.2895 -0.1681
 4371SOL    HW124572   3.483   4.187   2.434 -0.0171 -0.8575  1.2144
 4371SOL    HW224573   3.355   4.148   2.500 -1.1107 -1.3869 -1.3718
 4372SOL     OW24574   1.635   4.146  11.724 -0.0594 -0.7013 -0.0897
 4372SOL    HW124575   1.624   4.051  11.732 -0.9146 -0.5108  1.0132
 4372SOL    HW224576   1.727   4.166  11.707  0.2355 -1.4685  0.6216
 4373SOL     OW24577   1.449   4.300   5.148 -0.8995  0.1288  0.7432
 4373SOL    HW124578   1.486   4.388   5.146 -0.0181 -0.2514  0.2683
 4373SOL    HW224579   1.514   4.251   5.197 -0.0295  0.7610  0.2271
 4374SOL     OW24580   4.339   1.014   4.248  0.2313  0.2535 -0.1731
 4374SOL    HW124581   4.265   0.976   4.295  1.5541 -0.2485  1.4806
 4374SOL    HW224582   4.394   1.057   4.313  1.0234  1.3567 -1.5842
 4375SOL     OW24583   2.925   3.899  17.123 -0.1891  0.1242 -0.3827
 4375SOL    HW124584   3.014   3.884  17.154 -0.4195  0.6482  0.5434
 4375SOL    HW224585   2.924   3.987  17.085 -2.0150  0.9386  1.5092
 4376SOL     OW24586   3.252   4.197   0.612  0.0420  0.1312  0.6998
 4376SOL    HW124587   3.339   4.173   0.579 -2.4744 -4.6738 -2.4912
 4376SOL    HW224588   3.269   4.269   0.673  1.4893 -0.4402  0.9684
 4377SOL     OW24589   2.145   0.807  15.235 -0.2907  0.4660 -0.4528
 4377SOL    HW124590   2.186   0.882  15.192 -1.7116  1.7171  0.3770
 4377SOL    HW224591   2.155   0.734  15.173 -2.8222 -1.1760  1.0762
 4378SOL     OW24592   2.247   0.160   5.115  0.0814 -0.5174  0.2864
 4378SOL    HW124593   2.166   0.211   5.117  1.0513  0.9846  0.7725
 4378SOL    HW224594   2.259   0.175   5.021 -2.0468 -0.7650 -0.0106
 4379SOL     OW24595   2.892   3.234   9.220 -0.0990  0.9297 -0.1328
 4379SOL    HW124596   2.829   3.166   9.196 -0.6838  1.3370  0.2656
 4379SOL    HW224597   2.850   3.314   9.192  1.0298  1.2320 -0.9677
 4380SOL     OW24598   0.129   0.733   8.671 -1.0626 -0.0247 -0.0802
 4380SOL    HW124599   0.144   0.664   8.736  1.0066 -0.0214 -0.5469
 4380SOL    HW224600   0.101   0.799   8.734  2.1909  2.2778 -1.0643
 4381SOL     OW24601   3.937   2.555   8.480  0.0833  0.1045  0.5749
 4381SOL    HW124602   3.969   2.571   8.569  0.3401  3.2472 -0.0904
 4381SOL    HW224603   3.911   2.646   8.467 -0.6097  0.0468  1.5138
 4382SOL     OW24604   1.394   1.748  14.685  0.0046  0.1053 -0.2893
 4382SOL    HW124605   1.344   1.806  14.628 -3.1632 -2.3401  0.0223
 4382SOL    HW224606   1.394   1.677  14.622 -0.5603 -0.2554  0.1199
 4383SOL     OW24607   1.788   3.927   3.988 -0.5188  0.0150  0.2286
 4383SOL    HW124608   1.719   3.983   4.024  0.8640 -0.5140  3.7158
 4383SOL    HW224609   1.730   3.866   3.943  1.7303 -1.4501 -0.6774
 4384SOL     OW24610   4.076   1.944   2.472 -0.0734  0.5921  0.1070
 4384SOL    HW124611   4.150   1.884   2.476  0.4670  1.1540 -1.4250
 4384SOL    HW224612   4.113   2.028   2.498 -0.1343  0.6539 -0.0055
 4385SOL     OW24613   1.324   4.674  12.668  0.6030  0.3786  0.1239
 4385SOL    HW124614   1.382   4.720  12.607  0.6384  2.6307  1.8924
 4385SOL    HW224615   1.256   4.649  12.606  1.6870  1.2953 -1.4307
 4386SOL     OW24616   0.088   4.032   4.320  0.0710 -0.3447  0.1642
 4386SOL    HW124617   0.121   4.106   4.270  1.1017 -0.7065  0.3216
 4386SOL    HW224618   0.095   4.070   4.408 -0.1784  0.7808 -0.3044
 4387SOL     OW24619   0.906   1.091   2.986 -0.0425 -0.0079  0.0396
 4387SOL    HW124620   0.896   1.098   2.891 -1.7331  0.3996  0.2436
 4387SOL    HW224621   1.000   1.093   3.005  0.3184 -2.4940 -1.5384
 4388SOL     OW24622   0.492   0.822   3.060 -0.0004 -0.0203 -0.1123
 4388SOL    HW124623   0.584   0.835   3.085  0.5290 -3.0488 -0.4050
 4388SOL    HW224624   0.483   0.734   3.096  1.6719  0.5458  1.7209
 4389SOL     OW24625   0.982   3.482  12.939  0.2379  0.0414 -0.2750
 4389SOL    HW124626   0.947   3.422  13.005 -0.4658 -1.5430 -2.0818
 4389SOL    HW224627   1.059   3.433  12.911  0.7887  0.4114  0.5813
 4390SOL     OW24628   4.190   4.612   6.890  0.2338 -0.2653  0.1908
 4390SOL    HW124629   4.216   4.520   6.885 -2.0686 -0.7541 -2.1683
 4390SOL    HW224630   4.115   4.602   6.948  0.7188 -0.7450  0.7426
 4391SOL     OW24631   2.792   0.989  13.776 -0.1317  0.4445 -0.2294
 4391SOL    HW124632   2.773   1.082  13.789  0.8481  0.5192  0.6110
 4391SOL    HW224633   2.838   0.963  13.855 -0.6832 -2.6280 -0.9201
 4392SOL     OW24634   2.710   2.216   6.574 -0.5096  0.3270 -0.2680
 4392SOL    HW124635   2.681   2.302   6.602 -1.1134  0.6761 -1.9388
 4392SOL    HW224636   2.805   2.222   6.563 -0.6742  1.0998 -1.2639
 4393SOL     OW24637   0.447   1.358  17.590 -0.5333 -0.3990 -0.0875
 4393SOL    HW124638   0.426   1.331  17.500 -1.6946 -1.1910  0.4246
 4393SOL    HW224639   0.533   1.317  17.598 -1.8976 -3.3243 -0.2722
 4394SOL     OW24640   3.946   4.562   7.020  0.2393  0.0863 -0.5320
 4394SOL    HW124641   3.951   4.550   7.115  2.9426  0.8532 -0.5723
 4394SOL    HW224642   3.863   4.610   7.017 -0.3497 -0.8966  0.1124
 4395SOL     OW24643   4.548   3.880   4.303 -0.1963  0.1566  0.2885
 4395SOL    HW124644   4.582   3.862   4.215  1.3453 -1.9103  1.3182
 4395SOL    HW224645   4.635   3.900   4.336  0.1852 -1.2499  0.1403
 4396SOL     OW24646   1.684   4.591   3.054 -0.2681  0.0724  0.1902
 4396SOL    HW124647   1.687   4.682   3.082  1.3733  0.2125 -0.4178
 4396SOL    HW224648   1.589   4.579   3.060 -0.4621  2.4241  1.4527
 4397SOL     OW24649   2.142   0.962   2.415  0.7549  0.4614  0.0898
 4397SOL    HW124650   2.116   1.048   2.382  0.3510 -0.4534 -1.9601
 4397SOL    HW224651   2.146   0.906   2.338  0.8996  0.5603  0.0249
 4398SOL     OW24652   0.169   0.277  11.265  0.1547  0.2394  0.0085
 4398SOL    HW124653   0.101   0.305  11.326  0.1266  1.1270 -0.4153
 4398SOL    HW224654   0.152   0.185  11.246  0.0978  0.0745  0.8826
 4399SOL     OW24655   2.696   4.258   0.064  0.3865 -0.1807 -0.1018
 4399SOL    HW124656   2.623   4.197   0.073  1.4540 -1.7521 -2.3131
 4399SOL    HW224657   2.770   4.222   0.113 -1.0632 -3.8092 -0.5904
 4400SOL     OW24658   2.019   3.947   7.113 -0.2597 -0.1118 -0.5591
 4400SOL    HW124659   1.936   3.990   7.131  0.3475  1.2736 -1.1351
 4400SOL    HW224660   1.993   3.855   7.109 -0.5098 -0.1135  0.9357
 4401SOL     OW24661   2.577   1.127   2.019 -0.0852 -0.7183  0.3241
 4401SOL    HW124662   2.530   1.164   2.095  0.1898  0.4450 -0.0706
 4401SOL    HW224663   2.502   1.133   1.960 -0.5077 -3.3291  0.5897
 4402SOL     OW24664   3.062   2.651   6.587 -0.0805 -0.4660  0.1850
 4402SOL    HW124665   2.972   2.685   6.580  0.0742 -0.0900  0.0215
 4402SOL    HW224666   3.109   2.734   6.593 -1.5568  0.5092 -1.6637
 4403SOL     OW24667   2.074   0.048   4.292  0.0181 -0.4633 -0.7536
 4403SOL    HW124668   2.031   4.689   4.272  0.5793 -0.4823 -1.8920
 4403SOL    HW224669   2.088   0.067   4.199 -1.9932  1.4761 -0.6722
 4404SOL     OW24670   4.677   4.719   6.303 -0.5233  0.7400 -0.5348
 4404SOL    HW124671   0.017   4.654   6.332 -1.4904  0.6084  1.3211
 4404SOL    HW224672   4.609   4.673   6.253 -0.9237 -0.8870  1.5092
 4405SOL     OW24673   3.045   3.036   3.175 -0.5063 -0.3486 -0.1007
 4405SOL    HW124674   2.970   3.094   3.174 -1.0224 -1.0574 -1.6937
 4405SOL    HW224675   3.092   3.065   3.254  1.0178 -1.0432 -0.7454
 4406SOL     OW24676   0.995   3.464   7.402 -0.6782 -0.0294  0.0491
 4406SOL    HW124677   1.071   3.515   7.374 -2.6699  1.3213 -2.8944
 4406SOL    HW224678   0.960   3.460   7.313  3.0253  1.2082 -1.4705
 4407SOL     OW24679   2.687   0.941   7.653  0.4207  0.4907  0.7481
 4407SOL    HW124680   2.700   0.846   7.661 -0.9080  0.4047  1.8376
 4407SOL    HW224681   2.592   0.943   7.665  0.5819 -1.5418  2.4706
 4408SOL     OW24682   1.863   2.869  14.552 -1.0387  0.2059  0.0492
 4408SOL    HW124683   1.869   2.908  14.464  3.6792  0.7655  0.6133
 4408SOL    HW224684   1.885   2.944  14.607 -0.0964  1.6131 -2.2201
 4409SOL     OW24685   0.053   4.032   1.300  0.6609 -0.2048  0.6884
 4409SOL    HW124686   4.694   4.013   1.344  0.2515 -0.7245 -0.2794
 4409SOL    HW224687   0.052   4.123   1.269  0.9542  0.1445  1.7327
 4410SOL     OW24688   2.771   4.615   3.802 -0.3939 -0.0411 -0.6977
 4410SOL    HW124689   2.739   4.705   3.807 -0.8068 -0.2052 -0.3267
 4410SOL    HW224690   2.738   4.603   3.713 -1.0745 -0.8670 -0.3360
 4411SOL     OW24691   1.659   0.039  14.120  0.2664  0.3184  0.8649
 4411SOL    HW124692   1.598   0.113  14.115  0.3681  0.4462  1.5225
 4411SOL    HW224693   1.628   4.719  14.198  0.3367 -3.5370 -1.3002
 4412SOL     OW24694   4.103   2.620   3.944  0.1683  0.8322  0.0521
 4412SOL    HW124695   4.046   2.557   3.900  0.4879  0.2344  0.4934
 4412SOL    HW224696   4.182   2.613   3.890  0.2913  0.8747  0.2295
 4413SOL     OW24697   1.763   2.111   4.152  0.3447  0.0680 -0.0757
 4413SOL    HW124698   1.714   2.054   4.093  0.4609  0.6059 -0.6947
 4413SOL    HW224699   1.786   2.040   4.211 -0.7294  1.3269  1.8603
 4414SOL     OW24700   1.311   1.898   5.536  0.5232  0.1326  0.7270
 4414SOL    HW124701   1.371   1.907   5.610  2.0200 -0.0253 -0.4447
 4414SOL    HW224702   1.293   1.804   5.535  1.3797 -0.0773  4.2781
 4415SOL     OW24703   3.172   0.606   4.516  0.1700 -0.6228 -0.1570
 4415SOL    HW124704   3.169   0.528   4.572 -0.2518 -1.0103 -0.7106
 4415SOL    HW224705   3.178   0.681   4.575 -0.5575 -0.4871 -0.2439
 4416SOL     OW24706   0.243   3.211  13.887  0.0874  0.3374 -0.3946
 4416SOL    HW124707   0.199   3.270  13.826  0.6593  1.0936 -0.0774
 4416SOL    HW224708   0.167   3.177  13.934 -0.2104  2.2909  0.5458
 4417SOL     OW24709   3.204   0.934   8.643  0.1233  0.0129  0.3351
 4417SOL    HW124710   3.165   0.859   8.688  0.0647  1.4826  2.7569
 4417SOL    HW224711   3.296   0.913   8.628  0.7285  3.2699 -0.4638
 4418SOL     OW24712   1.916   1.700   9.871 -0.5826 -0.4950 -0.0393
 4418SOL    HW124713   1.852   1.643   9.914 -0.5409  1.1096  2.1376
 4418SOL    HW224714   1.950   1.753   9.943 -1.0534  0.0391 -0.2125
 4419SOL     OW24715   1.855   2.063  11.824  0.3508  0.4278  0.3031
 4419SOL    HW124716   1.777   2.041  11.875  0.0824 -1.4666 -0.9180
 4419SOL    HW224717   1.813   2.133  11.775  1.0341 -1.4189 -2.9080
 4420SOL     OW24718   3.743   0.631   7.201 -0.6215 -0.0658  0.4195
 4420SOL    HW124719   3.812   0.593   7.256  1.0530  0.1019 -1.5530
 4420SOL    HW224720   3.768   0.569   7.132 -3.9033 -1.9983  0.9507
 4421SOL     OW24721   3.896   4.440   2.543  0.1770 -0.1058  0.1391
 4421SOL    HW124722   3.877   4.435   2.449  1.2209  1.0717 -0.1468
 4421SOL    HW224723   3.903   4.348   2.569 -1.0139 -0.2947 -0.2379
 4422SOL     OW24724   2.623   3.178   7.859 -0.2930 -0.5669  0.3973
 4422SOL    HW124725   2.606   3.191   7.953 -1.7984 -0.0952  0.0605
 4422SOL    HW224726   2.592   3.261   7.821 -1.4808 -1.3655 -0.3846
 4423SOL     OW24727   0.294   3.802  14.823 -0.3139  0.1659  0.5133
 4423SOL    HW124728   0.358   3.746  14.866 -1.3768  0.7312  2.8303
 4423SOL    HW224729   0.328   3.892  14.827 -0.2626  0.1638  0.1327
 4424SOL     OW24730   1.593   4.597   7.787 -0.1705  0.1525 -0.4468
 4424SOL    HW124731   1.584   4.653   7.710  3.6171 -1.8966 -2.3452
 4424SOL    HW224732   1.551   4.653   7.853 -2.1463  2.5120 -3.7173
 4425SOL     OW24733   3.768   2.977   0.045 -0.1295  1.1143  0.2288
 4425SOL    HW124734   3.753   3.069   0.024 -0.3442  0.8150 -0.9530
 4425SOL    HW224735   3.735   2.926  17.669  0.6021  0.2955  0.4595
 4426SOL     OW24736   4.344   2.466   3.769  0.0890  0.0779 -0.0343
 4426SOL    HW124737   4.415   2.410   3.738 -1.5016 -1.4957 -0.7622
 4426SOL    HW224738   4.276   2.454   3.703  0.2722  1.3769 -0.4762
 4427SOL     OW24739   0.293   1.046  15.213  0.1743 -0.4817  0.1318
 4427SOL    HW124740   0.214   1.071  15.166 -0.5376 -1.3727  0.8544
 4427SOL    HW224741   0.346   1.009  15.143 -0.1832 -0.2946 -0.2391
 4428SOL     OW24742   4.452   4.565   6.264  0.0765  0.0942  0.0043
 4428SOL    HW124743   4.373   4.595   6.220  1.5647  0.9643 -2.1215
 4428SOL    HW224744   4.442   4.470   6.274 -1.0202  0.2387  0.2005
 4429SOL     OW24745   3.498   2.420   5.835  0.2175  0.2282  0.2708
 4429SOL    HW124746   3.406   2.441   5.853  0.3058 -0.2687  1.2931
 4429SOL    HW224747   3.534   2.501   5.870  1.1040  0.2652 -0.7314
 4430SOL     OW24748   4.509   3.084  10.083 -0.1931 -0.4509 -0.5571
 4430SOL    HW124749   4.486   3.050  10.170  2.4403 -0.6811  0.0637
 4430SOL    HW224750   4.465   3.026  10.021 -2.1985 -2.4560  2.7009
 4431SOL     OW24751   0.735   0.178   3.157  0.3557 -0.5988  0.1224
 4431SOL    HW124752   0.756   0.248   3.219 -2.3552 -1.5558  2.1344
 4431SOL    HW224753   0.770   0.221   3.080 -0.4690  0.2170  0.2042
 4432SOL     OW24754   0.219   4.210   6.851  1.0786 -0.3808 -0.8989
 4432SOL    HW124755   0.160   4.285   6.862  3.3351  1.4049 -1.0017
 4432SOL    HW224756   0.270   4.201   6.931 -1.6910  2.2648  1.1570
 4433SOL     OW24757   1.534   0.355   6.685 -0.1145  0.2675  0.3758
 4433SOL    HW124758   1.594   0.283   6.707  1.0186  1.1054  0.0298
 4433SOL    HW224759   1.491   0.380   6.766  0.2667  1.1851  0.2929
 4434SOL     OW24760   3.026   2.494   4.111 -0.0260  0.0215 -0.5758
 4434SOL    HW124761   3.101   2.439   4.086  0.5945  0.3653  0.5092
 4434SOL    HW224762   2.987   2.442   4.181 -3.1708  0.7741 -1.7766
 4435SOL     OW24763   3.894   2.047   0.427 -0.4327  0.1240 -0.8679
 4435SOL    HW124764   3.986   2.052   0.402 -0.1574 -1.7893 -0.1984
 4435SOL    HW224765   3.871   1.989   0.355  0.0034 -2.5988  1.2117
 4436SOL     OW24766   0.907   3.977   3.636 -0.0435  0.4064  0.1303
 4436SOL    HW124767   0.865   3.906   3.588  0.0380  2.6319 -3.2275
 4436SOL    HW224768   0.946   4.031   3.568 -0.2920 -0.0211 -0.3505
 4437SOL     OW24769   0.720   3.374   6.494  0.4347 -0.8621  0.0838
 4437SOL    HW124770   0.726   3.330   6.409  0.5560  2.8800 -1.8383
 4437SOL    HW224771   0.720   3.467   6.472  1.0159 -1.0675 -0.8031
 4438SOL     OW24772   3.628   3.828   3.152  0.1799  0.2729 -0.0946
 4438SOL    HW124773   3.666   3.823   3.064  0.7969  1.6473  0.0888
 4438SOL    HW224774   3.660   3.751   3.200 -0.1652  0.7305  0.8815
 4439SOL     OW24775   4.138   4.159  14.058 -0.4143  0.2366  0.1040
 4439SOL    HW124776   4.134   4.067  14.083 -2.8193  0.6805  1.3812
 4439SOL    HW224777   4.224   4.161  14.018  0.2264 -5.3930  1.3207
 4440SOL     OW24778   2.499   1.919   6.852  0.2594 -0.0839 -0.2475
 4440SOL    HW124779   2.555   1.935   6.928 -0.5900  0.8039  0.1963
 4440SOL    HW224780   2.550   1.952   6.777 -0.1982  0.2721 -0.4084
 4441SOL     OW24781   2.796   1.704  17.319  0.6676 -0.2090 -0.3239
 4441SOL    HW124782   2.835   1.791  17.313  1.6901 -0.8102 -2.5465
 4441SOL    HW224783   2.803   1.686  17.413  0.5348 -0.6500 -0.3985
 4442SOL     OW24784   3.329   4.021   2.219  0.2426 -0.3486  0.7893
 4442SOL    HW124785   3.344   4.086   2.288 -1.2798  2.2746 -1.3605
 4442SOL    HW224786   3.315   4.081   2.146 -0.3522  0.4364  1.5567
 4443SOL     OW24787   2.182   1.178   3.729 -0.6464 -1.0273 -0.4849
 4443SOL    HW124788   2.274   1.153   3.731 -0.1491  1.0045  0.9853
 4443SOL    HW224789   2.178   1.272   3.715  0.9477 -0.9860 -0.5924
 4444SOL     OW24790   3.205   2.805  13.475  0.3066  0.4169  0.0110
 4444SOL    HW124791   3.215   2.882  13.531  2.7172 -1.2485  1.8350
 4444SOL    HW224792   3.289   2.804  13.428 -0.5853  0.3837 -1.6060
 4445SOL     OW24793   1.114   2.354   2.113  0.5651 -0.1765  0.2692
 4445SOL    HW124794   1.046   2.412   2.078 -0.4863 -3.3123 -2.8393
 4445SOL    HW224795   1.191   2.392   2.072 -0.9944  0.8860 -1.6855
 4446SOL     OW24796   0.550   3.220  11.790 -0.5770 -0.4329  0.3255
 4446SOL    HW124797   0.554   3.283  11.862  0.4119  1.5558 -1.4404
 4446SOL    HW224798   0.550   3.141  11.843  1.4092  0.6930  2.0340
 4447SOL     OW24799   3.965   4.639  10.738  0.2197 -0.1817  0.4738
 4447SOL    HW124800   4.030   4.706  10.721 -1.3950  1.2830  0.0436
 4447SOL    HW224801   3.904   4.661  10.668  0.5098  0.6397  0.4830
 4448SOL     OW24802   4.299   3.451   4.837  0.2936  0.3735  0.5906
 4448SOL    HW124803   4.283   3.387   4.907  0.0078  2.1890  2.2034
 4448SOL    HW224804   4.298   3.542   4.866  1.3100  0.5349  0.1224
 4449SOL     OW24805   3.215   0.547   6.615 -0.3055 -0.3841 -0.7012
 4449SOL    HW124806   3.196   0.456   6.593  0.0827  0.2432 -3.5877
 4449SOL    HW224807   3.285   0.565   6.552  2.3037 -1.1657  1.9764
 4450SOL     OW24808   1.362   1.908  15.252 -0.4610 -0.0985  0.2278
 4450SOL    HW124809   1.385   1.970  15.321 -0.4938 -0.4159  0.5294
 4450SOL    HW224810   1.339   1.963  15.177 -1.3505 -1.0417 -0.1994
 4451SOL     OW24811   0.979   0.813   3.627 -0.5160 -0.1081  0.4542
 4451SOL    HW124812   0.987   0.758   3.705  0.8713 -2.2029 -1.1723
 4451SOL    HW224813   0.914   0.878   3.655  0.3671  1.5303 -1.3106
 4452SOL     OW24814   3.665   1.633  12.076 -0.2228  0.1509 -0.3284
 4452SOL    HW124815   3.725   1.701  12.046  1.4081 -1.2846 -0.3472
 4452SOL    HW224816   3.708   1.609  12.158  1.3879  0.2353 -1.1275
 4453SOL     OW24817   3.206   4.576   8.747 -0.4409  0.4656 -0.2262
 4453SOL    HW124818   3.122   4.572   8.792 -0.0991  1.2792  0.4997
 4453SOL    HW224819   3.251   4.642   8.800  1.8121 -2.0117  0.9681
 4454SOL     OW24820   1.619   2.080  11.941 -0.3715 -0.5602 -0.1820
 4454SOL    HW124821   1.622   2.124  12.025  2.9390 -0.6109 -0.2833
 4454SOL    HW224822   1.553   2.015  11.968 -1.2526 -0.4495 -1.9986
 4455SOL     OW24823   1.907   2.771  16.706  0.0040 -0.1777 -0.4000
 4455SOL    HW124824   1.941   2.687  16.677 -1.0890 -1.0080  0.7126
 4455SOL    HW224825   1.979   2.818  16.664 -0.2822  0.4318 -0.2173
 4456SOL     OW24826   2.951   2.994  14.037  0.3527 -0.2383  0.3995
 4456SOL    HW124827   2.879   3.033  13.988  1.2735 -0.3331 -1.0353
 4456SOL    HW224828   2.906   2.957  14.112 -0.5560  0.8189  0.3654
 4457SOL     OW24829   4.509   0.178   4.381  0.3516 -0.1837  0.5423
 4457SOL    HW124830   4.501   0.270   4.355  0.7049 -0.1680  0.4918
 4457SOL    HW224831   4.581   0.183   4.443  1.7792 -0.7868 -1.0768
 4458SOL     OW24832   0.172   4.574   7.006 -0.3898 -0.3183  0.5824
 4458SOL    HW124833   0.265   4.583   6.986 -0.3108 -2.3067  0.0305
 4458SOL    HW224834   0.174   4.538   7.095 -0.4678 -1.0759  0.2748
 4459SOL     OW24835   1.170   0.463   3.745 -0.5463  0.4731 -0.4419
 4459SOL    HW124836   1.094   0.514   3.771 -0.2264  0.4469  0.5609
 4459SOL    HW224837   1.145   0.378   3.780  0.5219  1.0569  1.7491
 4460SOL     OW24838   2.059   1.260   6.087  0.1420 -0.0547 -0.4048
 4460SOL    HW124839   2.042   1.234   6.178 -0.4007  1.2505 -0.1263
 4460SOL    HW224840   2.028   1.351   6.090 -0.4064 -0.2090 -1.6397
 4461SOL     OW24841   4.201   1.927  15.648 -0.0064  0.2106  0.3206
 4461SOL    HW124842   4.256   1.927  15.569 -1.2652 -0.0979 -0.5523
 4461SOL    HW224843   4.147   1.851  15.625 -2.2269  1.5555  1.1571
 4462SOL     OW24844   4.338   2.337   2.794 -0.4113  0.2110  0.4558
 4462SOL    HW124845   4.386   2.328   2.877  1.1582  1.3555 -0.3250
 4462SOL    HW224846   4.358   2.428   2.773  1.3404  0.0434  1.3930
 4463SOL     OW24847   1.328   3.504   1.778  0.5314  0.3845 -0.1416
 4463SOL    HW124848   1.407   3.450   1.790 -0.3594 -0.6803  0.8544
 4463SOL    HW224849   1.368   3.579   1.733 -1.6238 -0.0612 -2.8272
 4464SOL     OW24850   1.161   0.976  11.626 -0.2443  0.4588  0.5593
 4464SOL    HW124851   1.218   0.902  11.649  0.0609  0.3488 -0.5528
 4464SOL    HW224852   1.194   0.993  11.538 -1.3699  3.1127  0.6684
 4465SOL     OW24853   0.309   1.385   8.520 -0.8180 -0.1930 -0.4559
 4465SOL    HW124854   0.287   1.477   8.505 -0.8523 -0.1477 -0.1221
 4465SOL    HW224855   0.397   1.388   8.558 -0.7653  1.1698 -0.6574
 4466SOL     OW24856   0.983   1.760  10.901  0.1893 -0.2605  0.3859
 4466SOL    HW124857   0.960   1.772  10.808  0.1882  1.2011  0.5814
 4466SOL    HW224858   1.077   1.749  10.892  0.1949  0.9698 -1.1558
 4467SOL     OW24859   0.027   3.922   3.003  0.2129  0.6813  0.2926
 4467SOL    HW124860   4.657   3.925   3.019 -0.1632 -1.3190 -1.5832
 4467SOL    HW224861   0.066   3.903   3.089 -1.1724  1.4426  1.0783
 4468SOL     OW24862   2.466   4.058  15.286 -0.0349 -0.1799 -0.2194
 4468SOL    HW124863   2.551   4.096  15.309  0.0890 -0.4923 -0.1608
 4468SOL    HW224864   2.477   3.969  15.318  1.3135  0.4676  1.1053
 4469SOL     OW24865   0.510   2.343  17.160  0.3594  0.5892 -0.3836
 4469SOL    HW124866   0.591   2.330  17.209  0.3420  1.5964 -0.0877
 4469SOL    HW224867   0.485   2.417  17.215 -0.9830 -1.4328  1.7213
 4470SOL     OW24868   0.436   1.443  14.145  0.3738 -0.4120 -0.0319
 4470SOL    HW124869   0.439   1.508  14.075 -2.1080  2.5032  2.6077
 4470SOL    HW224870   0.360   1.473  14.195  1.2917  0.5267  0.8014
 4471SOL     OW24871   0.385   0.383   3.023  0.3665 -0.0762 -0.4035
 4471SOL    HW124872   0.331   0.314   3.061 -1.1104  1.6734  0.6597
 4471SOL    HW224873   0.374   0.370   2.929 -1.0718  0.0171 -0.2470
 4472SOL     OW24874   1.222   3.301   2.753  0.2887 -0.0405 -0.3199
 4472SOL    HW124875   1.299   3.318   2.700  1.6908  1.1407  2.0642
 4472SOL    HW224876   1.258   3.258   2.831 -1.9888 -0.7606  0.3394
 4473SOL     OW24877   0.218   1.995   3.338  0.1053 -0.4424  0.5302
 4473SOL    HW124878   0.229   2.018   3.431  0.6897  2.4287 -0.2451
 4473SOL    HW224879   0.182   2.079   3.311 -1.8263 -0.8540  1.8503
 4474SOL     OW24880   0.798   1.036   5.147 -0.5460 -0.6006  0.4476
 4474SOL    HW124881   0.891   1.036   5.170 -0.3331 -0.5044 -0.4194
 4474SOL    HW224882   0.792   1.130   5.128  0.7264 -0.4340  0.8760
 4475SOL     OW24883   0.060   1.637   8.199 -0.2298  0.7598  0.3656
 4475SOL    HW124884   0.078   1.697   8.126  2.9285 -0.8861 -0.2201
 4475SOL    HW224885   0.085   1.550   8.168  2.0287  2.2886 -2.1564
 4476SOL     OW24886   0.177   0.106   5.293  0.0030  0.2927 -0.1740
 4476SOL    HW124887   0.131   0.188   5.311  1.4999  1.2787 -0.9042
 4476SOL    HW224888   0.265   0.140   5.282  0.4630 -0.8814 -0.0388
 4477SOL     OW24889   0.101   4.156  17.208  0.3343  0.4799  0.0686
 4477SOL    HW124890   0.108   4.181  17.300  3.0045 -1.4955  0.4262
 4477SOL    HW224891   0.080   4.241  17.171  0.6931  0.8331  0.6763
 4478SOL     OW24892   1.431   1.284   6.801 -0.3065  0.1980 -0.5735
 4478SOL    HW124893   1.477   1.267   6.883  1.3430 -1.2790 -1.8046
 4478SOL    HW224894   1.341   1.254   6.818  0.0093  0.2707  1.2002
 4479SOL     OW24895   0.771   1.349   6.982 -0.8515  0.1444 -0.1826
 4479SOL    HW124896   0.693   1.367   6.929 -1.5044  0.2324  0.8127
 4479SOL    HW224897   0.737   1.288   7.047  1.3919  0.9883  1.8057
 4480SOL     OW24898   0.675   1.693   1.441  0.5394  0.0515 -0.0920
 4480SOL    HW124899   0.608   1.706   1.374 -0.0821 -0.6273  0.4040
 4480SOL    HW224900   0.667   1.601   1.463  2.5443 -0.4872 -1.5867
 4481SOL     OW24901   2.447   0.601   9.864  0.1979 -0.3874 -0.0380
 4481SOL    HW124902   2.467   0.508   9.864  0.7413 -0.2743  2.0735
 4481SOL    HW224903   2.520   0.621   9.806  0.5241 -0.4531  0.3489
 4482SOL     OW24904   2.489   1.623   4.129 -0.7625 -0.0139  1.2140
 4482SOL    HW124905   2.578   1.592   4.109 -1.3837 -0.4669 -0.7828
 4482SOL    HW224906   2.486   1.709   4.088 -1.6614 -0.2599  0.7662
 4483SOL     OW24907   4.378   4.055   7.830 -0.8494 -0.0757  0.2194
 4483SOL    HW124908   4.344   4.143   7.848  1.0871  0.5446  0.8248
 4483SOL    HW224909   4.287   4.024   7.830 -0.6962 -0.5159  0.3106
 4484SOL     OW24910   3.657   4.483  14.201  0.3229  0.0349 -0.2231
 4484SOL    HW124911   3.605   4.533  14.263  1.0642  0.7202 -0.1568
 4484SOL    HW224912   3.682   4.403  14.248 -1.4148 -1.0544 -1.1628
 4485SOL     OW24913   2.813   3.843   3.157  0.3154 -1.0610  0.2362
 4485SOL    HW124914   2.808   3.934   3.185  0.9293 -0.3115 -2.0956
 4485SOL    HW224915   2.742   3.804   3.209 -1.6216  1.8838 -0.1780
 4486SOL     OW24916   0.430   3.435   1.994 -0.0831  0.2621 -0.0309
 4486SOL    HW124917   0.438   3.443   1.899 -0.1707  1.2517  0.0532
 4486SOL    HW224918   0.522   3.445   2.019 -0.7967  3.7393  1.0670
 4487SOL     OW24919   3.534   1.524   6.366  0.2064  0.3622  0.2470
 4487SOL    HW124920   3.449   1.496   6.331 -0.0876 -0.4675  1.5989
 4487SOL    HW224921   3.565   1.452   6.422  0.4700 -0.7705 -1.3585
 4488SOL     OW24922   2.923   0.745   2.388 -0.2045  0.0466 -0.5261
 4488SOL    HW124923   2.887   0.696   2.314  1.0459 -0.6368 -0.6858
 4488SOL    HW224924   2.929   0.687   2.463  2.1210  1.1303  0.1391
 4489SOL     OW24925   2.913   2.458   3.409  0.2515  0.1583  0.3182
 4489SOL    HW124926   2.898   2.366   3.389 -0.5281  0.1662  0.8718
 4489SOL    HW224927   2.838   2.479   3.464 -0.6243  0.5884 -1.0305
 4490SOL     OW24928   1.612   2.166   2.467 -0.5407 -0.3925  0.0569
 4490SOL    HW124929   1.587   2.213   2.546  1.4777 -0.4416  0.7235
 4490SOL    HW224930   1.703   2.154   2.493 -0.9214 -2.4259  0.4396
 4491SOL     OW24931   0.035   4.151   4.578  0.2620  0.0349 -0.5430
 4491SOL    HW124932   4.723   4.066   4.599 -0.8277  0.6031 -0.1129
 4491SOL    HW224933   4.695   4.213   4.614  1.1123  1.4860 -1.4788
 4492SOL     OW24934   2.465   0.972   9.604  0.2684 -0.3854  0.3768
 4492SOL    HW124935   2.411   0.933   9.535 -0.7003  2.4581 -0.4753
 4492SOL    HW224936   2.511   0.891   9.627 -0.1671 -0.9886 -0.8286
 4493SOL     OW24937   0.235   1.898   8.554  0.0346  0.1362 -0.4062
 4493SOL    HW124938   0.168   1.850   8.603  0.1551  0.4001  0.0216
 4493SOL    HW224939   0.240   1.980   8.602 -4.2014 -0.8593  1.7502
 4494SOL     OW24940   0.884   0.623   1.839 -0.4902 -0.4185 -0.0336
 4494SOL    HW124941   0.923   0.609   1.925 -0.5154  0.2941  0.0947
 4494SOL    HW224942   0.962   0.639   1.784 -1.3016  1.9877 -0.5131
 4495SOL     OW24943   0.279   2.999   4.813 -0.2323  0.7879 -0.5097
 4495SOL    HW124944   0.268   3.093   4.826 -1.4156  0.2921  2.0014
 4495SOL    HW224945   0.276   2.997   4.717 -0.9053 -2.9622 -0.3996
 4496SOL     OW24946   4.111   0.128   1.162 -0.0803  0.0935 -0.4721
 4496SOL    HW124947   4.015   0.126   1.165 -0.1380 -1.1272 -3.6058
 4496SOL    HW224948   4.115   0.069   1.087 -2.4758  0.0082 -0.5341
 4497SOL     OW24949   3.480   2.663   7.897 -0.3031  0.5240  0.3114
 4497SOL    HW124950   3.489   2.603   7.971  0.4650 -0.0873 -0.2801
 4497SOL    HW224951   3.571   2.692   7.886 -1.0366  1.4471 -3.1163
 4498SOL     OW24952   2.103   1.988   0.419 -0.3091 -0.4543  0.3107
 4498SOL    HW124953   2.067   1.947   0.341  0.1577  1.8346 -1.1103
 4498SOL    HW224954   2.077   1.934   0.493 -0.6887 -2.1323 -1.0596
 4499SOL     OW24955   3.239   4.273   7.439  0.9011 -0.5666 -0.0748
 4499SOL    HW124956   3.321   4.230   7.414  2.8680  1.5769  2.7093
 4499SOL    HW224957   3.273   4.331   7.507  0.7515  0.8389 -1.2067
 4500SOL     OW24958   1.544   4.267  16.448  0.1418 -0.0090  0.0588
 4500SOL    HW124959   1.596   4.250  16.369  2.0518 -0.7614  1.4980
 4500SOL    HW224960   1.474   4.202  16.440 -1.8573  2.1367  0.1720
 4501SOL     OW24961   1.079   1.108   5.222 -0.7721 -0.1697  0.1410
 4501SOL    HW124962   1.051   1.200   5.222 -0.2994 -0.0135 -2.3908
 4501SOL    HW224963   1.173   1.110   5.202 -1.3905  2.5469 -2.5252
 4502SOL     OW24964   0.691   0.527   5.457 -0.0801 -0.1431 -0.0178
 4502SOL    HW124965   0.746   0.537   5.380  0.2205 -0.8394  0.1011
 4502SOL    HW224966   0.651   0.611   5.479  0.8650  0.1764  0.4363
 4503SOL     OW24967   2.474   4.493   0.239  0.7688 -1.5066  0.2358
 4503SOL    HW124968   2.499   4.508   0.330  0.3455  1.1042 -0.0810
 4503SOL    HW224969   2.392   4.542   0.249  2.4992  1.5326 -0.6099
 4504SOL     OW24970   1.863   1.040   0.620  0.2752 -0.5000 -0.0663
 4504SOL    HW124971   1.823   0.964   0.579 -1.6531  0.4774  0.0145
 4504SOL    HW224972   1.792   1.064   0.679 -0.3261 -1.6765 -0.3311
 4505SOL     OW24973   1.316   2.556   5.073  0.1332 -0.1730 -0.1180
 4505SOL    HW124974   1.284   2.638   5.035  1.2792  0.5133  0.3971
 4505SOL    HW224975   1.411   2.569   5.076  0.0894  0.2613 -0.8253
 4506SOL     OW24976   2.751   1.553  15.148 -0.0543 -0.3865 -0.0388
 4506SOL    HW124977   2.840   1.562  15.182 -0.3118  0.2099  0.4787
 4506SOL    HW224978   2.702   1.543  15.230 -1.0525 -0.3501 -0.6312
 4507SOL     OW24979   2.119   1.994  15.139 -0.4034  0.3165  0.0405
 4507SOL    HW124980   2.067   1.922  15.175  2.3557 -1.6275  0.1022
 4507SOL    HW224981   2.167   1.936  15.081 -0.5505  1.6995 -1.4903
 4508SOL     OW24982   3.822   2.615   3.982 -0.1606 -0.0937 -0.1683
 4508SOL    HW124983   3.749   2.638   3.925  1.0464 -1.5660 -2.3077
 4508SOL    HW224984   3.895   2.667   3.946 -0.4005  1.2674  1.3063
 4509SOL     OW24985   0.860   3.177   6.682 -0.0864 -0.4740  0.5242
 4509SOL    HW124986   0.815   3.196   6.600  1.6537  1.8477  0.1062
 4509SOL    HW224987   0.820   3.247   6.733 -0.8304  0.4943 -1.3988
 4510SOL     OW24988   4.613   1.651   2.700 -0.0326 -0.0800 -0.2320
 4510SOL    HW124989   4.633   1.616   2.787 -1.1952 -2.3164 -0.8665
 4510SOL    HW224990   4.518   1.642   2.701 -0.2146  1.6738 -1.6793
 4511SOL     OW24991   1.019   2.453  16.510  0.1485  0.1663 -0.0332
 4511SOL    HW124992   1.089   2.422  16.567 -0.4869  0.1328  0.7150
 4511SOL    HW224993   1.052   2.540  16.486  1.8863  0.2465  2.6859
 4512SOL     OW24994   2.469   2.964   0.553  0.7138 -0.3732  0.0091
 4512SOL    HW124995   2.549   2.913   0.552  1.5430  0.9142  1.7005
 4512SOL    HW224996   2.443   2.940   0.642 -0.1603 -2.0930 -0.6980
 4513SOL     OW24997   2.461   3.673   5.609 -0.4054  0.1865  0.3277
 4513SOL    HW124998   2.415   3.704   5.687 -1.7016 -0.4354 -0.1840
 4513SOL    HW224999   2.490   3.754   5.566  2.5017 -0.9626  0.1031
 4514SOL     OW25000   0.896   0.663   8.885 -0.0775  0.3920  0.1116
 4514SOL    HW125001   0.849   0.679   8.967 -1.0790 -0.4022 -0.3164
 4514SOL    HW225002   0.822   0.667   8.825 -1.5780  0.6160  1.9898
 4515SOL     OW25003   1.797   0.203   5.110 -0.0241  0.2092 -0.2846
 4515SOL    HW125004   1.772   0.203   5.017 -1.3974  0.1832  0.0722
 4515SOL    HW225005   1.714   0.233   5.147  0.8874  0.9118  1.1775
 4516SOL     OW25006   4.431   0.645   8.747 -0.7968 -0.0550  0.1494
 4516SOL    HW125007   4.511   0.614   8.791 -0.0701  1.8071  0.1672
 4516SOL    HW225008   4.469   0.708   8.686 -1.1927 -1.5904 -1.6774
 4517SOL     OW25009   3.437   3.614   8.879  0.0475  0.5066 -0.0028
 4517SOL    HW125010   3.529   3.601   8.854  0.2132 -0.7308  1.2486
 4517SOL    HW225011   3.403   3.679   8.818 -0.1995 -0.8930 -1.3344
 4518SOL     OW25012   2.208   2.950   6.939  0.4945  0.5656 -0.5632
 4518SOL    HW125013   2.260   2.980   6.864  1.6634 -1.8026 -0.7143
 4518SOL    HW225014   2.176   2.868   6.899  1.7604 -0.5313  0.6723
 4519SOL     OW25015   1.102   2.590   7.956  0.3103  0.0432 -0.4464
 4519SOL    HW125016   1.142   2.519   8.006 -2.5657 -0.2986  1.3590
 4519SOL    HW225017   1.013   2.602   7.989  1.0139 -0.9738  1.8114
 4520SOL     OW25018   0.846   1.214  12.111  0.3232 -0.1515 -0.5668
 4520SOL    HW125019   0.757   1.247  12.125  0.3032 -1.1748  1.6830
 4520SOL    HW225020   0.900   1.251  12.181 -0.9949  0.7520 -0.0287
 4521SOL     OW25021   2.746   4.054   3.734  0.3017 -0.0044  0.1858
 4521SOL    HW125022   2.740   4.013   3.648 -1.8476  0.3228  0.1988
 4521SOL    HW225023   2.667   4.032   3.783 -0.0035  1.5010  0.3841
 4522SOL     OW25024   1.142   1.144   0.973  0.5589 -0.1116  0.0518
 4522SOL    HW125025   1.098   1.200   0.910 -1.0147  0.1358  1.3534
 4522SOL    HW225026   1.102   1.057   0.966  1.1945 -0.5553  1.8762
 4523SOL     OW25027   0.740   4.683   4.765 -0.5978  0.5141  0.4077
 4523SOL    HW125028   0.823   0.003   4.746 -1.4734  3.1062  2.6356
 4523SOL    HW225029   0.750   4.589   4.751  1.5457  1.0314 -1.5472
 4524SOL     OW25030   3.920   4.226   2.886 -0.2903 -0.4069  0.0337
 4524SOL    HW125031   3.948   4.148   2.934 -1.5396 -1.3546 -0.7935
 4524SOL    HW225032   3.834   4.245   2.922  0.5058  1.1570  1.1495
 4525SOL     OW25033   0.257   3.505   3.311 -0.2299  0.3649  0.0618
 4525SOL    HW125034   0.331   3.522   3.369 -0.7843  0.9470  0.6058
 4525SOL    HW225035   0.294   3.536   3.228 -0.0563 -0.5293 -0.1875
 4526SOL     OW25036   2.165   0.967  10.459  0.4925  0.0453 -0.2641
 4526SOL    HW125037   2.207   0.938  10.540  1.0919  0.4141 -0.4404
 4526SOL    HW225038   2.089   1.011  10.495  0.2469 -0.9922  0.4732
 4527SOL     OW25039   0.523   2.602  12.995 -0.6623 -0.1499  0.1170
 4527SOL    HW125040   0.578   2.676  12.969 -1.0495  0.3718  0.7765
 4527SOL    HW225041   0.581   2.529  13.016 -1.4800 -0.7244  0.3584
 4528SOL     OW25042   1.237   2.851   7.690 -0.0042 -0.2303 -0.3073
 4528SOL    HW125043   1.161   2.896   7.727  0.0219  0.8283 -1.5748
 4528SOL    HW225044   1.308   2.912   7.709 -0.5711  0.7024 -1.2461
 4529SOL     OW25045   0.243   3.271   7.809  0.6114  0.1280 -0.5955
 4529SOL    HW125046   0.251   3.276   7.714 -1.6850  0.0510 -0.7955
 4529SOL    HW225047   0.316   3.326   7.835  1.2327 -0.5046 -0.9919
 4530SOL     OW25048   2.743   2.417  14.525 -0.3782  0.0060 -0.6746
 4530SOL    HW125049   2.757   2.503  14.566 -0.2160  0.0028 -0.7229
 4530SOL    HW225050   2.657   2.427  14.484  0.3755  0.7971 -2.0520
 4531SOL     OW25051   1.954   3.171   5.583  0.4022  0.1679 -0.3465
 4531SOL    HW125052   2.029   3.126   5.622  0.1528  0.2577  0.2423
 4531SOL    HW225053   1.935   3.246   5.639 -2.3072 -0.3113 -0.6004
 4532SOL     OW25054   3.207   4.205  11.634 -0.1457  0.0169 -0.3029
 4532SOL    HW125055   3.135   4.147  11.610 -1.7550  2.0247 -0.3575
 4532SOL    HW225056   3.256   4.147  11.692 -0.2528  2.8219  2.6256
 4533SOL     OW25057   1.684   2.260   5.287  0.1140  0.5437  0.4767
 4533SOL    HW125058   1.736   2.282   5.209 -1.9399 -2.1799 -1.6366
 4533SOL    HW225059   1.614   2.210   5.245  0.9950  0.3105 -0.7291
 4534SOL     OW25060   4.513   2.731  14.984  0.0136 -0.1010  0.2193
 4534SOL    HW125061   4.582   2.797  14.972 -1.5088  1.3207 -0.6107
 4534SOL    HW225062   4.447   2.783  15.028  0.9292 -0.2981  1.8108
 4535SOL     OW25063   3.381   2.698  16.855 -1.0033  0.0964 -0.0914
 4535SOL    HW125064   3.351   2.786  16.830 -1.9663 -0.1221  0.2919
 4535SOL    HW225065   3.324   2.667  16.925 -0.9654  0.1111 -0.0544
 4536SOL     OW25066   1.415   0.564   3.784 -0.3159 -0.1291  0.0555
 4536SOL    HW125067   1.405   0.591   3.875 -1.8081  2.5121 -0.9024
 4536SOL    HW225068   1.324   0.548   3.760 -0.7008  1.2374  0.6245
 4537SOL     OW25069   2.387   3.072   6.766 -0.3544  0.6626 -0.0788
 4537SOL    HW125070   2.443   3.025   6.827 -0.7251 -1.4212 -1.3500
 4537SOL    HW225071   2.446   3.147   6.757  0.6358 -0.0092  0.8586
 4538SOL     OW25072   1.179   2.955   6.125  0.2905  0.3671 -0.0876
 4538SOL    HW125073   1.259   2.919   6.163  0.9217  0.9613 -0.8479
 4538SOL    HW225074   1.181   3.027   6.188 -0.3180 -0.5355  0.9614
 4539SOL     OW25075   4.526   2.124   4.712  0.2878  0.4556 -0.5520
 4539SOL    HW125076   4.608   2.146   4.756  0.1789 -0.6508  0.1812
 4539SOL    HW225077   4.541   2.031   4.696 -1.8732  0.0570 -0.2172
 4540SOL     OW25078   1.711   2.803   3.612 -0.1977 -0.4028  0.1642
 4540SOL    HW125079   1.642   2.817   3.677  0.1938  1.3489  0.1997
 4540SOL    HW225080   1.674   2.728   3.565 -1.0964 -0.2706  0.6619
 4541SOL     OW25081   2.797   2.831   3.349  0.0405  0.0597  0.6335
 4541SOL    HW125082   2.717   2.841   3.297  1.9041  0.7423 -2.0539
 4541SOL    HW225083   2.788   2.911   3.401 -2.2095  0.1658  0.1179
 4542SOL     OW25084   0.589   4.460   2.998  0.0002 -0.0822 -0.4460
 4542SOL    HW125085   0.639   4.517   3.056 -1.1427 -2.1622  2.5710
 4542SOL    HW225086   0.531   4.525   2.958 -0.8362 -0.5789 -0.0483
 4543SOL     OW25087   3.444   3.010   3.199  0.0176  0.8391 -0.0357
 4543SOL    HW125088   3.390   3.078   3.238 -3.1535 -1.6254 -0.0941
 4543SOL    HW225089   3.426   2.937   3.258  1.1957  0.5939  0.0209
 4544SOL     OW25090   0.816   3.426   4.884  0.0146 -0.2647 -0.1532
 4544SOL    HW125091   0.887   3.420   4.948  0.0898  3.1647  0.0676
 4544SOL    HW225092   0.749   3.373   4.928  0.2220  0.6667  1.2658
 4545SOL     OW25093   3.392   4.311   2.997  0.1013 -0.6700  0.4227
 4545SOL    HW125094   3.333   4.249   3.039  1.8368 -3.2104 -0.9392
 4545SOL    HW225095   3.367   4.387   3.050 -1.2446 -1.8202  1.4329
 4546SOL     OW25096   0.561   1.477   5.961  0.4506  0.2207 -0.5778
 4546SOL    HW125097   0.638   1.530   5.941  0.7519  0.3490  0.9313
 4546SOL    HW225098   0.491   1.522   5.913  1.5264  1.3737 -1.0797
 4547SOL     OW25099   1.106   0.749   6.131 -0.4900  0.3119  0.0094
 4547SOL    HW125100   1.139   0.746   6.041 -1.4231 -2.3402 -0.2479
 4547SOL    HW225101   1.083   0.841   6.145 -0.1066  0.2885  0.7992
 4548SOL     OW25102   2.716   1.875   9.913  0.2230 -0.0518 -0.8216
 4548SOL    HW125103   2.744   1.784   9.921 -3.1454 -0.9336  1.1579
 4548SOL    HW225104   2.800   1.918   9.924  0.9262 -1.5936 -0.2431
 4549SOL     OW25105   2.829   3.217   3.425  0.7157 -0.3407  0.1964
 4549SOL    HW125106   2.918   3.216   3.460  0.6649  2.0198  0.4085
 4549SOL    HW225107   2.792   3.147   3.477 -2.7452 -2.6877 -5.3502
 4550SOL     OW25108   3.053   4.477   4.305 -0.4174 -0.0314  0.1055
 4550SOL    HW125109   2.971   4.482   4.255 -0.3170  0.2079 -0.0345
 4550SOL    HW225110   3.111   4.436   4.241  0.7020 -1.1091  1.7896
 4551SOL     OW25111   3.533   3.298   8.810  0.3984  0.1825  0.4249
 4551SOL    HW125112   3.585   3.377   8.818  2.5916 -1.2225  0.0067
 4551SOL    HW225113   3.453   3.319   8.858 -0.1590  0.9379 -0.8338
 4552SOL     OW25114   4.041   0.868   4.253  0.5540 -0.1855  1.1930
 4552SOL    HW125115   4.098   0.792   4.265  1.5460  0.2327 -0.8395
 4552SOL    HW225116   3.958   0.825   4.273 -0.0500 -1.4609 -3.9233
 4553SOL     OW25117   1.063   1.876  15.299 -0.3025 -0.2772 -0.3488
 4553SOL    HW125118   1.152   1.876  15.266  0.3426  0.4659  1.3948
 4553SOL    HW225119   1.015   1.895  15.218  0.4642 -0.5608 -0.8641
 4554SOL     OW25120   0.245   1.504   7.494 -0.3188  0.5804  0.3956
 4554SOL    HW125121   0.325   1.454   7.482 -0.5468  0.5848 -1.1041
 4554SOL    HW225122   0.282   1.592   7.503  1.7391 -0.3921  1.3911
 4555SOL     OW25123   2.623   0.146   8.409  0.0976 -0.1202  0.1959
 4555SOL    HW125124   2.692   0.091   8.372  2.6838  1.7572  2.2415
 4555SOL    HW225125   2.649   0.157   8.500  1.5540 -2.7872  0.0981
 4556SOL     OW25126   4.225   1.555   0.949  0.3524  0.6594 -0.0868
 4556SOL    HW125127   4.186   1.571   0.862 -2.2199 -1.8086  0.6062
 4556SOL    HW225128   4.284   1.480   0.945  0.9224  1.0895  0.2326
 4557SOL     OW25129   2.709   4.001   6.163 -0.5728 -0.0212 -0.1841
 4557SOL    HW125130   2.625   4.034   6.194  0.8326  1.7955  1.6236
 4557SOL    HW225131   2.761   4.077   6.189 -1.0477  0.2454 -0.0275
 4558SOL     OW25132   3.429   2.264   4.926  0.1294  0.3199  0.1346
 4558SOL    HW125133   3.345   2.305   4.944 -1.2526 -2.4141 -0.0255
 4558SOL    HW225134   3.466   2.270   5.014  0.5569 -0.2029 -0.0065
 4559SOL     OW25135   2.904   3.713  12.902 -0.5036  0.1001  0.1398
 4559SOL    HW125136   2.993   3.749  12.905 -0.5211  0.2846 -1.6453
 4559SOL    HW225137   2.907   3.650  12.974  0.4603 -0.8402 -0.7149
 4560SOL     OW25138   0.760   0.461   5.734 -0.1126 -0.3565 -0.6842
 4560SOL    HW125139   0.716   0.460   5.649 -0.4142  0.4162 -0.5329
 4560SOL    HW225140   0.715   0.387   5.774 -0.1120  0.1310  0.2101
 4561SOL     OW25141   3.021   1.866  10.270  0.4272 -0.5617 -0.2034
 4561SOL    HW125142   3.015   1.954  10.234 -0.3092  0.3964  2.2918
 4561SOL    HW225143   2.991   1.895  10.356 -0.2754  0.3352 -0.7568
 4562SOL     OW25144   3.933   2.788   5.563 -0.0639  0.0514 -0.6293
 4562SOL    HW125145   3.901   2.751   5.480 -1.3757 -0.1806 -0.0069
 4562SOL    HW225146   3.902   2.717   5.619 -1.0748  0.9715 -0.0333
 4563SOL     OW25147   0.160   3.149   6.448  0.5967  0.1174  0.4119
 4563SOL    HW125148   0.124   3.130   6.535 -0.7136 -0.6285 -0.2859
 4563SOL    HW225149   0.174   3.061   6.413 -0.1343  0.0546  0.2681
 4564SOL     OW25150   3.956   2.886  16.343  0.2492  0.6424 -0.1714
 4564SOL    HW125151   3.960   2.810  16.285 -0.9424  0.6273 -0.2387
 4564SOL    HW225152   4.051   2.893  16.343  0.2227  1.0596  1.3771
 4565SOL     OW25153   2.766   3.346   6.947 -0.1986  0.6117  0.4853
 4565SOL    HW125154   2.829   3.285   6.909  1.2061  2.8919 -0.8848
 4565SOL    HW225155   2.797   3.364   7.036  0.9604  0.7480  0.0526
 4566SOL     OW25156   1.797   0.716   1.666 -0.0107  0.3348  0.0864
 4566SOL    HW125157   1.843   0.636   1.642 -1.4145 -0.4556 -0.0015
 4566SOL    HW225158   1.735   0.738   1.596 -0.8182 -0.0059  0.6965
 4567SOL     OW25159   2.594   0.686  15.778  0.4749 -0.3344  0.3714
 4567SOL    HW125160   2.576   0.729  15.862  1.1728 -0.1936  0.4532
 4567SOL    HW225161   2.580   0.759  15.718  0.0716 -1.1395 -0.4931
 4568SOL     OW25162   2.092   0.924   4.707  0.1135  0.3425  0.3850
 4568SOL    HW125163   2.021   0.861   4.723  0.3987  0.0416  0.4553
 4568SOL    HW225164   2.141   0.870   4.646  0.8981 -0.0283  1.3480
 4569SOL     OW25165   3.791   3.822   7.569 -0.0565  0.6804 -0.1097
 4569SOL    HW125166   3.856   3.893   7.567  0.4480  0.1901 -0.8568
 4569SOL    HW225167   3.710   3.873   7.557  0.6985  1.6283 -1.1421
 4570SOL     OW25168   1.094   2.903  15.638  1.0446 -0.1942  0.0373
 4570SOL    HW125169   1.076   2.815  15.606  1.8593 -0.8867  1.4596
 4570SOL    HW225170   1.107   2.952  15.557  2.0060 -0.1500  0.2145
 4571SOL     OW25171   0.662   2.134  13.798 -0.2045  0.1747 -0.1430
 4571SOL    HW125172   0.713   2.084  13.862 -1.5313 -0.2541  0.5855
 4571SOL    HW225173   0.642   2.217  13.842  0.8799  0.5314 -0.3240
 4572SOL     OW25174   3.030   4.313   5.877 -0.2662 -0.0537  0.5606
 4572SOL    HW125175   2.987   4.371   5.815 -0.1949 -0.4753  0.1135
 4572SOL    HW225176   3.117   4.290   5.844 -1.1176 -0.5523 -1.3444
 4573SOL     OW25177   3.192   1.530   6.026  0.0593  0.2347  1.0538
 4573SOL    HW125178   3.138   1.585   5.969  1.2487 -0.0372 -0.3633
 4573SOL    HW225179   3.281   1.545   5.993  0.5899 -2.3631  1.3687
 4574SOL     OW25180   0.007   4.638   5.329  0.2208 -0.4512  0.4769
 4574SOL    HW125181   0.075   4.591   5.376  0.2252 -0.7787  0.1465
 4574SOL    HW225182   0.064   4.711   5.304  1.0080 -1.6396 -1.2675
 4575SOL     OW25183   1.600   0.618   2.847 -0.3773 -0.2159 -0.3600
 4575SOL    HW125184   1.521   0.598   2.898  1.0611 -0.4989  1.7654
 4575SOL    HW225185   1.574   0.685   2.784  0.1247 -1.9497 -2.3973
 4576SOL     OW25186   0.264   2.127   7.954 -0.0906  0.5022  0.5001
 4576SOL    HW125187   0.257   2.125   8.050 -0.5896  1.1664  0.4707
 4576SOL    HW225188   0.208   2.199   7.927  1.5552  2.0464  1.1547
 4577SOL     OW25189   3.990   0.508   5.124  0.3247 -0.1571 -0.4029
 4577SOL    HW125190   3.995   0.486   5.031  2.3924  2.0543 -0.8161
 4577SOL    HW225191   4.007   0.425   5.168 -3.4464  0.1217  1.5528
 4578SOL     OW25192   1.774   1.085   8.501  0.3912 -0.3491 -0.5032
 4578SOL    HW125193   1.820   1.081   8.585  0.1897 -0.4263 -0.3965
 4578SOL    HW225194   1.779   1.179   8.485 -0.1627 -0.6064 -2.2145
 4579SOL     OW25195   2.497   3.127   3.175  0.3578 -0.4540 -0.1182
 4579SOL    HW125196   2.564   3.188   3.146  1.8065 -1.3671  1.3091
 4579SOL    HW225197   2.486   3.151   3.267 -1.8053  3.4318 -1.4316
 4580SOL     OW25198   2.354   0.659   5.133 -0.3401 -0.2002  0.1137
 4580SOL    HW125199   2.377   0.593   5.198  1.8205  2.3582  1.9283
 4580SOL    HW225200   2.408   0.642   5.056 -1.5215 -2.2018 -0.2706
 4581SOL     OW25201   3.198   0.146   3.424  0.5712 -0.4526 -0.0243
 4581SOL    HW125202   3.150   0.143   3.341  0.7383  1.5626 -0.1952
 4581SOL    HW225203   3.258   0.219   3.405 -2.0021  1.1239 -2.0295
 4582SOL     OW25204   2.993   0.074  14.933  0.1578  0.4593  0.2311
 4582SOL    HW125205   2.945   0.052  14.852 -0.2182  0.9255  0.3303
 4582SOL    HW225206   2.928   0.126  14.980 -1.1858 -0.3997 -0.6538
 4583SOL     OW25207   1.202   0.781   5.872 -0.4565 -0.1544 -0.5262
 4583SOL    HW125208   1.188   0.719   5.800  2.3015 -1.0186 -0.3170
 4583SOL    HW225209   1.295   0.781   5.894 -0.0735  2.4002 -2.1074
 4584SOL     OW25210   0.939   1.325  16.855 -0.1777 -0.3179  0.0970
 4584SOL    HW125211   0.877   1.385  16.896  1.7848  1.8944 -0.1855
 4584SOL    HW225212   0.891   1.244  16.835  0.8922 -1.6897  2.9692
 4585SOL     OW25213   2.003   0.910   1.358 -0.2320  0.3698 -0.7259
 4585SOL    HW125214   2.007   0.965   1.436 -2.0692 -0.5325  0.0238
 4585SOL    HW225215   2.086   0.863   1.354  0.2395  1.1674 -0.2580
 4586SOL     OW25216   2.975   1.319  14.755  0.3887  0.0426  0.5880
 4586SOL    HW125217   3.051   1.320  14.813  1.1649  0.2825 -0.4306
 4586SOL    HW225218   2.905   1.349  14.813 -0.6440  0.7775 -1.0344
 4587SOL     OW25219   3.764   1.713  10.357  0.1346  0.7069 -0.2196
 4587SOL    HW125220   3.709   1.679  10.286 -1.0651 -1.0622  1.5486
 4587SOL    HW225221   3.758   1.804  10.329 -1.2382  0.9471  0.8037
 4588SOL     OW25222   2.112   0.415   1.898  0.1398 -0.1648  0.2619
 4588SOL    HW125223   2.017   0.404   1.889  0.2031 -2.2418  2.0960
 4588SOL    HW225224   2.132   0.504   1.870  1.9519 -0.1660  1.5479
 4589SOL     OW25225   4.536   3.092   7.683  0.3801 -0.3475  0.4134
 4589SOL    HW125226   4.626   3.106   7.712 -0.7438  0.8272  3.3975
 4589SOL    HW225227   4.487   3.069   7.762  1.4782 -1.5601  0.7334
 4590SOL     OW25228   0.464   0.563   8.298  0.0418 -0.1828  0.0059
 4590SOL    HW125229   0.488   0.607   8.216  0.1398  0.2914  0.2890
 4590SOL    HW225230   0.425   0.633   8.350  1.8598 -2.1174  3.9529
 4591SOL     OW25231   0.705   0.999   1.135 -0.7659  0.0494 -0.2441
 4591SOL    HW125232   0.773   0.939   1.165 -1.8696 -1.2723 -0.3729
 4591SOL    HW225233   0.631   0.941   1.152 -0.9286  0.7277  1.3398
 4592SOL     OW25234   4.390   0.335   4.800 -0.1624 -0.2540  0.2850
 4592SOL    HW125235   4.370   0.293   4.716 -0.1440 -0.7623  0.5379
 4592SOL    HW225236   4.415   0.421   4.768  2.0878 -0.5953  1.1612
 4593SOL     OW25237   3.031   3.329   7.637 -0.4614  0.4754  0.6863
 4593SOL    HW125238   3.119   3.298   7.614 -0.3650  0.5131  0.9985
 4593SOL    HW225239   3.023   3.290   7.724 -1.7745 -0.6162  0.0783
 4594SOL     OW25240   0.374   0.591   0.946 -0.3443 -0.2312  0.1720
 4594SOL    HW125241   0.334   0.528   1.006 -0.8412 -2.4267 -2.4873
 4594SOL    HW225242   0.461   0.559   0.924 -0.7843 -1.9092  0.8766
 4595SOL     OW25243   3.176   3.943   7.205 -0.7153  0.0924 -0.5359
 4595SOL    HW125244   3.263   3.945   7.246 -0.3275  0.1603 -1.3705
 4595SOL    HW225245   3.118   3.979   7.272  1.5251 -0.1202  1.5222
 4596SOL     OW25246   1.963   0.292  12.991  0.1428 -0.0731  0.7480
 4596SOL    HW125247   2.028   0.239  13.038  0.4703  0.7126  1.1788
 4596SOL    HW225248   1.917   0.325  13.068 -1.9935 -1.7161  0.1648
 4597SOL     OW25249   4.014   3.871   8.366 -0.6179 -0.1601  0.3001
 4597SOL    HW125250   4.007   3.811   8.441 -0.3506 -0.7652 -0.1626
 4597SOL    HW225251   4.073   3.825   8.306  0.6864  0.9413  0.7362
 4598SOL     OW25252   2.679   0.990  10.189 -0.7404 -0.0009 -0.1634
 4598SOL    HW125253   2.653   0.947  10.108 -0.8520  1.3228 -0.8199
 4598SOL    HW225254   2.764   1.019  10.156 -0.4778  1.7904  2.0178
 4599SOL     OW25255   3.429   3.721  16.667  0.2700 -0.2093 -0.5347
 4599SOL    HW125256   3.403   3.765  16.748  1.9544  1.1193 -0.7089
 4599SOL    HW225257   3.394   3.633  16.679 -3.2455  1.3145  0.5017
 4600SOL     OW25258   3.828   1.403  11.093  0.3259 -0.0266  0.7671
 4600SOL    HW125259   3.830   1.343  11.018  0.6478  0.5945  0.2792
 4600SOL    HW225260   3.874   1.346  11.154  0.4062  1.1970  1.8578
 4601SOL     OW25261   1.332   3.461   3.547 -0.5348 -0.2288  0.8148
 4601SOL    HW125262   1.409   3.514   3.569 -0.8448  1.3499 -1.7890
 4601SOL    HW225263   1.374   3.377   3.564  1.5744  0.5442 -0.4644
 4602SOL     OW25264   2.509   2.351   8.511 -0.1038  0.0138  0.5087
 4602SOL    HW125265   2.494   2.445   8.511  1.1431  0.2071 -1.8186
 4602SOL    HW225266   2.423   2.321   8.539  0.1538 -1.4293 -0.2413
 4603SOL     OW25267   3.907   4.254  16.170  0.2886  0.1843 -0.1733
 4603SOL    HW125268   3.835   4.228  16.113  0.6238 -0.0269 -0.5020
 4603SOL    HW225269   3.864   4.230  16.252 -0.8908  0.0678 -0.8311
 4604SOL     OW25270   1.189   1.335   9.646 -0.0644  0.1461 -0.0800
 4604SOL    HW125271   1.266   1.391   9.653  0.8041 -1.1492  0.8119
 4604SOL    HW225272   1.130   1.410   9.660  1.0139  0.9745 -0.0108
 4605SOL     OW25273   0.275   0.074   7.721 -0.1708  0.2895  0.4129
 4605SOL    HW125274   0.317   0.003   7.673 -1.5726  0.6121 -1.2672
 4605SOL    HW225275   0.184   0.062   7.695 -0.5876  0.7001  1.6995
 4606SOL     OW25276   1.953   2.627   4.919  0.2760 -0.3071  0.1353
 4606SOL    HW125277   2.003   2.709   4.922  0.1713 -0.1667 -1.6174
 4606SOL    HW225278   2.016   2.556   4.911  1.1287  0.3499  1.1149
 4607SOL     OW25279   4.414   0.540   2.373 -0.1379 -0.4776 -0.2563
 4607SOL    HW125280   4.479   0.475   2.345 -0.5382 -1.0815  0.2373
 4607SOL    HW225281   4.452   0.617   2.330 -1.5741  0.0830 -0.4995
 4608SOL     OW25282   0.927   0.129   7.205  0.2089 -0.0317  0.2474
 4608SOL    HW125283   0.963   0.104   7.290 -0.2969 -0.4622  0.3317
 4608SOL    HW225284   0.921   0.048   7.155 -1.8985  0.5712 -0.4955
 4609SOL     OW25285   3.694   2.105   2.776 -0.1251 -1.1407 -0.4028
 4609SOL    HW125286   3.784   2.080   2.798 -0.3026 -1.8540 -0.4895
 4609SOL    HW225287   3.700   2.199   2.797 -0.7665 -1.2073  0.0953
 4610SOL     OW25288   1.804   0.711   5.945 -0.3666  0.3963 -0.0766
 4610SOL    HW125289   1.810   0.774   5.873  3.1052 -0.2039 -0.3194
 4610SOL    HW225290   1.849   0.637   5.903  2.7987  1.2641  1.8193
 4611SOL     OW25291   2.612   3.428  17.224  0.0866 -0.1133  0.1017
 4611SOL    HW125292   2.651   3.345  17.251  1.0372  0.1937 -0.3313
 4611SOL    HW225293   2.566   3.458  17.303  0.9582  2.7310 -0.4752
 4612SOL     OW25294   1.470   3.759   1.642 -0.3938  0.4705  0.5002
 4612SOL    HW125295   1.566   3.763   1.648 -0.3623 -0.6033  0.8100
 4612SOL    HW225296   1.458   3.747   1.547  0.3507 -0.7684  0.5625
 4613SOL     OW25297   2.381   0.907   2.031 -0.0658 -0.1940 -0.4037
 4613SOL    HW125298   2.308   0.861   2.072 -0.2877  1.6611  1.3218
 4613SOL    HW225299   2.420   0.955   2.104 -0.8365  2.5668 -1.7900
 4614SOL     OW25300   3.995   3.227  16.339 -0.0396 -0.5815 -0.4993
 4614SOL    HW125301   3.951   3.287  16.400  0.3154 -0.5483 -0.2829
 4614SOL    HW225302   3.950   3.144  16.354 -0.5367 -0.7344 -2.8172
 4615SOL     OW25303   4.542   3.229   8.115  0.1004  0.0677 -0.1051
 4615SOL    HW125304   4.523   3.142   8.151 -2.4466  0.8707  0.4941
 4615SOL    HW225305   4.571   3.194   8.031  1.2473 -0.9230  0.6964
 4616SOL     OW25306   3.079   2.581   2.126 -0.5731 -0.1174  0.0901
 4616SOL    HW125307   3.091   2.544   2.039 -1.3324 -0.7174  0.2348
 4616SOL    HW225308   3.084   2.499   2.176 -1.2503 -1.2458 -1.6667
 4617SOL     OW25309   3.815   3.966  11.546  0.5724 -0.0538 -0.5157
 4617SOL    HW125310   3.787   4.026  11.478 -0.9318  2.3357  2.2316
 4617SOL    HW225311   3.805   3.880  11.505 -2.6519 -0.6672  1.6070
 4618SOL     OW25312   3.207   1.831   6.171 -0.3933 -0.7511 -0.3640
 4618SOL    HW125313   3.124   1.863   6.137 -0.8287 -0.5685  0.8675
 4618SOL    HW225314   3.260   1.847   6.092  2.2140 -0.6302  1.3917
 4619SOL     OW25315   4.074   2.089   7.941 -0.1440  0.7637  0.2040
 4619SOL    HW125316   4.064   2.137   8.023 -0.4165 -1.1006  1.2655
 4619SOL    HW225317   4.114   2.009   7.975  0.4819  0.7459 -0.5578
 4620SOL     OW25318   0.685   0.626   2.133 -0.1267  0.2719 -0.4652
 4620SOL    HW125319   0.599   0.593   2.158  0.7495 -1.2190  0.5799
 4620SOL    HW225320   0.707   0.677   2.211 -0.3521 -1.0527  0.4550
 4621SOL     OW25321   3.193   3.295   8.471  0.3166  0.1403  0.6980
 4621SOL    HW125322   3.208   3.201   8.461  0.5944  0.1629  0.9138
 4621SOL    HW225323   3.167   3.312   8.562 -2.1381  1.0139 -0.1648
 4622SOL     OW25324   4.296   0.459   1.998 -0.0220 -0.0238  0.6771
 4622SOL    HW125325   4.299   0.553   2.018 -3.2421 -0.2786  2.3032
 4622SOL    HW225326   4.249   0.432   2.077 -0.3849 -1.7810 -0.1454
 4623SOL     OW25327   0.409   2.969   9.143  0.3479  0.2892  0.2454
 4623SOL    HW125328   0.393   2.974   9.237 -0.2525 -1.1730  0.2168
 4623SOL    HW225329   0.505   2.967   9.135  0.4974  0.6556  2.1645
 4624SOL     OW25330   2.357   4.688   7.993  0.0149  0.2615 -0.4496
 4624SOL    HW125331   2.294   4.649   8.054 -1.4404 -0.5002 -2.4046
 4624SOL    HW225332   2.438   4.686   8.043 -0.7638  2.0951  0.8812
 4625SOL     OW25333   4.371   4.300   9.391 -0.1980 -0.3796  0.0887
 4625SOL    HW125334   4.369   4.393   9.368  1.1541 -0.9382 -2.2397
 4625SOL    HW225335   4.342   4.302   9.483 -0.1766 -0.7725  0.1028
 4626SOL     OW25336   1.403   1.746   6.409 -0.4934  0.1080 -0.8476
 4626SOL    HW125337   1.344   1.763   6.335 -1.2365  0.0491 -0.2736
 4626SOL    HW225338   1.385   1.823   6.462 -0.3188 -1.0294  0.8605
 4627SOL     OW25339   3.821   3.531   8.333 -0.3325  0.1052  0.4411
 4627SOL    HW125340   3.756   3.560   8.397 -1.9049  0.0218 -1.1173
 4627SOL    HW225341   3.789   3.569   8.251 -1.1541  2.8520  2.0542
 4628SOL     OW25342   4.508   2.888  10.297  0.2751 -0.6477 -0.3653
 4628SOL    HW125343   4.520   2.935  10.380 -2.0849  0.1682 -0.5010
 4628SOL    HW225344   4.577   2.821  10.294  0.2703 -0.6576 -0.2564
 4629SOL     OW25345   1.604   3.842  16.126  0.1734  0.6168 -0.9853
 4629SOL    HW125346   1.660   3.919  16.121  1.5456 -0.1614  2.4668
 4629SOL    HW225347   1.660   3.767  16.143 -1.3325  0.0554  1.4975
 4630SOL     OW25348   4.612   2.040  10.800 -0.1157 -0.6832 -0.4563
 4630SOL    HW125349   4.577   2.125  10.828  2.1049  0.0115  0.1841
 4630SOL    HW225350   4.705   2.059  10.806 -0.3908  0.1703  1.0785
 4631SOL     OW25351   2.543   2.426   6.211  0.0703  0.2462  0.3620
 4631SOL    HW125352   2.589   2.365   6.153  1.4706  1.5853  0.0471
 4631SOL    HW225353   2.458   2.383   6.223 -1.1828  2.4735 -0.5507
 4632SOL     OW25354   4.202   2.167  11.028  0.2800  0.8182 -0.1059
 4632SOL    HW125355   4.253   2.229  10.975 -2.2051  4.6497  1.9572
 4632SOL    HW225356   4.273   2.116  11.067 -0.2253 -0.4915 -0.9129
 4633SOL     OW25357   2.894   1.810   3.038 -0.1394 -0.8042  0.0859
 4633SOL    HW125358   2.966   1.822   2.976  0.6774 -1.8198  0.8426
 4633SOL    HW225359   2.819   1.847   2.990 -0.5096 -0.5266  0.8723
 4634SOL     OW25360   1.864   4.471  14.804 -0.3191  0.0652 -0.1723
 4634SOL    HW125361   1.846   4.377  14.797  0.6210 -0.1273 -0.0535
 4634SOL    HW225362   1.921   4.465  14.727 -0.5784  1.3539 -0.4566
 4635SOL     OW25363   2.834   1.553   3.264  0.1652 -0.0247 -0.1829
 4635SOL    HW125364   2.750   1.593   3.240 -0.7767 -1.6264  0.4359
 4635SOL    HW225365   2.870   1.536   3.177 -1.7300 -0.0454 -0.9586
 4636SOL     OW25366   2.551   3.771   3.642  0.6124 -0.1117 -0.0633
 4636SOL    HW125367   2.554   3.809   3.553 -0.5394  1.7254  0.6752
 4636SOL    HW225368   2.643   3.759   3.665 -0.2083 -3.6214  1.3280
 4637SOL     OW25369   1.918   0.943   1.072 -0.3499  0.3200 -0.4445
 4637SOL    HW125370   1.925   0.930   1.167  1.0810  3.0965 -0.1766
 4637SOL    HW225371   1.872   0.867   1.037 -0.3052 -1.2562  2.8643
 4638SOL     OW25372   4.054   0.538   8.824 -0.3953 -0.6818  0.1145
 4638SOL    HW125373   3.961   0.525   8.846 -0.4734  0.0147  0.1990
 4638SOL    HW225374   4.051   0.571   8.735  1.2553 -0.6600  0.0675
 4639SOL     OW25375   4.047   0.600   3.344  0.5045  0.0653 -0.7102
 4639SOL    HW125376   4.029   0.555   3.262 -4.6846  0.0596  0.3953
 4639SOL    HW225377   4.083   0.684   3.314 -0.6629  0.5769 -0.6861
 4640SOL     OW25378   1.374   2.984   3.141 -0.3064 -0.0588 -0.0655
 4640SOL    HW125379   1.452   2.962   3.090  0.0599 -0.9441  0.8818
 4640SOL    HW225380   1.406   3.060   3.188  1.0277  0.1436 -1.2865
 4641SOL     OW25381   4.074   4.223   1.884 -0.6775 -0.4893  0.2852
 4641SOL    HW125382   4.000   4.177   1.844  0.3516 -1.1759 -0.8378
 4641SOL    HW225383   4.131   4.245   1.811 -0.7793  0.6951  0.5697
 4642SOL     OW25384   3.739   3.361   1.821  0.2283 -0.2262  0.0307
 4642SOL    HW125385   3.731   3.380   1.915  2.8208  1.7380 -0.1487
 4642SOL    HW225386   3.645   3.342   1.815  0.4157 -1.0225 -0.2389
 4643SOL     OW25387   3.572   3.910   1.271 -0.1838 -0.0806 -0.4893
 4643SOL    HW125388   3.541   3.883   1.184 -2.3195  0.5768  0.0610
 4643SOL    HW225389   3.607   3.998   1.257 -2.1232  0.7198 -0.3458
 4644SOL     OW25390   3.049   4.032   2.185  0.0982 -0.3578 -0.3172
 4644SOL    HW125391   3.006   3.946   2.179 -1.1435  0.3721 -2.1299
 4644SOL    HW225392   3.143   4.016   2.192  0.2513  0.7845  0.1296
 4645SOL     OW25393   0.185   2.406   0.353  0.4501  0.1038 -0.2718
 4645SOL    HW125394   0.190   2.388   0.447  1.4335 -0.6211 -0.4619
 4645SOL    HW225395   0.264   2.456   0.337  0.9121 -1.5990 -3.3247
 4646SOL     OW25396   0.684   4.307   3.436 -0.3648  0.0370  0.5263
 4646SOL    HW125397   0.764   4.352   3.461 -0.1385  0.6528 -1.3634
 4646SOL    HW225398   0.616   4.356   3.482 -0.2323 -0.1560  0.9353
 4647SOL     OW25399   0.295   0.536   6.735  0.4472  0.2085  0.2382
 4647SOL    HW125400   0.321   0.483   6.810  0.3439 -0.4753 -0.2007
 4647SOL    HW225401   0.212   0.494   6.710  2.2645 -1.6758 -2.7090
 4648SOL     OW25402   0.557   1.993   4.183 -0.1835 -0.0544 -0.3443
 4648SOL    HW125403   0.480   1.985   4.127 -1.0377  1.4789  0.6159
 4648SOL    HW225404   0.528   1.925   4.244  0.9494 -0.1248  0.1341
 4649SOL     OW25405   2.964   1.943   6.161  0.3702 -0.4450  0.7670
 4649SOL    HW125406   2.922   1.929   6.246  0.6903 -0.2760  0.9525
 4649SOL    HW225407   2.958   2.036   6.138  1.8883 -0.9283 -1.5841
 4650SOL     OW25408   0.335   0.470  17.510 -0.4214  0.1297 -0.0285
 4650SOL    HW125409   0.303   0.461  17.420  2.8894 -2.4149 -0.9387
 4650SOL    HW225410   0.427   0.478  17.485  0.2859  1.0464  2.9114
 4651SOL     OW25411   2.932   3.969   1.014 -0.1976 -0.4254 -0.1384
 4651SOL    HW125412   2.987   3.904   0.971  0.0242  0.8002 -1.7077
 4651SOL    HW225413   2.944   4.048   0.962  3.8497  0.2423  1.8213
 4652SOL     OW25414   3.894   0.360  17.046  0.0621  0.6055  0.0836
 4652SOL    HW125415   3.975   0.386  17.090  0.9561 -0.7686 -0.7459
 4652SOL    HW225416   3.833   0.400  17.108 -0.7122 -3.0375  1.6702
 4653SOL     OW25417   1.532   1.929   1.901  0.7346  0.1767  0.0676
 4653SOL    HW125418   1.545   1.912   1.807 -1.2737  0.7277 -0.3066
 4653SOL    HW225419   1.620   1.912   1.935  0.0131 -0.9536  1.3680
 4654SOL     OW25420   2.228   4.260   1.866  0.0953 -0.1344 -0.2902
 4654SOL    HW125421   2.185   4.296   1.789  0.9152 -2.0981 -1.6888
 4654SOL    HW225422   2.214   4.166   1.855  1.5524 -0.1831 -1.7245
 4655SOL     OW25423   4.416   1.979   1.637 -0.3483  0.3830 -0.2316
 4655SOL    HW125424   4.474   2.025   1.577  2.5859 -1.5937  1.1093
 4655SOL    HW225425   4.347   1.956   1.575  0.0074  0.1839 -0.5523
 4656SOL     OW25426   2.597   3.380   4.981  0.4752 -0.5793 -0.8671
 4656SOL    HW125427   2.603   3.426   5.065 -1.1750  1.2235 -1.7442
 4656SOL    HW225428   2.629   3.291   4.996 -0.1615 -0.3193  2.1450
 4657SOL     OW25429   0.553   3.364   0.093  0.2724 -0.5092 -0.2636
 4657SOL    HW125430   0.599   3.294   0.139  1.1653  0.3342  0.1195
 4657SOL    HW225431   0.562   3.439   0.152 -0.1476  0.0536 -0.9093
 4658SOL     OW25432   2.193   3.852   2.459 -0.3485  0.2454 -0.7664
 4658SOL    HW125433   2.192   3.766   2.501 -0.7526  1.2717  1.3007
 4658SOL    HW225434   2.235   3.901   2.529 -1.0567  1.5642 -1.2553
 4659SOL     OW25435   1.345   1.890  13.497  0.9093 -0.4989 -0.4666
 4659SOL    HW125436   1.422   1.947  13.498  0.1886  0.4509  0.2355
 4659SOL    HW225437   1.311   1.904  13.409 -0.6657  0.4413  0.2982
 4660SOL     OW25438   2.640   2.421   3.278  0.6614  0.1529 -0.0235
 4660SOL    HW125439   2.667   2.404   3.188 -2.3555  2.2132 -1.3262
 4660SOL    HW225440   2.647   2.334   3.317 -0.2716  0.0820 -0.0158
 4661SOL     OW25441   1.480   2.594   6.228  0.2306 -0.1147  0.0631
 4661SOL    HW125442   1.520   2.517   6.187  3.0986  0.5496  1.5967
 4661SOL    HW225443   1.507   2.595   6.320 -1.7553 -0.0392  0.6436
 4662SOL     OW25444   3.996   3.230  12.665 -0.5802  0.5796 -0.6858
 4662SOL    HW125445   3.938   3.185  12.603  2.0445 -2.4689 -0.9468
 4662SOL    HW225446   3.934   3.287  12.710 -1.5055 -0.9812 -0.0164
 4663SOL     OW25447   1.525   1.629   2.968  0.3170 -0.2563  0.5651
 4663SOL    HW125448   1.532   1.723   2.948  1.5483 -0.4057  0.2565
 4663SOL    HW225449   1.554   1.599   2.881  0.2032 -2.3366  1.2497
 4664SOL     OW25450   1.925   4.112   8.901 -0.8381 -0.4929  0.3245
 4664SOL    HW125451   1.832   4.132   8.892  0.0981  4.0510  0.7958
 4664SOL    HW225452   1.956   4.173   8.968  0.1261  0.8846 -1.3760
 4665SOL     OW25453   2.281   1.777   4.927 -0.0109 -0.6062  0.3523
 4665SOL    HW125454   2.213   1.797   4.862  2.5234  0.6990 -1.9062
 4665SOL    HW225455   2.285   1.857   4.979 -2.1283 -1.1551  1.3676
 4666SOL     OW25456   1.589   3.498   0.973 -0.1520 -0.0827  0.3251
 4666SOL    HW125457   1.643   3.431   0.932 -0.2547  0.5681 -0.8740
 4666SOL    HW225458   1.511   3.448   0.997  1.1601 -3.1924 -1.9051
 4667SOL     OW25459   1.473   1.426   7.919 -0.3981 -0.2479 -0.1229
 4667SOL    HW125460   1.517   1.509   7.904  2.0759 -1.7287 -1.1458
 4667SOL    HW225461   1.545   1.377   7.960 -1.5053 -0.7286  1.2513
 4668SOL     OW25462   4.315   0.706  11.888  0.0229 -0.3238  0.0990
 4668SOL    HW125463   4.333   0.800  11.883 -4.4595  0.5668  0.7480
 4668SOL    HW225464   4.291   0.693  11.796  0.4159 -0.0109 -0.0467
 4669SOL     OW25465   0.791   3.393   6.857 -0.1012 -0.5417 -0.2078
 4669SOL    HW125466   0.781   3.332   6.930 -0.9053 -0.8895 -0.6156
 4669SOL    HW225467   0.729   3.461   6.884 -0.5860 -1.1784  0.2776
 4670SOL     OW25468   2.412   0.920   7.635 -0.1075 -0.2334 -0.1681
 4670SOL    HW125469   2.331   0.871   7.654  0.0506 -0.1923  0.5900
 4670SOL    HW225470   2.371   0.973   7.567  0.9560  2.3161  1.1898
 4671SOL     OW25471   3.021   2.286   6.901 -0.6987 -0.2674  0.1911
 4671SOL    HW125472   3.020   2.370   6.854  0.5399 -0.9477 -1.0890
 4671SOL    HW225473   3.008   2.306   6.993  0.8125 -1.1750  0.6052
 4672SOL     OW25474   4.508   2.521   6.383 -0.2447  0.4316  0.2685
 4672SOL    HW125475   4.562   2.513   6.461 -0.9304 -2.8956  0.3677
 4672SOL    HW225476   4.541   2.456   6.320 -2.2063  0.2287 -0.5398
 4673SOL     OW25477   0.821   1.189   0.441 -0.7255  0.2997 -0.2454
 4673SOL    HW125478   0.740   1.150   0.471 -0.0841  0.3869  1.6025
 4673SOL    HW225479   0.834   1.136   0.362  1.3280 -0.1398  0.3904
 4674SOL     OW25480   2.237   3.877   6.188 -0.3329 -0.6186 -0.3454
 4674SOL    HW125481   2.149   3.851   6.162 -0.8149 -1.0179  1.7257
 4674SOL    HW225482   2.228   3.971   6.172  0.7969 -0.3801  0.4099
 4675SOL     OW25483   1.048   2.577   5.192 -0.1708  0.6102 -0.1836
 4675SOL    HW125484   1.129   2.621   5.217 -0.1281  0.1887  0.4260
 4675SOL    HW225485   0.978   2.611   5.248 -0.8373 -2.1054  0.6409
 4676SOL     OW25486   0.456   2.382   7.858 -0.2359 -0.4405  0.3129
 4676SOL    HW125487   0.462   2.287   7.870 -0.1252 -0.3913  0.6307
 4676SOL    HW225488   0.495   2.403   7.773 -3.1391  0.6793 -0.7512
 4677SOL     OW25489   2.543   0.923   5.475 -0.1449  0.4940  0.7651
 4677SOL    HW125490   2.495   0.965   5.546  2.7226  1.9749  1.8470
 4677SOL    HW225491   2.477   0.895   5.412 -1.0074  1.9128  1.0400
 4678SOL     OW25492   1.656   0.596   6.137  0.0608 -0.2507  0.0792
 4678SOL    HW125493   1.722   0.542   6.181 -0.8165 -0.4831  1.1426
 4678SOL    HW225494   1.708   0.646   6.075 -0.4009 -2.2014 -1.8797
 4679SOL     OW25495   0.630   0.559   4.696  0.3287 -0.6853 -0.1363
 4679SOL    HW125496   0.715   0.553   4.652  0.0766  1.3032 -0.9048
 4679SOL    HW225497   0.668   0.555   4.783  1.4263  0.4586 -0.5490
 4680SOL     OW25498   3.948   2.185   5.450  0.9098  0.2725  0.6014
 4680SOL    HW125499   3.994   2.265   5.474  1.0605  0.3965 -0.0845
 4680SOL    HW225500   3.946   2.187   5.354  0.7906  1.0879  0.6226
 4681SOL     OW25501   0.204   2.260   7.713  0.4910 -0.3664  0.1826
 4681SOL    HW125502   0.250   2.176   7.710  0.8623 -0.1973  1.3999
 4681SOL    HW225503   0.120   2.244   7.757 -0.7298 -2.0572 -2.7289
 4682SOL     OW25504   2.804   0.892   6.065 -0.5184 -0.2727  0.4261
 4682SOL    HW125505   2.875   0.851   6.015 -0.0579  1.2777 -0.1891
 4682SOL    HW225506   2.775   0.822   6.124  0.3239 -1.1691 -0.2353
 4683SOL     OW25507   4.069   1.919   9.020  0.5447  0.0642  0.6969
 4683SOL    HW125508   4.124   1.957   9.089  0.1379  1.0493  0.4679
 4683SOL    HW225509   4.059   1.997   8.966  0.2716  0.3505  1.1573
 4684SOL     OW25510   1.223   0.899   8.325  0.0345 -0.3910 -0.0311
 4684SOL    HW125511   1.292   0.888   8.390  1.0376 -0.5001 -1.1234
 4684SOL    HW225512   1.166   0.828   8.355 -0.0181 -0.9809 -1.5290
 4685SOL     OW25513   1.834   2.993   5.405 -0.5180  0.5793  0.1472
 4685SOL    HW125514   1.876   3.066   5.450 -1.1266 -0.8254  2.9450
 4685SOL    HW225515   1.906   2.974   5.344 -0.8128  3.1199 -1.0221
 4686SOL     OW25516   4.565   2.436  14.233  0.3430 -0.5846 -0.3929
 4686SOL    HW125517   4.610   2.358  14.199  1.6701 -0.1326  0.3348
 4686SOL    HW225518   4.488   2.387  14.261 -1.4867  2.9437  0.6242
 4687SOL     OW25519   2.047   3.795   0.527 -0.0837  0.4291 -0.0800
 4687SOL    HW125520   2.105   3.757   0.593 -2.0166 -0.5254  1.0810
 4687SOL    HW225521   1.975   3.732   0.532 -0.2860  0.6215 -0.6012
 4688SOL     OW25522   0.650   0.899   2.320  0.3219  0.1645 -0.3664
 4688SOL    HW125523   0.601   0.871   2.398  0.4655  1.4066  0.1694
 4688SOL    HW225524   0.579   0.901   2.256  1.4138  3.9340 -1.4572
 4689SOL     OW25525   1.736   2.681   9.525  0.2844  0.2999 -0.1900
 4689SOL    HW125526   1.775   2.737   9.459 -0.2128  1.4299  0.4694
 4689SOL    HW225527   1.759   2.722   9.609  0.1864  0.2724 -0.1493
 4690SOL     OW25528   2.420   0.247  10.676 -0.2370  0.1560 -0.2235
 4690SOL    HW125529   2.363   0.170  10.668  0.7135 -0.5665 -0.1012
 4690SOL    HW225530   2.476   0.230  10.751 -1.1662  2.3686  0.9696
 4691SOL     OW25531   2.328   0.998  10.116 -0.1479  0.1119 -0.0921
 4691SOL    HW125532   2.414   0.957  10.125 -0.3994 -0.6828 -1.3082
 4691SOL    HW225533   2.304   0.953  10.035 -1.5873  1.9440 -0.6927
 4692SOL     OW25534   0.883   3.619  15.595  0.0262 -0.3005  0.2369
 4692SOL    HW125535   0.978   3.616  15.611  0.0162 -2.3403 -0.0551
 4692SOL    HW225536   0.862   3.711  15.576  2.8355  0.4035  0.5121
 4693SOL     OW25537   1.014   4.115  10.250 -0.0636 -0.3888  0.2105
 4693SOL    HW125538   1.098   4.077  10.274 -0.6312 -1.2374  0.8322
 4693SOL    HW225539   1.024   4.156  10.164  0.9544 -0.3953  0.3271
 4694SOL     OW25540   2.906   1.111  16.263 -0.1630  0.6137  0.0098
 4694SOL    HW125541   2.985   1.164  16.260 -0.0035  0.3416 -0.7290
 4694SOL    HW225542   2.844   1.176  16.297 -0.1676  0.5392  0.1453
 4695SOL     OW25543   1.693   2.883  13.620 -0.4598  0.7857  0.2848
 4695SOL    HW125544   1.684   2.858  13.528  2.4430  1.1097 -0.0914
 4695SOL    HW225545   1.600   2.900  13.640 -0.0386  0.1402  2.7214
 4696SOL     OW25546   2.285   2.224   7.370  0.1143 -0.7477 -0.2061
 4696SOL    HW125547   2.280   2.129   7.358 -1.6857 -0.6895  0.1688
 4696SOL    HW225548   2.373   2.243   7.337 -0.2190 -0.7955 -1.1090
 4697SOL     OW25549   1.924   0.987   7.975  0.0406  0.1290 -0.2296
 4697SOL    HW125550   1.929   0.996   8.070 -2.7041  2.0686 -0.2773
 4697SOL    HW225551   1.983   1.057   7.947  1.0136 -1.1053 -1.2753
 4698SOL     OW25552   2.373   1.823  16.039  0.5089  0.1548  0.1755
 4698SOL    HW125553   2.430   1.815  15.963  0.9647 -1.2849  0.6794
 4698SOL    HW225554   2.411   1.760  16.100  2.4100  0.8800 -0.2720
 4699SOL     OW25555   1.251   4.219   8.295  0.6147 -0.7605 -0.0051
 4699SOL    HW125556   1.210   4.220   8.382  0.2478  0.7076 -0.1892
 4699SOL    HW225557   1.259   4.125   8.279  2.2577 -0.7024  0.4191
 4700SOL     OW25558   3.988   0.169   0.548  0.9783 -0.1583 -0.2971
 4700SOL    HW125559   4.060   0.231   0.543  0.6448  0.2823  0.2982
 4700SOL    HW225560   3.911   0.225   0.536  0.5231 -0.9679 -1.2329
 4701SOL     OW25561   0.457   0.125  13.631 -0.5847  0.2569 -0.1515
 4701SOL    HW125562   0.454   0.219  13.612 -0.3675  0.6485  1.7505
 4701SOL    HW225563   0.428   0.135  13.722  2.9931 -2.0361  1.2315
 4702SOL     OW25564   3.980   1.881   1.647  0.4009 -0.2183  0.5879
 4702SOL    HW125565   4.037   1.950   1.613 -1.9245  0.8788 -1.0838
 4702SOL    HW225566   4.016   1.804   1.602 -2.3009 -1.6423  0.8856
 4703SOL     OW25567   2.188   0.260   3.441  0.2195  0.2114 -0.2359
 4703SOL    HW125568   2.205   0.248   3.534 -4.4878 -2.4960  0.3039
 4703SOL    HW225569   2.264   0.213   3.406 -0.8927  0.5163 -3.1119
 4704SOL     OW25570   4.065   0.047  16.143  0.4482  0.0951  0.4207
 4704SOL    HW125571   4.074   4.699  16.205  0.6660 -0.2770 -0.0447
 4704SOL    HW225572   4.146   0.096  16.155  1.4396 -1.0066 -1.7899
 4705SOL     OW25573   3.547   3.952   3.707  0.2340 -0.6518  0.1750
 4705SOL    HW125574   3.628   4.004   3.704 -0.0776 -0.0141  2.3295
 4705SOL    HW225575   3.491   4.012   3.659  1.2168 -0.1164 -0.3153
 4706SOL     OW25576   2.893   2.527   2.515  0.1008  0.0111  0.1950
 4706SOL    HW125577   2.879   2.551   2.607 -1.0118 -1.1376  0.3196
 4706SOL    HW225578   2.889   2.614   2.475  0.2855  0.0290  0.2144
 4707SOL     OW25579   4.128   3.340  11.207 -0.4821 -0.7916 -1.0915
 4707SOL    HW125580   4.188   3.343  11.281 -1.5774 -1.9263 -0.1739
 4707SOL    HW225581   4.190   3.314  11.139  1.3263 -2.5363  1.2441
 4708SOL     OW25582   2.442   3.170   3.442 -0.0036 -0.2627 -0.0531
 4708SOL    HW125583   2.454   3.260   3.472 -0.1734 -0.2406 -0.0493
 4708SOL    HW225584   2.359   3.141   3.481  0.1519  1.3523  1.4638
 4709SOL     OW25585   0.762   3.252  13.858  0.1196  0.3511 -0.1489
 4709SOL    HW125586   0.668   3.265  13.866  0.3661  0.4999  2.5917
 4709SOL    HW225587   0.803   3.327  13.901  2.7250 -0.0233 -1.9198
 4710SOL     OW25588   3.269   4.437   9.050  0.0784 -0.1874 -0.0748
 4710SOL    HW125589   3.260   4.483   9.134 -1.6762 -0.3752 -0.1623
 4710SOL    HW225590   3.348   4.482   9.021  1.0309 -2.4179 -0.9214
 4711SOL     OW25591   0.800   0.013   3.451  0.5568 -0.4198  0.2387
 4711SOL    HW125592   0.708   0.018   3.425  0.8374  1.3661 -0.4052
 4711SOL    HW225593   0.833   0.100   3.431 -0.6391 -0.8024 -3.4048
 4712SOL     OW25594   2.240   1.278   5.382 -0.0120 -0.3523  0.1408
 4712SOL    HW125595   2.207   1.223   5.453  0.1596 -1.3275 -0.5329
 4712SOL    HW225596   2.200   1.233   5.307 -0.7717  0.7666 -0.1188
 4713SOL     OW25597   0.403   2.834   2.292  0.3622  0.8749 -0.6915
 4713SOL    HW125598   0.482   2.809   2.244  1.8383  0.5954  1.8227
 4713SOL    HW225599   0.442   2.919   2.313 -0.7088  0.8142  1.5592
 4714SOL     OW25600   2.933   2.859  12.631 -0.1479 -0.1982  0.3438
 4714SOL    HW125601   2.991   2.867  12.707  0.2098 -0.9358  0.1520
 4714SOL    HW225602   2.923   2.945  12.591  0.7279  0.2148  1.0191
 4715SOL     OW25603   0.637   2.509   2.357 -0.2804 -0.3090  0.1079
 4715SOL    HW125604   0.542   2.514   2.358 -0.2373  0.6369 -0.3397
 4715SOL    HW225605   0.666   2.600   2.359 -0.7204 -0.1608 -0.2780
 4716SOL     OW25606   1.788   1.633   3.042 -0.0754 -0.3078 -0.0047
 4716SOL    HW125607   1.693   1.637   3.039 -0.0916 -0.5703  0.2135
 4716SOL    HW225608   1.798   1.672   3.129  0.7119  1.2258 -0.7739
 4717SOL     OW25609   3.061   4.224   9.064  0.1638  0.4053 -0.2875
 4717SOL    HW125610   3.115   4.303   9.069 -0.9939  1.3279 -2.2611
 4717SOL    HW225611   3.083   4.196   8.975 -0.9925 -0.6674 -0.2274
 4718SOL     OW25612   1.843   4.576   2.456 -0.3538 -0.3657  0.0910
 4718SOL    HW125613   1.799   4.600   2.537  0.1471  1.4090 -0.1742
 4718SOL    HW225614   1.885   4.495   2.488  0.7826 -0.5208 -1.7721
 4719SOL     OW25615   3.911   1.281   8.911  0.2009  0.0827  0.1493
 4719SOL    HW125616   3.915   1.185   8.916  2.6946  0.1701 -0.3287
 4719SOL    HW225617   3.881   1.293   8.821 -1.9688  1.7307  1.1008
 4720SOL     OW25618   4.183   0.611   4.277 -0.0383  0.1501  0.5058
 4720SOL    HW125619   4.246   0.588   4.209  0.6285 -0.0487  1.1912
 4720SOL    HW225620   4.112   0.551   4.257 -0.7646  1.2119 -0.1245
 4721SOL     OW25621   1.162   3.731  15.904 -0.4064 -0.3164 -0.3406
 4721SOL    HW125622   1.137   3.822  15.890  1.6444  0.6275  2.0952
 4721SOL    HW225623   1.256   3.732  15.918 -0.4266 -1.0889 -0.1146
 4722SOL     OW25624   3.175   3.984   9.176 -0.0617  0.7451  0.1056
 4722SOL    HW125625   3.087   3.990   9.139  0.8261  1.1757 -1.9445
 4722SOL    HW225626   3.219   4.069   9.180 -0.1059  0.8767 -2.3878
 4723SOL     OW25627   3.039   1.257   2.645 -0.0291  0.2633  0.2674
 4723SOL    HW125628   3.090   1.261   2.565 -1.6876  1.3239 -0.7436
 4723SOL    HW225629   2.960   1.285   2.599  0.6772  0.3838 -0.8518
 4724SOL     OW25630   0.941   1.970   0.539  0.0077  0.2018  0.0107
 4724SOL    HW125631   1.003   1.931   0.600 -1.0732 -1.1168  0.2616
 4724SOL    HW225632   0.922   2.056   0.578  1.3824  0.3105  0.4474
 4725SOL     OW25633   0.500   2.277  13.286 -0.2817  0.4072 -0.0528
 4725SOL    HW125634   0.501   2.188  13.321 -0.0170 -0.0298 -1.1706
 4725SOL    HW225635   0.581   2.274  13.235 -1.7232  0.8960 -2.4275
 4726SOL     OW25636   2.376   2.711   3.064  0.0458  0.4005  0.7194
 4726SOL    HW125637   2.401   2.638   3.009 -1.6511  0.4351 -0.1079
 4726SOL    HW225638   2.315   2.677   3.130 -1.8691  3.0407  0.3100
 4727SOL     OW25639   4.636   3.131  16.139 -0.5397 -0.2537  0.1993
 4727SOL    HW125640   4.547   3.167  16.140 -0.1957  0.5361  2.0598
 4727SOL    HW225641   4.665   3.155  16.227 -2.3216 -0.8673  0.9526
 4728SOL     OW25642   2.409   1.019   4.722  0.7529  0.1722  0.5879
 4728SOL    HW125643   2.453   1.096   4.686  2.3235 -1.5210 -1.0484
 4728SOL    HW225644   2.316   1.042   4.727  0.7914  0.5533 -0.5586
 4729SOL     OW25645   3.627   1.529   8.687 -0.5269  0.1580  0.0350
 4729SOL    HW125646   3.713   1.546   8.647 -0.3389  0.6393  0.6423
 4729SOL    HW225647   3.562   1.552   8.621  0.5966  1.2098 -0.7219
 4730SOL     OW25648   3.811   1.049   3.668 -0.1551  0.2477 -0.4950
 4730SOL    HW125649   3.778   1.032   3.580  0.4279  2.6389 -1.1681
 4730SOL    HW225650   3.856   0.965   3.675 -0.4491  0.1718  0.5807
 4731SOL     OW25651   3.605   3.340   0.429 -0.0804 -0.1565 -0.1240
 4731SOL    HW125652   3.583   3.373   0.342  0.9963 -2.5488 -1.3133
 4731SOL    HW225653   3.616   3.250   0.397  2.8402  0.4292 -0.7742
 4732SOL     OW25654   3.674   4.249   9.209  0.7046 -0.3360 -0.7877
 4732SOL    HW125655   3.720   4.287   9.135  0.0770  0.4824 -0.7610
 4732SOL    HW225656   3.734   4.177   9.229  1.1066  0.1750 -0.1428
 4733SOL     OW25657   0.218   0.113   2.897 -0.0934 -0.5796  0.1239
 4733SOL    HW125658   0.162   0.183   2.864  0.3842 -0.7738 -1.1044
 4733SOL    HW225659   0.267   0.076   2.824  0.4974  1.4970 -0.5403
 4734SOL     OW25660   3.310   4.042   6.315 -0.1829 -0.5294  0.2719
 4734SOL    HW125661   3.279   4.079   6.232  1.3483 -1.0335 -0.5174
 4734SOL    HW225662   3.339   4.121   6.361  2.9955  0.1936 -2.9445
 4735SOL     OW25663   4.527   3.371   8.828  0.4987  0.1216 -0.1122
 4735SOL    HW125664   4.520   3.280   8.856  0.1019  0.0446 -0.4550
 4735SOL    HW225665   4.474   3.418   8.893 -0.4705 -0.9134 -0.1555
 4736SOL     OW25666   3.718   4.669   5.153  0.2693  0.1754  0.2369
 4736SOL    HW125667   3.692   0.036   5.140  2.8446  0.5484 -2.2496
 4736SOL    HW225668   3.658   4.626   5.092  2.5320 -0.4329 -1.5450
 4737SOL     OW25669   2.143   2.885  16.893  0.0005 -0.3552  0.1204
 4737SOL    HW125670   2.217   2.944  16.880  0.1920 -0.8500 -1.0054
 4737SOL    HW225671   2.156   2.826  16.819  1.3700  0.3331 -0.1890
 4738SOL     OW25672   2.762   1.863   4.707 -0.1229 -0.1050 -0.1537
 4738SOL    HW125673   2.686   1.805   4.703 -0.5383  0.5815 -2.2873
 4738SOL    HW225674   2.744   1.930   4.641  1.0503 -0.9831 -1.3771
 4739SOL     OW25675   1.048   1.036   7.585  0.1466 -0.1243 -0.4007
 4739SOL    HW125676   0.963   1.074   7.606  0.5369  0.4397  0.1842
 4739SOL    HW225677   1.096   1.059   7.665 -0.7179 -0.1661  0.1238
 4740SOL     OW25678   3.621   4.280   8.786  0.9147  1.0058  0.0045
 4740SOL    HW125679   3.619   4.187   8.765 -1.6643  0.8605  0.8911
 4740SOL    HW225680   3.528   4.303   8.785  0.6592 -0.0467 -0.5916
 4741SOL     OW25681   1.394   2.366   4.319  0.0877 -0.1535  0.3846
 4741SOL    HW125682   1.375   2.345   4.227  2.1567 -3.2415  0.6907
 4741SOL    HW225683   1.475   2.321   4.342  0.6862  1.9428  2.3638
 4742SOL     OW25684   2.875   1.724   5.981  0.0974  0.3253 -0.2334
 4742SOL    HW125685   2.816   1.786   5.938  0.6416  1.3346  0.4892
 4742SOL    HW225686   2.899   1.781   6.053  0.3255  0.5225 -0.4659
 4743SOL     OW25687   4.155   4.385   2.856  0.3406  0.1748 -0.9685
 4743SOL    HW125688   4.155   4.395   2.761  1.9932  2.0873 -0.7654
 4743SOL    HW225689   4.092   4.314   2.867  1.2637 -0.3098  1.1257
 4744SOL     OW25690   3.301   3.701  11.221  0.7611 -0.0336 -0.2239
 4744SOL    HW125691   3.278   3.761  11.149  1.0836 -0.5173 -0.7339
 4744SOL    HW225692   3.318   3.765  11.290  1.4938  0.5802 -0.9538
 4745SOL     OW25693   3.052   2.868   3.497  0.0234 -0.2128  0.1336
 4745SOL    HW125694   3.091   2.783   3.475 -1.0022  0.0410 -2.6617
 4745SOL    HW225695   2.966   2.876   3.457  1.3213  1.0746 -2.3990
 4746SOL     OW25696   2.158   1.314   8.200 -0.0897  0.0023  0.5042
 4746SOL    HW125697   2.229   1.357   8.153 -2.1410  0.6313 -2.0764
 4746SOL    HW225698   2.164   1.357   8.285  0.5605  1.4315 -0.2747
 4747SOL     OW25699   3.562   2.527  14.568  0.4532  0.1279  0.3010
 4747SOL    HW125700   3.472   2.535  14.599  0.0638 -0.9455 -0.5365
 4747SOL    HW225701   3.598   2.501  14.653  2.2232  2.5917  0.3222
 4748SOL     OW25702   4.643   0.580   8.910  0.1757  0.3089  0.0048
 4748SOL    HW125703   0.003   0.562   8.869  0.6240 -0.5453  1.2944
 4748SOL    HW225704   4.644   0.529   8.992  0.8581  0.8986  0.3592
 4749SOL     OW25705   1.476   0.060   6.652  0.5928 -0.1056  0.1397
 4749SOL    HW125706   1.485   0.143   6.604  0.3616  0.6088  1.3258
 4749SOL    HW225707   1.436   4.723   6.591  1.5375 -0.9694  0.3913
 4750SOL     OW25708   2.952   2.730   8.649  0.1921  0.1645 -0.0238
 4750SOL    HW125709   2.987   2.818   8.662 -1.9320  1.0504 -0.3324
 4750SOL    HW225710   2.967   2.695   8.736  0.6044  0.0949 -0.1234
 4751SOL     OW25711   2.045   0.423   4.195 -0.0481  0.5470 -0.3215
 4751SOL    HW125712   2.076   0.512   4.213 -2.1111  0.7630  2.0985
 4751SOL    HW225713   2.100   0.397   4.121  0.7127  0.3988  0.2908
 4752SOL     OW25714   0.996   3.809   6.556  0.2693 -0.3672  0.3736
 4752SOL    HW125715   0.946   3.888   6.576 -1.5884 -1.6315  0.6818
 4752SOL    HW225716   0.995   3.766   6.641 -0.7432 -0.6238  0.2327
 4753SOL     OW25717   2.811   3.103   1.660  0.1952 -0.1913 -0.2845
 4753SOL    HW125718   2.841   3.128   1.572  2.9115 -3.1632 -0.2366
 4753SOL    HW225719   2.778   3.182   1.702  1.0173  0.5932 -1.1188
 4754SOL     OW25720   3.251   4.006  11.826 -0.5334  0.4686 -0.1733
 4754SOL    HW125721   3.299   3.963  11.755  0.5323 -0.8090  1.3205
 4754SOL    HW225722   3.178   3.946  11.842 -0.0004 -0.0508  0.3007
 4755SOL     OW25723   2.520   2.519   4.953  0.8509 -0.5585 -0.6697
 4755SOL    HW125724   2.540   2.451   5.018 -0.7330 -0.9711 -0.6098
 4755SOL    HW225725   2.603   2.565   4.940  0.3339  0.8897  1.2154
 4756SOL     OW25726   0.818   0.510  13.193  0.1220  0.1581  0.5367
 4756SOL    HW125727   0.894   0.527  13.249  0.5527 -1.3198  0.3912
 4756SOL    HW225728   0.843   0.422  13.166  0.5132  0.6558 -0.7142
 4757SOL     OW25729   0.035   2.245  17.600  0.3111  0.0633 -0.3717
 4757SOL    HW125730   4.692   2.231  17.533 -0.8712  1.0532  0.6008
 4757SOL    HW225731   0.027   2.160  17.643  0.5291 -0.3340 -1.0976
 4758SOL     OW25732   3.044   3.708   3.930 -1.1224 -0.0017 -0.4095
 4758SOL    HW125733   3.080   3.637   3.877  0.9577  1.3832 -0.8350
 4758SOL    HW225734   3.087   3.776   3.878  1.1433 -0.1660  1.2276
 4759SOL     OW25735   2.798   0.157   8.633 -1.0556 -0.0670 -0.3684
 4759SOL    HW125736   2.761   0.082   8.679  1.3059 -0.9730  0.0713
 4759SOL    HW225737   2.889   0.145   8.659 -0.4829 -1.1283 -2.9265
 4760SOL     OW25738   3.310   0.447   4.030 -0.0441  0.0615  0.4351
 4760SOL    HW125739   3.223   0.487   4.031  0.9635  2.3089 -1.1617
 4760SOL    HW225740   3.360   0.509   4.082 -2.5532  1.2071  1.4853
 4761SOL     OW25741   1.594   0.560  17.152 -0.2624  0.1611  0.6373
 4761SOL    HW125742   1.604   0.516  17.068  0.2392  0.3427  0.6045
 4761SOL    HW225743   1.597   0.481  17.206  2.1163  0.6864  1.2863
 4762SOL     OW25744   4.225   4.518   8.123 -0.3002  0.4258  0.0739
 4762SOL    HW125745   4.268   4.572   8.190  0.5606 -2.2766  1.7129
 4762SOL    HW225746   4.304   4.478   8.086 -0.2044  0.4830  0.2157
 4763SOL     OW25747   3.534   4.597   8.108 -0.3102  0.4495  0.2686
 4763SOL    HW125748   3.629   4.592   8.097 -0.3626  2.1149 -1.0742
 4763SOL    HW225749   3.507   4.514   8.069  0.5205  0.2557  0.1176
 4764SOL     OW25750   4.016   4.209   0.954 -0.2603 -0.4899  0.0845
 4764SOL    HW125751   3.946   4.252   1.003  0.0975 -0.8848  0.9412
 4764SOL    HW225752   4.061   4.152   1.017 -0.3498  1.1681  1.6518
 4765SOL     OW25753   0.585   1.698   9.092 -0.2774  0.6258  0.6642
 4765SOL    HW125754   0.525   1.737   9.028 -0.7141 -1.3308 -0.1308
 4765SOL    HW225755   0.665   1.690   9.039 -2.3776 -1.2077 -2.2547
 4766SOL     OW25756   0.731   3.985   3.849  0.3229  0.0501 -0.7902
 4766SOL    HW125757   0.678   3.908   3.824  1.9308 -1.1507 -0.5282
 4766SOL    HW225758   0.785   3.989   3.770 -1.5891 -1.0540 -2.1608
 4767SOL     OW25759   3.033   0.383   4.942 -0.2297 -0.8893 -0.4951
 4767SOL    HW125760   2.945   0.410   4.969  0.0022  0.9180 -1.5311
 4767SOL    HW225761   3.077   0.401   5.026 -0.9870  0.6030 -0.4209
 4768SOL     OW25762   3.772   1.084  11.144 -0.5176 -0.3388  0.2228
 4768SOL    HW125763   3.744   1.073  11.235 -0.8438  1.4564  0.3430
 4768SOL    HW225764   3.690   1.076  11.096  0.3671  0.1211 -1.3604
 4769SOL     OW25765   0.100   4.501   6.466 -0.0281  0.3002 -0.0874
 4769SOL    HW125766   0.041   4.490   6.541 -1.4507  0.7570 -1.1667
 4769SOL    HW225767   0.131   4.588   6.492  1.7881 -0.6749  1.0698
 4770SOL     OW25768   0.748   4.145  12.016  0.0880  0.1474 -0.2325
 4770SOL    HW125769   0.784   4.056  12.020  0.0466  0.1927  1.1859
 4770SOL    HW225770   0.767   4.169  11.926 -0.2922 -2.8881 -1.1268
 4771SOL     OW25771   0.168   2.366   0.628 -0.5406 -0.3908  0.3149
 4771SOL    HW125772   0.180   2.280   0.588 -1.4990 -0.9958  1.3352
 4771SOL    HW225773   0.246   2.351   0.682 -1.3909  0.0090  1.6793
 4772SOL     OW25774   3.030   1.294   5.950  0.7947 -0.1575  0.3754
 4772SOL    HW125775   3.088   1.359   5.990 -0.8821  0.1542  2.3467
 4772SOL    HW225776   3.027   1.315   5.857  0.3024 -0.2001  0.3796
 4773SOL     OW25777   3.311   0.651  15.666  0.2161  0.1185 -0.8127
 4773SOL    HW125778   3.381   0.592  15.639  0.8961 -0.0611  1.3472
 4773SOL    HW225779   3.233   0.595  15.659  0.4958 -0.2741 -0.7563
 4774SOL     OW25780   1.404   2.726   8.769  0.9507  0.0272 -0.5189
 4774SOL    HW125781   1.350   2.766   8.837  0.1810 -1.1615 -0.4242
 4774SOL    HW225782   1.487   2.725   8.816  0.3069 -1.4470  0.5610
 4775SOL     OW25783   3.830   3.599   5.855  0.7048  0.3337  0.1645
 4775SOL    HW125784   3.920   3.631   5.852  0.3094  1.2863 -1.3494
 4775SOL    HW225785   3.800   3.658   5.924  0.6568  0.0888  0.3522
 4776SOL     OW25786   1.089   3.162   4.306 -0.2795 -0.1170  0.0012
 4776SOL    HW125787   1.050   3.096   4.362  0.4621  0.0903  0.7551
 4776SOL    HW225788   1.104   3.228   4.373 -0.8790 -2.8839  2.8363
 4777SOL     OW25789   1.019   4.187   7.978  0.3072  0.3415  0.4834
 4777SOL    HW125790   0.955   4.187   8.050  1.9931  2.2197  1.9489
 4777SOL    HW225791   0.970   4.133   7.915  1.6944  0.7531 -0.9199
 4778SOL     OW25792   2.180   1.710   7.293  0.7465  0.2319 -0.4036
 4778SOL    HW125793   2.134   1.640   7.246 -1.7731  0.9137  1.0868
 4778SOL    HW225794   2.239   1.750   7.229  0.5125  0.4839 -0.4612
 4779SOL     OW25795   1.603   4.139  15.274 -0.0546 -0.2078 -0.3988
 4779SOL    HW125796   1.652   4.198  15.217  2.3403 -1.1510  0.6551
 4779SOL    HW225797   1.667   4.120  15.343 -0.7072 -0.6978  0.0742
 4780SOL     OW25798   2.584   3.840   0.250  0.0820 -0.2871  0.2684
 4780SOL    HW125799   2.586   3.823   0.344 -0.9413 -2.1130 -0.0493
 4780SOL    HW225800   2.491   3.857   0.237  0.2676 -0.1785 -0.9022
 4781SOL     OW25801   4.599   3.298   7.521  0.4350 -0.3884  0.2426
 4781SOL    HW125802   4.578   3.235   7.590  0.7483 -0.7323  0.0186
 4781SOL    HW225803   4.661   3.242   7.475 -1.7939 -0.0244 -3.1890
 4782SOL     OW25804   0.511   3.858   8.407  0.1000  0.4988 -0.0240
 4782SOL    HW125805   0.425   3.818   8.408  0.3369  0.0453  2.6637
 4782SOL    HW225806   0.538   3.854   8.499  1.0120 -0.5584 -0.3270
 4783SOL     OW25807   0.052   3.062   4.153  0.0389  0.6664 -0.4595
 4783SOL    HW125808   0.027   3.144   4.195  1.7767  0.6976  0.5108
 4783SOL    HW225809   4.699   3.047   4.098 -0.3997  0.2559  0.2769
 4784SOL     OW25810   3.339   4.445   1.789 -0.1515 -0.2320  0.2423
 4784SOL    HW125811   3.382   4.503   1.726 -0.1994  0.4679  0.8456
 4784SOL    HW225812   3.290   4.383   1.735  0.4454  1.1796 -1.9173
 4785SOL     OW25813   1.936   3.209  13.562 -0.0066  0.2211 -0.4908
 4785SOL    HW125814   1.846   3.193  13.589 -0.0505 -0.5980 -1.1327
 4785SOL    HW225815   1.910   3.212  13.470  1.8702  3.0357 -0.9284
 4786SOL     OW25816   0.853   0.237   2.897 -0.3429 -0.0199 -0.1283
 4786SOL    HW125817   0.909   0.162   2.880 -0.0140  0.1465  0.2164
 4786SOL    HW225818   0.913   0.307   2.871  0.1887 -0.4830 -0.1572
 4787SOL     OW25819   4.685   4.556  16.855 -0.1389  0.3059 -0.5915
 4787SOL    HW125820   4.662   4.600  16.773 -0.6988  1.4628  0.1849
 4787SOL    HW225821   0.055   4.568  16.861 -0.0861 -0.2014 -0.3824
 4788SOL     OW25822   2.353   0.578   6.265 -0.7798  0.6853 -0.0604
 4788SOL    HW125823   2.356   0.511   6.333  0.7701  1.8345  0.9927
 4788SOL    HW225824   2.418   0.548   6.202 -1.5744  1.3424 -1.1982
 4789SOL     OW25825   2.521   1.720   7.680  0.2888 -0.3725 -0.2970
 4789SOL    HW125826   2.536   1.719   7.585 -3.1726 -0.7944 -0.8269
 4789SOL    HW225827   2.437   1.675   7.679 -0.4168  0.9237  2.1145
 4790SOL     OW25828   2.000   3.494   6.591  0.3847 -0.1413 -0.2831
 4790SOL    HW125829   2.055   3.561   6.632 -1.4490  0.9167  0.4493
 4790SOL    HW225830   2.062   3.433   6.552  0.4209  1.0117 -2.0546
 4791SOL     OW25831   0.665   1.653  12.552 -0.1982  0.2298  0.1152
 4791SOL    HW125832   0.717   1.719  12.597  1.0692  0.2234 -1.3260
 4791SOL    HW225833   0.603   1.633  12.621  0.6899 -0.3010  0.7536
 4792SOL     OW25834   1.689   0.786   3.527  0.3252 -0.1430  0.0056
 4792SOL    HW125835   1.766   0.733   3.548 -0.0474 -0.9257 -0.5976
 4792SOL    HW225836   1.668   0.753   3.439  0.6527 -2.0310  0.6309
 4793SOL     OW25837   3.109   1.618  10.325 -0.1876 -0.4178 -0.5645
 4793SOL    HW125838   3.087   1.707  10.300 -0.0076 -0.3524 -0.4911
 4793SOL    HW225839   3.200   1.631  10.351 -0.5241  2.2488 -0.8107
 4794SOL     OW25840   2.094   1.115  17.126  0.1641 -0.1892 -0.1533
 4794SOL    HW125841   2.030   1.044  17.116  0.6664 -0.5042 -1.2051
 4794SOL    HW225842   2.074   1.168  17.049  1.1456  0.9185  0.3615
 4795SOL     OW25843   1.246   0.415   1.959 -0.2519  0.1116 -0.2674
 4795SOL    HW125844   1.192   0.399   1.880 -0.7258  0.5888 -0.0407
 4795SOL    HW225845   1.190   0.389   2.032  0.2127 -0.7171 -0.2057
 4796SOL     OW25846   4.509   1.906   2.632 -0.8520 -0.1386 -0.2754
 4796SOL    HW125847   4.576   1.850   2.672 -1.2120 -0.8924 -0.7467
 4796SOL    HW225848   4.550   1.993   2.626 -0.7765  0.0341  2.4185
 4797SOL     OW25849   0.744   1.705   6.426 -0.3014  0.3197 -0.1936
 4797SOL    HW125850   0.827   1.726   6.469  0.4044 -0.5447 -1.1446
 4797SOL    HW225851   0.703   1.792   6.426  0.2481  0.5799  0.0729
 4798SOL     OW25852   3.169   4.502   6.038  0.1438  0.4711  0.2413
 4798SOL    HW125853   3.110   4.519   6.111 -0.6593  1.5766 -0.6579
 4798SOL    HW225854   3.109   4.519   5.965 -0.0458 -0.1566  0.2507
 4799SOL     OW25855   3.324   2.844  13.186 -0.0893 -0.4288  0.1925
 4799SOL    HW125856   3.347   2.840  13.094  0.6536  4.4982  0.1632
 4799SOL    HW225857   3.279   2.760  13.198 -1.0875 -0.0361 -0.8160
 4800SOL     OW25858   3.244   2.675   4.556  0.1047 -0.3848 -0.7851
 4800SOL    HW125859   3.299   2.600   4.536 -0.2336 -0.8994  0.1888
 4800SOL    HW225860   3.157   2.639   4.538  1.4393 -2.4477 -2.9972
 4801SOL     OW25861   4.320   2.108   4.050 -0.1832 -0.1625  0.5719
 4801SOL    HW125862   4.381   2.115   3.976  0.4631 -0.5566  1.0713
 4801SOL    HW225863   4.376   2.097   4.126  0.3424  0.3104  0.2498
 4802SOL     OW25864   3.143   3.518   3.755  0.5885  0.5146 -0.1068
 4802SOL    HW125865   3.088   3.466   3.697 -0.3285  2.3478 -0.8739
 4802SOL    HW225866   3.199   3.458   3.804 -0.8282 -1.1906 -0.5448
 4803SOL     OW25867   1.279   0.750   6.675  0.4728 -0.2804 -0.3520
 4803SOL    HW125868   1.306   0.791   6.593  1.4251  1.7508  0.9906
 4803SOL    HW225869   1.237   0.675   6.632  0.7769 -0.2800 -0.6502
 4804SOL     OW25870   0.604   1.009   8.470 -0.1521  0.2220 -0.2913
 4804SOL    HW125871   0.568   0.965   8.546 -2.4112 -0.0391 -1.5283
 4804SOL    HW225872   0.688   1.037   8.507 -0.3898  0.4457  0.0666
 4805SOL     OW25873   2.260   4.534   5.714 -0.4006 -0.1379  0.5481
 4805SOL    HW125874   2.168   4.548   5.692 -0.7436  0.3399  2.3042
 4805SOL    HW225875   2.265   4.531   5.810  0.9594  1.3488  0.5388
 4806SOL     OW25876   0.860   4.584   7.546  0.2132  0.5756  0.2289
 4806SOL    HW125877   0.895   4.656   7.494  0.0921  0.6109  0.1952
 4806SOL    HW225878   0.810   4.629   7.614  0.6487  1.0011  0.2687
 4807SOL     OW25879   2.333   0.544   2.810 -0.9224  0.5474 -0.2088
 4807SOL    HW125880   2.282   0.566   2.888 -2.2080 -0.9454 -0.6350
 4807SOL    HW225881   2.312   0.451   2.820 -0.3876  0.5098  0.5159
 4808SOL     OW25882   1.824   0.179  16.698 -0.1710  0.2156 -0.8522
 4808SOL    HW125883   1.748   0.235  16.712 -0.1656  0.0375 -0.1320
 4808SOL    HW225884   1.894   0.231  16.737  1.2223 -0.9964 -1.7271
 4809SOL     OW25885   2.272   2.610   7.663  0.5084 -0.2625 -0.5366
 4809SOL    HW125886   2.294   2.575   7.749 -2.1882  2.7659  1.4046
 4809SOL    HW225887   2.356   2.606   7.616  0.8847 -0.9819  0.2016
 4810SOL     OW25888   4.710   0.531   1.809  0.3765  0.1556  0.5342
 4810SOL    HW125889   4.637   0.495   1.758  0.3564 -0.2795  0.8671
 4810SOL    HW225890   0.020   0.454   1.856 -0.1013 -0.8149 -0.6965
 4811SOL     OW25891   0.642   2.614   4.295 -0.0332  0.1329 -0.0137
 4811SOL    HW125892   0.702   2.557   4.247  0.5842 -0.2966  1.2732
 4811SOL    HW225893   0.584   2.549   4.333 -0.8659 -1.8220 -4.5852
 4812SOL     OW25894   0.941   2.073   3.915 -0.4910 -0.2480 -0.0499
 4812SOL    HW125895   0.982   2.159   3.903 -1.1636  0.1719  0.6432
 4812SOL    HW225896   0.857   2.090   3.872 -0.9059  1.9273  1.6378
 4813SOL     OW25897   2.033   3.099  15.501 -0.6487 -0.1598 -0.0212
 4813SOL    HW125898   2.019   3.175  15.446  0.9333  0.8501  0.9714
 4813SOL    HW225899   2.127   3.099  15.519 -0.1492 -2.8104 -2.5818
 4814SOL     OW25900   1.679   2.706   6.703  0.4839 -0.7612  0.4605
 4814SOL    HW125901   1.768   2.742   6.709 -0.9435  2.2771  2.9015
 4814SOL    HW225902   1.647   2.732   6.789 -2.3338  2.7138 -1.6654
 4815SOL     OW25903   1.918   0.393   2.306  0.2037  0.3960  0.1100
 4815SOL    HW125904   1.907   0.463   2.241 -2.1633  0.2474  0.3610
 4815SOL    HW225905   1.897   0.314   2.257 -1.0168  0.4330  0.5622
 4816SOL     OW25906   4.306   3.128   8.780  0.2085 -0.7386  0.0320
 4816SOL    HW125907   4.227   3.137   8.726 -0.6372 -1.9128  1.0947
 4816SOL    HW225908   4.277   3.103   8.867 -1.4147 -0.3799 -0.3934
 4817SOL     OW25909   4.354   2.600   4.514 -0.1032  0.1771  0.5631
 4817SOL    HW125910   4.404   2.535   4.564 -1.0652 -0.9701  0.0394
 4817SOL    HW225911   4.278   2.553   4.480 -0.9677  2.3263 -0.4937
 4818SOL     OW25912   3.224   2.731   2.428 -0.1804 -0.0055  0.3603
 4818SOL    HW125913   3.212   2.741   2.522  0.6304 -1.2609  0.5900
 4818SOL    HW225914   3.205   2.637   2.426 -1.9468  0.3503 -0.2040
 4819SOL     OW25915   4.286   2.120  10.412 -0.0781  0.0336  0.1216
 4819SOL    HW125916   4.341   2.128  10.334  1.2691  2.8984  1.4039
 4819SOL    HW225917   4.223   2.190  10.397  0.2981  0.4994  0.7298
 4820SOL     OW25918   1.027   2.857   3.394 -0.1530 -0.0118  0.3349
 4820SOL    HW125919   1.091   2.834   3.327  0.2724 -1.4947  1.2344
 4820SOL    HW225920   1.082   2.851   3.473  0.5185  3.2167  0.1048
 4821SOL     OW25921   3.440   1.009   3.983  0.3667 -0.4144  0.2935
 4821SOL    HW125922   3.442   0.945   3.913  3.9289 -0.1052  0.0705
 4821SOL    HW225923   3.463   0.957   4.060  3.8370 -0.4390 -0.7714
 4822SOL     OW25924   1.043   4.103   4.696  0.6086  0.0821  0.2671
 4822SOL    HW125925   0.996   4.169   4.747  1.8707  1.8753 -0.9014
 4822SOL    HW225926   1.024   4.027   4.751 -2.3780  0.4904 -0.1937
 4823SOL     OW25927   3.848   2.228   8.233  0.2982 -0.1626  0.2347
 4823SOL    HW125928   3.802   2.269   8.307  0.2267  0.7656 -0.3267
 4823SOL    HW225929   3.926   2.284   8.234 -0.0165  0.2681  0.5596
 4824SOL     OW25930   3.023   3.342  15.522 -0.1801  0.7147 -0.2249
 4824SOL    HW125931   2.951   3.377  15.575 -0.4937  0.9753 -0.8273
 4824SOL    HW225932   2.976   3.326  15.440 -2.5151 -0.9114  1.4310
 4825SOL     OW25933   4.712   4.164   8.621  0.1939 -0.5288  0.3777
 4825SOL    HW125934   0.014   4.183   8.531  1.7650 -2.4752  0.4129
 4825SOL    HW225935   4.724   4.069   8.628  0.9563 -0.4510  0.1279
 4826SOL     OW25936   0.085   0.350   6.719 -0.1836  0.4426 -0.8741
 4826SOL    HW125937   0.009   0.306   6.680 -1.1664  0.4454  1.0640
 4826SOL    HW225938   0.076   0.322   6.810  0.8462 -0.8330 -1.1605
 4827SOL     OW25939   0.823   4.440  12.412 -0.1298  0.2302  0.2579
 4827SOL    HW125940   0.885   4.374  12.381 -0.6161  0.0315 -0.3073
 4827SOL    HW225941   0.771   4.464  12.335  1.1703 -1.9807 -1.2840
 4828SOL     OW25942   2.755   2.648   1.873 -0.3647  0.5446  0.5407
 4828SOL    HW125943   2.722   2.647   1.963  0.6087  0.5105  0.8886
 4828SOL    HW225944   2.711   2.727   1.839 -0.9476 -0.1676 -0.3583
 4829SOL     OW25945   4.092   0.277   7.547 -0.5380 -0.0584 -0.0261
 4829SOL    HW125946   4.003   0.313   7.539  0.1888  1.7406 -0.0338
 4829SOL    HW225947   4.090   0.254   7.640 -0.2731  0.4283  0.1000
 4830SOL     OW25948   0.895   1.874   7.332 -0.1124 -0.2478 -0.7890
 4830SOL    HW125949   0.881   1.835   7.245 -2.1906 -2.3019  0.4605
 4830SOL    HW225950   0.988   1.854   7.344 -0.7132 -2.2748  0.5026
 4831SOL     OW25951   0.816   2.313   6.257 -0.0135 -0.0054  0.0075
 4831SOL    HW125952   0.822   2.283   6.167  1.1632  1.4574 -0.3871
 4831SOL    HW225953   0.821   2.408   6.251  0.5588 -0.0477 -0.2137
 4832SOL     OW25954   0.900   4.440   9.256 -0.7416 -0.1555  0.2146
 4832SOL    HW125955   0.898   4.350   9.224  0.2734  0.8543 -2.6479
 4832SOL    HW225956   0.973   4.433   9.317  1.1322 -0.2743 -2.0396
 4833SOL     OW25957   3.696   3.978   2.883 -0.3629  0.1213  0.8035
 4833SOL    HW125958   3.659   3.959   2.797 -0.4774  1.8074  0.4832
 4833SOL    HW225959   3.698   4.074   2.884  0.5477  0.0974  2.2041
 4834SOL     OW25960   1.995   1.904  12.056 -0.4255 -0.1448 -0.1764
 4834SOL    HW125961   2.089   1.886  12.058 -0.4140 -0.0998 -0.3051
 4834SOL    HW225962   1.991   1.959  11.978 -0.9760  0.2989  0.1701
 4835SOL     OW25963   3.091   1.707   5.664  0.0508 -0.1885  0.2059
 4835SOL    HW125964   2.996   1.713   5.658 -0.1016 -2.3071  0.4364
 4835SOL    HW225965   3.109   1.788   5.712 -0.4653 -0.9823  1.7578
 4836SOL     OW25966   2.625   2.982   6.449 -0.2386  0.2674  0.4445
 4836SOL    HW125967   2.531   2.965   6.455 -0.0316 -0.2870  2.1857
 4836SOL    HW225968   2.637   3.047   6.519 -2.3164 -1.1563  2.1215
 4837SOL     OW25969   3.375   0.792  13.337 -0.2881 -0.5074  0.1241
 4837SOL    HW125970   3.419   0.876  13.350  1.7301 -1.8533  2.0558
 4837SOL    HW225971   3.394   0.752  13.422 -0.7729 -0.6547  0.1612
 4838SOL     OW25972   2.684   1.659   6.949  0.5322  0.5870 -0.5833
 4838SOL    HW125973   2.738   1.712   6.891 -0.2888  0.8072 -1.1586
 4838SOL    HW225974   2.616   1.632   6.887 -1.4732 -0.5030  2.0558
 4839SOL     OW25975   0.900   0.630   2.464 -0.2550 -0.3946  0.0747
 4839SOL    HW125976   0.815   0.587   2.464  0.3207 -1.5447  2.1014
 4839SOL    HW225977   0.956   0.583   2.401  1.2441  1.4089  0.0540
 4840SOL     OW25978   3.419   4.114   7.834 -0.3813 -0.2110  0.0361
 4840SOL    HW125979   3.502   4.067   7.838  0.4731  1.4074  1.2269
 4840SOL    HW225980   3.364   4.043   7.800 -2.1155  0.7940  0.7566
 4841SOL     OW25981   0.584   1.964   3.202  0.3560 -0.0669  0.3082
 4841SOL    HW125982   0.634   1.951   3.121  0.3876 -0.9823  0.4701
 4841SOL    HW225983   0.499   1.929   3.174  0.7454 -0.7651 -0.0005
 4842SOL     OW25984   1.229   1.455  14.985  0.1257  0.0424  1.3433
 4842SOL    HW125985   1.324   1.459  14.976 -0.0525 -0.6080 -0.8043
 4842SOL    HW225986   1.198   1.471  14.896  0.8824  0.9552  1.2451
 4843SOL     OW25987   2.964   0.709  11.182  0.1064  0.0966 -0.5904
 4843SOL    HW125988   3.000   0.622  11.198 -0.0130 -0.0050 -0.8727
 4843SOL    HW225989   3.041   0.749  11.141  1.3305 -2.1370 -0.4650
 4844SOL     OW25990   1.074   3.655   3.267 -0.1392 -0.1302 -0.3157
 4844SOL    HW125991   1.086   3.614   3.352 -2.5827 -0.0931  0.0477
 4844SOL    HW225992   1.084   3.581   3.206 -1.2582 -0.4707 -0.0952
 4845SOL     OW25993   1.934   0.553   3.322 -0.1284  0.1115  0.5509
 4845SOL    HW125994   1.911   0.558   3.415 -1.7874 -1.8241  0.2455
 4845SOL    HW225995   1.933   0.644   3.292 -1.2945 -0.0825 -0.0248
 4846SOL     OW25996   3.789   3.108   9.302  0.4760  0.5371 -0.2329
 4846SOL    HW125997   3.767   3.199   9.323 -3.6907 -0.9805  2.0515
 4846SOL    HW225998   3.831   3.087   9.385 -2.6156 -1.1929  0.8768
 4847SOL     OW25999   1.345   3.858   0.881 -0.0497 -0.1730  0.2432
 4847SOL    HW126000   1.288   3.862   0.804 -1.0857 -1.6722  0.9207
 4847SOL    HW226001   1.286   3.842   0.956 -1.3352  0.1916 -0.6947
 4848SOL     OW26002   0.755   3.833   9.019 -0.0937 -0.7958 -0.5092
 4848SOL    HW126003   0.726   3.914   8.976 -1.2059 -0.8687  0.1147
 4848SOL    HW226004   0.733   3.845   9.111  1.4932 -0.2609 -0.1911
 4849SOL     OW26005   3.929   2.517   0.148 -0.1934  0.3909  0.5344
 4849SOL    HW126006   3.905   2.555   0.233  1.1305  0.2151  0.9952
 4849SOL    HW226007   3.979   2.445   0.186  0.0354  1.4662  2.3348
 4850SOL     OW26008   1.985   2.657   3.374  0.3158 -0.6255  0.1410
 4850SOL    HW126009   1.983   2.635   3.467  0.9049 -1.1567  0.0207
 4850SOL    HW226010   1.902   2.704   3.368  0.2291 -0.9225 -0.8521
 4851SOL     OW26011   2.929   1.137  10.208 -0.7637  0.1601 -0.4744
 4851SOL    HW126012   2.969   1.053  10.185 -2.7136 -0.7565 -0.4544
 4851SOL    HW226013   3.000   1.202  10.200  0.6126 -1.4616 -1.4000
 4852SOL     OW26014   0.641   2.571  14.850  0.2934  0.1191 -0.2430
 4852SOL    HW126015   0.552   2.568  14.885  0.0392  0.5630 -0.8358
 4852SOL    HW226016   0.629   2.581  14.756 -0.7505 -0.1623 -0.1344
 4853SOL     OW26017   1.088   2.018   5.409 -0.2933  1.0061  0.5368
 4853SOL    HW126018   1.100   1.985   5.320 -2.6840  1.9808 -0.1335
 4853SOL    HW226019   1.179   2.024   5.439  0.0261  1.0173 -0.4095
 4854SOL     OW26020   2.477   0.722   3.034 -0.3935  0.5744  0.1000
 4854SOL    HW126021   2.387   0.706   3.007 -0.5785  1.1199  0.3843
 4854SOL    HW226022   2.462   0.717   3.129 -0.1105 -2.1933 -0.0206
 4855SOL     OW26023   4.525   1.853  13.444  0.1424  0.4358  0.1017
 4855SOL    HW126024   4.532   1.776  13.388 -2.2438 -0.2897  0.8074
 4855SOL    HW226025   4.552   1.926  13.388 -1.5636 -0.0918 -1.3991
 4856SOL     OW26026   2.523   1.757   2.945  0.2069 -0.8373  0.2031
 4856SOL    HW126027   2.523   1.713   2.860  1.1278  0.2029 -0.3394
 4856SOL    HW226028   2.592   1.717   2.998  0.2162 -1.1050 -0.0147
 4857SOL     OW26029   1.086   2.055   6.127 -0.5415 -0.1499 -0.3351
 4857SOL    HW126030   1.064   2.117   6.057 -2.9663 -0.9443 -0.2887
 4857SOL    HW226031   1.114   2.118   6.193  0.8441 -1.3308  0.1974
 4858SOL     OW26032   0.983   3.840  14.104 -0.3907 -0.0255  0.0962
 4858SOL    HW126033   1.002   3.753  14.068  0.0178  1.3274 -2.9273
 4858SOL    HW226034   0.952   3.810  14.189  0.6077 -2.3678 -0.3469
 4859SOL     OW26035   3.036   1.811   7.467 -0.0570  0.2930 -0.0430
 4859SOL    HW126036   2.976   1.738   7.481  2.2998 -1.3447  1.5318
 4859SOL    HW226037   3.114   1.761   7.442 -1.7052 -1.8491 -0.9244
 4860SOL     OW26038   0.791   2.456   6.954 -0.9731 -0.1241  0.1253
 4860SOL    HW126039   0.792   2.485   7.045 -1.2616 -0.1033  0.1211
 4860SOL    HW226040   0.861   2.392   6.968 -2.0289 -1.8412 -2.4745
 4861SOL     OW26041   0.511   3.728   9.833 -0.4994 -0.4703  0.5415
 4861SOL    HW126042   0.598   3.698   9.807 -0.2168  1.0091 -0.1857
 4861SOL    HW226043   0.516   3.699   9.925 -0.9157 -0.6675  0.5034
 4862SOL     OW26044   4.526   2.289   5.267 -0.3179  0.2470 -0.1129
 4862SOL    HW126045   4.566   2.208   5.236  1.7146  1.9859 -2.0814
 4862SOL    HW226046   4.602   2.347   5.254 -0.1213 -0.4618 -2.1656
 4863SOL     OW26047   1.583   3.387  15.263 -0.0598  0.2555 -0.4100
 4863SOL    HW126048   1.644   3.415  15.332  0.7963 -1.8235 -0.3142
 4863SOL    HW226049   1.606   3.440  15.186  1.7371  2.6709  1.7853
 4864SOL     OW26050   0.372   2.284  14.630 -0.2333  0.4179 -0.1169
 4864SOL    HW126051   0.337   2.327  14.552  0.3323  2.2074  0.6114
 4864SOL    HW226052   0.298   2.251  14.680 -0.2425 -0.0553 -0.4430
 4865SOL     OW26053   1.820   1.712   2.494  0.2712 -0.1376 -0.3720
 4865SOL    HW126054   1.898   1.658   2.507  1.2405  0.8167 -2.2147
 4865SOL    HW226055   1.858   1.773   2.431  1.3788 -0.2277  0.2121
 4866SOL     OW26056   2.869   0.620   5.068  0.4439  0.2474 -0.1448
 4866SOL    HW126057   2.835   0.581   5.148 -3.2646  1.5389 -1.0960
 4866SOL    HW226058   2.786   0.645   5.029  0.2586 -0.1711 -0.0116
 4867SOL     OW26059   3.704   2.083   8.484  0.4872 -0.5893 -0.5241
 4867SOL    HW126060   3.708   1.988   8.492  2.5555 -0.2954  1.9301
 4867SOL    HW226061   3.611   2.104   8.500  0.6027  0.0262 -0.6524
 4868SOL     OW26062   2.768   4.416  11.919 -0.1794 -0.1768  0.0157
 4868SOL    HW126063   2.694   4.432  11.860  0.1407  1.8690  0.1879
 4868SOL    HW226064   2.732   4.391  12.005  1.1566 -0.1705  0.5727
 4869SOL     OW26065   1.972   4.640   1.863 -0.0242 -0.1758 -0.2367
 4869SOL    HW126066   1.993   4.549   1.883  1.4875  0.4714  1.1064
 4869SOL    HW226067   1.889   4.644   1.911  1.1060  3.6354  1.4514
 4870SOL     OW26068   3.642   0.562   3.117  0.2369  0.2466 -0.0874
 4870SOL    HW126069   3.631   0.479   3.072 -2.2859 -0.1409  1.2798
 4870SOL    HW226070   3.715   0.599   3.067 -0.3173  0.5559 -0.6760
 4871SOL     OW26071   0.250   0.633   3.694 -0.0519  0.0313  0.2093
 4871SOL    HW126072   0.245   0.690   3.617 -0.5552  0.0494  0.2549
 4871SOL    HW226073   0.170   0.649   3.744  1.4724  0.5725  2.4853
 4872SOL     OW26074   3.822   0.775   6.452  0.5323 -0.2603 -0.0422
 4872SOL    HW126075   3.888   0.714   6.484  3.1525  1.2424 -2.5257
 4872SOL    HW226076   3.867   0.846   6.406  1.9916 -0.8281  0.5150
 4873SOL     OW26077   1.375   0.447  14.314  0.2839 -0.1675 -0.1377
 4873SOL    HW126078   1.365   0.503  14.390  0.6007  0.5784 -0.6502
 4873SOL    HW226079   1.285   0.457  14.284  0.7399  1.4253 -0.9701
 4874SOL     OW26080   2.195   3.440   4.435  0.1482 -0.3547 -0.4648
 4874SOL    HW126081   2.199   3.356   4.481 -3.8965 -0.7801 -0.9274
 4874SOL    HW226082   2.105   3.459   4.460  1.2078  2.9613  0.8001
 4875SOL     OW26083   0.218   0.579   6.228 -1.0276  0.3341  0.2878
 4875SOL    HW126084   0.142   0.525   6.207 -1.4145  1.0100 -0.0350
 4875SOL    HW226085   0.234   0.561   6.321 -3.5687  0.8775  0.8546
 4876SOL     OW26086   2.664   1.455   2.973 -0.6730 -0.5948 -0.4913
 4876SOL    HW126087   2.660   1.383   3.035  1.5483 -0.0193  0.3056
 4876SOL    HW226088   2.755   1.477   2.993 -1.2309  0.7044  0.6043
 4877SOL     OW26089   4.190   0.122   9.150  0.1413 -0.0032 -0.1611
 4877SOL    HW126090   4.163   0.143   9.240 -2.8676  2.0258 -1.5414
 4877SOL    HW226091   4.185   0.026   9.156  0.3417 -0.0174 -0.2277
 4878SOL     OW26092   0.364   4.117  16.763  0.5959 -0.0335 -0.0911
 4878SOL    HW126093   0.455   4.090  16.767  0.7461  0.4203 -0.3593
 4878SOL    HW226094   0.356   4.115  16.858  0.8798 -0.3511 -0.0788
 4879SOL     OW26095   1.061   3.476   6.933  0.3875  0.1153  0.3866
 4879SOL    HW126096   0.999   3.407   6.909 -0.8792  1.1049  0.8194
 4879SOL    HW226097   1.141   3.425   6.919 -0.4842 -0.4291 -2.4908
 4880SOL     OW26098   1.823   1.073  13.632  0.0625 -0.1005 -0.5241
 4880SOL    HW126099   1.914   1.086  13.606 -0.2290  3.8320  0.3172
 4880SOL    HW226100   1.812   1.134  13.705  2.6529 -0.4905  0.1583
 4881SOL     OW26101   2.749   1.350   2.060  1.0284 -0.0828  0.3246
 4881SOL    HW126102   2.702   1.271   2.034 -0.4165  1.2603 -1.0999
 4881SOL    HW226103   2.721   1.407   1.988  0.9637  0.1565  0.5382
 4882SOL     OW26104   3.384   2.475  15.282 -0.9397 -0.3098  0.3886
 4882SOL    HW126105   3.426   2.523  15.354 -0.8925  0.5340 -0.2025
 4882SOL    HW226106   3.359   2.546  15.223 -0.1468 -0.0482  0.3651
 4883SOL     OW26107   4.602   3.619   8.722  0.1715 -0.1067 -0.6041
 4883SOL    HW126108   4.592   3.528   8.749  1.5681 -0.3657 -0.9621
 4883SOL    HW226109   4.596   3.606   8.627 -0.4901 -2.9840 -0.1442
 4884SOL     OW26110   3.573   0.208   3.204  0.0846  1.0165  0.3695
 4884SOL    HW126111   3.661   0.209   3.166  0.6467 -0.1822  1.6116
 4884SOL    HW226112   3.528   0.173   3.127  1.7292  2.1278 -1.0890
 4885SOL     OW26113   0.678   3.799  10.851  0.2296  0.5308 -0.2861
 4885SOL    HW126114   0.671   3.867  10.784 -3.0804  0.9701  0.5159
 4885SOL    HW226115   0.662   3.728  10.790  1.1428 -0.3374  0.4700
 4886SOL     OW26116   1.036   0.071   7.435 -0.1873 -0.0950 -0.3216
 4886SOL    HW126117   1.044   0.120   7.517  1.0589  1.2965 -1.2719
 4886SOL    HW226118   1.093   0.000   7.466 -0.0361 -0.2877 -1.0343
 4887SOL     OW26119   2.373   3.388   2.451 -0.3368  0.1281  0.1004
 4887SOL    HW126120   2.387   3.448   2.377 -0.4717  0.4166  0.3117
 4887SOL    HW226121   2.423   3.436   2.517 -1.1139  1.9144 -0.5898
 4888SOL     OW26122   1.466   2.762   4.798 -0.5399  0.1432 -0.4726
 4888SOL    HW126123   1.559   2.739   4.794 -0.7358 -0.6704 -0.1997
 4888SOL    HW226124   1.423   2.681   4.771 -0.6329 -0.1300  0.5145
 4889SOL     OW26125   2.298   1.800   6.989  0.3368  0.2773  0.0346
 4889SOL    HW126126   2.372   1.839   6.942  0.3521  0.5805  0.3121
 4889SOL    HW226127   2.226   1.845   6.945 -0.2656  0.1378  0.9020
 4890SOL     OW26128   0.931   3.541   9.363 -0.5979  0.1766 -0.2221
 4890SOL    HW126129   0.844   3.527   9.327 -1.0999 -1.7394  1.7382
 4890SOL    HW226130   0.957   3.625   9.323 -0.8013  0.0869 -0.5432
 4891SOL     OW26131   4.586   4.402   9.683 -0.3376 -0.1423  0.0979
 4891SOL    HW126132   4.592   4.415   9.778 -0.0848  0.9907 -0.0690
 4891SOL    HW226133   4.499   4.364   9.670  0.1397 -1.1113 -0.2811
 4892SOL     OW26134   1.491   1.956   2.319 -0.2071 -0.1876  0.0430
 4892SOL    HW126135   1.525   2.042   2.343 -0.9062  0.0744  0.0885
 4892SOL    HW226136   1.575   1.910   2.308  1.1061  1.9545  0.9790
 4893SOL     OW26137   4.704   1.526   6.131 -0.1456  0.1972  0.0730
 4893SOL    HW126138   0.050   1.541   6.193 -0.0587 -0.7202  0.2016
 4893SOL    HW226139   4.682   1.618   6.116 -0.1375 -0.0609 -1.4843
 4894SOL     OW26140   4.027   2.861   7.905  0.9528 -0.0095 -0.0255
 4894SOL    HW126141   4.036   2.825   7.816  0.8655  1.8521 -0.7805
 4894SOL    HW226142   4.018   2.956   7.896 -0.2075 -0.1782 -0.6976
 4895SOL     OW26143   0.463   2.778   3.332 -0.1581 -0.1212 -0.3714
 4895SOL    HW126144   0.397   2.818   3.275  0.2119  0.4288 -0.4203
 4895SOL    HW226145   0.412   2.712   3.378 -2.4161  1.4038 -0.7089
 4896SOL     OW26146   2.478   0.794  11.178 -0.5960 -0.3784 -0.1967
 4896SOL    HW126147   2.563   0.796  11.133 -0.5500  1.4299 -0.0317
 4896SOL    HW226148   2.517   0.776  11.263 -1.7696  0.3694  0.4952
 4897SOL     OW26149   2.284   2.637   3.551  0.4112 -0.3893  0.2400
 4897SOL    HW126150   2.194   2.645   3.520  0.2171  0.0519  0.8886
 4897SOL    HW226151   2.324   2.707   3.499 -0.0423 -1.2977 -1.3285
 4898SOL     OW26152   2.888   2.504   8.014  0.3317 -0.1440  0.0580
 4898SOL    HW126153   2.941   2.428   8.036 -2.3310 -2.2429 -0.7608
 4898SOL    HW226154   2.958   2.547   7.964  0.4704 -1.3745 -0.8195
 4899SOL     OW26155   1.295   2.519   0.350 -0.1162  0.3967  0.7745
 4899SOL    HW126156   1.382   2.559   0.346 -0.1659  0.4532  0.2771
 4899SOL    HW226157   1.308   2.431   0.388  1.4746 -0.5351 -1.8979
 4900SOL     OW26158   1.719   4.006  16.852 -0.3871 -0.3608  0.2353
 4900SOL    HW126159   1.786   4.068  16.823  1.9702 -3.6130 -1.1927
 4900SOL    HW226160   1.759   3.972  16.932  2.9504  0.4004 -1.1302
 4901SOL     OW26161   2.929   3.508   9.657  0.3191 -0.0842  0.1186
 4901SOL    HW126162   2.984   3.430   9.659 -0.4399 -0.6582 -1.0360
 4901SOL    HW226163   2.971   3.547   9.733 -0.7014  2.5086 -0.6555
 4902SOL     OW26164   0.039   2.530   4.951 -0.1510 -0.3611 -0.3273
 4902SOL    HW126165   0.102   2.593   4.916 -1.0146  0.7266  0.0424
 4902SOL    HW226166   4.687   2.545   4.895 -0.8013  0.5500  0.7918
 4903SOL     OW26167   0.814   1.076  16.897  0.0427  0.4695 -0.3034
 4903SOL    HW126168   0.780   1.027  16.822  0.1147  0.3511 -0.2578
 4903SOL    HW226169   0.814   1.008  16.964 -0.2387  1.7593  1.0102
 4904SOL     OW26170   2.538   3.326   6.795  0.0743  0.3660 -0.2741
 4904SOL    HW126171   2.621   3.322   6.843  0.8334  2.8797 -1.3782
 4904SOL    HW226172   2.568   3.387   6.728 -0.4830  0.0301 -0.8223
 4905SOL     OW26173   3.882   1.647  14.685 -0.1155  0.3269 -0.0610
 4905SOL    HW126174   3.878   1.586  14.611  2.8474  3.0383 -2.4539
 4905SOL    HW226175   3.859   1.593  14.761  0.1514 -0.3313 -0.4420
 4906SOL     OW26176   3.302   4.337   8.423 -0.0134 -0.0690 -0.3888
 4906SOL    HW126177   3.257   4.262   8.461  1.4453 -1.0970 -0.6741
 4906SOL    HW226178   3.246   4.409   8.452 -0.2532 -0.9955  1.4186
 4907SOL     OW26179   1.309   4.337   4.138 -0.2649  0.4461 -0.1019
 4907SOL    HW126180   1.390   4.290   4.159 -1.5549 -2.1388 -0.8667
 4907SOL    HW226181   1.253   4.301   4.207 -0.4931  3.1450  1.1101
 4908SOL     OW26182   0.251   1.440  10.488 -0.0443 -0.2245 -0.8650
 4908SOL    HW126183   0.331   1.390  10.502  0.9414  0.8424 -2.7392
 4908SOL    HW226184   0.187   1.405  10.550  0.9846 -1.0255 -0.2498
 4909SOL     OW26185   2.800   4.658   0.037 -0.3993 -0.0986 -0.3120
 4909SOL    HW126186   2.868   4.590   0.041 -0.0869  0.2356  0.0642
 4909SOL    HW226187   2.847   0.010   0.005  0.0846 -0.2525  0.0368
 4910SOL     OW26188   4.399   1.726   3.528 -0.1646 -0.2944  0.6874
 4910SOL    HW126189   4.426   1.810   3.493  3.1529 -2.2683 -1.4119
 4910SOL    HW226190   4.356   1.760   3.607  0.0517 -0.9900  1.1109
 4911SOL     OW26191   3.921   4.080   8.214  0.4178 -0.1378  0.3025
 4911SOL    HW126192   3.963   4.012   8.267  1.2989 -0.7244 -1.1616
 4911SOL    HW226193   3.989   4.147   8.218 -0.4462  0.7112  0.6359
 4912SOL     OW26194   2.968   2.644   1.580  0.5844 -0.5117  0.5344
 4912SOL    HW126195   2.941   2.588   1.507  1.1006 -3.7237  2.7965
 4912SOL    HW226196   3.039   2.593   1.618 -0.9768 -1.1190  2.5991
 4913SOL     OW26197   2.275   3.745   1.466 -1.1951 -0.4338  0.6864
 4913SOL    HW126198   2.217   3.822   1.464 -1.4904 -0.5904  3.2108
 4913SOL    HW226199   2.363   3.775   1.441 -0.7400 -2.0618  0.3663
 4914SOL     OW26200   4.453   1.772   5.567  0.2889  0.1508 -0.1252
 4914SOL    HW126201   4.529   1.749   5.620  1.0875  1.9369 -0.4814
 4914SOL    HW226202   4.399   1.695   5.549 -0.1542  0.8393 -1.7451
 4915SOL     OW26203   2.314   4.481  12.221  0.1154 -0.7661  0.1938
 4915SOL    HW126204   2.253   4.522  12.283  0.1123 -1.0887  0.4032
 4915SOL    HW226205   2.387   4.542  12.208 -1.5896  1.4994  1.3509
 4916SOL     OW26206   2.709   3.268   5.667  0.3285  0.1835 -0.2749
 4916SOL    HW126207   2.706   3.188   5.721  0.0543  0.4841  0.1528
 4916SOL    HW226208   2.777   3.315   5.715 -0.7244 -0.9455  2.3161
 4917SOL     OW26209   1.470   3.101  13.108  0.6968 -0.1753 -0.0196
 4917SOL    HW126210   1.406   3.039  13.075 -0.9144  0.7156  1.4543
 4917SOL    HW226211   1.540   3.083  13.044  2.3348  1.2892  1.3563
 4918SOL     OW26212   1.327   1.047   4.877 -0.0611  0.5274 -0.3654
 4918SOL    HW126213   1.301   1.017   4.790 -0.2404 -0.5130  0.0416
 4918SOL    HW226214   1.417   1.075   4.862  0.0205  0.5235  0.0930
 4919SOL     OW26215   3.631   0.529   7.559 -0.2201  0.1335  0.7101
 4919SOL    HW126216   3.552   0.490   7.595  1.4251 -1.2769  2.7677
 4919SOL    HW226217   3.598   0.576   7.483 -0.8468 -0.2296  0.7642
 4920SOL     OW26218   0.279   2.346   1.818 -0.6728 -0.3870  0.1222
 4920SOL    HW126219   0.347   2.300   1.867 -0.0855 -2.0588 -2.2785
 4920SOL    HW226220   0.329   2.403   1.759  1.2808 -0.4760  1.6723
 4921SOL     OW26221   3.390   3.922   8.963 -0.5007  0.1931  0.5493
 4921SOL    HW126222   3.368   4.015   8.973 -1.6768  0.1424 -1.5986
 4921SOL    HW226223   3.363   3.915   8.872  0.7599  0.3123  0.1624
 4922SOL     OW26224   2.700   3.689   0.674  0.3860  0.2238  0.1246
 4922SOL    HW126225   2.783   3.644   0.692 -0.5339 -2.5439 -2.5237
 4922SOL    HW226226   2.639   3.661   0.742  1.1965  0.4462  0.9465
 4923SOL     OW26227   3.214   3.291   8.209 -0.4659  0.5521  0.0835
 4923SOL    HW126228   3.305   3.270   8.192 -1.0148 -0.1940 -1.9404
 4923SOL    HW226229   3.215   3.295   8.305 -0.2722  1.0207  0.0639
 4924SOL     OW26230   0.032   4.606   5.038  0.0703  0.0164  0.4614
 4924SOL    HW126231   0.112   4.566   5.071  0.3828  0.2763  0.0265
 4924SOL    HW226232   4.720   4.633   5.122 -1.8156 -0.6881 -0.1160
 4925SOL     OW26233   3.080   0.353   8.884  0.0382  0.0122 -0.2470
 4925SOL    HW126234   3.151   0.407   8.919 -0.4744 -1.8932  3.7416
 4925SOL    HW226235   3.059   0.395   8.801  0.4472 -0.6557 -0.6864
 4926SOL     OW26236   2.711   2.293   8.124  0.7367  0.0809 -0.3455
 4926SOL    HW126237   2.703   2.384   8.093 -1.3629 -0.1615 -0.5105
 4926SOL    HW226238   2.716   2.248   8.039  1.1514 -1.6476  0.5909
 4927SOL     OW26239   3.191   0.167   1.748 -0.4633 -0.6626  0.9100
 4927SOL    HW126240   3.099   0.191   1.762 -0.8506 -0.2883 -2.2433
 4927SOL    HW226241   3.178   0.106   1.676 -0.1072  0.9119 -0.4859
 4928SOL     OW26242   0.465   0.534  14.922  0.4378 -0.4037 -0.2463
 4928SOL    HW126243   0.393   0.578  14.967  0.7707 -0.4270  0.3131
 4928SOL    HW226244   0.419   0.488  14.853 -0.5683  0.0688  0.1114
 4929SOL     OW26245   1.085   1.167   5.661  0.0984  0.0967 -0.1012
 4929SOL    HW126246   1.044   1.251   5.639 -1.5172 -1.2331 -2.1223
 4929SOL    HW226247   1.029   1.129   5.728  0.4887 -1.3412 -0.5769
 4930SOL     OW26248   1.858   4.582   7.451  0.4323 -0.2708  0.4541
 4930SOL    HW126249   1.792   4.613   7.389  0.5215 -1.8480 -0.4433
 4930SOL    HW226250   1.914   4.658   7.466  1.0803 -0.5790 -0.4042
 4931SOL     OW26251   1.853   2.797   7.199 -0.1777 -0.1888 -0.3044
 4931SOL    HW126252   1.882   2.885   7.224  0.8435 -0.7429  0.4776
 4931SOL    HW226253   1.759   2.792   7.212  0.1580  1.6485  2.7553
 4932SOL     OW26254   3.338   4.565  16.823  0.3850  0.1772 -0.2767
 4932SOL    HW126255   3.429   4.547  16.804  0.3064 -1.2904  0.7017
 4932SOL    HW226256   3.344   4.661  16.818 -0.6578  0.2056 -0.9190
 4933SOL     OW26257   2.613   2.466   4.580 -0.5268  0.0633  0.4078
 4933SOL    HW126258   2.677   2.410   4.623 -0.7882 -0.3149  0.2970
 4933SOL    HW226259   2.666   2.532   4.535  1.0440 -1.1178  0.5355
 4934SOL     OW26260   1.231   1.191  14.025 -0.7087 -0.2025  0.5729
 4934SOL    HW126261   1.282   1.149  13.955 -2.1371 -2.5093  0.9003
 4934SOL    HW226262   1.168   1.241  13.973  1.2647  2.2703  0.5910
 4935SOL     OW26263   2.346   2.890   6.227 -0.0177  0.4711 -0.3144
 4935SOL    HW126264   2.406   2.829   6.185 -0.8273 -0.2199 -0.4584
 4935SOL    HW226265   2.328   2.849   6.312 -1.9532  0.2792 -0.8127
 4936SOL     OW26266   1.681   3.331   5.575 -0.0598  0.4486  0.5539
 4936SOL    HW126267   1.652   3.279   5.500 -0.1119 -1.0428  1.5859
 4936SOL    HW226268   1.613   3.398   5.579 -1.4391 -0.9196  0.3290
 4937SOL     OW26269   2.897   2.372   1.505  0.0529  0.4381 -0.0101
 4937SOL    HW126270   2.844   2.293   1.513  2.4245 -1.4204 -2.4726
 4937SOL    HW226271   2.981   2.343   1.541  0.3305 -0.1963 -1.1684
 4938SOL     OW26272   2.635   2.578   7.935 -0.3564  0.1442  0.1668
 4938SOL    HW126273   2.638   2.672   7.955  1.9931  0.4429 -1.5294
 4938SOL    HW226274   2.728   2.562   7.947  0.0996  1.7840 -1.1286
 4939SOL     OW26275   4.511   3.483   2.968 -0.2013 -0.4051  0.0014
 4939SOL    HW126276   4.593   3.505   3.011 -0.6992  1.5851 -0.0676
 4939SOL    HW226277   4.507   3.557   2.908 -0.3805  1.5056  2.4099
 4940SOL     OW26278   0.726   3.197   9.316 -0.4794  0.2938  0.3240
 4940SOL    HW126279   0.719   3.276   9.261 -1.9870  0.7640  1.1702
 4940SOL    HW226280   0.703   3.135   9.247  0.1905  0.0744  0.2999
 4941SOL     OW26281   2.836   0.004  10.408 -0.3463 -0.3064 -0.2270
 4941SOL    HW126282   2.838   4.683  10.492 -1.8386  0.2245  0.0898
 4941SOL    HW226283   2.765   4.682  10.364  0.7111 -0.0330 -2.2339
 4942SOL     OW26284   1.628   3.107   1.572 -0.0643  0.3829  0.1324
 4942SOL    HW126285   1.579   3.143   1.498 -0.5931 -2.3631 -0.8825
 4942SOL    HW226286   1.554   3.117   1.632 -0.2091 -0.1834  0.0550
 4943SOL     OW26287   1.467   4.500   7.494 -0.0900 -0.4828 -0.1294
 4943SOL    HW126288   1.439   4.464   7.409  1.0494 -0.2915 -0.5943
 4943SOL    HW226289   1.551   4.459   7.516 -0.5037 -2.2329 -1.7904
 4944SOL     OW26290   2.079   4.500   3.346 -0.4034 -0.0634  0.4649
 4944SOL    HW126291   2.026   4.421   3.335 -0.7200 -0.0105  1.6656
 4944SOL    HW226292   2.023   4.566   3.304 -0.8296  0.1410  1.3611
 4945SOL     OW26293   3.860   4.099  16.437  0.1767  0.2262 -0.3145
 4945SOL    HW126294   3.773   4.136  16.427  0.7790  1.2719 -1.6129
 4945SOL    HW226295   3.887   4.134  16.522  1.3506  1.4115 -1.1777
 4946SOL     OW26296   3.703   4.723   2.812 -0.3863  0.2708 -0.5812
 4946SOL    HW126297   3.775   4.711   2.750 -0.7393  0.3095 -0.9971
 4946SOL    HW226298   3.644   0.057   2.764  0.9776  2.1978  0.0618
 4947SOL     OW26299   2.478   0.332  16.214 -0.6082 -0.0766  0.4045
 4947SOL    HW126300   2.489   0.422  16.242  0.1152 -0.5283  1.5910
 4947SOL    HW226301   2.413   0.335  16.144  0.3029  0.9402 -0.3744
 4948SOL     OW26302   0.663   3.745   6.379 -0.0202  0.1219  0.5481
 4948SOL    HW126303   0.598   3.801   6.337 -1.2246 -2.5801 -1.1832
 4948SOL    HW226304   0.664   3.790   6.464  2.1203  0.4443  0.3481
 4949SOL     OW26305   3.799   4.228   1.783  0.1196  0.4375 -0.0839
 4949SOL    HW126306   3.738   4.202   1.852 -1.6535  3.8599 -0.3533
 4949SOL    HW226307   3.747   4.300   1.746  2.4650  2.0882 -0.1354
 4950SOL     OW26308   1.690   3.695   0.419  0.1069 -0.2887 -0.1523
 4950SOL    HW126309   1.671   3.774   0.471 -3.4151 -1.4268  0.2757
 4950SOL    HW226310   1.604   3.662   0.397 -0.2965 -0.0398  1.0180
 4951SOL     OW26311   3.352   1.336   7.555  0.2011  0.3310 -0.1857
 4951SOL    HW126312   3.312   1.345   7.468  1.0739 -0.0298 -0.6230
 4951SOL    HW226313   3.284   1.288   7.603 -0.4191  0.1081 -1.2806
 4952SOL     OW26314   3.416   3.404  10.635  0.2119 -0.3689  0.3290
 4952SOL    HW126315   3.495   3.455  10.620  0.1279  0.0479  1.2932
 4952SOL    HW226316   3.457   3.322  10.660  2.1236  1.0569  1.8966
 4953SOL     OW26317   4.122   4.065   8.636  0.1510 -0.0771  0.3854
 4953SOL    HW126318   4.112   3.975   8.666 -1.7290  0.3902  1.1116
 4953SOL    HW226319   4.215   4.063   8.613 -0.0409 -0.4890 -0.3710
 4954SOL     OW26320   0.077   0.950   6.485 -0.5297  0.4976 -0.8642
 4954SOL    HW126321   0.155   0.926   6.534 -0.9111  0.7924 -0.1183
 4954SOL    HW226322   0.092   0.922   6.394 -1.2981  0.6794 -1.0534
 4955SOL     OW26323   0.238   2.402   8.587 -0.1682  0.5122 -0.6113
 4955SOL    HW126324   0.154   2.372   8.552 -1.2410  2.5641  0.2024
 4955SOL    HW226325   0.215   2.495   8.596 -1.0636  0.1234  1.0515
 4956SOL     OW26326   0.125   1.412   0.016  0.3444  0.1150 -0.3284
 4956SOL    HW126327   0.199   1.419   0.077  0.2808  0.5290 -0.3026
 4956SOL    HW226328   0.127   1.495  17.668  2.5168  0.8418  1.0489
 4957SOL     OW26329   4.281   0.271   3.426  0.2023 -0.1584  0.7611
 4957SOL    HW126330   4.227   0.265   3.347 -0.6944  1.6853  1.2544
 4957SOL    HW226331   4.212   0.290   3.489 -0.7645 -0.4866 -0.2039
 4958SOL     OW26332   3.969   3.131   4.830 -0.2519 -0.0849  0.1218
 4958SOL    HW126333   3.906   3.084   4.886 -0.2493 -2.4658 -1.8722
 4958SOL    HW226334   3.987   3.212   4.878 -1.6457  0.7898 -0.8374
 4959SOL     OW26335   0.007   3.666   2.816  0.0088 -0.0861  0.1113
 4959SOL    HW126336   4.650   3.659   2.766 -1.1097  1.1604  1.7440
 4959SOL    HW226337   4.710   3.754   2.846  1.5377  0.6084 -0.8343
 4960SOL     OW26338   4.050   0.243   3.573 -0.2998 -0.0465  0.1435
 4960SOL    HW126339   4.002   0.219   3.494  0.5377 -0.1764 -0.3256
 4960SOL    HW226340   3.981   0.251   3.639  0.5816  1.1016  0.9352
 4961SOL     OW26341   3.457   2.327   8.348 -0.1774 -0.2049 -0.0709
 4961SOL    HW126342   3.542   2.369   8.352 -0.0581 -0.2767 -1.8555
 4961SOL    HW226343   3.450   2.294   8.258  0.4065  2.1265 -0.9514
 4962SOL     OW26344   1.918   0.155   0.173 -0.1974  0.7629 -0.4603
 4962SOL    HW126345   1.971   0.110   0.108  0.5453  0.6397  0.2374
 4962SOL    HW226346   1.937   0.112   0.256  0.3471  1.6805 -0.1078
 4963SOL     OW26347   0.853   2.451   5.469 -0.6835 -0.6318  0.0664
 4963SOL    HW126348   0.821   2.480   5.384 -0.2583 -1.6335 -0.4331
 4963SOL    HW226349   0.874   2.360   5.447 -1.5964 -0.5200 -1.2354
 4964SOL     OW26350   0.672   1.727   9.598  0.4500  0.0023 -0.2146
 4964SOL    HW126351   0.614   1.773   9.537 -1.2760 -2.2377 -0.2525
 4964SOL    HW226352   0.662   1.634   9.577  1.4769 -0.0066 -0.6466
 4965SOL     OW26353   1.972   3.611   7.723 -0.1922  0.0331 -0.1763
 4965SOL    HW126354   1.943   3.676   7.659 -0.0361  0.8835  0.6104
 4965SOL    HW226355   1.934   3.532   7.684  1.4470  0.6415 -2.9970
 4966SOL     OW26356   2.336   1.588   3.248  0.3882  0.3991 -0.5944
 4966SOL    HW126357   2.244   1.608   3.263  0.0178 -2.3002  0.8421
 4966SOL    HW226358   2.335   1.495   3.223 -1.3479  0.3347 -0.2746
 4967SOL     OW26359   2.364   1.133   6.009 -0.2594  0.2638  0.1738
 4967SOL    HW126360   2.439   1.180   6.046  0.9050 -1.1443 -0.3653
 4967SOL    HW226361   2.293   1.197   6.004 -0.4370  0.0840  0.3972
 4968SOL     OW26362   3.883   3.701   0.294  0.7281  0.1609 -0.7437
 4968SOL    HW126363   3.805   3.654   0.323 -0.0698  0.6417 -2.1206
 4968SOL    HW226364   3.861   3.790   0.320  0.3478 -0.0121 -0.4617
 4969SOL     OW26365   4.220   4.676   7.683 -0.1549 -0.1110 -0.3744
 4969SOL    HW126366   4.214   4.700   7.775 -1.4242 -0.2808 -0.4180
 4969SOL    HW226367   4.134   4.634   7.679 -0.1945  0.1398 -2.3297
 4970SOL     OW26368   3.250   3.245  12.298 -0.1003 -0.3062 -0.2225
 4970SOL    HW126369   3.302   3.324  12.314  0.3371 -1.0172  1.8729
 4970SOL    HW226370   3.256   3.239  12.203  2.4703 -2.4164  0.0824
 4971SOL     OW26371   2.084   0.376  17.464  0.6944  0.4575 -0.3121
 4971SOL    HW126372   1.990   0.392  17.457  0.8625  1.3549 -0.4798
 4971SOL    HW226373   2.094   0.331  17.380  2.7458  3.0457 -1.4618
 4972SOL     OW26374   2.298   3.069   7.899 -0.3017 -0.9255  0.0525
 4972SOL    HW126375   2.295   2.975   7.918 -1.1853 -1.0686 -0.7736
 4972SOL    HW226376   2.359   3.084   7.971 -2.0976 -0.8369  1.5522
 4973SOL     OW26377   3.637   4.043   8.615 -0.6770  0.2883 -0.3350
 4973SOL    HW126378   3.652   3.949   8.616 -0.7366  0.2826  0.5810
 4973SOL    HW226379   3.629   4.061   8.521 -1.8451  0.5671 -0.1845
 4974SOL     OW26380   1.771   4.388  11.770 -0.0448  0.2388 -0.1997
 4974SOL    HW126381   1.849   4.353  11.726 -0.0635  0.1347 -0.1500
 4974SOL    HW226382   1.758   4.467  11.718  1.3252  1.2745  1.0481
 4975SOL     OW26383   3.294   0.057   6.310 -0.3669 -0.0279 -0.2804
 4975SOL    HW126384   3.336   0.128   6.359 -0.4015 -1.0194  1.1721
 4975SOL    HW226385   3.373   0.005   6.299 -0.1635 -0.1453  1.7590
 4976SOL     OW26386   1.023   1.806   3.391 -0.1359 -0.1105  0.1201
 4976SOL    HW126387   1.071   1.889   3.382  0.1145 -0.1869  0.7712
 4976SOL    HW226388   0.939   1.839   3.423  0.9802  2.8686  0.0022
 4977SOL     OW26389   1.543   1.255   2.914  0.2531  0.3943 -1.0650
 4977SOL    HW126390   1.604   1.262   2.840  0.6009 -0.9802 -0.9208
 4977SOL    HW226391   1.469   1.301   2.876 -1.3433 -1.0056  0.3306
 4978SOL     OW26392   4.250   3.413   8.186 -0.2556 -0.3384 -0.5093
 4978SOL    HW126393   4.284   3.424   8.097  0.1084  1.0396 -0.1976
 4978SOL    HW226394   4.184   3.344   8.178  0.1935 -0.6633 -1.4248
 4979SOL     OW26395   2.423   0.614   7.517 -0.3327  0.0536 -0.7237
 4979SOL    HW126396   2.501   0.583   7.562 -0.9320 -0.9016 -0.3430
 4979SOL    HW226397   2.401   0.687   7.576  0.2018  1.5008 -2.3016
 4980SOL     OW26398   3.209   1.097   3.793 -0.0806 -0.3088 -0.3836
 4980SOL    HW126399   3.192   1.174   3.738  0.7391 -0.1214 -0.3826
 4980SOL    HW226400   3.275   1.130   3.853 -0.4440  0.3114 -0.3264
 4981SOL     OW26401   1.294   3.140   6.311 -0.2608  0.3589  0.4568
 4981SOL    HW126402   1.336   3.119   6.394 -0.2122 -1.2282  0.0164
 4981SOL    HW226403   1.367   3.146   6.249 -0.8301 -1.8671 -0.4046
 4982SOL     OW26404   2.804   4.721   6.754  0.2296 -0.0964 -0.0047
 4982SOL    HW126405   2.873   4.681   6.808  0.7593 -1.2591 -1.5458
 4982SOL    HW226406   2.742   0.016   6.825  0.1263 -1.4103  0.2800
 4983SOL     OW26407   2.866   4.275   9.304  0.3156 -0.1127 -0.0280
 4983SOL    HW126408   2.850   4.233   9.389  2.0478  1.0715  0.8859
 4983SOL    HW226409   2.957   4.257   9.282 -0.0201 -0.7616 -0.8765
 4984SOL     OW26410   1.780   3.721   9.431 -0.3301 -0.2542 -0.2379
 4984SOL    HW126411   1.859   3.699   9.480  0.5518  0.3677 -1.3684
 4984SOL    HW226412   1.757   3.812   9.453 -0.5863 -0.4293  0.2111
 4985SOL     OW26413   2.748   1.918   2.828  0.2152 -0.0980 -0.1652
 4985SOL    HW126414   2.659   1.952   2.818  1.4799  2.4889 -2.5246
 4985SOL    HW226415   2.795   1.951   2.752  0.4495  0.4056  0.1990
 4986SOL     OW26416   1.813   2.259   7.634 -0.4423  0.1202  0.5726
 4986SOL    HW126417   1.747   2.327   7.649  2.9105  3.3127  0.8178
 4986SOL    HW226418   1.889   2.310   7.604 -0.9589  1.5744  1.7351
 4987SOL     OW26419   1.746   2.886   2.464  0.2698 -0.4077 -0.0419
 4987SOL    HW126420   1.817   2.950   2.454  1.8964 -1.9899  1.3618
 4987SOL    HW226421   1.793   2.813   2.504 -0.5751 -0.9388 -0.0373
 4988SOL     OW26422   2.415   1.028   3.618  0.0047 -0.8947  0.5793
 4988SOL    HW126423   2.482   0.991   3.676  0.1064 -0.1726  0.9354
 4988SOL    HW226424   2.438   0.981   3.538  1.0705 -0.7147  0.7807
 4989SOL     OW26425   2.532   2.042   3.522 -0.0347  0.1312  0.0148
 4989SOL    HW126426   2.477   1.963   3.515  2.1794 -1.3532 -0.7351
 4989SOL    HW226427   2.499   2.089   3.445  0.6361  1.7198  0.7106
 4990SOL     OW26428   2.805   4.271   6.851 -0.2896 -0.4471 -0.1530
 4990SOL    HW126429   2.802   4.299   6.943 -1.6564  3.8624 -1.5102
 4990SOL    HW226430   2.752   4.343   6.817 -0.7511 -0.6551  0.1127
 4991SOL     OW26431   1.054   1.386  13.931 -0.2099  0.6129 -0.0003
 4991SOL    HW126432   1.065   1.478  13.955 -1.1766  0.5516  0.6720
 4991SOL    HW226433   1.029   1.405  13.841  2.5105  0.6804 -0.7245
 4992SOL     OW26434   2.711   4.686   5.995  0.0142  0.7124  0.1070
 4992SOL    HW126435   2.710   4.606   5.943 -0.6411  0.9976 -0.3197
 4992SOL    HW226436   2.795   4.724   5.970  0.2749 -0.2954 -0.5392
 4993SOL     OW26437   3.709   0.566   5.747 -0.3897 -0.2321 -0.1577
 4993SOL    HW126438   3.761   0.568   5.828  0.5654  1.9718 -0.8300
 4993SOL    HW226439   3.715   0.653   5.707 -0.5002  0.5786  1.6087
 4994SOL     OW26440   4.280   2.666  16.324 -0.3430 -0.2008 -0.1835
 4994SOL    HW126441   4.319   2.600  16.382 -0.5778  0.5887  0.8811
 4994SOL    HW226442   4.359   2.700  16.282 -0.8879 -1.3596 -2.1367
 4995SOL     OW26443   2.855   1.437   5.407 -0.5360  0.0157  0.2775
 4995SOL    HW126444   2.936   1.449   5.358  1.1201 -0.2802  2.9613
 4995SOL    HW226445   2.794   1.406   5.340  1.5635  0.9894 -2.0721
 4996SOL     OW26446   3.000   2.015  12.972 -0.5760  0.3625 -0.3575
 4996SOL    HW126447   2.986   2.042  13.063  0.0526  1.4754 -0.5961
 4996SOL    HW226448   3.092   2.039  12.966 -0.3208 -0.5834 -0.3321
 4997SOL     OW26449   0.284   3.392   6.440  0.8163  0.0141 -0.0757
 4997SOL    HW126450   0.326   3.362   6.520  1.4352 -1.3146 -0.9021
 4997SOL    HW226451   0.225   3.317   6.432  0.1422  0.6335 -0.9163
 4998SOL     OW26452   3.298   3.466  16.667  0.1616  0.1664  0.2720
 4998SOL    HW126453   3.265   3.446  16.754 -2.5774  1.8423 -0.3824
 4998SOL    HW226454   3.225   3.436  16.612  1.9211 -0.8955 -1.4748
 4999SOL     OW26455   0.012   4.144   9.662  0.0106  0.3602 -0.4394
 4999SOL    HW126456   0.018   4.232   9.698  0.8187  1.4908 -3.3151
 4999SOL    HW226457   4.662   4.160   9.604  0.0018 -0.2560 -0.5961
 5000SOL     OW26458   0.149   3.139  10.522 -1.1056  0.1731 -0.2803
 5000SOL    HW126459   0.239   3.120  10.550 -0.6719  0.2888 -1.5922
 5000SOL    HW226460   0.128   3.215  10.576 -1.9935 -0.6470  0.5458
 5001SOL     OW26461   0.619   0.059   2.199  0.6208  0.0595  0.0296
 5001SOL    HW126462   0.707   0.025   2.215  1.2648  2.3201  1.2136
 5001SOL    HW226463   0.636   0.106   2.117 -0.7496  0.8087  0.1795
 5002SOL     OW26464   2.204   1.603  17.322 -0.1669  0.4668 -0.2490
 5002SOL    HW126465   2.235   1.546  17.392 -0.1610 -0.7923 -1.2682
 5002SOL    HW226466   2.179   1.678  17.376  0.8563  0.2560  0.5123
 5003SOL     OW26467   4.433   3.734  13.191 -0.2091  0.3440  0.0752
 5003SOL    HW126468   4.406   3.790  13.118 -1.0241 -1.0020 -0.6543
 5003SOL    HW226469   4.485   3.674  13.138 -0.1547 -0.2056  0.7431
 5004SOL     OW26470   1.138   1.355  10.949  0.3846 -0.6071  0.0970
 5004SOL    HW126471   1.051   1.326  10.978 -0.5371  1.2456 -0.8267
 5004SOL    HW226472   1.104   1.394  10.869  0.9302 -0.9455 -0.2998
 5005SOL     OW26473   3.334   3.827   5.166  0.5838 -0.7004  0.3820
 5005SOL    HW126474   3.307   3.802   5.078  0.3240 -3.5252  1.2658
 5005SOL    HW226475   3.378   3.746   5.191  0.2743 -1.0534 -0.2314
 5006SOL     OW26476   4.617   0.008  17.120  0.0481 -0.0591  0.7092
 5006SOL    HW126477   4.658   4.720  17.035 -0.7387  2.1472  0.0164
 5006SOL    HW226478   4.525   4.713  17.100  0.3157 -1.1888  0.5320
 5007SOL     OW26479   3.387   1.575   1.701  0.0482  0.1016 -0.2849
 5007SOL    HW126480   3.401   1.560   1.608  1.8402  3.5425 -0.5917
 5007SOL    HW226481   3.312   1.518   1.716 -0.6521  0.1724 -3.5380
 5008SOL     OW26482   1.818   4.166   1.263 -0.7021  0.0919 -0.2146
 5008SOL    HW126483   1.806   4.075   1.290  0.4068 -0.2812 -0.9860
 5008SOL    HW226484   1.750   4.179   1.196 -1.4090 -0.7597  0.3285
 5009SOL     OW26485   0.182   2.428   5.670  0.4050  0.5451 -0.3810
 5009SOL    HW126486   0.135   2.437   5.587 -1.2963 -2.9254  0.2292
 5009SOL    HW226487   0.175   2.517   5.707 -0.1817  0.0483  0.7031
 5010SOL     OW26488   0.939   1.584  15.717 -0.2834  0.0404 -0.6018
 5010SOL    HW126489   0.944   1.679  15.728  0.4063 -0.1812  1.0816
 5010SOL    HW226490   0.987   1.545  15.790 -0.8865 -0.8194 -0.6778
 5011SOL     OW26491   3.518   1.019   6.380 -0.3081 -0.2580  0.5336
 5011SOL    HW126492   3.558   1.092   6.426 -1.3643 -0.3325  1.5618
 5011SOL    HW226493   3.497   0.957   6.450 -2.2220  1.3994  1.4225
 5012SOL     OW26494   0.339   2.276   0.797  0.0590 -0.3247 -0.2614
 5012SOL    HW126495   0.370   2.186   0.800 -0.5943 -0.4874  1.6604
 5012SOL    HW226496   0.379   2.305   0.879  2.8585 -1.6068 -1.1991
 5013SOL     OW26497   3.824   1.627   3.127  0.0658  0.4643 -0.2826
 5013SOL    HW126498   3.777   1.603   3.207  0.4615  0.9557  0.1008
 5013SOL    HW226499   3.749   1.625   3.068  0.2254 -3.4186 -0.3372
 5014SOL     OW26500   0.198   2.117   3.576 -0.0555 -0.2682 -0.0309
 5014SOL    HW126501   0.273   2.176   3.571  0.7796 -1.3676 -0.3789
 5014SOL    HW226502   0.145   2.174   3.632  1.7057  0.8407  0.5055
 5015SOL     OW26503   4.711   4.387   6.912  0.0133 -0.4036  0.6592
 5015SOL    HW126504   4.680   4.334   6.985 -1.7264  1.7874  1.5176
 5015SOL    HW226505   0.027   4.465   6.950  0.7028  0.1043 -1.1179
 5016SOL     OW26506   2.400   4.380   5.352  0.4941  0.4389 -0.1624
 5016SOL    HW126507   2.394   4.437   5.276 -2.4791 -0.3214 -0.4956
 5016SOL    HW226508   2.313   4.390   5.391  0.8308  0.0727  0.6994
 5017SOL     OW26509   2.613   1.963  16.611  0.2658  0.5214  0.1492
 5017SOL    HW126510   2.604   1.930  16.701  2.2754 -2.0498 -0.6019
 5017SOL    HW226511   2.607   2.058  16.618 -2.0110  0.4052 -0.4526
 5018SOL     OW26512   2.337   1.414   7.152 -0.4119 -0.3668  0.4591
 5018SOL    HW126513   2.388   1.483   7.195 -3.0861  1.1405  1.1653
 5018SOL    HW226514   2.251   1.450   7.170 -0.3381 -0.3914  0.8508
 5019SOL     OW26515   2.312   1.937   1.951 -0.2359 -0.1846 -0.1915
 5019SOL    HW126516   2.310   1.927   2.046 -0.1985 -0.6295 -0.2387
 5019SOL    HW226517   2.267   2.020   1.935  1.9038  0.9481 -0.3869
 5020SOL     OW26518   0.154   1.764   5.587  0.4063  0.5099  0.5242
 5020SOL    HW126519   0.232   1.715   5.610  0.4625  0.5975  0.5204
 5020SOL    HW226520   0.195   1.846   5.559 -3.5387  2.5633  0.6235
 5021SOL     OW26521   1.942   0.463   8.947  0.2936  0.0504 -0.4563
 5021SOL    HW126522   1.903   0.381   8.916 -0.9367  0.6329 -0.4330
 5021SOL    HW226523   1.920   0.461   9.040  2.6918 -0.4142  0.1178
 5022SOL     OW26524   0.965   2.114   8.657 -0.3619 -0.0307  0.4878
 5022SOL    HW126525   0.901   2.043   8.647 -0.9373 -0.0032  3.9761
 5022SOL    HW226526   0.920   2.189   8.617  0.4930 -0.3749 -1.1121
 5023SOL     OW26527   4.425   2.158   8.258  0.0472 -0.3123  0.1160
 5023SOL    HW126528   4.462   2.222   8.320 -0.2036 -0.8897  0.8674
 5023SOL    HW226529   4.497   2.149   8.196 -1.1650  1.7231 -1.5565
 5024SOL     OW26530   3.750   0.702   9.831  0.3193 -0.1695 -0.0523
 5024SOL    HW126531   3.760   0.622   9.779 -1.5147  0.3389 -1.2068
 5024SOL    HW226532   3.709   0.762   9.769  0.2479 -0.6997 -0.5238
 5025SOL     OW26533   4.447   2.018   6.824  0.2522 -0.0281  0.1325
 5025SOL    HW126534   4.374   2.031   6.884 -0.3950  0.0952 -0.6686
 5025SOL    HW226535   4.451   2.109   6.794  0.9811 -0.4168 -0.9388
 5026SOL     OW26536   1.917   1.510   2.843  0.0476  0.2963 -0.0546
 5026SOL    HW126537   1.864   1.541   2.915  1.4056  3.5238 -0.4530
 5026SOL    HW226538   1.998   1.511   2.894 -0.8093  1.1274  1.2726
 5027SOL     OW26539   4.113   1.945  16.702 -0.2400  0.3417  0.5280
 5027SOL    HW126540   4.077   2.019  16.750 -0.9360  0.4900 -0.2307
 5027SOL    HW226541   4.096   1.869  16.758  1.0930 -0.1917  0.2234
 5028SOL     OW26542   3.313   2.599   7.408 -0.2254  0.3061  0.3122
 5028SOL    HW126543   3.395   2.567   7.445  0.3071  0.5569 -0.6460
 5028SOL    HW226544   3.311   2.694   7.424 -2.4440  0.4888 -1.1598
 5029SOL     OW26545   1.727   0.064  13.770  0.4113 -0.1731  0.7054
 5029SOL    HW126546   1.748   0.142  13.718 -1.7988  0.8473  1.3547
 5029SOL    HW226547   1.812   0.060  13.814  0.8431 -1.6033 -0.2477
 5030SOL     OW26548   2.965   0.717   9.887  0.2664 -0.0884 -0.0840
 5030SOL    HW126549   2.947   0.767   9.967  0.1760 -0.3731  0.0737
 5030SOL    HW226550   3.060   0.723   9.879  0.2658  2.4093  1.6136
 5031SOL     OW26551   1.208   1.782   3.641  0.1874  0.4195 -0.2615
 5031SOL    HW126552   1.270   1.714   3.618  2.4201  1.9359  1.3136
 5031SOL    HW226553   1.156   1.782   3.560  1.0414 -2.5324 -0.8175
 5032SOL     OW26554   2.724   0.846   9.410  0.2735  0.1216 -0.7508
 5032SOL    HW126555   2.819   0.855   9.401  0.1265 -0.3183 -2.6956
 5032SOL    HW226556   2.693   0.897   9.336  0.0883 -1.2207 -1.5989
 5033SOL     OW26557   1.037   2.776  10.388 -0.0567 -0.4115  0.2697
 5033SOL    HW126558   1.070   2.687  10.401 -0.0672 -0.4469  0.0554
 5033SOL    HW226559   0.951   2.751  10.353 -0.6353  1.8861  0.0521
 5034SOL     OW26560   3.453   3.349   2.619  0.2238 -0.0772 -0.1630
 5034SOL    HW126561   3.453   3.255   2.603 -0.7929 -0.0070 -0.6016
 5034SOL    HW226562   3.544   3.378   2.616  0.8603 -2.0367  0.4783
 5035SOL     OW26563   2.162   3.892  11.122 -0.6065  0.1228 -0.1885
 5035SOL    HW126564   2.204   3.813  11.156  1.0339  0.6557 -1.0057
 5035SOL    HW226565   2.223   3.958  11.156 -0.1650 -0.1584 -0.4402
 5036SOL     OW26566   1.981   0.798   6.404  0.0680 -0.4998  0.2199
 5036SOL    HW126567   1.949   0.794   6.314 -1.0747  0.5868  0.5903
 5036SOL    HW226568   2.052   0.733   6.409  0.7971  0.2328 -0.5372
 5037SOL     OW26569   2.468   3.658   7.712  0.5544  0.1126  1.0344
 5037SOL    HW126570   2.389   3.607   7.729  0.4541 -0.8685 -2.1670
 5037SOL    HW226571   2.424   3.742   7.714 -0.8410 -0.5794 -0.0266
 5038SOL     OW26572   4.085   1.973   0.921 -0.1561  0.8715 -0.2046
 5038SOL    HW126573   4.159   2.034   0.922 -0.2037  0.9281 -0.1798
 5038SOL    HW226574   4.096   1.904   0.856 -0.8198 -1.0427  1.7142
 5039SOL     OW26575   0.297   2.158   8.219  0.2389 -0.5532 -0.1996
 5039SOL    HW126576   0.323   2.238   8.264  1.4781 -0.2846 -1.4054
 5039SOL    HW226577   0.217   2.146   8.270 -0.1512  1.4130 -0.3777
 5040SOL     OW26578   0.923   2.716   8.382 -0.3097  0.2411 -0.6662
 5040SOL    HW126579   0.933   2.654   8.454 -1.0010  0.2922 -0.5255
 5040SOL    HW226580   1.003   2.702   8.332 -0.1714 -4.7170  0.9808
 5041SOL     OW26581   0.460   3.375  13.565  0.0429 -0.2315 -0.0027
 5041SOL    HW126582   0.383   3.317  13.567 -1.7301  2.2262  2.9383
 5041SOL    HW226583   0.417   3.458  13.546  0.5801  0.0777  0.1282
 5042SOL     OW26584   3.603   3.737  14.412  0.9384  0.2042 -0.6057
 5042SOL    HW126585   3.659   3.659  14.417 -0.4524 -0.6793  1.4627
 5042SOL    HW226586   3.532   3.699  14.359  2.4935 -1.8926 -1.1972
 5043SOL     OW26587   2.265   2.573   4.347 -0.6051 -0.2657  0.4119
 5043SOL    HW126588   2.247   2.603   4.436 -2.7002 -1.4003  0.3546
 5043SOL    HW226589   2.253   2.478   4.352 -2.5190 -0.1458 -2.0566
 5044SOL     OW26590   2.671   0.914   7.340 -0.4020 -0.0445  0.2013
 5044SOL    HW126591   2.763   0.900   7.321 -0.8813 -2.3012 -0.4480
 5044SOL    HW226592   2.683   0.941   7.432 -0.0429  4.6110 -1.2197
 5045SOL     OW26593   1.224   3.929   7.935  0.1003  0.0319  0.0072
 5045SOL    HW126594   1.194   3.906   7.847  1.1028  1.2749 -0.6783
 5045SOL    HW226595   1.191   3.858   7.989 -1.1896  1.1246  0.6743
 5046SOL     OW26596   4.345   3.101  11.488 -0.1849 -0.1931 -0.4546
 5046SOL    HW126597   4.387   3.030  11.439  0.3672 -0.1463 -0.0505
 5046SOL    HW226598   4.259   3.059  11.491 -1.1975  2.0307  1.3838
 5047SOL     OW26599   4.168   0.864   4.003 -0.4584 -0.3828 -0.0473
 5047SOL    HW126600   4.150   0.772   3.982  1.2871 -1.0778  1.4875
 5047SOL    HW226601   4.109   0.876   4.077  0.2763  1.6268  0.2023
 5048SOL     OW26602   3.442   2.256   6.640 -0.2335 -0.1255  0.1151
 5048SOL    HW126603   3.347   2.252   6.633 -0.4386  1.6963  1.9813
 5048SOL    HW226604   3.460   2.349   6.650 -0.0522  0.0230 -1.5164
 5049SOL     OW26605   0.142   0.783   9.199  0.4097  0.2560  0.6408
 5049SOL    HW126606   0.193   0.762   9.121  0.1906 -0.9790  0.8300
 5049SOL    HW226607   0.085   0.858   9.185 -1.1159 -0.6530  1.9663
 5050SOL     OW26608   1.462   0.400   4.571  0.4894 -0.3726 -0.9638
 5050SOL    HW126609   1.489   0.362   4.487  2.8035 -0.7772 -0.0189
 5050SOL    HW226610   1.508   0.346   4.636  0.3352 -2.5880 -2.6643
 5051SOL     OW26611   4.449   2.390   8.400  0.9917  0.1463 -0.3247
 5051SOL    HW126612   4.357   2.381   8.425  1.0107  1.0509  0.0555
 5051SOL    HW226613   4.441   2.477   8.361  0.5374  1.0890  1.8507
 5052SOL     OW26614   0.435   0.463   3.636 -0.1189 -0.3766 -0.0830
 5052SOL    HW126615   0.367   0.510   3.684 -0.1773 -0.2043 -0.3359
 5052SOL    HW226616   0.385   0.389   3.601  0.8123  0.1816 -2.5785
 5053SOL     OW26617   2.777   1.385   8.033 -0.3702  0.4721 -0.3702
 5053SOL    HW126618   2.724   1.383   8.112 -0.8576  0.2339 -0.7020
 5053SOL    HW226619   2.773   1.291   8.016  0.2018  0.1842  1.1162
 5054SOL     OW26620   0.996   2.864   6.413 -0.2584  0.3709  0.2149
 5054SOL    HW126621   0.945   2.846   6.492  1.3805  0.6085  1.3161
 5054SOL    HW226622   1.059   2.932   6.436  0.8504 -1.2633  2.0390
 5055SOL     OW26623   3.070   2.041   0.009 -0.2580  0.2736  0.7134
 5055SOL    HW126624   3.143   2.082  17.662 -0.9442 -0.1953 -0.8072
 5055SOL    HW226625   3.116   2.006   0.085 -0.2107  0.1241  0.6157
 5056SOL     OW26626   2.106   2.803   0.617 -0.1781  0.0013  0.3797
 5056SOL    HW126627   2.018   2.775   0.640  0.4320 -2.3139 -0.1298
 5056SOL    HW226628   2.079   2.865   0.549  0.7197  1.4220  1.3056
 5057SOL     OW26629   3.747   0.038   1.062  0.1544  0.6130 -0.3528
 5057SOL    HW126630   3.660   0.073   1.047  0.7733  2.8696  1.2872
 5057SOL    HW226631   3.792   0.067   0.982 -0.3363 -0.5355 -1.0414
 5058SOL     OW26632   2.722   3.741   1.609 -0.4055  0.6658  0.2865
 5058SOL    HW126633   2.653   3.731   1.543 -0.5557  2.4177  0.1666
 5058SOL    HW226634   2.791   3.762   1.546  1.0526 -0.5472  1.4675
 5059SOL     OW26635   4.694   0.129  10.674  0.0290 -0.0555  0.6593
 5059SOL    HW126636   4.715   0.037  10.658 -0.4424  0.2555 -1.6543
 5059SOL    HW226637   4.670   0.157  10.586  0.7660 -0.1817  0.4198
 5060SOL     OW26638   2.456   2.555  13.873  0.4350 -0.0008 -0.0274
 5060SOL    HW126639   2.391   2.510  13.819 -0.9580 -0.3361  1.9136
 5060SOL    HW226640   2.443   2.492  13.944  1.2193 -0.6276 -0.4388
 5061SOL     OW26641   2.053   2.132  17.504 -0.5037  0.7145 -0.6821
 5061SOL    HW126642   2.024   2.061  17.561  0.4783  3.1426  2.8444
 5061SOL    HW226643   2.066   2.207  17.562  0.5859  1.9775 -2.5536
 5062SOL     OW26644   0.448   0.923  15.013 -0.8025  0.3873 -0.6203
 5062SOL    HW126645   0.515   0.905  14.947  0.1458  1.6585 -0.0117
 5062SOL    HW226646   0.505   0.980  15.065 -0.0670 -1.4654  0.6012
 5063SOL     OW26647   0.055   1.570  14.822  0.8683 -0.3012  0.3472
 5063SOL    HW126648   4.701   1.624  14.812  1.7904  1.0200  0.2836
 5063SOL    HW226649   0.047   1.500  14.757  0.5580  0.4433 -0.4180
 5064SOL     OW26650   1.702   3.248   2.955 -0.2334 -0.1406 -0.1577
 5064SOL    HW126651   1.705   3.303   2.876 -0.4846 -0.0677 -0.1175
 5064SOL    HW226652   1.718   3.317   3.019  2.0321 -2.9505  2.2617
 5065SOL     OW26653   3.179   3.500  16.947 -0.0752  0.1931  0.6706
 5065SOL    HW126654   3.240   3.569  16.974  3.2839 -2.0696 -1.0984
 5065SOL    HW226655   3.105   3.552  16.915 -0.5464  0.5343  2.3078
 5066SOL     OW26656   4.010   2.316   7.786  0.5230 -0.1145 -0.4696
 5066SOL    HW126657   4.041   2.237   7.830 -1.4704 -0.9949 -0.6591
 5066SOL    HW226658   4.043   2.299   7.698 -1.1642 -0.2475 -1.0809
 5067SOL     OW26659   4.477   2.955  15.134  0.3159 -0.3766  0.0171
 5067SOL    HW126660   4.499   3.035  15.086 -2.3350  1.3083  1.5751
 5067SOL    HW226661   4.427   2.989  15.209  1.2272  0.6834  0.1341
 5068SOL     OW26662   0.537   0.667   9.935 -0.1209  0.2839 -0.2091
 5068SOL    HW126663   0.497   0.716   9.863  0.8329 -0.4952 -1.2835
 5068SOL    HW226664   0.510   0.576   9.919  2.2259 -0.4461 -0.1549
 5069SOL     OW26665   3.364   4.195   3.901  0.2498 -0.7777  0.0786
 5069SOL    HW126666   3.403   4.255   3.838  0.0936 -0.1184  0.6045
 5069SOL    HW226667   3.433   4.157   3.955  0.1383  0.6898  1.2637
 5070SOL     OW26668   2.048   3.929   4.282 -0.1667  0.7738 -0.9038
 5070SOL    HW126669   1.958   3.960   4.294 -0.9000 -1.1252 -1.5194
 5070SOL    HW226670   2.050   3.849   4.335  1.1322 -0.2660 -2.5520
 5071SOL     OW26671   4.444   0.753   0.850 -0.1613 -0.3095  0.1411
 5071SOL    HW126672   4.491   0.836   0.845 -0.9930  0.0046 -2.4612
 5071SOL    HW226673   4.476   0.719   0.767 -2.0401  0.6023 -0.9532
 5072SOL     OW26674   1.361   2.438   2.490  0.1447  0.4478 -0.0931
 5072SOL    HW126675   1.335   2.347   2.502  0.8870  0.2183 -0.2764
 5072SOL    HW226676   1.426   2.430   2.560  0.2291 -0.0783 -0.2326
 5073SOL     OW26677   0.901   1.518   1.727  0.0004 -0.0667  0.3191
 5073SOL    HW126678   0.971   1.573   1.691 -2.6428  2.4327 -0.9420
 5073SOL    HW226679   0.895   1.560   1.813 -0.3416  0.4840  0.0266
 5074SOL     OW26680   1.311   0.032   4.328 -0.0123  0.1950 -0.1578
 5074SOL    HW126681   1.229   0.040   4.376  0.4122  0.3475  0.5544
 5074SOL    HW226682   1.315   0.120   4.289 -1.1616  0.1957 -0.2772
 5075SOL     OW26683   3.750   4.415   6.145  0.6191 -0.3589 -0.3355
 5075SOL    HW126684   3.844   4.433   6.150  0.1663  1.5826  1.2815
 5075SOL    HW226685   3.721   4.497   6.104  0.0190 -1.5108 -2.1903
 5076SOL     OW26686   4.662   1.782   5.062 -0.1531 -0.3777  0.1945
 5076SOL    HW126687   4.570   1.767   5.086 -0.5650  0.2395 -1.0331
 5076SOL    HW226688   4.707   1.765   5.145 -3.3999 -0.4666  1.9276
 5077SOL     OW26689   4.252   0.709   2.843  0.6533  0.0217 -0.1105
 5077SOL    HW126690   4.331   0.758   2.822  0.6100 -0.7516 -2.1303
 5077SOL    HW226691   4.282   0.661   2.920 -2.5922 -1.8100  0.0487
 5078SOL     OW26692   1.159   4.206   7.274  0.2509 -0.1303  0.4290
 5078SOL    HW126693   1.110   4.269   7.327 -0.3546 -1.2078  1.1492
 5078SOL    HW226694   1.090   4.161   7.226 -1.5745  3.7829 -0.6622
 5079SOL     OW26695   0.852   2.570   7.206  0.5417 -0.6030  0.2579
 5079SOL    HW126696   0.878   2.640   7.266 -2.4383  0.3464  0.4462
 5079SOL    HW226697   0.895   2.499   7.253  0.8472 -0.1955  0.5986
 5080SOL     OW26698   1.920   3.259  16.654  0.1307  0.1387 -0.2139
 5080SOL    HW126699   1.928   3.192  16.722 -1.4085 -2.2744 -2.3744
 5080SOL    HW226700   1.864   3.309  16.714  1.3752  0.1076  0.9665
 5081SOL     OW26701   4.662   0.260   6.357  0.6185 -0.8854  0.2022
 5081SOL    HW126702   4.671   0.166   6.342  0.6801 -0.9958  0.9103
 5081SOL    HW226703   4.630   0.257   6.447  1.8200 -1.0536  0.6218
 5082SOL     OW26704   2.868   3.151   7.509 -0.0503  0.1649 -0.0782
 5082SOL    HW126705   2.934   3.211   7.544 -1.0446 -0.0472  2.1999
 5082SOL    HW226706   2.795   3.213   7.514 -0.2103  0.0703 -1.3588
 5083SOL     OW26707   2.808   0.288   5.712 -0.2294 -0.4591  0.3504
 5083SOL    HW126708   2.823   0.371   5.758  2.3057  0.1369 -1.5259
 5083SOL    HW226709   2.725   0.301   5.665 -1.0413 -2.4629  1.2787
 5084SOL     OW26710   2.430   3.804   5.158  0.4172  0.2042  0.2717
 5084SOL    HW126711   2.372   3.769   5.226 -0.1874  0.4067 -0.1447
 5084SOL    HW226712   2.495   3.858   5.204  0.6580 -0.5642  0.8455
 5085SOL     OW26713   3.524   2.007   4.891  0.3654  0.3476 -0.3153
 5085SOL    HW126714   3.481   2.092   4.894 -1.0560 -0.4515  2.0358
 5085SOL    HW226715   3.486   1.958   4.964  0.6964  1.2117  0.4312
 5086SOL     OW26716   0.971   3.675   6.779 -0.0395 -0.4657  0.7181
 5086SOL    HW126717   0.877   3.665   6.787 -0.3758  2.1115  0.0588
 5086SOL    HW226718   1.000   3.614   6.847 -0.2006  1.8724  2.8775
 5087SOL     OW26719   0.658   2.332   2.086  0.5035 -0.7380 -0.1252
 5087SOL    HW126720   0.645   2.346   2.180 -1.0216  1.4662 -0.6579
 5087SOL    HW226721   0.728   2.395   2.068 -1.0646  1.1182  0.1810
 5088SOL     OW26722   3.857   1.348   3.805 -0.0116 -0.4074  0.2494
 5088SOL    HW126723   3.908   1.268   3.816  1.0290  0.3329  0.8746
 5088SOL    HW226724   3.771   1.327   3.841 -0.5384 -0.9764 -1.3629
 5089SOL     OW26725   2.719   0.899   4.570  0.1737  0.6808  0.0014
 5089SOL    HW126726   2.688   0.981   4.532  1.7334  0.4271 -1.7617
 5089SOL    HW226727   2.695   0.910   4.662  0.9275 -3.4117  0.7069
 5090SOL     OW26728   0.688   0.775  16.791  0.1750  0.9298 -0.5692
 5090SOL    HW126729   0.668   0.724  16.870  0.3587  0.2451 -0.9611
 5090SOL    HW226730   0.639   0.713  16.737  2.5534 -0.6587 -0.9032
 5091SOL     OW26731   1.845   0.126   5.829  0.3061 -0.0379  0.4469
 5091SOL    HW126732   1.760   0.088   5.806  1.2625 -2.0729  0.2466
 5091SOL    HW226733   1.887   0.140   5.745 -0.7944 -0.3715 -0.1544
 5092SOL     OW26734   3.565   2.097   7.231  0.2000 -0.2159 -0.3697
 5092SOL    HW126735   3.649   2.062   7.199  0.1423  0.4046 -1.1873
 5092SOL    HW226736   3.544   2.149   7.153 -0.8440  1.1376  0.8224
 5093SOL     OW26737   0.012   0.698   3.830  0.5368  0.2347 -0.1651
 5093SOL    HW126738   4.675   0.628   3.854  2.2172 -1.2305 -0.0840
 5093SOL    HW226739   4.713   0.772   3.886 -0.2981 -1.0317  1.1604
 5094SOL     OW26740   2.964   4.422  15.217  0.1596  0.3712  0.4531
 5094SOL    HW126741   3.040   4.453  15.266  0.3065 -2.0297  1.7210
 5094SOL    HW226742   2.986   4.480  15.144 -0.3785  0.5990  0.4693
 5095SOL     OW26743   0.250   2.681   1.944 -0.7206  0.1756 -0.0738
 5095SOL    HW126744   0.272   2.628   1.867  0.8065 -0.5711  0.8943
 5095SOL    HW226745   0.203   2.756   1.908 -1.9979 -0.8598 -0.6134
 5096SOL     OW26746   0.774   3.160   7.607 -0.1693  0.6056  0.5555
 5096SOL    HW126747   0.748   3.241   7.563 -0.2983  1.6739  2.5876
 5096SOL    HW226748   0.794   3.109   7.528  0.2916 -0.0788  1.1101
 5097SOL     OW26749   2.046   0.962  11.047 -0.0829 -0.0786  0.2522
 5097SOL    HW126750   2.079   1.003  11.126  1.8039 -0.7187 -0.2149
 5097SOL    HW226751   2.110   0.892  11.041  0.2919  0.2904 -0.0607
 5098SOL     OW26752   3.989   2.279   5.867 -0.3732  0.2518  0.0902
 5098SOL    HW126753   4.074   2.246   5.896 -0.4969  0.2826  0.4830
 5098SOL    HW226754   3.937   2.200   5.881  0.6840 -0.7754 -1.6970
 5099SOL     OW26755   1.607   1.302  13.789 -0.4811  0.3632 -0.3031
 5099SOL    HW126756   1.695   1.285  13.824 -0.6955  0.0639  0.0783
 5099SOL    HW226757   1.585   1.351  13.867 -1.2310 -0.2999 -0.1049
 5100SOL     OW26758   1.757   3.096  16.436 -1.0265  0.3310 -0.4583
 5100SOL    HW126759   1.817   3.056  16.373  0.3503 -0.3084  1.2484
 5100SOL    HW226760   1.821   3.135  16.497 -0.7605  0.1247 -0.6060
 5101SOL     OW26761   3.811   1.026   8.060 -0.7890  0.7634  0.6823
 5101SOL    HW126762   3.847   0.946   8.097  0.8621  0.9089 -0.5974
 5101SOL    HW226763   3.850   1.021   7.972 -3.3437 -1.8698 -0.3089
 5102SOL     OW26764   1.412   4.644   0.695  0.2769 -0.3928 -0.4188
 5102SOL    HW126765   1.444   4.717   0.750  2.0208 -1.7682  0.3776
 5102SOL    HW226766   1.329   4.673   0.655  0.5231  1.3116  0.2864
 5103SOL     OW26767   2.634   2.264   6.002 -0.3966  0.1571 -0.0440
 5103SOL    HW126768   2.691   2.228   5.935  0.5523  0.5087  0.5572
 5103SOL    HW226769   2.557   2.221   5.965 -1.0351  1.3745 -0.1355
 5104SOL     OW26770   3.911   3.377   1.286  0.8157 -0.3575  0.1057
 5104SOL    HW126771   3.823   3.387   1.249  0.0929 -0.2752  1.8306
 5104SOL    HW226772   3.889   3.329   1.366  1.1310 -2.4532 -1.0761
 5105SOL     OW26773   4.723   1.300   9.592  0.0932 -0.0294 -0.5522
 5105SOL    HW126774   4.655   1.236   9.569  0.1089 -0.4947  0.6806
 5105SOL    HW226775   0.001   1.305   9.687 -1.4903 -0.1443 -0.5042
 5106SOL     OW26776   3.884   2.470  13.214 -0.1530 -0.1940 -0.2682
 5106SOL    HW126777   3.881   2.525  13.136 -1.3545 -3.1556 -2.3326
 5106SOL    HW226778   3.941   2.396  13.193 -1.9225 -0.9245 -2.4192
 5107SOL     OW26779   4.152   3.221   3.084 -0.3017  0.4069  0.1625
 5107SOL    HW126780   4.238   3.185   3.062 -2.5245 -1.8691 -4.6588
 5107SOL    HW226781   4.159   3.285   3.155  0.1843  2.2221 -1.5367
 5108SOL     OW26782   1.733   1.542   7.750  0.2262  0.1392 -0.3614
 5108SOL    HW126783   1.735   1.455   7.709  0.2870 -0.7503  1.5242
 5108SOL    HW226784   1.658   1.579   7.703 -0.0158 -1.2818 -1.1061
 5109SOL     OW26785   1.535   2.215  15.615 -0.0313 -0.2159  0.1993
 5109SOL    HW126786   1.487   2.231  15.533 -1.0082  0.1192  0.8335
 5109SOL    HW226787   1.539   2.305  15.649 -2.6085  0.0234 -0.0870
 5110SOL     OW26788   1.638   1.045   3.430  0.0498 -0.3225  0.2692
 5110SOL    HW126789   1.669   0.954   3.432 -1.1604 -0.7629 -1.2017
 5110SOL    HW226790   1.545   1.025   3.422 -0.2682  2.2349 -2.5812
 5111SOL     OW26791   2.708   2.008   5.009  0.1423  0.5616  0.0355
 5111SOL    HW126792   2.779   1.967   4.958  0.8521 -0.6724  2.0176
 5111SOL    HW226793   2.758   2.051   5.079  0.0840  0.3876  0.1836
 5112SOL     OW26794   1.998   4.026   5.221 -0.0238  0.3955 -0.0515
 5112SOL    HW126795   2.041   4.012   5.305  1.3533 -0.1313 -0.8456
 5112SOL    HW226796   2.012   4.121   5.221 -1.9266  0.6816  1.9093
 5113SOL     OW26797   2.765   1.750  10.737  0.3221  0.2830 -0.2576
 5113SOL    HW126798   2.740   1.658  10.751 -0.2626  0.2960 -1.2295
 5113SOL    HW226799   2.718   1.775  10.816  0.0151  0.3143 -0.4508
 5114SOL     OW26800   2.577   0.154  11.377 -0.6163 -0.1341  0.0286
 5114SOL    HW126801   2.526   0.116  11.306  1.0810 -0.3691 -1.0583
 5114SOL    HW226802   2.552   0.243  11.402  1.4929  0.6065 -0.4742
 5115SOL     OW26803   2.430   2.277   7.774  0.1731 -0.0970 -0.6057
 5115SOL    HW126804   2.392   2.244   7.693 -2.2327  3.6828 -1.0197
 5115SOL    HW226805   2.396   2.366   7.773  1.4212  0.3703 -0.9546
 5116SOL     OW26806   3.318   3.132  16.609 -0.9381  0.4420 -0.5203
 5116SOL    HW126807   3.375   3.062  16.578 -0.4751  0.0891  1.1013
 5116SOL    HW226808   3.263   3.147  16.532 -0.8276  0.0211 -0.6840
 5117SOL     OW26809   4.436   1.898  10.977  0.2178 -0.0510 -0.6345
 5117SOL    HW126810   4.442   1.804  10.958  0.6666 -0.5025  1.6889
 5117SOL    HW226811   4.504   1.943  10.928  2.8878 -2.1265  1.1444
 5118SOL     OW26812   4.526   1.512  10.436  0.0443 -0.3480  0.0008
 5118SOL    HW126813   4.502   1.458  10.360  2.0864 -3.0647  1.2986
 5118SOL    HW226814   4.440   1.551  10.454  0.8880  1.8422 -0.7568
 5119SOL     OW26815   3.760   0.638   9.201  0.0800  0.0534  0.1430
 5119SOL    HW126816   3.842   0.594   9.177  0.7140  1.5479 -0.4311
 5119SOL    HW226817   3.711   0.571   9.248  0.6125  0.4237  1.2381
 5120SOL     OW26818   1.266   3.590  16.186  0.0567 -0.0721 -0.3428
 5120SOL    HW126819   1.294   3.666  16.238  0.8095  0.2659 -1.2379
 5120SOL    HW226820   1.265   3.519  16.249 -1.7404  0.0281 -0.2683
 5121SOL     OW26821   0.142   4.191   8.348  0.0154  0.7570 -0.2320
 5121SOL    HW126822   0.236   4.203   8.331 -0.2964  2.7851 -0.5558
 5121SOL    HW226823   0.095   4.205   8.266 -0.5418 -0.4686 -0.1151
 5122SOL     OW26824   0.040   3.933   9.956  0.2811 -0.1607  0.1635
 5122SOL    HW126825   0.016   3.843   9.933 -0.9814 -0.0164  0.9426
 5122SOL    HW226826   4.689   3.943  10.015  1.1771  0.6721  1.1499
 5123SOL     OW26827   0.876   4.143   6.926 -0.2916 -0.4587 -0.4640
 5123SOL    HW126828   0.837   4.226   6.897  1.7966 -0.1535 -2.3942
 5123SOL    HW226829   0.918   4.117   6.844 -1.1355  0.2505 -1.1290
 5124SOL     OW26830   3.108   1.330   9.276 -0.3956  0.3552  0.5961
 5124SOL    HW126831   3.014   1.316   9.259 -0.2703  0.2782 -0.0519
 5124SOL    HW226832   3.120   1.250   9.328 -0.1462 -0.6349 -0.9783
 5125SOL     OW26833   1.989   3.823   1.693 -0.3984 -0.2917 -0.3090
 5125SOL    HW126834   1.895   3.803   1.691 -0.2296 -1.1573  0.0871
 5125SOL    HW226835   2.018   3.732   1.687 -0.0656 -0.2093  0.1172
 5126SOL     OW26836   3.701   3.870   7.071 -0.1185 -0.2768 -0.9755
 5126SOL    HW126837   3.790   3.866   7.106  0.0755  0.5777 -1.3698
 5126SOL    HW226838   3.651   3.837   7.144  0.3649  3.4823  1.0770
 5127SOL     OW26839   2.161   0.669   5.500  0.8718  0.4953  0.2534
 5127SOL    HW126840   2.130   0.591   5.544  1.8646 -0.7978 -1.3467
 5127SOL    HW226841   2.086   0.680   5.441 -1.1375  0.1814  2.7833
 5128SOL     OW26842   2.644   1.715   8.191 -1.1093 -0.0224  0.6792
 5128SOL    HW126843   2.635   1.678   8.103 -0.4028  0.9143  0.2061
 5128SOL    HW226844   2.721   1.668   8.224 -0.2641  0.4729 -0.5437
 5129SOL     OW26845   0.584   1.298  17.257  0.2555  0.5507  0.2541
 5129SOL    HW126846   0.492   1.325  17.259 -0.0500 -0.4756  0.0870
 5129SOL    HW226847   0.628   1.375  17.221  1.9406 -0.6682 -0.2854
 5130SOL     OW26848   3.833   2.065   5.879  0.1470  0.0012  0.6602
 5130SOL    HW126849   3.797   2.086   5.793  1.4781  0.0902  0.1249
 5130SOL    HW226850   3.777   1.996   5.915  0.1116  0.4362  1.4335
 5131SOL     OW26851   0.561   0.801   0.012 -0.5289  0.8769 -0.0167
 5131SOL    HW126852   0.566   0.787   0.106  1.2950  0.9265 -0.1126
 5131SOL    HW226853   0.468   0.791  17.690 -0.5711  0.0888  0.5575
 5132SOL     OW26854   1.457   2.894   3.429  0.0434 -0.5015 -0.2636
 5132SOL    HW126855   1.370   2.871   3.461 -0.0808  1.2257  0.6424
 5132SOL    HW226856   1.448   2.878   3.335  1.5261 -2.0716 -0.1395
 5133SOL     OW26857   1.951   0.068  10.953 -0.0332  0.2912  0.1699
 5133SOL    HW126858   1.892   0.140  10.930  0.1360  0.4255  0.1509
 5133SOL    HW226859   1.897   4.721  10.920 -0.4358  0.1194  1.1919
 5134SOL     OW26860   1.779   4.178   7.818  0.3971 -0.1018  0.2794
 5134SOL    HW126861   1.731   4.121   7.758 -1.1199  0.1519  1.2626
 5134SOL    HW226862   1.869   4.150   7.799  0.0868 -1.6145  1.0474
 5135SOL     OW26863   3.682   4.331   5.206  0.0238 -0.4334  0.3544
 5135SOL    HW126864   3.722   4.342   5.120 -0.4291  1.1698  0.3518
 5135SOL    HW226865   3.596   4.295   5.185  0.0735 -1.5102  2.0052
 5136SOL     OW26866   4.686   2.557   8.693 -1.1865  0.1260 -0.0446
 5136SOL    HW126867   0.010   2.545   8.611  1.9036 -0.6905  1.9001
 5136SOL    HW226868   4.687   2.653   8.696 -0.2597  0.0886  0.8561
 5137SOL     OW26869   3.349   3.813   8.712  0.1740  0.2493 -0.2252
 5137SOL    HW126870   3.266   3.814   8.664  0.4610  0.9367 -0.7064
 5137SOL    HW226871   3.414   3.798   8.643  1.2424  0.5561  0.7252
 5138SOL     OW26872   3.573   0.505  13.914  0.2653  0.0966  0.0895
 5138SOL    HW126873   3.609   0.486  14.000 -1.6228  0.3009  0.9187
 5138SOL    HW226874   3.480   0.524  13.930  0.2256  0.1590 -0.2055
 5139SOL     OW26875   2.048   1.629   0.486  0.4139  0.0824 -0.1849
 5139SOL    HW126876   1.969   1.618   0.539 -0.3749 -1.3903 -1.6537
 5139SOL    HW226877   2.094   1.683   0.550  0.1562  0.5803 -0.4246
 5140SOL     OW26878   4.235   3.765   4.213 -0.3557  0.2541 -0.3341
 5140SOL    HW126879   4.270   3.848   4.248 -2.2115  0.6294  0.6153
 5140SOL    HW226880   4.144   3.772   4.239 -0.3419  0.5605 -0.3631
 5141SOL     OW26881   2.728   3.604   6.324 -0.2865  0.3822 -0.1184
 5141SOL    HW126882   2.738   3.596   6.230 -0.5236 -1.1609 -0.0144
 5141SOL    HW226883   2.694   3.693   6.326  0.7442  0.7735 -0.2039
 5142SOL     OW26884   3.337   2.459   7.022 -0.4167 -0.1185 -0.4552
 5142SOL    HW126885   3.259   2.476   7.076 -0.7260 -0.1819 -0.8821
 5142SOL    HW226886   3.319   2.510   6.944  0.8078  0.5100 -0.3278
 5143SOL     OW26887   3.383   3.084   2.048 -0.2312  0.0033 -0.1283
 5143SOL    HW126888   3.440   3.018   2.087  0.1264 -0.0376 -0.7045
 5143SOL    HW226889   3.305   3.032   2.028 -0.8561  0.2627  1.6953
 5144SOL     OW26890   4.580   4.471   3.638  0.5769  0.2664  0.6544
 5144SOL    HW126891   4.565   4.400   3.701 -0.1240  0.5268  0.7892
 5144SOL    HW226892   4.490   4.492   3.613  0.7707  0.4391  0.1039
 5145SOL     OW26893   0.587   1.521  10.699  0.2071  0.3343 -0.5866
 5145SOL    HW126894   0.633   1.561  10.626 -0.7623  0.1586 -1.2909
 5145SOL    HW226895   0.661   1.532  10.759 -0.4866 -0.2077  0.3618
 5146SOL     OW26896   0.371   3.864   9.076  0.3651 -0.6502 -0.3259
 5146SOL    HW126897   0.288   3.841   9.033 -0.1261 -0.5923  0.5884
 5146SOL    HW226898   0.340   3.924   9.144  1.3612  0.1434 -0.5768
 5147SOL     OW26899   1.957   2.591   7.898 -0.1029  0.2893  0.6736
 5147SOL    HW126900   1.872   2.620   7.931 -0.0469  0.1764  0.9174
 5147SOL    HW226901   1.966   2.510   7.949  3.8187  0.3537  0.1086
 5148SOL     OW26902   2.685   2.745   6.730 -0.0205 -0.7907 -0.2490
 5148SOL    HW126903   2.732   2.785   6.803 -1.4212  1.9675 -0.8610
 5148SOL    HW226904   2.599   2.786   6.728  0.6233  0.6163  0.8134
 5149SOL     OW26905   0.872   3.755   3.087 -0.3790  0.0977  0.7578
 5149SOL    HW126906   0.858   3.802   3.005 -2.6885  0.1962  1.1948
 5149SOL    HW226907   0.966   3.756   3.106  0.1703  0.9533 -2.0189
 5150SOL     OW26908   1.365   1.498  15.362 -0.0388 -0.0800  0.1969
 5150SOL    HW126909   1.425   1.489  15.436 -0.5991  2.1981  0.9259
 5150SOL    HW226910   1.283   1.525  15.402  1.3529  0.3826  2.7489
 5151SOL     OW26911   0.194   0.709   2.199 -0.7897 -0.0333  0.0201
 5151SOL    HW126912   0.220   0.721   2.291  0.8432 -1.2401 -0.2734
 5151SOL    HW226913   0.204   0.798   2.166 -0.9194 -1.1259 -2.9257
 5152SOL     OW26914   0.818   0.545   1.261 -0.0721  0.1322  0.0070
 5152SOL    HW126915   0.853   0.486   1.195 -0.9549  0.0530 -0.3836
 5152SOL    HW226916   0.775   0.606   1.200  2.1765  2.0860  0.3533
 5153SOL     OW26917   3.176   2.676   9.133 -0.0890  0.2198  0.1629
 5153SOL    HW126918   3.218   2.760   9.153 -0.5546  0.3846  0.4585
 5153SOL    HW226919   3.199   2.627   9.212 -0.5220  0.1465  0.2407
 5154SOL     OW26920   4.571   0.939   2.247 -0.3847  0.7377  0.1985
 5154SOL    HW126921   4.578   0.990   2.166 -1.6186  1.0778  0.3022
 5154SOL    HW226922   4.625   0.865   2.220 -2.2412  0.0497 -1.6100
 5155SOL     OW26923   4.016   4.299   6.330 -0.1946  0.2675 -0.1776
 5155SOL    HW126924   4.068   4.271   6.255  0.7800  0.5621  0.3868
 5155SOL    HW226925   4.065   4.378   6.352  2.0820 -1.5013  1.0809
 5156SOL     OW26926   0.842   1.549   8.071  0.3667  0.2061  0.8743
 5156SOL    HW126927   0.897   1.581   8.143 -0.3190 -1.7307  2.2452
 5156SOL    HW226928   0.770   1.612   8.076  1.4882  1.7552 -2.2841
 5157SOL     OW26929   2.772   1.554   5.036  0.1701 -0.2029 -0.0426
 5157SOL    HW126930   2.764   1.627   5.097  0.4070  1.9073 -2.5185
 5157SOL    HW226931   2.765   1.480   5.097  0.8920 -0.1257  0.1315
 5158SOL     OW26932   0.733   3.166   0.170 -0.1475  0.7404 -0.2527
 5158SOL    HW126933   0.787   3.160   0.092  0.4080  0.4916  0.1546
 5158SOL    HW226934   0.794   3.129   0.234  0.2304 -0.0409 -1.0649
 5159SOL     OW26935   0.818   4.435   0.512 -0.2292 -0.2447 -0.5373
 5159SOL    HW126936   0.736   4.441   0.561  1.9180  0.6372  2.8658
 5159SOL    HW226937   0.788   4.404   0.426  3.1516  0.9110 -2.1261
 5160SOL     OW26938   1.299   2.151   5.802  0.1369  0.6811  0.5830
 5160SOL    HW126939   1.374   2.094   5.821  0.8098  0.4554 -2.7526
 5160SOL    HW226940   1.301   2.147   5.706  0.8304  2.4584  0.5178
 5161SOL     OW26941   3.017   1.151   7.118 -0.0814  0.4396  0.3150
 5161SOL    HW126942   3.093   1.097   7.095  0.1480  0.9698 -0.1903
 5161SOL    HW226943   3.062   1.224   7.161  0.2769  0.9077 -0.8581
 5162SOL     OW26944   2.581   1.451  16.493  0.6650  0.2845 -0.3460
 5162SOL    HW126945   2.489   1.476  16.492  0.6014  0.1401  2.1930
 5162SOL    HW226946   2.634   1.531  16.501  0.3305  0.5115 -0.4077
 5163SOL     OW26947   1.212   1.734  14.944  0.2253 -0.5930  0.9079
 5163SOL    HW126948   1.172   1.671  15.003 -2.4216  0.3229  0.0743
 5163SOL    HW226949   1.305   1.722  14.964  0.8662  3.3615  0.3767
 5164SOL     OW26950   1.973   0.244   6.067  0.3675 -0.3582 -0.1139
 5164SOL    HW126951   1.925   0.184   6.011  0.2309  0.4585 -0.8779
 5164SOL    HW226952   2.047   0.259   6.009  1.9184 -2.2299  1.4087
 5165SOL     OW26953   4.548   1.257   6.477 -0.1352  0.2510 -0.4326
 5165SOL    HW126954   4.606   1.311   6.532 -0.5829  0.5122 -0.2219
 5165SOL    HW226955   4.580   1.273   6.388 -1.3315  0.3981 -0.8261
 5166SOL     OW26956   1.803   1.725   3.298 -0.3446  0.2385 -0.4811
 5166SOL    HW126957   1.807   1.633   3.326 -0.6523  0.1444 -0.7548
 5166SOL    HW226958   1.732   1.760   3.352  1.4533 -0.1818  2.1733
 5167SOL     OW26959   3.502   1.266   0.963  0.0918  0.2583 -0.0163
 5167SOL    HW126960   3.558   1.311   0.899  0.2006  0.3164  0.1191
 5167SOL    HW226961   3.491   1.337   1.025  0.7439  1.0034 -0.7444
 5168SOL     OW26962   0.102   3.808   5.250 -0.4385  0.0468  0.5169
 5168SOL    HW126963   0.165   3.758   5.198 -0.3105  1.1642 -0.4249
 5168SOL    HW226964   0.127   3.898   5.228 -0.5137 -0.0742 -0.0827
 5169SOL     OW26965   0.952   1.917   8.981  0.1523 -0.5172  0.1561
 5169SOL    HW126966   1.010   1.975   9.029  0.9934  0.1729 -1.6964
 5169SOL    HW226967   0.997   1.904   8.897 -0.3745 -0.3454 -0.1559
 5170SOL     OW26968   1.874   2.240   7.181  0.3954 -0.1431  0.2522
 5170SOL    HW126969   1.890   2.152   7.146  1.0186 -0.8083  2.1559
 5170SOL    HW226970   1.814   2.228   7.255 -1.4916 -1.7658 -1.5619
 5171SOL     OW26971   1.549   1.701   4.400  0.1129  0.6078 -0.8180
 5171SOL    HW126972   1.548   1.695   4.304  2.0517  0.9709 -0.8679
 5171SOL    HW226973   1.462   1.671   4.426 -0.1524  1.6907 -0.4549
 5172SOL     OW26974   2.302   2.626   7.061 -0.7135 -0.3650 -0.2876
 5172SOL    HW126975   2.276   2.550   7.114 -0.7227 -0.9970 -1.2005
 5172SOL    HW226976   2.395   2.631   7.083 -0.9397 -0.6257  0.7592
 5173SOL     OW26977   4.106   2.146   2.266  0.2800  0.0051 -0.7467
 5173SOL    HW126978   4.038   2.167   2.329 -1.4041 -0.5285 -2.3900
 5173SOL    HW226979   4.097   2.051   2.262 -1.2000  0.0811  1.1957
 5174SOL     OW26980   4.247   1.776   8.440  0.0755  0.1510  0.0730
 5174SOL    HW126981   4.287   1.772   8.353 -1.0370 -0.5586 -0.4075
 5174SOL    HW226982   4.314   1.729   8.489 -1.5301 -0.3405  1.7718
 5175SOL     OW26983   1.483   0.411   6.243  0.5031 -0.9062 -0.2033
 5175SOL    HW126984   1.443   0.467   6.310  0.4647 -0.2790 -0.7624
 5175SOL    HW226985   1.546   0.472   6.206  0.5736 -0.5138  0.5591
 5176SOL     OW26986   3.228   1.999  15.448  0.3586 -0.1651  0.3208
 5176SOL    HW126987   3.246   2.067  15.514 -0.4488  0.7734 -0.4194
 5176SOL    HW226988   3.313   1.960  15.428  0.3198  0.9303 -1.9410
 5177SOL     OW26989   4.127   1.264  12.641 -0.1013 -0.1108  0.9415
 5177SOL    HW126990   4.113   1.298  12.729 -1.4544  1.1750  0.2231
 5177SOL    HW226991   4.081   1.180  12.646 -0.7887  0.1488 -0.9790
 5178SOL     OW26992   1.714   0.676   6.469 -0.0692 -0.3553  0.6012
 5178SOL    HW126993   1.800   0.684   6.428  0.5144 -0.2983  1.8374
 5178SOL    HW226994   1.679   0.763   6.452  3.3455  0.7377 -0.9801
 5179SOL     OW26995   1.329   1.682   4.821  0.0184  0.0091 -0.1106
 5179SOL    HW126996   1.274   1.739   4.767  1.0617 -0.2641 -1.4454
 5179SOL    HW226997   1.291   1.692   4.908  1.3419  0.6755  0.3925
 5180SOL     OW26998   2.455   4.608  13.385  0.1829  0.1523 -0.4887
 5180SOL    HW126999   2.371   4.565  13.400  1.1960 -1.8437 -0.5684
 5180SOL    HW227000   2.496   4.603  13.471 -2.4502  0.2903  0.7781
 5181SOL     OW27001   2.457   4.433  10.872 -0.3082  0.1283 -0.0123
 5181SOL    HW127002   2.515   4.418  10.797  0.7884 -3.1839  1.5259
 5181SOL    HW227003   2.384   4.479  10.831  0.3751 -0.2401 -1.6335
 5182SOL     OW27004   1.079   1.255   0.496  1.0872 -0.3639  0.1541
 5182SOL    HW127005   1.084   1.278   0.403 -0.1344  0.3274  0.2564
 5182SOL    HW227006   0.988   1.224   0.501  1.2591 -0.8586  0.1967
 5183SOL     OW27007   4.057   1.977   4.722 -0.7057  0.3069  0.5860
 5183SOL    HW127008   4.017   1.966   4.635  0.5251  2.1208 -0.2207
 5183SOL    HW227009   3.990   1.937   4.777  0.2376 -0.4185  1.1998
 5184SOL     OW27010   0.769   3.243   8.397 -0.2380 -0.6842 -0.0191
 5184SOL    HW127011   0.777   3.153   8.428 -3.0810 -0.8967  0.0423
 5184SOL    HW227012   0.861   3.263   8.376  0.3093  0.2870  3.1560
 5185SOL     OW27013   2.217   4.632   3.793 -0.8302 -0.1467 -0.1300
 5185SOL    HW127014   2.283   4.650   3.726 -0.6254 -1.8401 -0.3947
 5185SOL    HW227015   2.154   4.590   3.735 -1.7633  0.8478  0.1812
 5186SOL     OW27016   3.530   1.940   7.512 -0.0789  0.5106 -0.2791
 5186SOL    HW127017   3.475   1.889   7.571 -1.4234  0.4411 -1.5925
 5186SOL    HW227018   3.487   2.025   7.517 -0.5037  0.2867 -0.1598
 5187SOL     OW27019   1.577   2.026   6.388 -0.1926  0.0838  0.1499
 5187SOL    HW127020   1.513   2.087   6.350  2.0901  1.0264 -2.1660
 5187SOL    HW227021   1.661   2.071   6.378  0.1845 -0.5465  0.4626
 5188SOL     OW27022   4.324   2.619   8.321 -0.6695 -0.2728 -0.1380
 5188SOL    HW127023   4.273   2.686   8.366  1.0415  0.3274  0.9123
 5188SOL    HW227024   4.286   2.620   8.233  1.5712 -1.4396 -1.1368
 5189SOL     OW27025   1.276   2.310   4.588  0.0101  0.4791  0.5991
 5189SOL    HW127026   1.322   2.305   4.504  1.0529 -1.8199  1.3222
 5189SOL    HW227027   1.300   2.233   4.639 -4.3523 -0.8499  0.6468
 5190SOL     OW27028   1.564   4.552  15.058  0.1249 -0.1635  0.1451
 5190SOL    HW127029   1.514   4.473  15.079  0.7537 -0.8674 -0.9350
 5190SOL    HW227030   1.647   4.531  15.102 -0.2786 -2.2567 -0.1029
 5191SOL     OW27031   1.652   3.511   9.126  0.5173 -0.3059  0.2494
 5191SOL    HW127032   1.738   3.472   9.143  0.6209 -0.2324 -0.0914
 5191SOL    HW227033   1.617   3.512   9.215  0.8344  1.9902  0.3396
 5192SOL     OW27034   2.828   2.195   3.329  0.4369 -0.3839 -0.2678
 5192SOL    HW127035   2.865   2.234   3.250 -3.0486  2.0131 -0.6995
 5192SOL    HW227036   2.868   2.108   3.326  2.4817  0.5962 -1.3871
 5193SOL     OW27037   3.673   3.425   2.080 -0.4089  0.0039  0.3883
 5193SOL    HW127038   3.578   3.421   2.079 -0.4517  1.1710 -0.1170
 5193SOL    HW227039   3.708   3.468   2.158 -4.4430 -0.6279  2.4837
 5194SOL     OW27040   4.382   3.007  13.688  0.3526 -0.1736  0.0545
 5194SOL    HW127041   4.326   3.039  13.617  0.4840 -2.4452 -1.0367
 5194SOL    HW227042   4.327   2.941  13.730 -1.7104  1.5002  0.0060
 5195SOL     OW27043   0.131   2.910   1.861  0.2636  0.3611  0.3555
 5195SOL    HW127044   0.056   2.899   1.802  0.1885  0.9462  0.3360
 5195SOL    HW227045   0.110   2.986   1.916 -0.9780  0.4331 -0.2169
 5196SOL     OW27046   2.082   3.894   7.875  0.6403  0.0429 -1.1733
 5196SOL    HW127047   2.042   3.911   7.960  0.2105 -0.3994 -1.2832
 5196SOL    HW227048   2.050   3.804   7.862  1.0011 -0.2212 -0.2084
 5197SOL     OW27049   4.320   4.516   6.002  0.5386  0.0188  0.5264
 5197SOL    HW127050   4.230   4.507   6.032  0.0449 -0.5188 -1.0988
 5197SOL    HW227051   4.356   4.429   6.018  1.3253  0.2767  0.1839
 5198SOL     OW27052   3.846   3.792   6.070 -0.6824 -0.1126  0.1608
 5198SOL    HW127053   3.786   3.865   6.056 -0.5090  0.0049  0.0369
 5198SOL    HW227054   3.915   3.833   6.123 -1.6618 -0.9592  2.0819
 5199SOL     OW27055   0.050   2.130   8.329  0.2002 -0.3063 -0.7907
 5199SOL    HW127056   0.014   2.214   8.358 -0.5945 -0.7779 -0.4031
 5199SOL    HW227057   0.036   2.071   8.404  2.6942 -0.9109 -0.8061
 5200SOL     OW27058   2.691   0.799  15.411  0.0318 -0.1606 -0.3229
 5200SOL    HW127059   2.648   0.794  15.325  0.8476  0.7225 -0.7896
 5200SOL    HW227060   2.775   0.839  15.388 -0.1100 -1.3950 -3.0541
 5201SOL     OW27061   2.214   1.171   1.503 -0.6391  0.0717  0.1342
 5201SOL    HW127062   2.146   1.114   1.541  1.4530 -1.9926  0.7775
 5201SOL    HW227063   2.213   1.239   1.570  1.3081  0.5284 -0.3139
 5202SOL     OW27064   3.387   4.101   3.545 -0.4365  0.2241  0.2682
 5202SOL    HW127065   3.352   4.038   3.483  0.6890  1.6760 -1.8443
 5202SOL    HW227066   3.313   4.142   3.590  0.4131  1.6302  0.3768
 5203SOL     OW27067   4.571   1.214  15.090 -0.3439 -0.6382  0.2628
 5203SOL    HW127068   4.594   1.228  15.182 -0.6328  1.5603 -0.0014
 5203SOL    HW227069   4.661   1.195  15.064 -0.9061  0.5230 -2.4811
 5204SOL     OW27070   4.579   2.195   2.646  0.4897 -0.1290  0.9708
 5204SOL    HW127071   4.648   2.207   2.710  0.8883 -1.6472  0.8321
 5204SOL    HW227072   4.538   2.282   2.644  0.8055 -0.0214 -0.6741
 5205SOL     OW27073   2.345   0.800   8.549  0.1394 -0.4426 -0.6665
 5205SOL    HW127074   2.390   0.719   8.527 -0.5180 -0.7502 -0.8959
 5205SOL    HW227075   2.381   0.807   8.637  0.7128 -1.9081 -0.7842
 5206SOL     OW27076   2.889   3.120  12.561  0.2841  1.1939  0.0094
 5206SOL    HW127077   2.880   3.165  12.477  0.7037  2.5898  0.7092
 5206SOL    HW227078   2.848   3.189  12.615 -0.0286  1.3914 -0.4783
 5207SOL     OW27079   3.825   2.066   7.505 -0.1416 -0.2897  0.3447
 5207SOL    HW127080   3.888   1.996   7.488  0.8572  0.9850 -1.1127
 5207SOL    HW227081   3.810   2.052   7.599 -1.7606 -0.7194  0.0267
 5208SOL     OW27082   4.168   3.920   9.356 -0.2999 -0.4925  0.4408
 5208SOL    HW127083   4.179   3.826   9.363  2.7128 -0.2209 -0.5035
 5208SOL    HW227084   4.079   3.938   9.389  0.0278  0.6744  0.7159
 5209SOL     OW27085   4.354   1.404  10.684 -0.2503 -0.3570  0.5084
 5209SOL    HW127086   4.449   1.411  10.686 -0.1623 -1.2163 -0.9364
 5209SOL    HW227087   4.347   1.444  10.597 -0.6541 -0.8575  0.3090
 5210SOL     OW27088   4.427   0.878   7.020 -0.1169 -0.2047 -0.0022
 5210SOL    HW127089   4.334   0.900   7.014  0.4081  2.0892  0.2496
 5210SOL    HW227090   4.465   0.951   7.069 -1.0261 -0.9411  1.8074
 5211SOL     OW27091   2.964   0.225   7.301  0.1208 -0.3503 -0.4872
 5211SOL    HW127092   3.018   0.298   7.269 -0.6435  1.2371  1.8710
 5211SOL    HW227093   3.024   0.158   7.268  1.0821  0.0606  0.4240
 5212SOL     OW27094   4.494   0.220   7.944 -0.5021  0.0247  0.6342
 5212SOL    HW127095   4.440   0.288   7.986 -0.1036  0.5266  0.3365
 5212SOL    HW227096   4.566   0.227   8.007 -0.5195 -1.5516  0.8141
 5213SOL     OW27097   2.521   4.169   7.444  0.6601 -0.0237  0.3314
 5213SOL    HW127098   2.598   4.114   7.458  0.0124 -0.6569  1.4988
 5213SOL    HW227099   2.518   4.215   7.528 -0.1492  0.1768  0.1961
 5214SOL     OW27100   4.177   1.826   6.547  0.5525  0.4415  0.3815
 5214SOL    HW127101   4.254   1.850   6.495 -1.2119  1.0223 -1.9780
 5214SOL    HW227102   4.163   1.735   6.521 -0.0922  1.2394 -2.0163
 5215SOL     OW27103   3.079   4.337  16.181 -0.4276 -0.2911 -0.5437
 5215SOL    HW127104   3.146   4.398  16.214 -0.0719 -0.2903 -1.2518
 5215SOL    HW227105   3.021   4.387  16.124 -0.7870 -0.1661 -0.0593
 5216SOL     OW27106   0.786   2.853   4.226 -0.4851  0.0825  0.8582
 5216SOL    HW127107   0.740   2.780   4.268  0.2846 -0.7354  0.2862
 5216SOL    HW227108   0.749   2.925   4.278  0.7859  1.0006  0.4940
 5217SOL     OW27109   3.474   2.267  12.281 -0.2738 -0.5668  0.7455
 5217SOL    HW127110   3.406   2.289  12.218  0.1589  2.3686  1.2534
 5217SOL    HW227111   3.483   2.174  12.262 -0.7711 -0.5070  0.2258
 5218SOL     OW27112   4.688   1.767  17.276  0.2797 -0.0199 -0.4339
 5218SOL    HW127113   0.009   1.842  17.314 -1.9190 -0.9378  4.0132
 5218SOL    HW227114   4.616   1.811  17.231 -0.3497  0.4607  1.0331
 5219SOL     OW27115   3.652   2.335   3.904  0.1385 -0.1949  0.3062
 5219SOL    HW127116   3.686   2.348   3.993  1.2874 -0.0732 -0.1593
 5219SOL    HW227117   3.709   2.263   3.877  0.2683  1.0012 -2.5808
 5220SOL     OW27118   0.083   4.692  11.401 -0.1400 -0.0709 -0.5046
 5220SOL    HW127119   4.717   4.664  11.417  0.1640 -1.2321 -0.8061
 5220SOL    HW227120   0.059   4.718  11.313  1.6117 -1.4635 -1.3971
 5221SOL     OW27121   3.354   4.120  11.339  0.6894  0.3991  0.1983
 5221SOL    HW127122   3.350   4.132  11.244  0.2438 -2.2077 -0.1144
 5221SOL    HW227123   3.260   4.104  11.349  0.4894  1.5023  0.1039
 5222SOL     OW27124   4.372   3.917   7.003  0.0563  0.0484  0.2130
 5222SOL    HW127125   4.402   3.991   6.950 -2.2442  0.0407 -1.0947
 5222SOL    HW227126   4.453   3.868   7.017 -1.3161 -2.2258  0.1908
 5223SOL     OW27127   3.732   2.792   7.908 -0.0009 -0.2320 -0.0724
 5223SOL    HW127128   3.763   2.843   7.833  0.8750 -1.0439 -0.2607
 5223SOL    HW227129   3.710   2.853   7.978  0.9026 -0.6909  0.6053
 5224SOL     OW27130   3.605   4.537   1.236 -0.3764  0.2927 -0.1849
 5224SOL    HW127131   3.669   4.501   1.298 -0.9858 -0.2291  0.1500
 5224SOL    HW227132   3.553   4.596   1.291 -0.4716 -2.4431  2.6632
 5225SOL     OW27133   3.120   2.348   8.031  0.0505 -0.3250  0.2467
 5225SOL    HW127134   3.119   2.280   7.963  0.7919 -0.4745  0.3769
 5225SOL    HW227135   3.212   2.346   8.060 -0.4126 -0.7421  1.6643
 5226SOL     OW27136   1.168   3.784  14.510  0.0805 -0.2265 -0.5046
 5226SOL    HW127137   1.108   3.787  14.585  2.2228  1.4085  1.1461
 5226SOL    HW227138   1.178   3.690  14.496 -0.5721 -0.6315  1.7370
 5227SOL     OW27139   1.313   4.087   2.410 -0.2081  0.0380  0.1112
 5227SOL    HW127140   1.275   4.000   2.418  0.3445 -0.2948 -0.7614
 5227SOL    HW227141   1.325   4.091   2.315 -0.3489 -1.3447  0.0401
 5228SOL     OW27142   1.683   0.628   0.290 -0.0988 -0.1764 -0.1441
 5228SOL    HW127143   1.696   0.535   0.308 -3.5232 -0.8372 -0.9560
 5228SOL    HW227144   1.590   0.617   0.270  0.5971 -1.5157 -2.5763
 5229SOL     OW27145   1.998   4.619   5.717 -0.0649 -0.4060 -0.4672
 5229SOL    HW127146   1.994   4.696   5.661 -0.6603  2.6944  3.8800
 5229SOL    HW227147   1.953   4.653   5.794 -0.9192 -0.3099 -1.0005
 5230SOL     OW27148   3.809   1.921   4.916  0.3780  0.0398  0.0258
 5230SOL    HW127149   3.855   1.980   4.975  0.4759 -1.3252  1.3037
 5230SOL    HW227150   3.719   1.953   4.921  0.4426  0.6845 -2.7935
 5231SOL     OW27151   3.456   3.501   6.364 -0.4084  0.0662  0.2955
 5231SOL    HW127152   3.378   3.493   6.309  0.5508 -2.0516 -0.7588
 5231SOL    HW227153   3.497   3.581   6.332 -2.8992  0.7689 -1.1410
 5232SOL     OW27154   3.938   4.072   7.928 -0.0521  0.3531 -0.1836
 5232SOL    HW127155   3.963   4.164   7.916 -0.3176  0.3989 -0.3923
 5232SOL    HW227156   3.928   4.066   8.023  0.4678  1.7200 -0.0366
 5233SOL     OW27157   0.688   4.106   6.253  0.0725 -0.0155 -0.2469
 5233SOL    HW127158   0.617   4.044   6.266  0.9893 -0.4750  2.5413
 5233SOL    HW227159   0.687   4.152   6.337 -1.7972  0.3268 -0.4650
 5234SOL     OW27160   0.009   0.257  15.663 -0.3935 -0.4323 -0.5691
 5234SOL    HW127161   0.039   0.261  15.572 -1.9038  0.4933 -1.0401
 5234SOL    HW227162   0.098   0.252  15.699  0.2764 -2.0880 -2.4475
 5235SOL     OW27163   0.344   2.574  12.157  0.4953 -0.0127  0.4533
 5235SOL    HW127164   0.306   2.606  12.239 -2.1008 -0.1675 -0.6919
 5235SOL    HW227165   0.266   2.543  12.110  1.4792 -0.1280 -1.0905
 5236SOL     OW27166   0.261   0.684  15.048 -0.0081 -0.3638 -0.7988
 5236SOL    HW127167   0.221   0.732  14.976  1.3808 -1.7223 -2.4623
 5236SOL    HW227168   0.303   0.752  15.101 -1.2214 -0.3792  0.1891
 5237SOL     OW27169   2.701   0.878   6.535  0.3198 -0.2924 -0.1427
 5237SOL    HW127170   2.677   0.789   6.557  0.8266  0.5390  3.7431
 5237SOL    HW227171   2.628   0.909   6.482  1.9435  1.6092 -1.2933
 5238SOL     OW27172   1.641   1.121   0.742  0.3113  0.5816  0.7691
 5238SOL    HW127173   1.591   1.097   0.819  0.0551  2.0687  1.0570
 5238SOL    HW227174   1.588   1.194   0.711 -2.2374 -1.4988  0.2502
 5239SOL     OW27175   2.110   3.435   2.147  0.3239  0.2810  0.4074
 5239SOL    HW127176   2.173   3.504   2.166  0.6256  0.7282 -2.1850
 5239SOL    HW227177   2.042   3.477   2.094  1.6681  0.2799 -1.3474
 5240SOL     OW27178   3.543   4.278  12.878 -0.1141  0.1540 -0.4747
 5240SOL    HW127179   3.471   4.341  12.876 -0.9450 -0.6980  2.5813
 5240SOL    HW227180   3.541   4.242  12.967  1.9708 -0.3347 -0.6087
 5241SOL     OW27181   2.271   1.606   4.524 -0.1453 -0.0776  0.1837
 5241SOL    HW127182   2.234   1.635   4.440 -0.6623 -1.5727 -0.1080
 5241SOL    HW227183   2.334   1.540   4.493  0.1977  0.1606  0.3713
 5242SOL     OW27184   0.312   3.411   2.565 -0.2280  0.2250 -0.6458
 5242SOL    HW127185   0.221   3.442   2.573  0.4777  1.8911  0.7457
 5242SOL    HW227186   0.311   3.321   2.598  0.8113  0.5362  0.1990
 5243SOL     OW27187   4.241   4.361   5.584 -0.4705 -0.2534 -0.2317
 5243SOL    HW127188   4.259   4.439   5.636  1.2835 -0.2387 -0.8695
 5243SOL    HW227189   4.259   4.290   5.647 -0.2544  0.7750  0.8600
 5244SOL     OW27190   3.157   4.606  17.034  0.0852 -0.3906 -0.1028
 5244SOL    HW127191   3.252   4.597  17.033  0.0514 -0.5714 -1.7675
 5244SOL    HW227192   3.137   4.688  16.990 -1.8290 -1.3406 -1.0013
 5245SOL     OW27193   0.628   2.923   1.941  0.2533  0.7193  0.2494
 5245SOL    HW127194   0.545   2.947   1.901 -0.2254 -0.7817  0.3432
 5245SOL    HW227195   0.686   2.997   1.924 -1.3804  1.7071 -1.0464
 5246SOL     OW27196   4.653   0.904   5.418 -0.0410 -0.3545  0.3410
 5246SOL    HW127197   4.654   0.883   5.512  3.1132  1.4733  0.7213
 5246SOL    HW227198   0.010   0.954   5.416  0.9438 -1.9252  0.4299
 5247SOL     OW27199   2.647   2.246   7.063 -0.2454  0.2111 -0.0663
 5247SOL    HW127200   2.610   2.172   7.016  0.3169  0.0187 -0.2044
 5247SOL    HW227201   2.736   2.212   7.075 -0.0019  0.5202 -1.0179
 5248SOL     OW27202   4.121   0.408   2.205 -0.0320  0.2234 -0.5714
 5248SOL    HW127203   4.035   0.449   2.211  0.8522  1.5593  3.0207
 5248SOL    HW227204   4.155   0.410   2.294 -1.6534  0.0656  0.0503
 5249SOL     OW27205   2.055   1.028   6.518  0.0365 -0.1301  0.1024
 5249SOL    HW127206   1.977   1.060   6.563 -0.0227  0.6565 -0.5514
 5249SOL    HW227207   2.018   0.954   6.470  0.2463  0.2892 -0.7130
 5250SOL     OW27208   4.417   2.287   7.305 -0.6538  0.6975 -0.2880
 5250SOL    HW127209   4.465   2.215   7.344 -0.4318  1.7872  1.4170
 5250SOL    HW227210   4.350   2.228   7.269 -1.8733  1.4508  0.7610
 5251SOL     OW27211   1.693   3.508   7.191  0.2039  0.3129 -0.0484
 5251SOL    HW127212   1.702   3.470   7.104  0.2529  1.2567 -0.4566
 5251SOL    HW227213   1.739   3.446   7.247  1.6747  1.9283  0.5412
 5252SOL     OW27214   2.593   0.605   8.459  0.1436  0.2704  0.3458
 5252SOL    HW127215   2.580   0.596   8.364  2.6414  1.0724 -0.0654
 5252SOL    HW227216   2.668   0.546   8.464  0.1550  0.1437 -1.2162
 5253SOL     OW27217   0.574   4.279   5.941 -0.1855 -0.0034 -0.2494
 5253SOL    HW127218   0.660   4.244   5.961 -0.2453  1.1230  1.9622
 5253SOL    HW227219   0.575   4.357   5.996 -1.2806 -1.0981  1.3245
 5254SOL     OW27220   2.319   3.201   0.503 -0.5279 -0.3654 -0.1700
 5254SOL    HW127221   2.349   3.110   0.510 -0.3909 -0.3393 -0.4052
 5254SOL    HW227222   2.377   3.238   0.570  2.1387 -1.8018 -1.6568
 5255SOL     OW27223   4.375   2.224   2.289 -0.1975  0.1568  0.0658
 5255SOL    HW127224   4.414   2.166   2.224  0.2576  0.5098  0.0258
 5255SOL    HW227225   4.281   2.201   2.287 -0.1290 -0.1270  0.0405
 5256SOL     OW27226   3.484   0.268  13.090 -0.3746  0.2996 -0.0448
 5256SOL    HW127227   3.561   0.314  13.126  1.5820 -2.7723 -0.3289
 5256SOL    HW227228   3.420   0.330  13.125 -0.2949  0.1451  0.3833
 5257SOL     OW27229   1.950   4.229   6.347 -0.4112  0.6213  0.0975
 5257SOL    HW127230   2.004   4.304   6.370  1.6426  0.0373 -2.8246
 5257SOL    HW227231   1.866   4.272   6.327 -1.2232 -0.6302  0.8072
 5258SOL     OW27232   2.358   4.266   4.690 -0.0718 -0.0507  0.6580
 5258SOL    HW127233   2.419   4.265   4.764  0.0040 -1.6523  0.5742
 5258SOL    HW227234   2.352   4.172   4.670  1.9384 -0.0144 -0.1186
 5259SOL     OW27235   3.808   3.642  13.481  0.1178 -0.4276 -0.4520
 5259SOL    HW127236   3.880   3.649  13.543 -0.7017 -0.5972  0.5230
 5259SOL    HW227237   3.839   3.709  13.420  1.1304 -0.8456 -0.3794
 5260SOL     OW27238   4.174   4.614   1.382  0.7017  0.4598 -0.3435
 5260SOL    HW127239   4.235   4.686   1.401 -0.9273  1.4663  0.9985
 5260SOL    HW227240   4.094   4.659   1.407  0.2408 -0.4195 -0.2402
 5261SOL     OW27241   2.644   0.931   1.357 -1.0120  0.1266  0.0572
 5261SOL    HW127242   2.551   0.940   1.334 -0.2452 -0.4111 -3.2344
 5261SOL    HW227243   2.655   0.988   1.433 -1.2260  1.5044 -0.9332
 5262SOL     OW27244   2.651   3.402  17.518  0.3233  0.5427  0.7735
 5262SOL    HW127245   2.742   3.378  17.537  0.1968  0.0787  0.7899
 5262SOL    HW227246   2.602   3.357  17.587  1.0065 -1.7931 -0.2606
 5263SOL     OW27247   0.542   0.743  11.391 -0.2607 -0.8642  0.2028
 5263SOL    HW127248   0.630   0.747  11.355 -0.0090 -1.4360  0.7642
 5263SOL    HW227249   0.543   0.824  11.443 -0.7266 -2.0787  2.0991
 5264SOL     OW27250   2.559   2.292   3.019 -0.2324 -0.2938 -0.4223
 5264SOL    HW127251   2.486   2.351   3.002  1.3354  1.7315 -0.0397
 5264SOL    HW227252   2.561   2.235   2.942  0.4588  1.4049 -1.6494
 5265SOL     OW27253   3.390   2.820   8.593  0.1877  0.3933  0.3674
 5265SOL    HW127254   3.396   2.809   8.688  2.0148 -2.5187 -0.0957
 5265SOL    HW227255   3.309   2.774   8.567  0.6447 -0.7508  0.9753
 5266SOL     OW27256   0.554   0.017   2.984  0.3846 -0.0753 -0.3777
 5266SOL    HW127257   0.641   0.036   3.018  1.5757 -2.2329 -2.1622
 5266SOL    HW227258   0.543   0.071   2.906  2.5356  0.5954 -0.2285
 5267SOL     OW27259   0.684   0.016   9.187  0.1830 -0.2655  0.0122
 5267SOL    HW127260   0.617   4.718   9.124  1.2898 -0.1250 -1.2159
 5267SOL    HW227261   0.630   0.062   9.252  0.9162 -1.4787  1.4829
 5268SOL     OW27262   2.381   2.427  13.342  0.4702 -0.3286 -0.3397
 5268SOL    HW127263   2.359   2.518  13.363  1.1119 -0.3088  0.2290
 5268SOL    HW227264   2.309   2.391  13.289  1.7468 -1.6079 -1.1920
 5269SOL     OW27265   1.923   3.082   9.599  0.5256  0.4199 -0.3536
 5269SOL    HW127266   1.996   3.029   9.632 -0.1826  0.0639  0.6443
 5269SOL    HW227267   1.915   3.046   9.510 -0.0670 -0.3221  0.0037
 5270SOL     OW27268   3.373   1.688   9.183  0.1709 -0.1335 -0.2190
 5270SOL    HW127269   3.411   1.773   9.206  2.1291 -1.4486  1.4913
 5270SOL    HW227270   3.454   1.650   9.150  0.2813  0.6445 -0.8365
 5271SOL     OW27271   1.594   3.776   3.877 -0.3786  0.3523  0.2044
 5271SOL    HW127272   1.644   3.710   3.829  1.1599  0.4107  1.7403
 5271SOL    HW227273   1.584   3.846   3.812 -0.9606  0.3799  0.3249
 5272SOL     OW27274   3.480   2.181   7.706  0.1989 -0.9520  0.1024
 5272SOL    HW127275   3.414   2.227   7.653  2.0745  1.0167 -0.5491
 5272SOL    HW227276   3.557   2.226   7.670 -0.3367 -1.0903 -1.2037
 5273SOL     OW27277   1.957   4.394   6.760  0.4395  0.3691 -0.0747
 5273SOL    HW127278   2.007   4.445   6.697  1.5255  1.7473  1.8933
 5273SOL    HW227279   2.017   4.323   6.783  0.7249 -0.4716 -3.5172
 5274SOL     OW27280   0.395   1.183   4.761  0.2247 -0.3427 -0.2275
 5274SOL    HW127281   0.441   1.262   4.733  1.5244 -0.8641  0.4750
 5274SOL    HW227282   0.452   1.140   4.824  1.7988 -0.8997 -2.0106
 5275SOL     OW27283   3.447   3.397   5.040 -0.5129  0.2482  0.1424
 5275SOL    HW127284   3.442   3.448   5.121 -2.8566 -1.1253  0.8442
 5275SOL    HW227285   3.470   3.311   5.074 -0.2067  0.9240  1.6372
 5276SOL     OW27286   2.661   0.013  16.754 -0.2276  0.1233 -0.7945
 5276SOL    HW127287   2.627   4.724  16.666 -0.8206  1.9355 -0.8418
 5276SOL    HW227288   2.695   4.648  16.759 -1.2802 -0.2983 -1.1640
 5277SOL     OW27289   2.457   1.356  10.576 -0.0165  0.7036  0.5782
 5277SOL    HW127290   2.534   1.406  10.604  1.0402  0.0367 -1.1414
 5277SOL    HW227291   2.384   1.402  10.616 -0.7993 -0.7039  0.7647
 5278SOL     OW27292   0.371   1.312   4.170  0.1618 -0.3387  0.3835
 5278SOL    HW127293   0.424   1.390   4.155 -0.6705 -0.1808 -1.6593
 5278SOL    HW227294   0.439   1.245   4.181  1.5144  0.6614 -1.8427
 5279SOL     OW27295   2.959   0.231   2.331  0.1576  0.2897  0.4814
 5279SOL    HW127296   2.930   0.142   2.349 -0.8401  0.4820 -0.1444
 5279SOL    HW227297   2.881   0.270   2.292 -0.9890 -1.5531  0.9115
 5280SOL     OW27298   3.957   3.258   4.261 -0.3273  0.4292 -0.5149
 5280SOL    HW127299   4.000   3.174   4.250  0.7648  0.7303  1.4468
 5280SOL    HW227300   4.025   3.303   4.312 -0.6787  0.8222 -0.3896
 5281SOL     OW27301   0.298   3.009   4.256  0.2394 -0.1721  0.3381
 5281SOL    HW127302   0.353   2.980   4.183 -3.4455 -1.9821 -1.7451
 5281SOL    HW227303   0.221   3.043   4.210 -0.1163 -1.8635 -0.3460
 5282SOL     OW27304   0.650   0.911  10.965  0.4297 -0.0158 -0.3595
 5282SOL    HW127305   0.701   0.991  10.979 -0.0737 -0.0211  1.5646
 5282SOL    HW227306   0.587   0.959  10.912 -0.6080 -2.7889 -1.6482
 5283SOL     OW27307   0.706   0.282   1.568 -0.2549  0.2245  0.3877
 5283SOL    HW127308   0.708   0.198   1.613  1.4419  1.8257  3.3095
 5283SOL    HW227309   0.631   0.333   1.599  0.5920  1.3815  0.5350
 5284SOL     OW27310   3.436   0.204   6.723 -0.5778  0.0403 -0.1016
 5284SOL    HW127311   3.472   0.183   6.809 -0.1321  1.3056  0.0200
 5284SOL    HW227312   3.479   0.289   6.718  2.7496 -1.5781  1.0887
 5285SOL     OW27313   3.249   0.987   8.137 -0.4554 -0.3267 -0.1928
 5285SOL    HW127314   3.266   1.022   8.224  1.4191  0.4712 -0.8814
 5285SOL    HW227315   3.330   0.939   8.120 -0.7140 -0.4539 -1.0653
 5286SOL     OW27316   3.890   0.607   5.962  0.1700 -0.3551  0.5076
 5286SOL    HW127317   3.912   0.698   5.943 -2.2897 -0.2032 -1.6418
 5286SOL    HW227318   3.864   0.611   6.054 -2.3120  3.9060 -0.4104
 5287SOL     OW27319   4.301   4.332   1.690 -0.0689 -0.1076  0.1462
 5287SOL    HW127320   4.341   4.261   1.640 -2.0011 -1.4623  0.5050
 5287SOL    HW227321   4.355   4.406   1.663  0.2545 -0.5215 -0.3454
 5288SOL     OW27322   2.391   0.393   5.746 -0.2752  0.3614 -0.4558
 5288SOL    HW127323   2.396   0.479   5.704  2.8394  2.3735  4.0952
 5288SOL    HW227324   2.464   0.351   5.699  0.2162  0.5866  0.1126
 5289SOL     OW27325   4.708   4.338   2.951 -0.0054  0.3178  0.3405
 5289SOL    HW127326   4.624   4.352   2.996  1.0038  0.6912  2.0925
 5289SOL    HW227327   0.016   4.259   2.995 -0.2564 -0.3520 -0.6862
 5290SOL     OW27328   2.692   3.740   2.270  0.2626  0.2044 -0.1626
 5290SOL    HW127329   2.743   3.795   2.330 -0.9945 -0.8084  1.8283
 5290SOL    HW227330   2.658   3.806   2.209 -1.7954  0.0399  0.7985
 5291SOL     OW27331   0.611   3.572   5.266  0.1060  0.1087 -0.2407
 5291SOL    HW127332   0.689   3.518   5.274 -0.3110 -0.8589 -2.5789
 5291SOL    HW227333   0.619   3.612   5.179 -1.1237  0.7399 -0.0640
 5292SOL     OW27334   1.940   2.835   6.695 -0.3016 -0.4499 -0.1397
 5292SOL    HW127335   1.919   2.920   6.736  0.3197  0.4124 -1.6231
 5292SOL    HW227336   2.014   2.804   6.748  0.0021  2.6542  1.2943
 5293SOL     OW27337   0.726   1.946   9.419 -0.5416  0.3808 -0.8176
 5293SOL    HW127338   0.659   1.881   9.399  1.0868 -1.6375  0.2751
 5293SOL    HW227339   0.736   1.990   9.335  1.6557 -0.3843 -0.9536
 5294SOL     OW27340   1.055   2.213  12.877  0.2376 -0.1336  0.0091
 5294SOL    HW127341   0.972   2.189  12.918  0.5561 -1.4313 -0.1213
 5294SOL    HW227342   1.101   2.130  12.863  2.7203  0.9682  1.6847
 5295SOL     OW27343   1.566   0.976   1.953 -0.0142 -0.0457 -0.0378
 5295SOL    HW127344   1.479   0.995   1.918 -0.4105  0.9341  1.4757
 5295SOL    HW227345   1.567   0.881   1.948 -2.9381 -0.0456 -0.4867
 5296SOL     OW27346   4.522   3.468   7.289  0.1307  0.0968 -0.2355
 5296SOL    HW127347   4.528   3.435   7.379  2.2614  0.2264 -0.3375
 5296SOL    HW227348   4.612   3.488   7.267  0.3424 -1.9871 -1.2794
 5297SOL     OW27349   2.516   0.238   2.263 -0.0969  0.0254  0.5414
 5297SOL    HW127350   2.588   0.284   2.222 -0.4179 -0.6509 -0.7947
 5297SOL    HW227351   2.444   0.244   2.200 -0.4275  0.8733  1.0033
 5298SOL     OW27352   0.264   0.675   2.501  0.1911  0.0808 -0.0148
 5298SOL    HW127353   0.302   0.662   2.588  0.0595  0.2317  0.0666
 5298SOL    HW227354   0.178   0.703   2.532 -0.2887  0.3266 -1.5655
 5299SOL     OW27355   3.898   3.763  12.159  0.0437  0.1518  0.0875
 5299SOL    HW127356   3.896   3.789  12.251  0.0415  0.9496 -0.1362
 5299SOL    HW227357   3.918   3.850  12.125  0.4692 -0.8607 -2.2818
 5300SOL     OW27358   1.110   3.957  15.230  0.2450 -0.0292 -0.4438
 5300SOL    HW127359   1.058   4.021  15.180  0.7985  0.6695 -0.1312
 5300SOL    HW227360   1.191   4.008  15.234 -0.5960  1.2642  0.2681
 5301SOL     OW27361   1.963   2.787   2.065  0.2195 -0.3444 -0.2957
 5301SOL    HW127362   1.952   2.777   1.971 -1.3311  2.5823 -0.4008
 5301SOL    HW227363   2.056   2.788   2.088  0.5818  1.6743 -1.9278
 5302SOL     OW27364   4.323   4.109   3.271 -0.4026  0.2371  0.1808
 5302SOL    HW127365   4.270   4.168   3.326  0.0853  0.9536 -0.1127
 5302SOL    HW227366   4.413   4.131   3.296 -0.2087  1.0001 -1.2038
 5303SOL     OW27367   0.123   1.230   1.827 -0.5066  0.4358 -0.0225
 5303SOL    HW127368   0.152   1.177   1.754  0.2303  0.1894  0.4468
 5303SOL    HW227369   0.053   1.171   1.854 -1.2231  1.5367  0.5329
 5304SOL     OW27370   3.223   1.514   6.726  0.7695 -0.2781 -0.6703
 5304SOL    HW127371   3.193   1.493   6.815  2.8496  1.2684  0.4003
 5304SOL    HW227372   3.233   1.609   6.734  1.9984 -0.5602  1.1936
 5305SOL     OW27373   1.109   0.864   0.976  0.5253 -0.2044 -0.3370
 5305SOL    HW127374   1.163   0.788   0.955 -1.2375 -1.8175  0.9083
 5305SOL    HW227375   1.140   0.894   1.062  0.9390 -0.9866 -0.2195
 5306SOL     OW27376   0.493   2.083  13.498 -0.5714 -0.3290  0.2384
 5306SOL    HW127377   0.497   2.004  13.551  1.3772 -0.6617 -0.3941
 5306SOL    HW227378   0.400   2.095  13.480 -0.7554  0.1697  1.4766
 5307SOL     OW27379   0.291   1.295  15.306 -0.1544 -0.0456  0.1964
 5307SOL    HW127380   0.199   1.321  15.306 -0.2756 -0.4759  0.8831
 5307SOL    HW227381   0.280   1.212  15.261  1.8016 -1.2336  1.8853
 5308SOL     OW27382   1.171   1.899   7.377  0.0326 -0.1377 -0.1674
 5308SOL    HW127383   1.216   1.960   7.436  0.7556 -0.0431 -0.8152
 5308SOL    HW227384   1.202   1.817   7.415  2.5349  1.4078  1.1911
 5309SOL     OW27385   3.411   0.748   6.344  0.0048 -0.4022 -0.2756
 5309SOL    HW127386   3.317   0.765   6.338  0.0503  0.3609  1.3846
 5309SOL    HW227387   3.451   0.807   6.281 -0.8005  1.5056  1.0230
 5310SOL     OW27388   0.316   1.246   1.494  0.4750 -0.0886 -0.3121
 5310SOL    HW127389   0.301   1.158   1.530  1.1445  0.2413  0.7713
 5310SOL    HW227390   0.378   1.285   1.556  0.4768  2.7768 -2.1194
 5311SOL     OW27391   1.792   2.319  13.045 -0.5426  0.7098 -0.1316
 5311SOL    HW127392   1.738   2.252  13.086  1.3705 -0.4999  0.3922
 5311SOL    HW227393   1.843   2.343  13.122  1.4873  0.8974 -1.5452
 5312SOL     OW27394   0.238   3.024   4.545 -0.1537  0.0078 -0.2214
 5312SOL    HW127395   0.152   3.066   4.548  0.1511  0.5974  0.2343
 5312SOL    HW227396   0.255   3.026   4.451  1.4267 -1.3074  0.0539
 5313SOL     OW27397   1.207   2.574   6.248  0.3142  0.5034  0.1858
 5313SOL    HW127398   1.209   2.657   6.295 -1.5705 -0.5832  2.1820
 5313SOL    HW227399   1.299   2.571   6.220  0.9574 -2.0645  2.5822
 5314SOL     OW27400   3.207   0.464  14.940  0.6718  0.2359 -0.1707
 5314SOL    HW127401   3.177   0.508  15.019  0.5077 -2.6544  1.3902
 5314SOL    HW227402   3.203   0.538  14.880 -0.6416 -0.4524 -0.9290
 5315SOL     OW27403   3.594   0.446   9.839 -0.3662  0.1092  0.2105
 5315SOL    HW127404   3.592   0.435   9.743  1.4649  1.3633  0.0316
 5315SOL    HW227405   3.505   0.471   9.863 -0.5030 -0.7521  0.6200
 5316SOL     OW27406   4.662   0.634   2.231 -0.2515 -0.0240  0.4835
 5316SOL    HW127407   0.033   0.632   2.221 -0.1378 -1.1177  1.8291
 5316SOL    HW227408   4.636   0.543   2.241  0.8375  0.0260  3.8970
 5317SOL     OW27409   2.093   2.802   8.467  0.9140  0.1032  0.4219
 5317SOL    HW127410   2.109   2.780   8.559  1.1620 -1.3494  0.0366
 5317SOL    HW227411   2.046   2.884   8.475 -0.4892 -0.7679  1.1837
 5318SOL     OW27412   4.579   2.131   1.453  0.0250  0.2245  0.1246
 5318SOL    HW127413   4.572   2.211   1.506 -1.1760 -0.9411  1.7512
 5318SOL    HW227414   4.664   2.147   1.414  0.6274 -3.0020  0.1810
 5319SOL     OW27415   3.666   1.914   9.014  0.4042  0.9258  0.5823
 5319SOL    HW127416   3.749   1.919   9.061  0.1394 -1.6781  1.3770
 5319SOL    HW227417   3.606   1.922   9.088  0.0693  0.6601  0.3412
 5320SOL     OW27418   2.236   2.304   6.627  0.3483  0.1429 -0.5548
 5320SOL    HW127419   2.225   2.212   6.651 -0.7099  0.4194  0.0812
 5320SOL    HW227420   2.184   2.347   6.696  2.1022  0.5923  0.4939
 5321SOL     OW27421   4.625   2.747   7.277 -0.0688  0.4088  0.7344
 5321SOL    HW127422   4.602   2.779   7.364 -0.5110  0.3446  0.6415
 5321SOL    HW227423   4.569   2.670   7.268  0.6833 -0.1434  0.7465
 5322SOL     OW27424   1.800   1.649  12.613  0.5686 -0.2572 -0.2329
 5322SOL    HW127425   1.816   1.554  12.618 -1.7225 -0.7594 -2.2431
 5322SOL    HW227426   1.883   1.693  12.631  0.0256  1.4710 -1.9168
 5323SOL     OW27427   2.938   2.119  10.606 -0.0481  0.6976  0.0866
 5323SOL    HW127428   2.934   2.215  10.597 -3.8128  0.4720 -0.5462
 5323SOL    HW227429   2.857   2.086  10.566 -0.2144  0.2939  0.7557
 5324SOL     OW27430   3.727   2.374   8.420  0.2395  0.0038 -0.4379
 5324SOL    HW127431   3.710   2.323   8.499 -1.2102  1.2086  0.0356
 5324SOL    HW227432   3.785   2.439   8.460 -1.3509  0.3701  1.2682
 5325SOL     OW27433   0.949   1.805   9.544 -0.0642  0.4678  0.1864
 5325SOL    HW127434   0.995   1.885   9.520  0.3746  0.6507  1.6206
 5325SOL    HW227435   0.860   1.832   9.523 -0.1956  0.1914  0.3879
 5326SOL     OW27436   2.586   1.087  11.896 -0.1103 -0.0505 -0.4728
 5326SOL    HW127437   2.561   1.092  11.803  0.9240 -1.6062 -0.8309
 5326SOL    HW227438   2.604   1.181  11.908  1.2870 -0.2556 -0.8360
 5327SOL     OW27439   1.473   0.538   6.497  0.3218 -0.3144 -0.0186
 5327SOL    HW127440   1.493   0.470   6.562  1.8986  1.5520  1.4280
 5327SOL    HW227441   1.557   0.579   6.476 -0.6469  1.4144 -0.5031
 5328SOL     OW27442   0.331   3.683   3.102 -0.0267 -0.3559 -0.4232
 5328SOL    HW127443   0.306   3.653   3.014  0.1808 -2.9170  0.3676
 5328SOL    HW227444   0.399   3.745   3.077  1.5605 -0.7826  2.8543
 5329SOL     OW27445   0.056   0.951  13.192  0.6347  0.4079 -0.3321
 5329SOL    HW127446   0.022   0.977  13.106 -1.9692 -0.9911  0.2741
 5329SOL    HW227447   0.092   0.865  13.171  0.9763  1.0869 -2.5019
 5330SOL     OW27448   1.602   2.959   2.797  0.0421 -0.1225 -0.1886
 5330SOL    HW127449   1.612   2.868   2.772 -0.2174 -0.5979  1.4271
 5330SOL    HW227450   1.650   3.000   2.725  1.2135 -1.1904 -0.0084
 5331SOL     OW27451   1.009   1.045   6.199 -0.1962  0.1874  0.4125
 5331SOL    HW127452   1.066   1.019   6.272 -0.7918 -1.0633  0.4250
 5331SOL    HW227453   0.923   1.056   6.239  0.0178 -1.5472  1.3508
 5332SOL     OW27454   1.752   4.048  10.908 -0.3668 -0.4842  0.4641
 5332SOL    HW127455   1.829   4.099  10.932 -0.0537 -0.0069 -1.5306
 5332SOL    HW227456   1.744   3.982  10.977 -0.7776  0.9405  1.7679
 5333SOL     OW27457   2.103   1.119   5.556  0.2682 -0.0931 -0.4856
 5333SOL    HW127458   2.020   1.084   5.587  0.1209 -0.6506 -1.4866
 5333SOL    HW227459   2.130   1.172   5.630  0.6795 -0.9825 -0.0057
 5334SOL     OW27460   3.172   3.682   1.595 -0.5020  0.0846  0.1721
 5334SOL    HW127461   3.254   3.705   1.552 -0.6505 -0.0672 -0.1875
 5334SOL    HW227462   3.104   3.726   1.543 -2.2478 -0.1905  2.2088
 5335SOL     OW27463   0.624   1.354   2.196  0.7305 -0.1448 -0.4778
 5335SOL    HW127464   0.540   1.308   2.204  0.1073  0.8793 -1.1379
 5335SOL    HW227465   0.589   1.435   2.232  0.5867  0.2185 -1.4249
 5336SOL     OW27466   4.610   4.375   2.306  0.2747 -0.3678  0.5431
 5336SOL    HW127467   4.562   4.443   2.354 -1.0442  0.0508 -1.3990
 5336SOL    HW227468   4.544   4.308   2.321 -0.6801  0.1437 -1.3763
 5337SOL     OW27469   2.964   2.923   4.802 -0.0997 -0.1440 -0.2843
 5337SOL    HW127470   2.960   3.012   4.765  1.9769 -0.1543 -0.5029
 5337SOL    HW227471   3.011   2.931   4.884 -0.1141 -0.0182 -0.2872
 5338SOL     OW27472   1.764   2.443   8.898  0.3480 -0.0723  0.1993
 5338SOL    HW127473   1.695   2.487   8.947 -0.6295 -0.5868 -0.7087
 5338SOL    HW227474   1.807   2.516   8.853 -3.4251  1.0063 -1.6962
 5339SOL     OW27475   4.324   3.968   2.311  0.0749 -0.2841 -0.0473
 5339SOL    HW127476   4.295   4.056   2.285 -0.0345 -1.3579 -3.5347
 5339SOL    HW227477   4.359   3.942   2.225 -1.3762  0.3950 -0.8525
 5340SOL     OW27478   2.448   1.348   2.807 -0.1085 -0.4501 -1.0308
 5340SOL    HW127479   2.492   1.299   2.737 -0.3610 -0.2076 -1.3562
 5340SOL    HW227480   2.525   1.397   2.835 -1.8078  1.5812  0.1055
 5341SOL     OW27481   0.715   1.777   4.570  0.6278 -0.1700 -0.0909
 5341SOL    HW127482   0.750   1.834   4.639 -0.3261 -0.3494  0.5391
 5341SOL    HW227483   0.658   1.719   4.620  3.0404 -1.4681  1.2076
 5342SOL     OW27484   4.032   3.826   7.037  0.2254 -0.0152  0.2082
 5342SOL    HW127485   3.989   3.767   7.098 -0.0250 -1.4060 -1.3074
 5342SOL    HW227486   4.006   3.912   7.070 -2.8882 -1.0377  0.4175
 5343SOL     OW27487   3.858   1.400   4.899 -0.1971 -0.0560  0.1427
 5343SOL    HW127488   3.937   1.350   4.880 -0.2479 -0.1582  0.1999
 5343SOL    HW227489   3.826   1.436   4.816 -0.9692 -0.8388  0.1040
 5344SOL     OW27490   1.533   1.032   8.018  0.3266  0.6525 -0.0222
 5344SOL    HW127491   1.458   0.976   8.036  0.0724  0.8577 -0.4396
 5344SOL    HW227492   1.591   1.008   8.090 -1.2953  0.0358  1.0493
 5345SOL     OW27493   1.149   3.544   9.922  0.4150  0.3369 -0.2317
 5345SOL    HW127494   1.166   3.469   9.980 -0.6949  0.0407 -0.2983
 5345SOL    HW227495   1.215   3.608   9.949 -0.6976  1.6465 -0.6013
 5346SOL     OW27496   0.132   0.972   2.103 -0.3094  0.3465 -0.4184
 5346SOL    HW127497   0.147   1.034   2.174  0.0891  0.4284 -0.5772
 5346SOL    HW227498   0.051   1.013   2.072 -1.2119 -2.8869 -2.3698
 5347SOL     OW27499   3.780   1.612   6.777  0.1220 -0.6272 -0.0422
 5347SOL    HW127500   3.869   1.624   6.809 -0.4359 -0.1555  1.3775
 5347SOL    HW227501   3.784   1.671   6.703  0.6519  0.3209  0.7412
 5348SOL     OW27502   2.683   2.041  10.850 -0.2824 -0.4012  0.1833
 5348SOL    HW127503   2.703   1.969  10.909 -1.0299  0.2973  1.2845
 5348SOL    HW227504   2.724   2.009  10.770 -2.2938 -1.2552 -0.4954
 5349SOL     OW27505   1.172   1.514   3.991 -0.1607  0.2515 -0.3977
 5349SOL    HW127506   1.258   1.516   3.949 -0.4734 -1.6362 -1.1470
 5349SOL    HW227507   1.201   1.514   4.082 -1.2622 -1.2789 -0.0436
 5350SOL     OW27508   3.578   2.483   9.810 -0.4692  0.9558 -0.2105
 5350SOL    HW127509   3.567   2.563   9.863  0.9813 -0.1577  1.7818
 5350SOL    HW227510   3.673   2.469   9.809 -0.8072 -1.3274  0.2221
 5351SOL     OW27511   2.251   1.222  17.428  0.2283  0.1920  0.1789
 5351SOL    HW127512   2.259   1.183  17.516 -0.9619 -1.6273 -0.5257
 5351SOL    HW227513   2.217   1.309  17.448 -0.7002 -0.0707 -0.2668
 5352SOL     OW27514   3.966   1.614   2.480 -0.4892 -0.2612 -0.1515
 5352SOL    HW127515   3.917   1.533   2.493 -1.2721  0.5023  1.6590
 5352SOL    HW227516   4.053   1.581   2.461  0.4893  0.7856  2.6037
 5353SOL     OW27517   1.712   4.067   3.273 -0.5675 -0.1754  0.1564
 5353SOL    HW127518   1.707   4.123   3.351 -1.7895  1.4217 -1.0576
 5353SOL    HW227519   1.629   4.090   3.232 -0.4223 -0.6993 -0.4223
 5354SOL     OW27520   0.267   1.859   5.996 -0.8864 -0.3084  0.1451
 5354SOL    HW127521   0.304   1.914   5.928 -0.3029 -1.2978 -0.3264
 5354SOL    HW227522   0.293   1.911   6.073 -0.7028 -0.9983  0.5495
 5355SOL     OW27523   1.885   0.127   3.739 -0.4668 -0.2182 -1.0163
 5355SOL    HW127524   1.875   0.104   3.832  1.3176  0.3123 -0.7052
 5355SOL    HW227525   1.854   0.218   3.742  1.2812  0.3249  0.1912
 5356SOL     OW27526   0.390   1.560  10.890  0.6147  0.1174 -0.1342
 5356SOL    HW127527   0.427   1.501  10.956 -0.1593  0.2671  0.4305
 5356SOL    HW227528   0.465   1.569  10.831 -0.1115 -1.7581 -1.3429
 5357SOL     OW27529   0.115   1.040   2.961  0.1865  0.0199 -0.3070
 5357SOL    HW127530   0.120   1.069   3.053 -0.4843  0.7550 -0.5007
 5357SOL    HW227531   0.137   0.947   2.965  2.5576  0.6433  0.9030
 5358SOL     OW27532   2.758   4.483  16.743 -0.5508  0.3602  0.1526
 5358SOL    HW127533   2.819   4.486  16.669 -1.2919 -0.2374 -0.4721
 5358SOL    HW227534   2.740   4.390  16.755  0.7886  0.1361  0.4369
 5359SOL     OW27535   4.087   1.670   3.014  0.7489 -0.0746 -0.2210
 5359SOL    HW127536   4.103   1.618   2.935  2.2548 -1.8587  1.2394
 5359SOL    HW227537   3.992   1.673   3.019  0.9131  1.8042  2.0147
 5360SOL     OW27538   0.933   2.623  13.344 -0.0803  0.3184 -0.2284
 5360SOL    HW127539   0.856   2.570  13.365  0.3020  0.3601  1.3118
 5360SOL    HW227540   1.001   2.564  13.377 -0.7637 -0.8796 -0.9876
 5361SOL     OW27541   4.277   1.894   1.353  0.6124 -0.7425  0.0097
 5361SOL    HW127542   4.366   1.864   1.337 -0.0526 -2.2393 -0.9308
 5361SOL    HW227543   4.235   1.887   1.267 -1.7187 -0.5414  1.1382
 5362SOL     OW27544   3.318   2.588  16.271 -0.4669 -0.0882  0.0622
 5362SOL    HW127545   3.332   2.614  16.363  0.4633  1.1482 -0.4252
 5362SOL    HW227546   3.235   2.633  16.255  0.8283  2.3885  0.2889
 5363SOL     OW27547   0.083   2.638   5.831 -0.6002  0.8001 -0.1463
 5363SOL    HW127548   0.039   2.685   5.901 -4.0986 -1.4746 -0.7946
 5363SOL    HW227549   0.073   2.700   5.759  0.6299 -0.0302 -1.0344
 5364SOL     OW27550   2.118   1.473   3.757 -0.3405 -0.4470 -0.1806
 5364SOL    HW127551   2.143   1.565   3.742  0.0949 -0.5670 -0.1949
 5364SOL    HW227552   2.025   1.483   3.776 -0.4801 -1.0530 -0.5558
 5365SOL     OW27553   2.936   2.881  15.309  0.4316  0.1737 -0.1664
 5365SOL    HW127554   2.866   2.858  15.248  0.1863 -2.1435  0.9867
 5365SOL    HW227555   2.974   2.952  15.258  0.6737 -0.4206 -0.8191
 5366SOL     OW27556   3.147   2.224   9.815 -0.0765 -0.5416  0.2521
 5366SOL    HW127557   3.060   2.262   9.829  0.4344  1.3582 -1.7258
 5366SOL    HW227558   3.200   2.292   9.856  0.7205 -0.8681 -0.2350
 5367SOL     OW27559   4.285   2.275  10.098  0.7305  0.0787  0.3028
 5367SOL    HW127560   4.329   2.190  10.092 -0.8889 -0.8851  1.8247
 5367SOL    HW227561   4.349   2.343  10.082 -0.0441  1.0023  1.1305
 5368SOL     OW27562   1.280   4.088   4.569  0.0979  0.4175 -0.2011
 5368SOL    HW127563   1.194   4.094   4.610 -0.3795  0.2890 -1.1792
 5368SOL    HW227564   1.331   4.088   4.649  1.7018  1.4681 -1.2262
 5369SOL     OW27565   0.136   0.717   0.913 -0.1927 -0.4529  0.3226
 5369SOL    HW127566   0.218   0.670   0.923 -0.4313 -1.1964 -1.2359
 5369SOL    HW227567   0.076   0.650   0.946 -3.4260  0.5981 -3.3156
 5370SOL     OW27568   0.197   2.926   6.332 -0.6746  0.1686  0.8518
 5370SOL    HW127569   0.197   2.947   6.239  0.9601  2.3830  1.3551
 5370SOL    HW227570   0.115   2.877   6.337 -1.6933  1.6668 -1.1168
 5371SOL     OW27571   4.226   0.859   3.208 -0.7741  0.0239 -0.5948
 5371SOL    HW127572   4.249   0.776   3.166 -0.5373 -0.1128 -0.1924
 5371SOL    HW227573   4.201   0.914   3.133  0.6201  2.1674  0.4999
 5372SOL     OW27574   3.803   3.100   6.505 -0.2358 -0.1308 -0.2307
 5372SOL    HW127575   3.853   3.132   6.581  2.6267 -0.7706 -1.8539
 5372SOL    HW227576   3.867   3.062   6.445 -0.2953  1.4890 -1.3169
 5373SOL     OW27577   0.145   4.478   7.260  0.3455  0.5368  0.1360
 5373SOL    HW127578   0.122   4.486   7.352  0.6399  0.0665  0.2503
 5373SOL    HW227579   0.124   4.387   7.243  0.4193  0.3953  0.8100
 5374SOL     OW27580   2.059   1.885   6.068 -0.0444 -0.0031 -0.7245
 5374SOL    HW127581   2.153   1.902   6.080  0.0714 -1.1603  0.0184
 5374SOL    HW227582   2.032   1.973   6.044 -0.5669  0.0685  0.1249
 5375SOL     OW27583   1.294   4.448   6.350 -0.0415  0.4658  0.2637
 5375SOL    HW127584   1.260   4.445   6.261  0.7502  0.3612 -0.0389
 5375SOL    HW227585   1.378   4.408   6.327 -0.1524  0.0731  0.5258
 5376SOL     OW27586   0.611   1.365  15.446  0.6102  0.5550 -0.3643
 5376SOL    HW127587   0.609   1.282  15.399 -1.5832 -0.7038  1.9671
 5376SOL    HW227588   0.520   1.387  15.464 -0.3020 -1.5223 -2.5465
 5377SOL     OW27589   1.545   4.530   8.265  0.5029 -0.4816 -0.5482
 5377SOL    HW127590   1.589   4.446   8.275  3.0810  1.1668  1.8620
 5377SOL    HW227591   1.614   4.575   8.218  0.7586 -0.3739 -0.0681
 5378SOL     OW27592   0.789   0.688  17.618 -0.0380 -0.1558  0.0019
 5378SOL    HW127593   0.831   0.773  17.608  0.5007 -0.0079  3.5997
 5378SOL    HW227594   0.701   0.716  17.643  0.2455  0.1002  0.7118
 5379SOL     OW27595   2.271   4.405   4.470  0.2102 -0.3137  0.4004
 5379SOL    HW127596   2.314   4.361   4.544 -1.6788 -0.4499  1.4133
 5379SOL    HW227597   2.183   4.369   4.482  0.7543 -1.0018  2.4308
 5380SOL     OW27598   2.693   3.360   8.953  0.0123 -0.3051  0.1026
 5380SOL    HW127599   2.770   3.396   8.998 -0.0534 -2.0848  1.6524
 5380SOL    HW227600   2.624   3.422   8.978  0.3301  0.5313 -1.0960
 5381SOL     OW27601   3.238   2.375   7.578  0.3267  0.4506 -0.2954
 5381SOL    HW127602   3.323   2.417   7.590 -0.3515  1.5579  0.6124
 5381SOL    HW227603   3.206   2.427   7.504  3.3779  0.6531 -1.4779
 5382SOL     OW27604   2.475   2.891  15.374  0.4087  0.2769  0.0984
 5382SOL    HW127605   2.401   2.831  15.364 -0.2141  0.9792  0.3657
 5382SOL    HW227606   2.507   2.896  15.285  1.3561 -0.2199  0.4192
 5383SOL     OW27607   1.564   4.062   4.108  0.5908  0.5537  0.4427
 5383SOL    HW127608   1.540   4.079   4.199  1.1072  0.8123  0.5309
 5383SOL    HW227609   1.538   3.971   4.093  0.7503  1.5724 -6.2258
 5384SOL     OW27610   3.230   0.210   4.599  0.0785  0.4468 -0.4973
 5384SOL    HW127611   3.287   0.154   4.652 -1.1630 -0.7825 -0.4538
 5384SOL    HW227612   3.220   0.281   4.663  0.3884  0.2649 -0.2443
 5385SOL     OW27613   2.580   3.760  10.258 -0.6535  0.2300 -0.3369
 5385SOL    HW127614   2.521   3.821  10.302 -0.0546  1.0197 -0.6097
 5385SOL    HW227615   2.571   3.689  10.321  0.5913 -1.4670 -2.0761
 5386SOL     OW27616   3.286   2.552   0.237  0.1472  0.2502  0.5642
 5386SOL    HW127617   3.232   2.625   0.266 -0.3792  0.0125  0.1971
 5386SOL    HW227618   3.329   2.594   0.163 -2.2850  2.7613  0.5956
 5387SOL     OW27619   2.810   4.090   4.153  0.2147  0.0009  0.2710
 5387SOL    HW127620   2.904   4.107   4.156  0.4722 -1.7501  2.0712
 5387SOL    HW227621   2.810   3.998   4.127  3.2898 -0.8044  3.1424
 5388SOL     OW27622   4.516   0.487  11.147  0.1264 -0.1985  0.0349
 5388SOL    HW127623   4.426   0.507  11.120 -0.2968 -3.1759 -0.7565
 5388SOL    HW227624   4.557   0.572  11.130  0.6837 -0.2266  1.3052
 5389SOL     OW27625   0.055   0.628   8.426  0.1207 -0.4872  0.5449
 5389SOL    HW127626   0.095   0.670   8.503 -1.2668  2.1160 -0.1550
 5389SOL    HW227627   4.691   0.665   8.427  0.2310 -0.2284  1.5839
 5390SOL     OW27628   3.781   4.204   5.751  0.0678  0.2749  0.1686
 5390SOL    HW127629   3.707   4.224   5.809 -0.3833 -2.3059  0.4804
 5390SOL    HW227630   3.825   4.289   5.747 -1.4232  1.0513  0.0859
 5391SOL     OW27631   3.110   0.397  16.404 -0.4633  0.1815  0.2820
 5391SOL    HW127632   3.128   0.484  16.367 -1.5805  0.6931  0.9565
 5391SOL    HW227633   3.056   0.351  16.340  0.0771 -0.8939  0.6087
 5392SOL     OW27634   3.351   4.067  15.829  0.1687 -0.5134  0.0647
 5392SOL    HW127635   3.389   4.073  15.741  1.0498  1.0722  0.5517
 5392SOL    HW227636   3.409   4.131  15.871 -0.0850 -0.5397  0.4493
 5393SOL     OW27637   2.372   3.101   2.750  0.4232 -0.2620  0.1461
 5393SOL    HW127638   2.345   3.055   2.829  2.3481  0.0939  0.9828
 5393SOL    HW227639   2.457   3.065   2.724  0.0157 -0.8633 -0.3822
 5394SOL     OW27640   1.746   0.029   4.345 -0.0004  0.4553  0.5274
 5394SOL    HW127641   1.790   4.707   4.273 -0.6918 -0.9166  0.9933
 5394SOL    HW227642   1.817   0.050   4.406  0.5841 -1.8111  0.6003
 5395SOL     OW27643   3.286   3.940   5.410 -0.5609  0.2184 -0.5489
 5395SOL    HW127644   3.309   3.894   5.330  3.3608 -0.6258  1.0456
 5395SOL    HW227645   3.366   3.931   5.462 -0.3077  3.0294 -0.4449
 5396SOL     OW27646   1.809   0.287  13.519 -0.5180 -0.0158  0.1220
 5396SOL    HW127647   1.902   0.305  13.532 -0.4409 -1.8440  2.0992
 5396SOL    HW227648   1.825   0.223  13.450 -1.4325  0.2796 -0.3578
 5397SOL     OW27649   2.393   2.544   2.104  0.0281 -0.2869  0.3037
 5397SOL    HW127650   2.431   2.470   2.056 -2.8397 -0.6456 -1.4519
 5397SOL    HW227651   2.410   2.520   2.195 -1.8740  0.0435  0.7499
 5398SOL     OW27652   2.799   2.602  14.858  0.2430 -0.2666 -0.3368
 5398SOL    HW127653   2.850   2.601  14.776 -0.0371 -3.2479 -0.5002
 5398SOL    HW227654   2.811   2.512  14.889 -2.6730 -0.3420  0.5747
 5399SOL     OW27655   2.826   3.600   7.904  0.1427  0.5997  0.3582
 5399SOL    HW127656   2.897   3.641   7.953  0.0659  1.9829 -0.6857
 5399SOL    HW227657   2.756   3.618   7.966 -0.0126  0.6504  0.1674
 5400SOL     OW27658   3.496   2.482   7.581 -1.2301  0.2758 -0.2622
 5400SOL    HW127659   3.550   2.546   7.627  1.0547 -1.5465 -0.3986
 5400SOL    HW227660   3.549   2.405   7.558  0.0750  1.4283 -1.1292
 5401SOL     OW27661   1.193   2.860  16.624 -0.2534  0.9009 -0.1388
 5401SOL    HW127662   1.249   2.925  16.581 -4.0992  1.8467 -3.6748
 5401SOL    HW227663   1.259   2.820  16.682  0.9654  1.4717 -1.1361
 5402SOL     OW27664   3.080   4.261  11.173 -0.3221 -0.6113 -0.0724
 5402SOL    HW127665   3.137   4.235  11.101 -0.7784 -0.3815 -0.5193
 5402SOL    HW227666   3.046   4.342  11.136  1.9582  0.4530  0.2082
 5403SOL     OW27667   3.789   3.616   3.835  0.0232  0.0599  0.3439
 5403SOL    HW127668   3.806   3.543   3.894  1.4439  0.3981  0.3490
 5403SOL    HW227669   3.880   3.643   3.821 -0.0082  1.7509  3.3332
 5404SOL     OW27670   3.783   0.263   4.214  0.1712 -0.0589 -0.0889
 5404SOL    HW127671   3.809   0.276   4.305  0.0603  1.5028 -0.2960
 5404SOL    HW227672   3.774   0.168   4.202 -2.1727  0.0391  0.8526
 5405SOL     OW27673   1.949   2.636   2.293  0.4881  0.2441 -0.2330
 5405SOL    HW127674   2.004   2.597   2.225  2.0251  0.7164  0.7185
 5405SOL    HW227675   1.939   2.720   2.247  0.8465  1.9781  2.7809
 5406SOL     OW27676   0.931   1.609  13.285  0.3183 -0.2519 -0.0945
 5406SOL    HW127677   1.020   1.629  13.315  0.1929  1.3297 -0.8243
 5406SOL    HW227678   0.955   1.538  13.225 -0.9075  0.2062 -1.1126
 5407SOL     OW27679   3.812   3.069   8.493 -0.5750  0.5616 -0.0621
 5407SOL    HW127680   3.834   3.153   8.531 -0.2462  0.7286 -0.6143
 5407SOL    HW227681   3.734   3.050   8.545 -0.2662  2.8975  1.2301
 5408SOL     OW27682   4.428   4.408   1.346 -0.0810  0.1828 -0.3977
 5408SOL    HW127683   4.343   4.369   1.367  0.4448  0.3103  1.9018
 5408SOL    HW227684   4.445   4.472   1.415 -0.1077 -1.1580  0.8563
 5409SOL     OW27685   4.284   0.660   7.207 -0.1245  0.2479 -0.3680
 5409SOL    HW127686   4.337   0.597   7.158 -1.4137 -1.4275  0.4180
 5409SOL    HW227687   4.211   0.670   7.147 -1.8082 -0.0270  1.6354
 5410SOL     OW27688   4.197   2.808  16.551  0.0277 -0.3871  0.1555
 5410SOL    HW127689   4.194   2.774  16.462 -1.3915 -0.7673  0.3589
 5410SOL    HW227690   4.282   2.852  16.551 -0.2001  0.0513  0.7954
 5411SOL     OW27691   3.876   0.323   4.468  0.1585 -0.0014  0.7213
 5411SOL    HW127692   3.939   0.305   4.538  0.1413 -0.3598  0.6398
 5411SOL    HW227693   3.858   0.414   4.492 -0.0880 -0.0823  0.8422
 5412SOL     OW27694   0.080   2.534   2.493 -0.3144 -0.0839  0.4896
 5412SOL    HW127695   0.131   2.453   2.488  0.2378  0.3515 -0.8980
 5412SOL    HW227696   0.139   2.582   2.550 -0.0051 -0.4388  0.4679
 5413SOL     OW27697   2.314   0.114   8.754 -0.2917 -0.0743  0.1360
 5413SOL    HW127698   2.219   0.106   8.748 -0.1014  0.1835 -3.1892
 5413SOL    HW227699   2.334   0.194   8.804 -1.5019  3.2165 -4.6589
 5414SOL     OW27700   2.020   4.301   4.494  0.2840 -0.2537 -0.1409
 5414SOL    HW127701   2.048   4.210   4.492  1.5486  0.1197  1.0704
 5414SOL    HW227702   1.965   4.303   4.415 -1.1965  0.9410  0.9058
 5415SOL     OW27703   2.373   3.685   6.842 -0.2454  0.3547 -0.0431
 5415SOL    HW127704   2.416   3.663   6.925  0.1252 -0.7577 -0.5208
 5415SOL    HW227705   2.440   3.651   6.782 -0.8564  1.1275 -1.1650
 5416SOL     OW27706   1.808   2.407   8.484  0.4714 -0.3323  0.1069
 5416SOL    HW127707   1.864   2.331   8.468  1.3732  0.4711 -0.5832
 5416SOL    HW227708   1.767   2.410   8.398  1.4774  1.0564 -0.3285
 5417SOL     OW27709   2.763   3.171  10.717 -0.2647 -0.8795 -0.5350
 5417SOL    HW127710   2.721   3.098  10.672 -0.0088 -0.8981 -0.7423
 5417SOL    HW227711   2.765   3.240  10.651 -3.1821 -1.2740 -1.0192
 5418SOL     OW27712   1.674   0.981   6.850  0.6581 -0.1207 -0.2444
 5418SOL    HW127713   1.639   0.913   6.793  0.0160 -0.2934  0.3532
 5418SOL    HW227714   1.591   1.010   6.887  2.2343  2.2546  1.4161
 5419SOL     OW27715   3.903   2.699   3.651 -0.2013  0.0917 -0.0005
 5419SOL    HW127716   3.866   2.748   3.724 -0.6118  0.4775 -0.4630
 5419SOL    HW227717   3.890   2.608   3.677  1.6329 -0.8747 -2.4428
 5420SOL     OW27718   0.818   2.994   8.513  0.3249  0.2126 -0.0881
 5420SOL    HW127719   0.790   2.951   8.594  2.1174 -0.7145  0.0199
 5420SOL    HW227720   0.913   2.992   8.525  0.4609 -0.2414 -1.2387
 5421SOL     OW27721   4.552   4.097   1.747 -0.5739  0.3062 -0.4542
 5421SOL    HW127722   4.626   4.126   1.800  0.4405 -0.5277 -1.4014
 5421SOL    HW227723   4.602   4.040   1.689  0.0118 -1.3363  1.6318
 5422SOL     OW27724   0.300   4.574   5.118  0.8462 -0.0464  0.2363
 5422SOL    HW127725   0.385   4.550   5.081  0.0568 -1.2676 -0.7888
 5422SOL    HW227726   0.314   4.664   5.146 -0.9170  1.0240 -2.2602
 5423SOL     OW27727   4.165   2.526   7.824 -0.1299  0.3479  0.4274
 5423SOL    HW127728   4.131   2.438   7.810 -1.2658  1.2588 -2.4604
 5423SOL    HW227729   4.103   2.584   7.780 -1.1086 -2.1569 -1.4833
 5424SOL     OW27730   3.827   2.023   7.788 -0.2327 -0.0340  0.3555
 5424SOL    HW127731   3.799   2.087   7.853 -0.7764  0.2252 -0.1366
 5424SOL    HW227732   3.918   2.017   7.819 -0.6155 -0.7804  1.3569
 5425SOL     OW27733   2.761   0.242  14.954 -0.3897  0.7044  0.3253
 5425SOL    HW127734   2.736   0.316  15.011 -1.1472 -1.4574  2.8024
 5425SOL    HW227735   2.793   0.290  14.878 -1.8382  0.9381 -0.1333
 5426SOL     OW27736   4.154   2.951   5.903 -0.1914 -0.0125  0.1031
 5426SOL    HW127737   4.134   2.859   5.892  0.3855 -0.1218 -0.0476
 5426SOL    HW227738   4.068   2.992   5.898 -0.4648 -0.7106 -0.8004
 5427SOL     OW27739   3.611   0.815   9.352  0.4190  0.2725 -0.5755
 5427SOL    HW127740   3.663   0.753   9.301  1.4305 -0.2145  1.0258
 5427SOL    HW227741   3.524   0.776   9.348  0.3948  0.2411  0.2036
 5428SOL     OW27742   3.351   2.428  12.606  0.0590 -0.4091  0.4240
 5428SOL    HW127743   3.288   2.433  12.678 -1.9600 -1.3220 -1.3094
 5428SOL    HW227744   3.311   2.466  12.528  0.0758 -1.6526 -0.1794
 5429SOL     OW27745   3.495   4.575   8.992  0.0749 -0.2195  0.3260
 5429SOL    HW127746   3.441   4.647   8.958  0.2254  0.0755  0.7017
 5429SOL    HW227747   3.553   4.556   8.919 -1.1464 -0.2215 -0.6407
 5430SOL     OW27748   1.885   1.393  14.080  0.4350 -0.2842 -0.2327
 5430SOL    HW127749   1.860   1.458  14.146  1.4852 -1.1242  0.9869
 5430SOL    HW227750   1.798   1.353  14.072 -1.7461  3.9676  2.3043
 5431SOL     OW27751   1.836   4.407   3.188  0.1432  0.1710 -0.2979
 5431SOL    HW127752   1.864   4.346   3.119 -1.3659  0.2836 -1.0253
 5431SOL    HW227753   1.772   4.458   3.138 -1.4680 -1.0616  0.4950
 5432SOL     OW27754   1.357   2.105  17.301 -0.2195 -0.4962  0.1282
 5432SOL    HW127755   1.420   2.115  17.373  1.3769  0.6643 -1.4289
 5432SOL    HW227756   1.354   2.011  17.288 -0.2926 -0.6159  1.0172
 5433SOL     OW27757   3.553   1.039   1.128  0.5605 -0.0597  0.6029
 5433SOL    HW127758   3.538   0.957   1.081  0.2835 -0.4354  1.3563
 5433SOL    HW227759   3.527   1.100   1.059 -0.0122 -0.7689  0.1938
 5434SOL     OW27760   3.269   2.961  16.810 -0.1088  0.1167 -0.1480
 5434SOL    HW127761   3.334   2.990  16.875 -0.6657  1.2231 -0.0880
 5434SOL    HW227762   3.281   3.020  16.736 -0.8505 -1.7398 -1.7603
 5435SOL     OW27763   0.319   4.181   8.846 -0.3230  0.4011 -0.4556
 5435SOL    HW127764   0.345   4.181   8.755 -2.2360 -1.6959 -1.0155
 5435SOL    HW227765   0.272   4.098   8.844  1.3052 -0.4980 -0.8388
 5436SOL     OW27766   3.635   1.213   6.485  0.1242  0.1001  0.1864
 5436SOL    HW127767   3.604   1.269   6.556 -0.0425 -1.4242  1.3054
 5436SOL    HW227768   3.700   1.271   6.445 -0.8410  0.6521 -0.5857
 5437SOL     OW27769   0.496   4.666  13.451  0.5229 -0.2526 -0.2777
 5437SOL    HW127770   0.416   4.617  13.431  1.1758 -0.6024 -1.9871
 5437SOL    HW227771   0.468   0.011  13.511  0.1192  0.6142 -1.4621
 5438SOL     OW27772   2.117   2.327   9.226  0.7755 -0.2124  0.3263
 5438SOL    HW127773   2.147   2.406   9.181  1.3980 -0.1791  0.8145
 5438SOL    HW227774   2.093   2.353   9.315 -0.5440 -1.6510  0.4063
 5439SOL     OW27775   1.903   2.345   2.029 -0.2412 -0.0014  0.4590
 5439SOL    HW127776   1.975   2.409   2.032 -1.0177  0.9597 -1.9245
 5439SOL    HW227777   1.898   2.332   1.935 -0.1199 -1.5880  0.6709
 5440SOL     OW27778   1.169   2.003   2.253  0.1478 -0.0668  0.3961
 5440SOL    HW127779   1.251   2.007   2.203 -0.7376 -0.9444 -1.1117
 5440SOL    HW227780   1.106   1.989   2.183  0.4114  1.4880 -0.1639
 5441SOL     OW27781   0.251   2.224  17.421  0.4083  0.1380  0.0004
 5441SOL    HW127782   0.181   2.250  17.481  0.6356  1.6564 -0.4100
 5441SOL    HW227783   0.336   2.234  17.464 -0.6599 -0.0414  2.1635
 5442SOL     OW27784   4.720   3.051   3.813 -0.2893  0.5152 -0.1085
 5442SOL    HW127785   0.044   3.130   3.834 -0.2998  0.4195  0.2808
 5442SOL    HW227786   4.652   3.062   3.880 -0.4942 -2.2292  0.1386
 5443SOL     OW27787   3.687   2.891   9.187 -0.4384  0.0512  0.4973
 5443SOL    HW127788   3.715   2.933   9.106 -0.5649 -0.8946 -0.0376
 5443SOL    HW227789   3.704   2.961   9.249  0.6623  0.4597 -0.2735
 5444SOL     OW27790   0.357   4.304  13.357  0.1797 -0.3330  0.2732
 5444SOL    HW127791   0.429   4.241  13.356 -0.2282 -0.8525  2.6356
 5444SOL    HW227792   0.408   4.375  13.320  1.9849 -1.7543  0.0121
 5445SOL     OW27793   4.475   4.230   5.860  0.3447 -0.8898 -0.0842
 5445SOL    HW127794   4.472   4.154   5.919 -1.6074 -1.4392 -0.8864
 5445SOL    HW227795   4.440   4.196   5.778 -0.3349 -0.4870  0.0339
 5446SOL     OW27796   1.797   4.536   2.728  0.8001  0.6730 -0.5583
 5446SOL    HW127797   1.709   4.547   2.763  1.5977 -0.6028  1.8061
 5446SOL    HW227798   1.789   4.441   2.713 -2.7491  0.8785  0.1178
 5447SOL     OW27799   0.630   2.092   7.690  0.2412 -0.2609  0.5393
 5447SOL    HW127800   0.581   2.105   7.609  1.4330 -0.1089 -0.1568
 5447SOL    HW227801   0.691   2.022   7.667 -0.3736 -0.5794 -0.1219
 5448SOL     OW27802   4.226   4.538   3.301  0.0540 -1.0420 -0.0797
 5448SOL    HW127803   4.252   4.576   3.217  1.0292  0.7681  1.0507
 5448SOL    HW227804   4.150   4.593   3.317 -0.6384 -3.1039  3.5639
 5449SOL     OW27805   3.499   1.230   8.275 -0.0680 -0.2192 -0.3152
 5449SOL    HW127806   3.510   1.183   8.193 -0.1324 -1.2493  0.2656
 5449SOL    HW227807   3.405   1.227   8.289 -0.3923  0.2755 -2.4692
 5450SOL     OW27808   3.923   2.213  12.919 -0.2248 -0.2380 -0.0883
 5450SOL    HW127809   4.007   2.250  12.891 -1.2067  0.0234 -2.7552
 5450SOL    HW227810   3.891   2.234  12.831  1.2605  0.8681 -0.3552
 5451SOL     OW27811   0.104   4.382   1.802  0.0053  0.7980  0.1096
 5451SOL    HW127812   0.031   4.370   1.863 -0.3118  1.2769 -0.1703
 5451SOL    HW227813   0.167   4.407   1.869 -1.1479  0.6193  1.2421
 5452SOL     OW27814   3.135   2.463   2.411  0.3990  0.5327  0.1798
 5452SOL    HW127815   3.168   2.375   2.427 -1.1068 -0.1092 -0.2345
 5452SOL    HW227816   3.048   2.459   2.450 -0.4422  3.0388 -1.3807
 5453SOL     OW27817   0.992   4.071  14.384  0.0324  0.2641 -0.2428
 5453SOL    HW127818   0.949   3.994  14.421  1.8224 -0.9019 -0.5552
 5453SOL    HW227819   1.083   4.054  14.409  0.3562 -0.0623 -1.6201
 5454SOL     OW27820   2.704   4.319   8.192  0.5486  0.0528  0.3814
 5454SOL    HW127821   2.660   4.361   8.118  0.4980 -1.3499 -0.3860
 5454SOL    HW227822   2.741   4.242   8.148 -2.1072 -1.8820  1.4973
 5455SOL     OW27823   0.234   1.629   2.633 -0.3643  0.0346 -0.0572
 5455SOL    HW127824   0.265   1.714   2.665  0.2535 -0.4075  0.5329
 5455SOL    HW227825   0.184   1.593   2.706  0.4015 -1.2484 -0.1642
 5456SOL     OW27826   4.302   0.932  17.595 -0.1269 -0.4360  0.5460
 5456SOL    HW127827   4.307   0.950  17.502 -0.0123  2.3378  1.0941
 5456SOL    HW227828   4.389   0.948  17.631 -0.3249 -2.1819  1.8122
 5457SOL     OW27829   0.685   3.727   5.501 -0.0241 -0.0382  0.2452
 5457SOL    HW127830   0.685   3.632   5.489 -1.7260  0.0524 -0.5358
 5457SOL    HW227831   0.694   3.755   5.410 -1.2640  1.5337  0.6066
 5458SOL     OW27832   0.039   1.111   7.340 -0.6311 -0.0590  0.9895
 5458SOL    HW127833   0.066   1.024   7.370  0.7346  0.3046  0.8416
 5458SOL    HW227834   0.130   1.138   7.325 -0.9614 -0.6832 -2.0559
 5459SOL     OW27835   3.622   3.436   4.560 -0.1909  0.1196 -0.2455
 5459SOL    HW127836   3.645   3.514   4.610 -0.7738  0.9184 -1.2248
 5459SOL    HW227837   3.699   3.381   4.568 -0.5140 -0.0748  1.7016
 5460SOL     OW27838   0.822   3.547   2.500 -0.7945 -0.2149 -0.1180
 5460SOL    HW127839   0.820   3.575   2.591 -0.1964 -1.2539  0.2236
 5460SOL    HW227840   0.755   3.600   2.458 -0.6093 -1.1592 -1.6356
 5461SOL     OW27841   1.080   4.048   9.229  0.3644  0.0599 -0.1259
 5461SOL    HW127842   1.152   4.061   9.166 -0.9608  0.1791 -1.6059
 5461SOL    HW227843   1.003   4.077   9.180 -0.6586 -3.3235 -0.5348
 5462SOL     OW27844   1.735   3.057   7.989 -0.6235 -0.5341  0.1000
 5462SOL    HW127845   1.821   3.014   7.986 -0.2284  0.2637 -0.2134
 5462SOL    HW227846   1.679   2.993   7.945  0.0136 -0.8058 -0.3209
 5463SOL     OW27847   2.298   2.155   4.810  0.3562  0.5237  0.3506
 5463SOL    HW127848   2.391   2.142   4.825  0.4617  0.4455 -0.3820
 5463SOL    HW227849   2.293   2.155   4.714  0.4825 -0.4121  0.3447
 5464SOL     OW27850   4.444   2.408   4.707 -0.3334  0.3068 -1.2565
 5464SOL    HW127851   4.490   2.344   4.653  2.7857  1.0102  0.5762
 5464SOL    HW227852   4.512   2.475   4.710  0.4575 -0.5948  0.6681
 5465SOL     OW27853   3.839   2.355   4.469 -0.3123 -0.4401 -0.1855
 5465SOL    HW127854   3.898   2.322   4.537 -0.0262 -0.1615 -0.2970
 5465SOL    HW227855   3.771   2.403   4.516  0.3224 -1.0042  1.3119
 5466SOL     OW27856   3.432   0.916   6.114 -0.3497 -0.2095 -0.3790
 5466SOL    HW127857   3.346   0.921   6.073 -0.3071  1.0707 -0.3018
 5466SOL    HW227858   3.460   1.008   6.114  0.3823 -0.4136  1.5203
 5467SOL     OW27859   4.103   4.558   9.247  0.5561  0.1924 -0.3513
 5467SOL    HW127860   4.019   4.572   9.202  0.5474 -0.1025 -0.4310
 5467SOL    HW227861   4.086   4.474   9.290  0.6690  0.8313  0.9324
 5468SOL     OW27862   0.569   3.978   4.207 -0.3566  0.0235  0.3237
 5468SOL    HW127863   0.477   3.993   4.185 -0.7519 -1.5602  0.8925
 5468SOL    HW227864   0.606   4.063   4.231 -4.4497  1.1429  2.6749
 5469SOL     OW27865   1.680   2.823   2.141 -0.1432 -0.1986  0.0663
 5469SOL    HW127866   1.655   2.894   2.082 -0.9346 -1.2542 -0.8520
 5469SOL    HW227867   1.773   2.806   2.128 -0.3925  0.5679 -2.6949
 5470SOL     OW27868   3.217   3.788  11.611  0.7793  0.3879  0.1539
 5470SOL    HW127869   3.180   3.713  11.657  0.1530 -0.6550 -2.0803
 5470SOL    HW227870   3.148   3.854  11.598 -0.7311 -0.5743  3.2895
 5471SOL     OW27871   2.497   1.850   5.082  0.1904  0.5281  0.0110
 5471SOL    HW127872   2.478   1.802   5.002 -2.5816  1.0781  0.3557
 5471SOL    HW227873   2.574   1.903   5.061  0.8079  0.5805  2.4316
 5472SOL     OW27874   4.427   3.423  15.949  0.4836  0.0611  0.1272
 5472SOL    HW127875   4.472   3.502  15.979  1.0380 -0.2836  0.2056
 5472SOL    HW227876   4.349   3.460  15.906  0.8396  2.3068  1.4209
 5473SOL     OW27877   2.309   2.384   8.818  0.7877  0.1604 -0.6281
 5473SOL    HW127878   2.320   2.312   8.880 -2.5811 -1.9734 -2.5181
 5473SOL    HW227879   2.231   2.355   8.772  1.7803 -2.4616 -0.6362
 5474SOL     OW27880   4.684   0.276  10.936  0.1153  0.2032  0.4283
 5474SOL    HW127881   4.632   0.357  10.943  0.4541  0.4303  0.3149
 5474SOL    HW227882   4.610   0.217  10.944  0.8936 -0.9251 -0.9155
 5475SOL     OW27883   2.089   2.480   0.321 -0.0051  0.5391 -0.5890
 5475SOL    HW127884   1.996   2.493   0.342  0.5502  2.3948  0.7009
 5475SOL    HW227885   2.107   2.395   0.362  0.6218  1.2890  0.6930
 5476SOL     OW27886   1.916   3.346   8.836 -0.3063  0.2495 -0.0949
 5476SOL    HW127887   1.820   3.344   8.828 -0.3403 -1.1107  0.8450
 5476SOL    HW227888   1.933   3.424   8.889 -0.5226  0.2438 -0.0173
 5477SOL     OW27889   3.754   0.600   1.200  0.0917  0.0688 -0.5507
 5477SOL    HW127890   3.775   0.683   1.157 -0.9108 -0.0593 -1.2726
 5477SOL    HW227891   3.839   0.579   1.239 -0.5599  0.6208  1.1519
 5478SOL     OW27892   1.717   1.968   5.178 -0.8580  0.1950 -0.2192
 5478SOL    HW127893   1.715   1.926   5.264 -1.7504 -0.5182 -0.5918
 5478SOL    HW227894   1.792   1.916   5.149 -0.7581  0.8897 -1.2055
 5479SOL     OW27895   0.469   3.966   2.909 -0.2741  0.0567 -0.0645
 5479SOL    HW127896   0.473   4.062   2.910  0.6856 -0.0014  1.1662
 5479SOL    HW227897   0.407   3.954   2.837 -0.8733 -2.6136  0.9188
 5480SOL     OW27898   2.321   0.979   1.124 -0.4645  0.4147  0.8791
 5480SOL    HW127899   2.314   0.893   1.165 -0.7658 -0.9142 -1.9528
 5480SOL    HW227900   2.303   0.964   1.031  0.6008  2.0749  0.4079
 5481SOL     OW27901   2.963   4.405   0.053 -0.4723  0.0144 -0.2304
 5481SOL    HW127902   3.013   4.352   0.115 -2.0396  1.0445  1.9099
 5481SOL    HW227903   2.884   4.356   0.029 -1.3504  1.3675 -0.1073
 5482SOL     OW27904   1.742   1.019  12.785  0.7056  0.0098  0.0287
 5482SOL    HW127905   1.761   1.104  12.747 -0.1033  0.4074  0.4992
 5482SOL    HW227906   1.800   0.967  12.729 -1.5587  0.2181 -2.5068
 5483SOL     OW27907   4.236   1.294   7.022  0.4618  0.8079 -0.4701
 5483SOL    HW127908   4.284   1.269   7.102  0.2658  2.0321  0.0386
 5483SOL    HW227909   4.162   1.343   7.057  2.1918  3.0389  0.0906
 5484SOL     OW27910   2.331   2.130   1.598 -0.4078 -0.5924 -0.2013
 5484SOL    HW127911   2.405   2.079   1.633  0.5815  1.2356  0.3611
 5484SOL    HW227912   2.347   2.126   1.504  0.5059  0.6782 -0.1009
 5485SOL     OW27913   0.084   3.143   1.987  0.1427  0.2726  0.4416
 5485SOL    HW127914   0.152   3.180   2.043  0.4181 -0.2586  0.4652
 5485SOL    HW227915   0.012   3.191   2.027 -2.6885 -2.1360 -1.8327
 5486SOL     OW27916   4.182   0.932   8.375  0.1203 -0.6366  0.9232
 5486SOL    HW127917   4.180   0.847   8.332  0.2089 -0.3686  0.3837
 5486SOL    HW227918   4.088   0.935   8.391 -0.0574 -0.4934 -0.1390
 5487SOL     OW27919   0.748   4.242   2.189 -0.0457  0.2216 -0.0329
 5487SOL    HW127920   0.792   4.314   2.144  0.7573  1.0888  2.1508
 5487SOL    HW227921   0.810   4.171   2.170  0.7874  1.2091 -0.9603
 5488SOL     OW27922   0.995   4.714  12.229 -0.3713 -0.1559 -0.7990
 5488SOL    HW127923   1.056   4.681  12.295  1.4101  1.3510 -1.7061
 5488SOL    HW227924   0.915   4.716  12.282 -0.3104 -0.7654 -0.6727
 5489SOL     OW27925   2.655   3.143  13.109  0.3324  0.2820  0.1936
 5489SOL    HW127926   2.646   3.233  13.076  2.7666  0.7925  0.9146
 5489SOL    HW227927   2.710   3.164  13.184  1.3083  1.1363 -0.7408
 5490SOL     OW27928   1.961   4.018  15.355  0.2949 -0.1696  0.1411
 5490SOL    HW127929   1.897   3.980  15.416 -0.8673 -0.9301 -1.5675
 5490SOL    HW227930   1.926   3.992  15.270 -0.7139  1.5286  0.0501
 5491SOL     OW27931   2.732   0.532  11.968  0.6887  0.0171  0.1458
 5491SOL    HW127932   2.682   0.517  11.888  1.9840 -0.7522 -0.5291
 5491SOL    HW227933   2.766   0.443  11.978  0.0645  0.0479  2.4324
 5492SOL     OW27934   3.157   3.214  17.686  0.2645 -0.0452 -0.8671
 5492SOL    HW127935   3.067   3.247  17.691 -0.0484 -0.7890 -1.6611
 5492SOL    HW227936   3.212   3.291  17.676 -0.1441  0.6303  2.0347
 5493SOL     OW27937   0.248   3.326   6.777  0.2233  0.1352 -0.4023
 5493SOL    HW127938   0.337   3.319   6.742  0.3976  1.4221 -0.2206
 5493SOL    HW227939   0.199   3.253   6.738  1.6646 -0.8886 -0.2666
 5494SOL     OW27940   1.186   1.718   7.575  0.0302 -0.2667  0.0725
 5494SOL    HW127941   1.114   1.732   7.637 -0.5338  0.0122 -0.6393
 5494SOL    HW227942   1.254   1.745   7.637  0.8489  2.8469 -2.2007
 5495SOL     OW27943   1.188   1.674  12.401  0.4411  0.0447 -0.7633
 5495SOL    HW127944   1.204   1.696  12.493  1.1787 -1.9453 -0.4048
 5495SOL    HW227945   1.260   1.707  12.348 -0.2435 -0.3855 -1.9548
 5496SOL     OW27946   1.111   3.336   5.494 -0.0838 -0.6010  0.1302
 5496SOL    HW127947   1.136   3.361   5.405 -0.0936 -1.2885 -0.0680
 5496SOL    HW227948   1.125   3.241   5.496 -0.4241 -0.6620 -0.4038
 5497SOL     OW27949   1.537   1.662   5.848 -0.8429  0.3965 -0.0669
 5497SOL    HW127950   1.509   1.574   5.870 -0.9972 -0.2541 -2.8842
 5497SOL    HW227951   1.599   1.672   5.920  0.3029 -2.2502 -0.6968
 5498SOL     OW27952   3.192   2.121   4.702  0.5813  0.0711 -0.1431
 5498SOL    HW127953   3.271   2.109   4.649  1.2670  1.1239  0.6489
 5498SOL    HW227954   3.221   2.138   4.791 -2.3991  1.6867  0.5337
 5499SOL     OW27955   1.969   3.060  16.834 -0.4589  0.7360  0.3116
 5499SOL    HW127956   2.019   2.980  16.847  1.1040  1.4172 -1.4246
 5499SOL    HW227957   1.878   3.030  16.835 -0.3426  0.4405  2.1634
 5500SOL     OW27958   2.158   0.244  17.235  0.1049  0.7633 -0.1425
 5500SOL    HW127959   2.088   0.211  17.180 -1.6738  1.4492  1.6936
 5500SOL    HW227960   2.201   0.166  17.271 -0.3927  0.3771 -0.3801
 5501SOL     OW27961   1.531   3.566   6.853 -0.3624  0.0445 -0.3014
 5501SOL    HW127962   1.527   3.653   6.814  1.3677  0.8842  1.3866
 5501SOL    HW227963   1.590   3.522   6.791 -0.3685 -3.2335  2.0286
 5502SOL     OW27964   3.007   1.381   4.678 -0.0058  0.5325 -0.3133
 5502SOL    HW127965   2.943   1.331   4.728  1.0412 -0.6552 -0.1552
 5502SOL    HW227966   3.085   1.338   4.713  0.2944  1.4785  0.1654
 5503SOL     OW27967   0.763   0.904   3.104 -0.6389  0.0446 -0.5582
 5503SOL    HW127968   0.821   0.971   3.068  0.7051 -1.0057 -0.3575
 5503SOL    HW227969   0.811   0.886   3.185 -0.4964  1.0918 -0.4092
 5504SOL     OW27970   2.404   3.616  11.349  0.0673 -0.2401  0.1112
 5504SOL    HW127971   2.447   3.701  11.341 -1.1126  0.2573 -0.9863
 5504SOL    HW227972   2.333   3.646  11.405  0.8290  1.8785 -0.0520
 5505SOL     OW27973   3.980   3.003   8.822 -0.0653 -0.1234  0.1923
 5505SOL    HW127974   4.055   2.994   8.881  0.4908  2.8612 -0.0743
 5505SOL    HW227975   3.914   3.038   8.883 -2.7683 -0.9528 -2.2764
 5506SOL     OW27976   3.644   2.027   6.144 -0.4122  0.0722 -0.5459
 5506SOL    HW127977   3.703   2.094   6.110  0.9229 -0.1992  1.2376
 5506SOL    HW227978   3.612   2.072   6.223  1.1324 -0.9124  0.6364
 5507SOL     OW27979   2.768   2.453   2.086  0.6090 -0.5464 -0.5293
 5507SOL    HW127980   2.795   2.545   2.079 -0.7346  0.0262  1.9349
 5507SOL    HW227981   2.843   2.412   2.128  1.1465 -0.0902 -1.0395
 5508SOL     OW27982   2.776   4.022   7.472  0.3245 -0.1400 -0.2679
 5508SOL    HW127983   2.839   4.094   7.481 -1.4761  1.0902  2.3299
 5508SOL    HW227984   2.763   3.997   7.563 -0.9688 -0.8025 -0.6257
 5509SOL     OW27985   1.143   4.221   8.551 -0.7598 -0.4497  0.5565
 5509SOL    HW127986   1.168   4.229   8.642  0.5360  0.2377  0.1301
 5509SOL    HW227987   1.103   4.134   8.546  0.0115 -0.7470 -0.6013
 5510SOL     OW27988   2.026   4.183   3.279 -0.1101 -0.5815 -0.3028
 5510SOL    HW127989   1.933   4.171   3.259 -0.1395 -0.7396 -0.0724
 5510SOL    HW227990   2.043   4.153   3.368 -0.7072 -1.9056 -0.6323
 5511SOL     OW27991   3.305   1.735   6.926 -0.0140  0.4493 -0.5987
 5511SOL    HW127992   3.225   1.775   6.959  0.3715  0.3668  0.4157
 5511SOL    HW227993   3.371   1.734   6.995 -1.1802  0.9518  0.5037
 5512SOL     OW27994   0.090   3.702  16.330  0.4080 -0.2105  0.5860
 5512SOL    HW127995   0.072   3.629  16.389 -0.4459  0.6628  1.4130
 5512SOL    HW227996   0.049   3.664  16.252 -1.2530 -0.2225  1.4539
 5513SOL     OW27997   4.613   2.917   6.675 -0.5074  0.4199 -0.0243
 5513SOL    HW127998   4.666   2.848   6.634  0.8236 -0.1446  2.6295
 5513SOL    HW227999   4.528   2.874   6.675 -0.1779 -0.1801  4.5968
 5514SOL     OW28000   3.553   1.381   2.322  0.2154  0.2162 -0.1864
 5514SOL    HW128001   3.587   1.411   2.238 -0.0582  1.4112  0.1186
 5514SOL    HW228002   3.582   1.290   2.322 -1.1140 -0.2004 -2.0765
 5515SOL     OW28003   4.599   0.312   5.777 -0.4255  0.2626 -0.4227
 5515SOL    HW128004   4.654   0.360   5.840 -1.4104  2.4111 -1.1906
 5515SOL    HW228005   4.658   0.260   5.723  0.7163 -1.1796  2.2014
 5516SOL     OW28006   0.676   0.646   8.661 -0.0914  0.0542  0.8667
 5516SOL    HW128007   0.668   0.569   8.717  2.5228 -0.9022 -0.0583
 5516SOL    HW228008   0.706   0.608   8.579 -1.2034  1.4802 -0.1905
 5517SOL     OW28009   2.378   3.124   9.258  0.0155 -0.1317  0.3355
 5517SOL    HW128010   2.408   3.120   9.167  0.0419 -1.2650  0.4001
 5517SOL    HW228011   2.403   3.214   9.282  0.6099 -0.8968  2.5990
 5518SOL     OW28012   3.883   4.658  17.349 -0.0241 -0.2325 -0.2459
 5518SOL    HW128013   3.885   4.640  17.443 -1.3443  0.8415 -0.0203
 5518SOL    HW228014   3.841   0.018  17.338 -2.3639 -1.2872  0.7320
 5519SOL     OW28015   3.642   1.585   5.431  0.5080  0.0578  0.1851
 5519SOL    HW128016   3.714   1.528   5.402  1.0039  1.0859 -0.6128
 5519SOL    HW228017   3.603   1.624   5.353  1.4622 -0.4877 -0.5799
 5520SOL     OW28018   3.322   2.123   7.382  0.2845 -0.1640 -0.2771
 5520SOL    HW128019   3.277   2.111   7.298 -0.4718 -2.4486  0.4574
 5520SOL    HW228020   3.413   2.114   7.353  1.1369  2.0182  1.6767
 5521SOL     OW28021   2.018   1.366   5.115  0.2788 -0.0848 -0.0512
 5521SOL    HW128022   2.078   1.440   5.119  0.6593 -0.5071  2.0493
 5521SOL    HW228023   2.077   1.297   5.146  1.4626 -0.2477 -2.7228
 5522SOL     OW28024   1.385   3.617   5.096  0.1923 -0.1805 -0.2080
 5522SOL    HW128025   1.477   3.641   5.109 -0.2621  0.2141  2.2308
 5522SOL    HW228026   1.345   3.692   5.054 -1.3293 -0.4682  0.7171
 5523SOL     OW28027   0.250   3.270   2.904  0.0140  0.1025 -0.1391
 5523SOL    HW128028   0.266   3.189   2.953 -0.6553 -1.4938 -2.5469
 5523SOL    HW228029   0.157   3.265   2.883  0.3458 -0.4941 -1.4635
 5524SOL     OW28030   4.215   2.395   3.174  0.6972  0.1938 -0.2177
 5524SOL    HW128031   4.277   2.420   3.105  0.1408  1.4903 -0.2392
 5524SOL    HW228032   4.258   2.434   3.249 -0.6714 -1.5740  1.4801
 5525SOL     OW28033   2.291   2.982   3.006 -0.1977  0.0752 -0.3484
 5525SOL    HW128034   2.277   2.890   3.030 -1.5654  1.2159  3.1231
 5525SOL    HW228035   2.368   3.007   3.056 -0.7017 -0.3428  0.6366
 5526SOL     OW28036   1.846   0.977   5.512  0.4558  0.7096 -0.4087
 5526SOL    HW128037   1.866   0.957   5.603  1.7000  1.0552 -0.6151
 5526SOL    HW228038   1.756   1.003   5.533 -1.6149 -4.0658 -3.2342
 5527SOL     OW28039   3.368   1.904   0.536  0.0800 -0.2082 -0.0018
 5527SOL    HW128040   3.301   1.910   0.604 -1.7610 -0.2682 -1.8136
 5527SOL    HW228041   3.414   1.984   0.563  0.9346 -0.2476 -1.3705
 5528SOL     OW28042   4.240   0.833   2.530 -0.5701 -0.2030 -0.3365
 5528SOL    HW128043   4.306   0.888   2.571 -0.7985 -2.3518  2.8899
 5528SOL    HW228044   4.268   0.838   2.438 -0.9734  0.7378 -0.4046
 5529SOL     OW28045   4.541   0.838   8.546  0.0664 -0.2270 -0.4567
 5529SOL    HW128046   4.613   0.885   8.588 -0.1908  0.5524 -0.8908
 5529SOL    HW228047   4.466   0.875   8.590 -0.9921 -2.2425 -0.5545
 5530SOL     OW28048   1.843   3.205   3.897 -0.4798  0.0051 -0.0340
 5530SOL    HW128049   1.831   3.288   3.944 -1.9809 -0.1957 -0.0524
 5530SOL    HW228050   1.756   3.170   3.916 -0.6889 -0.7839 -2.4181
 5531SOL     OW28051   0.068   2.795   4.268  0.0450  0.3614 -0.5036
 5531SOL    HW128052   0.072   2.889   4.247  0.3108  1.0818  2.7925
 5531SOL    HW228053   4.708   2.793   4.314 -0.1097  2.4887 -0.6856
 5532SOL     OW28054   2.315   1.884   2.621  0.0306  0.2495 -0.3280
 5532SOL    HW128055   2.374   1.895   2.546  0.3969 -0.5456 -0.1530
 5532SOL    HW228056   2.237   1.933   2.595 -1.2858 -2.3919 -1.4276
 5533SOL     OW28057   2.055   3.861   0.262 -0.4904 -0.3220 -0.1509
 5533SOL    HW128058   2.044   3.860   0.357  1.0283 -2.6776  0.0034
 5533SOL    HW228059   1.965   3.846   0.235 -0.5436 -0.4102  0.0789
 5534SOL     OW28060   3.526   1.501   7.078 -0.2763 -0.8238  0.3308
 5534SOL    HW128061   3.446   1.450   7.090 -1.9994  1.0911 -2.8666
 5534SOL    HW228062   3.562   1.492   7.166 -0.5156 -3.2942  0.1586
 5535SOL     OW28063   4.545   3.621   6.651 -0.1965 -0.5501  0.0005
 5535SOL    HW128064   4.479   3.556   6.625 -2.3882  1.4709  0.4804
 5535SOL    HW228065   4.627   3.583   6.621  0.3290  0.0952  0.6300
 5536SOL     OW28066   2.054   2.445   7.670 -0.1315  0.5230  0.2159
 5536SOL    HW128067   2.001   2.478   7.743 -1.1192 -0.5679 -0.0002
 5536SOL    HW228068   2.125   2.508   7.676 -0.4724  1.0400 -1.2424
 5537SOL     OW28069   3.439   0.371   6.173 -0.2371  0.4271 -0.4858
 5537SOL    HW128070   3.519   0.353   6.123 -1.4994 -1.8836 -1.6988
 5537SOL    HW228071   3.477   0.409   6.252  0.6365 -0.2119 -0.5926
 5538SOL     OW28072   3.313   3.802   6.414  0.5432 -0.2299 -0.5505
 5538SOL    HW128073   3.238   3.751   6.385  1.4971 -1.8182 -0.2425
 5538SOL    HW228074   3.304   3.894   6.389 -0.0175 -0.4279 -1.0810
 5539SOL     OW28075   0.138   0.338   3.352 -0.0382  0.2181 -0.4661
 5539SOL    HW128076   0.109   0.267   3.295  0.6032 -0.0070 -0.5032
 5539SOL    HW228077   0.168   0.291   3.430  1.4770 -0.1081 -1.2474
 5540SOL     OW28078   1.104   1.680   7.823  0.3843 -0.1562  0.3870
 5540SOL    HW128079   1.140   1.755   7.872  1.0896  0.5545 -1.2104
 5540SOL    HW228080   1.140   1.607   7.873 -0.5532 -1.1881 -0.4618
 5541SOL     OW28081   3.792   3.335   5.889 -0.3753  0.1580  0.2060
 5541SOL    HW128082   3.809   3.426   5.867  0.8530 -0.1253  0.0242
 5541SOL    HW228083   3.867   3.318   5.946 -0.1116 -1.7783 -0.7302
 5542SOL     OW28084   0.769   2.517  14.524  0.6439 -0.3420 -0.2820
 5542SOL    HW128085   0.674   2.530  14.523  0.9148  1.4848 -1.0912
 5542SOL    HW228086   0.792   2.563  14.444  1.8672  2.1042  1.4734
 5543SOL     OW28087   0.057   2.255  15.738  0.5422  0.3183 -0.5181
 5543SOL    HW128088   4.698   2.297  15.715  0.1634 -0.0003  0.2746
 5543SOL    HW228089   0.091   2.214  15.658 -1.0119  0.4094 -1.2319
 5544SOL     OW28090   4.342   0.440   8.575 -0.5147  0.1862  0.0501
 5544SOL    HW128091   4.358   0.512   8.636  0.7493 -0.8438  0.9303
 5544SOL    HW228092   4.419   0.395   8.610 -1.1057 -0.7776  0.1026
 5545SOL     OW28093   4.506   4.162   7.612  0.6373 -0.6199  0.0412
 5545SOL    HW128094   4.455   4.111   7.676  1.8317  0.0013  1.4661
 5545SOL    HW228095   4.574   4.188   7.673  0.3509  0.6856 -0.1993
 5546SOL     OW28096   1.651   1.329  17.110  0.1174 -0.2872 -0.3463
 5546SOL    HW128097   1.742   1.342  17.135 -0.2750  0.0027  0.9245
 5546SOL    HW228098   1.609   1.365  17.188  1.6191 -0.1944  0.4110
 5547SOL     OW28099   2.674   3.932   7.976 -0.0540  0.1984  0.4767
 5547SOL    HW128100   2.614   3.968   8.041 -0.3239 -1.7215  1.2973
 5547SOL    HW228101   2.629   3.847   7.970 -2.8233  1.7068 -0.2859
 5548SOL     OW28102   0.003   4.621   1.429 -1.0021  0.3693 -0.0298
 5548SOL    HW128103   0.064   4.657   1.365 -0.4590 -1.4734 -0.5429
 5548SOL    HW228104   0.011   4.526   1.430 -1.3432  0.3416  0.1616
 5549SOL     OW28105   2.472   2.987   8.110  0.2072  0.5685  0.0830
 5549SOL    HW128106   2.505   2.912   8.060 -0.4534 -0.4352  1.1584
 5549SOL    HW228107   2.489   2.964   8.201 -0.9114 -0.5553 -0.0027
 5550SOL     OW28108   3.401   3.722   2.229  0.7936  0.0436 -0.4014
 5550SOL    HW128109   3.484   3.734   2.184  0.3857 -0.0390 -1.1736
 5550SOL    HW228110   3.366   3.811   2.222  1.2372  0.1311 -1.3928
 5551SOL     OW28111   1.506   3.167   6.116  0.0124 -0.1452 -0.0574
 5551SOL    HW128112   1.586   3.206   6.150 -0.0632  0.6040 -0.7317
 5551SOL    HW228113   1.524   3.073   6.103  2.5803  0.5986 -1.8555
 5552SOL     OW28114   4.647   0.383   9.084 -0.0140  0.0451 -0.8498
 5552SOL    HW128115   4.685   0.301   9.053  0.2275 -0.8121  1.6872
 5552SOL    HW228116   4.557   0.350   9.095  0.1033 -0.1598 -0.5049
 5553SOL     OW28117   4.086   3.921   4.781 -0.3126  0.7381  0.4777
 5553SOL    HW128118   4.053   3.999   4.825  0.2980  0.2620  1.7702
 5553SOL    HW228119   4.037   3.846   4.814  0.5975 -0.2288 -0.3560
 5554SOL     OW28120   1.653   4.145  13.165 -0.2362 -0.1032 -0.6428
 5554SOL    HW128121   1.739   4.174  13.134 -0.6564  0.3890 -1.3670
 5554SOL    HW228122   1.657   4.056  13.130 -3.0804 -1.1962  1.8382
 5555SOL     OW28123   3.540   3.888   5.497  0.2722  0.0071 -0.3928
 5555SOL    HW128124   3.551   3.899   5.592 -2.2846  0.1281 -0.1068
 5555SOL    HW228125   3.566   3.973   5.461  1.1864 -0.2954 -0.4409
 5556SOL     OW28126   1.832   3.734  11.970  0.2510 -0.0285 -0.3433
 5556SOL    HW128127   1.743   3.701  11.980 -0.3313  1.8982  0.7806
 5556SOL    HW228128   1.882   3.680  12.032  0.3119  0.6947  0.2298
 5557SOL     OW28129   2.855   1.418  11.694  0.0879  0.5089  0.3806
 5557SOL    HW128130   2.910   1.453  11.623  0.0510 -0.0779  0.0631
 5557SOL    HW228131   2.905   1.443  11.771 -1.1684  0.7592  1.1165
 5558SOL     OW28132   1.935   3.400   5.742  0.0681  0.3633  0.1285
 5558SOL    HW128133   1.989   3.458   5.795  0.1118 -0.7014  1.2423
 5558SOL    HW228134   1.845   3.431   5.750 -0.0845  0.3101 -1.3317
 5559SOL     OW28135   0.495   2.713  13.286  0.9028  0.1985 -0.5535
 5559SOL    HW128136   0.476   2.804  13.265 -0.2502 -0.0845 -0.7414
 5559SOL    HW228137   0.558   2.692  13.217 -0.3294 -1.4905 -1.1593
 5560SOL     OW28138   1.756   3.649  14.772  0.5330  0.4471 -0.0561
 5560SOL    HW128139   1.774   3.628  14.681 -0.0371  0.3117 -0.1368
 5560SOL    HW228140   1.846   3.633  14.802  0.8830 -0.0474 -1.3831
 5561SOL     OW28141   1.919   3.447   9.153 -0.2764  0.1656  0.5757
 5561SOL    HW128142   1.954   3.507   9.087 -2.8072  1.3545  0.3233
 5561SOL    HW228143   1.980   3.461   9.226  0.7276  1.5789 -0.5394
 5562SOL     OW28144   4.426   2.080  13.847 -0.0287 -0.5194 -0.0354
 5562SOL    HW128145   4.368   2.011  13.815  0.0031 -1.1739  1.3289
 5562SOL    HW228146   4.426   2.143  13.775 -0.5169  0.4169  0.7813
 5563SOL     OW28147   1.630   2.384  10.151 -0.2025 -0.5431  0.2123
 5563SOL    HW128148   1.547   2.428  10.136 -1.6078 -2.3689  2.5916
 5563SOL    HW228149   1.628   2.369  10.245 -1.4495  1.4810  0.4960
 5564SOL     OW28150   3.899   1.499   9.083 -0.0995  0.4998  0.4174
 5564SOL    HW128151   3.969   1.539   9.033  0.8042 -1.9051 -0.2717
 5564SOL    HW228152   3.880   1.420   9.032  2.8501 -0.7358  1.2110
 5565SOL     OW28153   1.941   0.908   7.246 -0.4713  0.7027  0.4467
 5565SOL    HW128154   1.852   0.942   7.258 -0.6718 -0.4802  2.3765
 5565SOL    HW228155   1.920   0.824   7.205 -1.8731  2.5184 -2.5764
 5566SOL     OW28156   0.018   1.690   2.983  0.3312  0.0435 -0.1296
 5566SOL    HW128157   0.045   1.613   3.032  0.9010 -0.4089 -1.1572
 5566SOL    HW228158   0.066   1.759   3.029 -1.5668  0.4301  1.2509
 5567SOL     OW28159   1.305   3.671   3.834  0.0159 -0.1296  0.0555
 5567SOL    HW128160   1.338   3.703   3.750  0.0710 -2.1954 -0.7111
 5567SOL    HW228161   1.232   3.727   3.858  1.2615  0.5172  2.3785
 5568SOL     OW28162   2.616   1.136   4.959 -0.0986  0.1761 -0.1966
 5568SOL    HW128163   2.586   1.062   5.012 -0.0381  0.6537  0.4962
 5568SOL    HW228164   2.542   1.192   4.980  1.4491  1.6135  1.4046
 5569SOL     OW28165   2.702   1.647  15.796 -0.7017  0.1819 -0.3307
 5569SOL    HW128166   2.696   1.567  15.848  0.8331  0.6413  0.5716
 5569SOL    HW228167   2.751   1.707  15.853 -1.7823 -0.5514  1.3564
 5570SOL     OW28168   2.330   2.281  13.950  0.3452 -0.1320  0.5928
 5570SOL    HW128169   2.273   2.295  14.026  0.6486 -0.6585  0.9235
 5570SOL    HW228170   2.423   2.292  13.973  0.3923 -0.3645  0.5167
 5571SOL     OW28171   3.027   0.828  12.139 -0.6194 -0.9977  0.3726
 5571SOL    HW128172   2.993   0.917  12.134 -0.6971 -1.0588 -0.1523
 5571SOL    HW228173   3.115   0.829  12.101 -0.8915 -1.4390 -0.2593
 5572SOL     OW28174   1.901   3.680  15.211 -0.8230 -0.0507  0.6605
 5572SOL    HW128175   1.850   3.610  15.171 -1.3083 -0.0093  1.2107
 5572SOL    HW228176   1.832   3.746  15.215 -0.4468  0.4200 -0.8081
 5573SOL     OW28177   2.647   1.806   0.367  0.6910  0.4825 -0.1078
 5573SOL    HW128178   2.682   1.894   0.353 -0.8172  1.2546  0.9568
 5573SOL    HW228179   2.560   1.833   0.395  0.0461 -0.9949 -0.7280
 5574SOL     OW28180   2.002   0.659   5.287 -0.2807 -0.4041 -0.5188
 5574SOL    HW128181   2.045   0.648   5.202 -1.1923 -2.7712 -0.6721
 5574SOL    HW228182   1.942   0.729   5.263  1.1736  1.9359  2.7896
 5575SOL     OW28183   3.566   1.394   7.346  0.6559 -0.4103  0.0009
 5575SOL    HW128184   3.599   1.312   7.308  1.1358 -0.5299  0.6704
 5575SOL    HW228185   3.601   1.388   7.435  1.3036  3.4568 -0.0078
 5576SOL     OW28186   1.142   4.397   3.467  0.2089  0.2237 -0.0218
 5576SOL    HW128187   1.179   4.479   3.499  0.0037 -0.5610  2.2394
 5576SOL    HW228188   1.051   4.422   3.485  0.4916  1.0335  0.2827
 5577SOL     OW28189   0.562   0.345   0.623 -0.6573  0.1192 -0.2074
 5577SOL    HW128190   0.569   0.258   0.663 -1.9160  0.0164 -0.2146
 5577SOL    HW228191   0.602   0.399   0.692 -1.0691 -0.4585  0.4813
 5578SOL     OW28192   1.736   2.095  13.240 -0.1831  0.6149 -0.4750
 5578SOL    HW128193   1.640   2.097  13.250  0.3051  0.3899  4.3060
 5578SOL    HW228194   1.750   2.035  13.167  0.6646 -0.9697  0.9951
 5579SOL     OW28195   0.029   4.085  17.628 -0.0789 -0.5667 -0.6283
 5579SOL    HW128196   4.666   4.047  17.643  1.0007 -2.2790  1.3025
 5579SOL    HW228197   0.088   4.011  17.617 -0.5161 -0.7512 -1.7621
 5580SOL     OW28198   3.666   3.220   3.398 -0.0421 -0.5121  0.9216
 5580SOL    HW128199   3.605   3.146   3.393 -3.1191  2.1429 -1.9227
 5580SOL    HW228200   3.614   3.286   3.444 -0.3018 -0.2175  0.2173
 5581SOL     OW28201   4.426   1.472   5.515  0.3692 -0.3621 -0.5627
 5581SOL    HW128202   4.348   1.495   5.464 -0.0203  1.4303  0.8284
 5581SOL    HW228203   4.461   1.404   5.458 -3.0215 -1.2480 -1.6075
 5582SOL     OW28204   0.149   2.115  10.807  0.5195  0.4183 -0.0500
 5582SOL    HW128205   0.196   2.043  10.764 -1.1070 -0.1977 -0.7999
 5582SOL    HW228206   0.199   2.196  10.800  1.4010 -0.0563  0.8101
 5583SOL     OW28207   0.112   0.890   8.899 -0.2099  0.1610 -0.2308
 5583SOL    HW128208   0.096   0.934   8.982 -1.3917 -0.5122 -0.1043
 5583SOL    HW228209   0.174   0.821   8.925 -0.5435  0.1452  0.5193
 5584SOL     OW28210   3.022   4.194   1.762  0.4466  0.2855 -0.8160
 5584SOL    HW128211   3.099   4.236   1.724  0.2425  0.1445 -1.4006
 5584SOL    HW228212   2.959   4.263   1.781 -0.1999 -0.6575  0.4657
 5585SOL     OW28213   4.249   3.651   9.362 -0.6616 -0.3593 -0.2283
 5585SOL    HW128214   4.345   3.655   9.361 -0.6905  0.9950  2.2689
 5585SOL    HW228215   4.237   3.600   9.442 -1.1478  2.1486  1.2918
 5586SOL     OW28216   3.318   3.792  16.907  0.4405  0.4692  0.0879
 5586SOL    HW128217   3.368   3.802  16.989  0.3776 -1.2678  0.3243
 5586SOL    HW228218   3.254   3.863  16.913 -1.1144 -0.6538 -3.3797
 5587SOL     OW28219   4.086   2.325  10.378 -0.4761  0.8881  0.2354
 5587SOL    HW128220   4.069   2.368  10.295 -1.7910  3.0131  1.6213
 5587SOL    HW228221   4.018   2.357  10.437 -2.7441  0.7946 -2.3178
 5588SOL     OW28222   0.229   3.055   1.602  0.9471  0.1482  0.2870
 5588SOL    HW128223   0.239   3.141   1.644  0.6935  1.0669 -1.5629
 5588SOL    HW228224   0.241   2.998   1.678  2.2419 -1.1973 -0.9479
 5589SOL     OW28225   2.927   1.702   6.819  0.2180 -0.2387  0.2542
 5589SOL    HW128226   2.921   1.610   6.793 -3.1974 -0.5705  2.2298
 5589SOL    HW228227   2.985   1.730   6.748 -1.2480  3.0926  0.3775
 5590SOL     OW28228   3.852   0.365   7.536 -0.6237 -0.5174 -0.1202
 5590SOL    HW128229   3.791   0.294   7.517 -1.6079  0.4031 -0.3865
 5590SOL    HW228230   3.793   0.428   7.578  0.8297  0.5008  0.3967
 5591SOL     OW28231   2.092   2.132   4.959 -0.1894 -0.6413 -0.4005
 5591SOL    HW128232   2.111   2.068   5.027  0.1872 -1.4537 -1.2696
 5591SOL    HW228233   2.177   2.141   4.915  0.6848 -0.9451  1.2343
 5592SOL     OW28234   2.267   3.653   2.233 -0.5961  0.8973 -0.1064
 5592SOL    HW128235   2.357   3.626   2.214 -0.7448  0.9005 -0.8146
 5592SOL    HW228236   2.279   3.748   2.239  1.3164  0.6441  0.2778
 5593SOL     OW28237   3.563   1.711   6.566  0.4732  0.0042  0.2091
 5593SOL    HW128238   3.602   1.647   6.625  2.4903 -0.1713 -1.2985
 5593SOL    HW228239   3.548   1.655   6.489  2.2627 -0.5220  0.2489
 5594SOL     OW28240   2.040   3.121   8.917 -0.1493 -0.7077  0.3823
 5594SOL    HW128241   2.059   3.131   9.010  0.4526  1.8792 -0.0238
 5594SOL    HW228242   1.984   3.196   8.900  1.9683  0.7188 -0.3394
 5595SOL     OW28243   4.662   0.011   1.945 -0.1373 -0.1074  0.4144
 5595SOL    HW128244   4.666   4.718   1.851 -0.1713  0.4258  0.3135
 5595SOL    HW228245   4.664   0.107   1.952 -0.8054  0.0410 -1.3351
 5596SOL     OW28246   0.446   1.762   8.347 -0.2126 -0.0378  0.1382
 5596SOL    HW128247   0.362   1.721   8.369  0.1374 -0.9219 -0.1750
 5596SOL    HW228248   0.418   1.853   8.354 -0.3771 -0.0902  0.1704
 5597SOL     OW28249   4.436   0.167   2.430 -0.5300 -0.0137 -0.5796
 5597SOL    HW128250   4.349   0.206   2.436  0.4581  1.5229  3.7646
 5597SOL    HW228251   4.476   0.196   2.349 -1.8747  0.6971 -0.9757
 5598SOL     OW28252   3.922   0.440   7.061  0.2733 -0.7768 -0.0236
 5598SOL    HW128253   3.945   0.479   7.146 -2.9048  3.3247 -1.0603
 5598SOL    HW228254   3.901   0.350   7.087 -0.5292 -0.1582  1.4940
 5599SOL     OW28255   3.172   3.294   1.603  0.4013 -0.2838  0.1540
 5599SOL    HW128256   3.149   3.373   1.651  1.3833 -0.2466  0.5565
 5599SOL    HW228257   3.114   3.297   1.527 -1.2377  0.8060  1.4513
 5600SOL     OW28258   1.338   2.552   4.675  0.7272 -0.5477 -0.0789
 5600SOL    HW128259   1.298   2.465   4.672  0.2510 -0.3886  1.6520
 5600SOL    HW228260   1.281   2.594   4.611 -1.3379 -0.4615  1.8249
 5601SOL     OW28261   1.415   2.301   1.688  0.2587 -0.0742 -0.1286
 5601SOL    HW128262   1.351   2.233   1.666 -0.3207 -0.0247  1.3761
 5601SOL    HW228263   1.448   2.267   1.772  0.0644 -0.3663 -0.1697
 5602SOL     OW28264   2.193   3.055   0.913 -0.2906  0.0271 -0.2859
 5602SOL    HW128265   2.254   3.120   0.878 -0.3381  0.0763 -0.2768
 5602SOL    HW228266   2.213   3.050   1.007  0.2083 -1.0918 -0.4464
 5603SOL     OW28267   2.445   4.420   8.326  0.2453 -0.8509  0.5248
 5603SOL    HW128268   2.501   4.428   8.404 -0.2559 -1.7528  0.9857
 5603SOL    HW228269   2.490   4.354   8.273  2.5238  0.2901  1.0725
 5604SOL     OW28270   3.206   3.437  13.402  0.2342  0.0288 -0.1639
 5604SOL    HW128271   3.152   3.513  13.381  0.7218 -0.2830 -2.5063
 5604SOL    HW228272   3.274   3.463  13.464  1.2195 -3.0161  0.0295
 5605SOL     OW28273   0.540   2.309   8.514  0.0705 -0.7110  0.5713
 5605SOL    HW128274   0.472   2.336   8.452  0.4770  2.3583  1.4827
 5605SOL    HW228275   0.510   2.218   8.517 -3.0296  0.2187 -1.8833
 5606SOL     OW28276   0.329   2.431   2.880 -0.3844 -0.0402 -0.2813
 5606SOL    HW128277   0.290   2.475   2.955  0.9032  0.7923 -0.1210
 5606SOL    HW228278   0.422   2.420   2.900 -0.4736 -2.6097 -1.1649
 5607SOL     OW28279   1.249   4.067  16.730 -0.3273  0.2116 -0.7949
 5607SOL    HW128280   1.262   4.161  16.744 -1.4293  0.0289  1.3363
 5607SOL    HW228281   1.162   4.049  16.764  1.1843 -0.8716  2.3975
 5608SOL     OW28282   3.164   0.758  15.368  0.9701  0.7371  0.2074
 5608SOL    HW128283   3.250   0.730  15.399  2.0960  0.7844 -2.8743
 5608SOL    HW228284   3.120   0.771  15.453 -0.5047  0.6695 -0.5506
 5609SOL     OW28285   2.670   3.495   1.755 -0.6081  1.4399  0.0874
 5609SOL    HW128286   2.751   3.444   1.755 -0.2070  2.0505  2.3525
 5609SOL    HW228287   2.698   3.575   1.710  0.2463  1.3427  0.4450
 5610SOL     OW28288   0.097   3.137   2.340  0.0472  0.6587  0.5587
 5610SOL    HW128289   0.062   3.065   2.288 -0.6101  0.8187  0.7856
 5610SOL    HW228290   0.166   3.153   2.276 -1.1529  2.1790 -0.3660
 5611SOL     OW28291   3.785   1.197   1.319  0.0209 -0.7894 -0.6617
 5611SOL    HW128292   3.724   1.180   1.247  0.0907 -1.5635 -0.5432
 5611SOL    HW228293   3.854   1.135   1.297 -0.3795 -1.3056 -0.4732
 5612SOL     OW28294   0.652   4.078   8.330 -0.2592 -0.8401  0.1610
 5612SOL    HW128295   0.602   3.996   8.322  3.5237 -3.2876  1.2440
 5612SOL    HW228296   0.590   4.139   8.369  0.2430  0.7182 -1.4967
 5613SOL     OW28297   0.824   2.171  11.988  0.1801 -0.3662  0.2750
 5613SOL    HW128298   0.917   2.148  11.997  0.1103 -0.9650 -0.5035
 5613SOL    HW228299   0.804   2.185  12.081  1.8179 -0.5074  0.6504
 5614SOL     OW28300   0.970   3.767   8.680  0.5765 -0.5964  0.7531
 5614SOL    HW128301   1.034   3.705   8.715  0.3117 -2.5350 -2.1871
 5614SOL    HW228302   1.030   3.826   8.633  1.5145 -0.4616  2.1414
 5615SOL     OW28303   1.130   3.209   9.230 -0.3605 -0.1056  0.1567
 5615SOL    HW128304   1.036   3.227   9.228 -0.5770 -1.3445 -0.5362
 5615SOL    HW228305   1.145   3.183   9.321 -0.8025 -0.6375  0.0791
 5616SOL     OW28306   0.551   2.166   4.936  0.2423 -0.2907  0.1664
 5616SOL    HW128307   0.500   2.180   4.856 -1.0214 -0.8889  0.8634
 5616SOL    HW228308   0.600   2.246   4.952  0.8713 -0.4128 -1.1419
 5617SOL     OW28309   0.157   4.351   9.788  0.4844 -0.2573  0.5527
 5617SOL    HW128310   0.173   4.286   9.857  0.5320  1.1706  1.8989
 5617SOL    HW228311   0.198   4.428   9.828  0.2020  0.5191 -0.6451
 5618SOL     OW28312   4.566   1.370  10.922 -0.0571  0.1945 -0.1233
 5618SOL    HW128313   4.594   1.423  10.847 -0.0447  1.9473  1.1046
 5618SOL    HW228314   4.525   1.292  10.885  1.0988 -1.2141  1.5884
 5619SOL     OW28315   0.610   1.629   7.104  0.1581 -0.2268  0.1600
 5619SOL    HW128316   0.687   1.646   7.049 -0.4839 -2.5341 -1.4385
 5619SOL    HW228317   0.633   1.659   7.192  2.3673 -0.8219 -0.2142
 5620SOL     OW28318   2.306   0.642   2.560 -0.4091  0.2354  0.1989
 5620SOL    HW128319   2.219   0.611   2.536 -0.2705 -1.2772  1.6574
 5620SOL    HW228320   2.320   0.592   2.640  0.6796 -1.4672 -1.0645
 5621SOL     OW28321   3.361   2.190   1.926 -0.0295 -0.0880 -0.2078
 5621SOL    HW128322   3.444   2.144   1.913  0.5337  0.4387  1.5774
 5621SOL    HW228323   3.311   2.154   1.852 -0.1258 -0.9314  0.2761
 5622SOL     OW28324   3.302   2.685   1.805  0.3237  0.3752  0.0594
 5622SOL    HW128325   3.258   2.609   1.767  2.3990  0.3676 -2.3229
 5622SOL    HW228326   3.385   2.641   1.827 -0.4309 -0.6131  0.9087
 5623SOL     OW28327   1.003   1.340   4.800  0.2952  0.2502 -0.2095
 5623SOL    HW128328   0.990   1.245   4.808  0.2729  0.3731  1.2144
 5623SOL    HW228329   1.083   1.343   4.748  0.0930 -2.4782 -0.6830
 5624SOL     OW28330   4.696   1.640  17.515 -0.1157 -0.0492 -0.4636
 5624SOL    HW128331   4.704   1.647  17.420  0.6428  0.6339 -0.3515
 5624SOL    HW228332   0.052   1.680  17.549  0.2985 -1.4992  0.2375
 5625SOL     OW28333   1.855   2.385  12.182 -0.3463 -0.2619  0.3695
 5625SOL    HW128334   1.857   2.408  12.089  1.3569  0.6879  0.6339
 5625SOL    HW228335   1.946   2.363  12.202 -0.5300 -1.0969  0.2924
 5626SOL     OW28336   4.271   2.298  12.549 -0.4774 -0.1557 -0.0706
 5626SOL    HW128337   4.212   2.236  12.593 -1.8049  0.9701 -0.2765
 5626SOL    HW228338   4.351   2.247  12.532  1.3701  2.3646  0.9810
 5627SOL     OW28339   1.182   0.743   0.490 -0.2149 -0.3738  0.0691
 5627SOL    HW128340   1.180   0.838   0.485  2.6152 -0.4295 -2.0757
 5627SOL    HW228341   1.276   0.726   0.503  0.3112 -0.2201 -3.6645
 5628SOL     OW28342   2.298   3.754  13.556 -0.1265  0.3527  0.7023
 5628SOL    HW128343   2.258   3.841  13.545 -0.0474  0.0505 -2.1641
 5628SOL    HW228344   2.245   3.717  13.626  0.8803  1.0775  1.8312
 5629SOL     OW28345   1.791   0.442   6.975 -0.1485  0.2167 -0.5775
 5629SOL    HW128346   1.791   0.350   7.004 -0.6275  0.6305  0.7242
 5629SOL    HW228347   1.864   0.432   6.913  0.8769 -1.3016  0.8437
 5630SOL     OW28348   4.603   2.166   3.439 -0.3029  0.2641 -0.1965
 5630SOL    HW128349   4.558   2.100   3.385  1.7666 -1.6688  0.4239
 5630SOL    HW228350   4.651   2.214   3.372  1.0239  0.7962  1.1736
 5631SOL     OW28351   3.061   4.682   6.925 -0.2035 -0.4841 -0.1248
 5631SOL    HW128352   3.050   0.051   6.912 -2.0857 -0.5420  0.9467
 5631SOL    HW228353   3.097   4.660   6.839  0.8609  1.6979 -0.2211
 5632SOL     OW28354   2.130   4.704   4.041 -0.2605  0.0641  0.2058
 5632SOL    HW128355   2.146   4.678   3.951 -0.8658 -1.6525  0.5788
 5632SOL    HW228356   2.156   4.620   4.080  0.1749  0.3018  0.4344
 5633SOL     OW28357   2.299   1.962   7.419 -0.1317 -0.1114  0.4668
 5633SOL    HW128358   2.390   1.932   7.413 -0.2775 -0.3989 -0.3293
 5633SOL    HW228359   2.257   1.889   7.463 -0.8672 -0.2317 -0.4419
 5634SOL     OW28360   1.760   3.304   3.436  0.6695  0.1077 -0.2704
 5634SOL    HW128361   1.712   3.237   3.486  0.9834  0.8910  1.0802
 5634SOL    HW228362   1.701   3.351   3.378  0.5023  1.2689  0.8399
 5635SOL     OW28363   2.119   2.131   3.706  0.0115  0.0625  0.1305
 5635SOL    HW128364   2.138   2.171   3.621  0.2155 -0.8322 -0.2521
 5635SOL    HW228365   2.203   2.117   3.749  0.6544  0.4075 -1.0048
 5636SOL     OW28366   0.506   4.224   6.778  0.3935  0.0492  0.0679
 5636SOL    HW128367   0.421   4.226   6.821  0.0568  1.5091 -0.6852
 5636SOL    HW228368   0.540   4.146   6.821 -1.1964 -0.5857  0.1714
 5637SOL     OW28369   0.134   3.481   4.767 -0.3310  0.0797 -0.4719
 5637SOL    HW128370   0.178   3.434   4.697 -2.8541 -1.6670 -0.9006
 5637SOL    HW228371   0.123   3.573   4.742  1.3184  0.5442  0.4861
 5638SOL     OW28372   0.299   4.086   3.370 -0.5385  0.0267 -0.6164
 5638SOL    HW128373   0.274   3.994   3.380  0.7462 -0.0732  1.7925
 5638SOL    HW228374   0.394   4.078   3.377 -0.4828 -0.0918 -1.5293
 5639SOL     OW28375   3.731   3.262   2.443 -0.1828 -0.1847  0.6714
 5639SOL    HW128376   3.818   3.284   2.409 -0.0317 -1.1486  0.4256
 5639SOL    HW228377   3.754   3.211   2.521  1.3914  0.1984  0.4536
 5640SOL     OW28378   0.788   4.565  12.643  0.1037  0.1925 -0.3221
 5640SOL    HW128379   0.857   4.625  12.614  0.6115 -1.1228 -1.8584
 5640SOL    HW228380   0.767   4.523  12.560 -0.0284 -0.7074  0.1668
 5641SOL     OW28381   3.929   2.309  14.758 -0.2253 -0.1524  0.8406
 5641SOL    HW128382   3.847   2.272  14.724  1.0774 -0.9051 -1.4382
 5641SOL    HW228383   3.946   2.236  14.817  0.9277  1.6131  2.6941
 5642SOL     OW28384   3.829   1.514   0.312  0.1450  0.2739  0.0931
 5642SOL    HW128385   3.754   1.563   0.346  0.3786  1.3219 -0.9361
 5642SOL    HW228386   3.822   1.536   0.220  1.9385  0.8116  0.0915
 5643SOL     OW28387   2.930   1.686   1.948 -0.0146 -0.2042 -0.2615
 5643SOL    HW128388   3.015   1.719   1.979 -0.4241  0.5677  0.0532
 5643SOL    HW228389   2.863   1.747   1.978 -1.0509 -1.5463  0.1309
 5644SOL     OW28390   1.407   0.938   2.791 -0.4032  0.4119  0.1870
 5644SOL    HW128391   1.431   1.009   2.731  1.2301  0.4466  0.8674
 5644SOL    HW228392   1.324   0.970   2.825 -0.4841  0.8247 -0.4042
 5645SOL     OW28393   0.658   1.479   9.269 -0.1397  0.1693  0.2146
 5645SOL    HW128394   0.639   1.559   9.219 -0.5397  0.4717  0.8340
 5645SOL    HW228395   0.751   1.464   9.253  0.1338  1.7640  0.2598
 5646SOL     OW28396   1.643   0.747  11.554 -0.7302 -0.4499 -0.0350
 5646SOL    HW128397   1.640   0.789  11.468  0.4873  0.1250  0.2001
 5646SOL    HW228398   1.610   0.819  11.607 -0.2048 -1.3759  1.5388
 5647SOL     OW28399   0.411   4.366  17.021  0.2131 -0.4751 -0.5595
 5647SOL    HW128400   0.485   4.368  17.081  0.3531  2.6843 -0.8500
 5647SOL    HW228401   0.384   4.274  17.025 -1.3151  0.0544  1.2257
 5648SOL     OW28402   0.998   3.956   4.337  0.0140  0.8832  0.0689
 5648SOL    HW128403   0.915   3.927   4.375  1.7347 -0.9109  2.4239
 5648SOL    HW228404   0.980   3.940   4.244  0.8040  0.3755  0.0087
 5649SOL     OW28405   3.913   2.256  13.670  0.2101  0.0101 -0.8300
 5649SOL    HW128406   3.978   2.249  13.740 -1.9112 -1.4751  1.0336
 5649SOL    HW228407   3.958   2.213  13.597  2.2049 -1.8118  1.4594
 5650SOL     OW28408   1.105   1.855   3.889 -0.0802  0.0075  0.9488
 5650SOL    HW128409   1.071   1.945   3.884 -3.2634 -1.2800 -1.0993
 5650SOL    HW228410   1.126   1.835   3.798  0.9338 -1.7156  1.5707
 5651SOL     OW28411   4.643   2.225   2.081  0.8526  0.2152  0.9405
 5651SOL    HW128412   4.608   2.309   2.051  1.6058  0.4768  0.7943
 5651SOL    HW228413   4.682   2.198   1.998 -0.5041  1.1719 -0.0136
 5652SOL     OW28414   3.681   3.460   9.877  0.1784  0.0066 -0.0095
 5652SOL    HW128415   3.674   3.469   9.782  0.4669 -2.1150 -0.2308
 5652SOL    HW228416   3.768   3.497   9.891 -0.9359  1.9459  1.6787
 5653SOL     OW28417   4.144   4.638   4.067  0.2232 -0.3920 -0.3627
 5653SOL    HW128418   4.179   4.554   4.037 -1.2987 -1.6103  1.3409
 5653SOL    HW228419   4.176   4.642   4.157 -0.9590 -3.1190  0.1600
 5654SOL     OW28420   3.095   1.524   2.423  0.5627 -0.6838  0.1029
 5654SOL    HW128421   3.173   1.531   2.367 -0.3355 -0.8512 -1.1872
 5654SOL    HW228422   3.047   1.458   2.372 -0.9966  1.3765 -1.1199
 5655SOL     OW28423   4.388   1.528   7.588  0.0697  0.0170  0.0299
 5655SOL    HW128424   4.392   1.510   7.682 -2.0461 -0.1276  0.0739
 5655SOL    HW228425   4.452   1.463   7.559  0.9832  1.5690 -1.4920
 5656SOL     OW28426   0.150   3.894   2.140  0.3853  0.3756  0.8778
 5656SOL    HW128427   0.073   3.885   2.197 -0.2702 -1.6040 -0.3056
 5656SOL    HW228428   0.165   3.801   2.120 -2.1418  0.2112 -0.3871
 5657SOL     OW28429   3.453   3.075  10.414  0.8576  0.4684 -0.4404
 5657SOL    HW128430   3.361   3.081  10.441  1.2733  2.2305  0.5375
 5657SOL    HW228431   3.454   2.982  10.388 -1.9788 -0.0022  1.1536
 5658SOL     OW28432   4.479   1.502   0.346 -0.4078  0.5898  0.3222
 5658SOL    HW128433   4.543   1.436   0.316 -1.6028  1.2922 -3.7425
 5658SOL    HW228434   4.525   1.521   0.428 -1.8439 -0.3654  1.3508
 5659SOL     OW28435   0.298   0.007   4.223 -1.0428 -0.1954  0.0260
 5659SOL    HW128436   0.244   0.067   4.171  1.0846  0.1403 -1.7908
 5659SOL    HW228437   0.352   0.073   4.266  0.0245 -0.1793 -1.3060
 5660SOL     OW28438   2.733   4.333   3.368  0.0392  0.4143  0.2879
 5660SOL    HW128439   2.776   4.253   3.398  1.4990  0.2272 -2.3401
 5660SOL    HW228440   2.640   4.314   3.383 -0.3898  1.6759 -0.8542
 5661SOL     OW28441   4.664   3.240   6.303 -1.0235  0.4735  0.4126
 5661SOL    HW128442   0.027   3.229   6.339 -0.2282  2.2489 -0.9765
 5661SOL    HW228443   4.610   3.193   6.366  0.1935  1.6956  2.3560
 5662SOL     OW28444   1.103   0.879   4.253  0.4487 -0.7534 -0.2759
 5662SOL    HW128445   1.139   0.800   4.294  0.4911 -0.3717  0.4249
 5662SOL    HW228446   1.180   0.921   4.214 -0.2024  0.8999  0.2316
 5663SOL     OW28447   2.075   0.501   2.525  0.3810 -0.3703 -0.1838
 5663SOL    HW128448   2.017   0.561   2.479  1.1627  1.2271  0.8978
 5663SOL    HW228449   2.061   0.420   2.476  1.2651 -0.8856  0.4034
 5664SOL     OW28450   1.881   2.068   2.931  0.5123 -0.0333  0.1737
 5664SOL    HW128451   1.884   2.037   3.021 -1.5816 -0.5208  0.0728
 5664SOL    HW228452   1.868   2.163   2.930 -1.3681 -0.2794  1.2489
 5665SOL     OW28453   2.899   0.243   6.605  0.4094  0.4092  0.4425
 5665SOL    HW128454   2.967   0.181   6.577  0.0704 -0.1250  0.7944
 5665SOL    HW228455   2.852   0.194   6.673 -2.3699  2.7624  0.2510
 5666SOL     OW28456   2.272   2.383  13.703  0.2533  0.2202 -0.1220
 5666SOL    HW128457   2.179   2.389  13.725  0.5085  1.2213  0.6410
 5666SOL    HW228458   2.309   2.318  13.763 -2.1535 -0.7866  0.2577
 5667SOL     OW28459   2.706   0.849   4.189 -0.6452  0.5334 -0.1587
 5667SOL    HW128460   2.646   0.879   4.256 -1.1785 -3.1046  0.9883
 5667SOL    HW228461   2.767   0.798   4.242  1.7332  1.3994 -2.0640
 5668SOL     OW28462   1.187   3.250   2.159 -0.5752 -0.6446  0.2145
 5668SOL    HW128463   1.139   3.252   2.076 -2.5888 -0.9943  1.3574
 5668SOL    HW228464   1.172   3.341   2.185 -1.3944 -1.1925  1.6416
 5669SOL     OW28465   2.547   1.099  11.589  0.2895 -0.3071  0.0129
 5669SOL    HW128466   2.575   1.013  11.556  2.0582  0.2942 -0.0526
 5669SOL    HW228467   2.615   1.153  11.550 -0.4578  1.1882  0.8085
 5670SOL     OW28468   2.375   0.274  10.348  0.3735  1.0571  0.6819
 5670SOL    HW128469   2.285   0.270  10.382  0.2235  0.8626  0.2609
 5670SOL    HW228470   2.349   0.294  10.259 -2.4968  2.7720  1.8985
 5671SOL     OW28471   0.019   4.213   7.134  0.4563  0.2442  0.9700
 5671SOL    HW128472   4.672   4.151   7.151  0.1777  0.2065 -0.3503
 5671SOL    HW228473   0.098   4.166   7.161  0.4039 -1.9164 -2.5669
 5672SOL     OW28474   0.288   4.034   9.297  0.1076  0.1591  0.4700
 5672SOL    HW128475   0.199   4.070   9.306 -0.4361 -0.6227 -1.7817
 5672SOL    HW228476   0.268   3.952   9.341  1.6098 -0.4075  0.0947
 5673SOL     OW28477   3.791   1.749   4.703  0.7171  0.1565  0.4019
 5673SOL    HW128478   3.811   1.808   4.775 -0.6659  0.7814  0.2642
 5673SOL    HW228479   3.794   1.815   4.633  0.2916 -0.3394 -0.0831
 5674SOL     OW28480   1.181   1.739   8.394  0.6089  0.5410 -0.0007
 5674SOL    HW128481   1.183   1.835   8.394  0.5574  0.5429 -0.4512
 5674SOL    HW228482   1.168   1.724   8.300 -0.1460 -1.3745  0.4091
 5675SOL     OW28483   4.079   1.675   8.931  0.1341  0.0736  0.3101
 5675SOL    HW128484   4.053   1.765   8.953 -1.1319 -0.4784  1.0823
 5675SOL    HW228485   4.143   1.654   8.999  1.2823  0.3200 -0.6985
 5676SOL     OW28486   3.951   4.476   6.562 -0.2064 -0.5970 -0.0142
 5676SOL    HW128487   4.019   4.542   6.556  1.0039 -1.6412  2.2066
 5676SOL    HW228488   3.986   4.402   6.511 -0.5882 -1.1816  0.5702
 5677SOL     OW28489   2.309   3.496   7.439 -0.4235 -0.1525 -0.3621
 5677SOL    HW128490   2.396   3.529   7.420 -0.9156  1.4994  0.2698
 5677SOL    HW228491   2.302   3.522   7.531  1.3130  1.5492 -0.7011
 5678SOL     OW28492   3.860   2.693  12.479 -0.1816  0.2558  0.2412
 5678SOL    HW128493   3.928   2.629  12.500  1.6449  1.8098 -0.9787
 5678SOL    HW228494   3.858   2.690  12.383 -2.6216  1.7314  0.2444
 5679SOL     OW28495   4.337   3.711   1.389 -0.9176  0.0886 -0.0679
 5679SOL    HW128496   4.314   3.630   1.343 -1.4631  0.6605 -0.8035
 5679SOL    HW228497   4.250   3.737   1.416 -0.6073  0.1091  0.9060
 5680SOL     OW28498   3.942   0.198   8.198 -0.2878 -0.3436 -0.1502
 5680SOL    HW128499   3.958   0.167   8.288 -0.9246 -1.8179 -0.5415
 5680SOL    HW228500   4.034   0.190   8.173 -0.2137 -0.5692  0.1953
 5681SOL     OW28501   4.447   4.697  14.720 -0.2035 -0.3200  0.4396
 5681SOL    HW128502   4.517   4.697  14.785 -1.3136  1.5244  1.6179
 5681SOL    HW228503   4.482   4.678  14.632 -0.4784  2.6532 -0.3117
 5682SOL     OW28504   2.898   0.427  12.946 -0.2493  0.4930 -0.0813
 5682SOL    HW128505   2.807   0.423  12.975  0.0418 -0.6301  0.6783
 5682SOL    HW228506   2.900   0.361  12.876  2.1109  1.5041 -0.9738
 5683SOL     OW28507   2.325   2.878   0.757 -0.6240  0.0868 -0.0898
 5683SOL    HW128508   2.272   2.937   0.812  0.9080  1.9840 -0.6539
 5683SOL    HW228509   2.258   2.842   0.699 -0.8852 -1.0165  0.8940
 5684SOL     OW28510   3.553   3.785   7.297  0.0715 -0.0149  0.2722
 5684SOL    HW128511   3.526   3.844   7.367  1.0355  0.9430 -0.1659
 5684SOL    HW228512   3.559   3.700   7.341  0.4193  1.4513  3.0445
 5685SOL     OW28513   4.011   2.587   2.906  0.2316  0.5241  0.5241
 5685SOL    HW128514   3.996   2.499   2.939  0.6535  0.5741  0.8442
 5685SOL    HW228515   4.076   2.572   2.838  1.4741 -1.5058  2.1454
 5686SOL     OW28516   4.196   3.114   6.468 -0.3253  0.0633  0.2236
 5686SOL    HW128517   4.194   3.177   6.540 -3.6197  0.1757  0.0381
 5686SOL    HW228518   4.109   3.125   6.428 -0.3964  0.7992  0.5725
 5687SOL     OW28519   1.539   2.751   3.834 -0.0247  0.2166  0.2150
 5687SOL    HW128520   1.582   2.667   3.849 -1.2088 -0.0728  2.0421
 5687SOL    HW228521   1.452   2.713   3.826 -0.7817  1.9185  0.3447
 5688SOL     OW28522   0.996   1.414  10.690 -0.4744  0.2651  0.7464
 5688SOL    HW128523   0.981   1.487  10.630 -0.4068  0.7915  1.3702
 5688SOL    HW228524   0.918   1.361  10.705 -1.5851  1.7521  0.2468
 5689SOL     OW28525   2.919   4.124  16.967 -0.2870  0.3281  0.0755
 5689SOL    HW128526   2.930   4.218  16.984 -0.7240  0.5701 -0.9750
 5689SOL    HW228527   2.824   4.127  16.969 -0.1982  0.3099  3.3195
 5690SOL     OW28528   3.293   0.809  11.930  0.3324 -0.8064  0.0431
 5690SOL    HW128529   3.233   0.825  11.856  1.2744 -0.0827 -0.5728
 5690SOL    HW228530   3.379   0.816  11.889  0.4225  1.0259  0.5146
 5691SOL     OW28531   1.173   0.387   1.336 -0.0141 -0.1516 -0.0947
 5691SOL    HW128532   1.225   0.358   1.260 -0.0538  1.6902 -0.8350
 5691SOL    HW228533   1.091   0.340   1.324 -0.4375  0.8034 -0.9637
 5692SOL     OW28534   0.939   1.947   8.363  0.3563  0.0327  0.4848
 5692SOL    HW128535   0.878   1.944   8.437  0.8561  1.3917  0.9618
 5692SOL    HW228536   0.879   1.940   8.290 -0.7224 -0.2654  1.4054
 5693SOL     OW28537   2.710   2.980   8.498 -0.1953 -0.1626  0.3659
 5693SOL    HW128538   2.705   2.967   8.592 -2.4432  0.0553  0.2625
 5693SOL    HW228539   2.643   3.047   8.492  0.9807  0.8923 -1.3140
 5694SOL     OW28540   4.348   2.862   3.572  0.3464 -0.4172 -0.1902
 5694SOL    HW128541   4.444   2.857   3.575  0.2644 -1.2292  1.1159
 5694SOL    HW228542   4.334   2.826   3.485  1.8202  1.1298 -1.0605
 5695SOL     OW28543   4.622   3.798   5.845 -0.2484  0.0596 -0.2159
 5695SOL    HW128544   4.673   3.859   5.791 -0.0300 -0.0496 -0.1310
 5695SOL    HW228545   4.562   3.764   5.778  1.1047 -1.1532 -0.8093
 5696SOL     OW28546   2.137   0.350   5.578 -0.4838 -0.1698  0.0279
 5696SOL    HW128547   2.202   0.350   5.648 -1.6720  0.0737  1.1275
 5696SOL    HW228548   2.190   0.364   5.500 -0.2552 -0.3661  0.1518
 5697SOL     OW28549   1.531   0.424   8.346  0.2211 -0.0516 -0.2928
 5697SOL    HW128550   1.623   0.398   8.337  0.3569  0.1173  0.7033
 5697SOL    HW228551   1.535   0.509   8.301 -0.2705 -0.4746 -1.1403
 5698SOL     OW28552   3.396   1.065   5.018 -0.0582  0.1632 -0.7420
 5698SOL    HW128553   3.467   1.008   5.048  0.6598  0.7326 -1.3636
 5698SOL    HW228554   3.421   1.147   5.060 -0.2127  0.6593 -1.6141
 5699SOL     OW28555   0.310   2.973   3.931  0.2530  0.2653 -0.3879
 5699SOL    HW128556   0.263   3.053   3.958 -0.6366 -0.8270  1.3155
 5699SOL    HW228557   0.326   2.982   3.837 -0.0505  1.3815 -0.3411
 5700SOL     OW28558   3.825   3.290   3.173 -0.0284 -0.0718  0.2904
 5700SOL    HW128559   3.907   3.326   3.208 -0.1545  1.1984 -0.7092
 5700SOL    HW228560   3.783   3.250   3.249  0.5120  1.5824  1.4520
 5701SOL     OW28561   0.538   0.132   4.252 -0.3496  0.2242 -0.4641
 5701SOL    HW128562   0.613   0.095   4.206  1.0642  1.5381  0.7806
 5701SOL    HW228563   0.575   0.214   4.286  1.3002 -0.5318 -0.4356
 5702SOL     OW28564   4.069   0.434   5.864  0.0156 -0.3969  0.0096
 5702SOL    HW128565   3.994   0.490   5.884  1.4405  1.9610 -1.1962
 5702SOL    HW228566   4.032   0.358   5.820 -1.6095  0.1643  0.4084
 5703SOL     OW28567   3.976   0.961  16.227 -0.1461 -0.3048 -0.4795
 5703SOL    HW128568   3.961   1.053  16.203 -0.7819 -0.7296 -1.7137
 5703SOL    HW228569   3.981   0.928  16.138  0.4603 -2.1712  0.2524
 5704SOL     OW28570   1.467   2.177   3.701 -0.1831 -0.0243 -0.4875
 5704SOL    HW128571   1.474   2.087   3.669  3.3987  1.3392 -3.6360
 5704SOL    HW228572   1.393   2.210   3.650  1.0676  2.6214 -0.5742
 5705SOL     OW28573   1.706   2.976   4.157  0.2411 -0.1923 -0.2932
 5705SOL    HW128574   1.707   2.880   4.167 -2.3679 -0.1682  0.1889
 5705SOL    HW228575   1.766   3.004   4.226 -2.2002 -1.4960  2.3475
 5706SOL     OW28576   1.300   0.358  15.097  0.1879  0.2713 -0.3401
 5706SOL    HW128577   1.214   0.355  15.057  0.5130  0.1979 -1.0413
 5706SOL    HW228578   1.323   0.265  15.091 -0.0855  0.1641  0.3044
 5707SOL     OW28579   4.264   2.273   0.488  0.0382 -0.8649 -0.2674
 5707SOL    HW128580   4.345   2.307   0.451 -0.2352 -0.8281 -0.8303
 5707SOL    HW228581   4.270   2.324   0.569 -1.0455 -1.4487  0.1949
 5708SOL     OW28582   3.675   4.439   2.705 -0.2373 -0.0331  0.2500
 5708SOL    HW128583   3.728   4.457   2.628 -0.6205 -0.2273 -0.0574
 5708SOL    HW228584   3.649   4.527   2.734  1.5096  0.5495  0.0560
 5709SOL     OW28585   4.701   3.701   1.348 -0.7520 -0.1863  0.1999
 5709SOL    HW128586   0.009   3.766   1.285 -1.3633  2.2775  2.4123
 5709SOL    HW228587   0.037   3.631   1.325 -0.7097  0.0341 -0.3594
 5710SOL     OW28588   3.813   0.980   2.449  0.1607  0.4459 -0.2843
 5710SOL    HW128589   3.895   1.028   2.459  1.2013 -1.6160  1.0942
 5710SOL    HW228590   3.780   1.050   2.393  1.9398  0.4524 -1.3066
 5711SOL     OW28591   1.049   1.124   3.909 -0.7314  0.3353  0.4366
 5711SOL    HW128592   1.113   1.100   3.975 -0.5496 -4.3919 -1.4645
 5711SOL    HW228593   0.968   1.102   3.956 -0.3931 -1.3864  0.2169
 5712SOL     OW28594   4.331   2.370   4.226  0.0505  0.0995 -0.0125
 5712SOL    HW128595   4.367   2.288   4.260  0.3793 -0.1711 -1.0142
 5712SOL    HW228596   4.247   2.340   4.191 -0.1641 -0.2073  0.7616
 5713SOL     OW28597   1.334   2.283   4.055  0.1439  0.2518 -0.0145
 5713SOL    HW128598   1.390   2.308   3.981  0.2119  1.0371  0.3029
 5713SOL    HW228599   1.252   2.279   4.006  0.1476 -0.7221  0.0591
 5714SOL     OW28600   1.750   0.381   2.690  0.1622 -0.1550 -0.3938
 5714SOL    HW128601   1.703   0.443   2.746  2.1492  1.8137 -0.8855
 5714SOL    HW228602   1.789   0.323   2.755 -0.9124 -1.1251 -0.6105
 5715SOL     OW28603   0.680   1.171   7.748  0.4926 -0.0021  0.1245
 5715SOL    HW128604   0.605   1.225   7.725  0.1640  0.1212  1.4938
 5715SOL    HW228605   0.673   1.198   7.840 -0.1363 -2.1260  0.6958
 5716SOL     OW28606   0.930   3.646   2.077 -0.4790  0.6352  0.2372
 5716SOL    HW128607   0.921   3.729   2.125  1.8048  0.3427  1.1719
 5716SOL    HW228608   0.995   3.670   2.012 -2.1507  1.1015 -1.2608
 5717SOL     OW28609   0.118   4.054  15.029  0.0951 -0.2177 -0.4148
 5717SOL    HW128610   0.171   4.088  15.101 -1.4257 -3.5949  2.2756
 5717SOL    HW228611   0.029   4.071  15.058  0.6310  1.6510  0.1174
 5718SOL     OW28612   0.914   0.183   0.416 -0.1668 -0.1625  0.0794
 5718SOL    HW128613   0.993   0.134   0.437  0.2502  1.6453  2.6859
 5718SOL    HW228614   0.863   0.124   0.472 -2.1923  0.5245 -1.0205
 5719SOL     OW28615   3.219   0.261   1.155 -0.0971 -0.1608 -0.1238
 5719SOL    HW128616   3.264   0.346   1.156 -1.0189  0.2996  1.2170
 5719SOL    HW228617   3.282   0.218   1.213  1.3135 -1.4340 -2.5833
 5720SOL     OW28618   2.631   4.063   5.021  0.3318  0.1887 -0.6578
 5720SOL    HW128619   2.723   4.068   4.995  0.0327  3.7987 -1.0111
 5720SOL    HW228620   2.629   4.003   5.095 -3.8784 -1.9032 -2.4708
 5721SOL     OW28621   3.762   1.892   6.611 -0.6084 -0.2922  0.0989
 5721SOL    HW128622   3.683   1.845   6.586 -1.0827  0.9281 -0.7530
 5721SOL    HW228623   3.718   1.963   6.659  1.4104  0.2967  1.0796
 5722SOL     OW28624   2.673   3.339   4.046 -0.1702  0.2408  0.4505
 5722SOL    HW128625   2.614   3.288   4.101 -0.1619  0.5114  0.7170
 5722SOL    HW228626   2.758   3.303   4.070  0.3247  0.6294 -0.7355
 5723SOL     OW28627   4.635   3.884   8.645  0.2410 -0.2053  0.0372
 5723SOL    HW128628   4.568   3.890   8.578 -0.2778  0.7254  0.6334
 5723SOL    HW228629   4.617   3.807   8.699  1.1374 -0.8227 -0.5531
 5724SOL     OW28630   1.407   0.851  14.733 -0.2927 -0.6299  0.1851
 5724SOL    HW128631   1.474   0.784  14.742  0.5984  0.3111  0.4654
 5724SOL    HW228632   1.398   0.855  14.637  0.9075 -0.7254  0.0704
 5725SOL     OW28633   3.761   1.025  17.076 -0.8690 -0.0101  0.4378
 5725SOL    HW128634   3.728   1.102  17.121 -0.2743  1.1556 -1.1281
 5725SOL    HW228635   3.679   0.977  17.074 -0.2701 -1.0558  1.0188
 5726SOL     OW28636   4.592   3.565   7.960  0.1031  0.3458  0.3998
 5726SOL    HW128637   4.556   3.651   7.937  0.0782  0.9250  2.5983
 5726SOL    HW228638   4.676   3.557   7.914  0.0309 -2.6578  0.7639
 5727SOL     OW28639   3.110   4.352   6.479 -0.0448  0.6653  0.3807
 5727SOL    HW128640   3.093   4.337   6.572  0.0874 -0.9267  0.1488
 5727SOL    HW228641   3.189   4.303   6.456 -2.4758 -1.2885 -3.8015
 5728SOL     OW28642   2.256   4.632   0.338  0.0146 -0.0485  0.1789
 5728SOL    HW128643   2.300   4.638   0.423  1.2606 -2.1342 -0.3251
 5728SOL    HW228644   2.196   4.707   0.338 -0.9005 -0.7896  2.5393
 5729SOL     OW28645   1.977   0.476  11.466 -0.3860 -0.0448 -0.2417
 5729SOL    HW128646   1.962   0.545  11.531 -0.2734 -0.4333  0.1999
 5729SOL    HW228647   2.025   0.528  11.401 -2.4585 -1.8588 -3.1834
 5730SOL     OW28648   1.727   3.138  15.197  0.1834  0.2502 -0.0451
 5730SOL    HW128649   1.670   3.211  15.222 -0.8519 -0.8077  0.6681
 5730SOL    HW228650   1.717   3.135  15.102  0.3470  0.1136 -0.0584
 5731SOL     OW28651   3.470   3.191  14.016  0.2161  0.1723 -0.5030
 5731SOL    HW128652   3.380   3.176  14.043  0.5461  0.4474  0.7507
 5731SOL    HW228653   3.472   3.117  13.955  2.1374 -0.0963 -0.1274
 5732SOL     OW28654   0.892   1.065   8.060 -0.7295  0.4253  0.0143
 5732SOL    HW128655   0.817   1.013   8.090 -0.3976 -0.0157  0.0820
 5732SOL    HW228656   0.930   0.995   8.006  0.9059  0.3635  1.2345
 5733SOL     OW28657   0.568   2.825   9.406 -0.2368 -0.5920  0.1265
 5733SOL    HW128658   0.534   2.757   9.347  1.2112 -0.3089 -1.0313
 5733SOL    HW228659   0.661   2.821   9.383 -0.5025 -2.6600 -0.5709
 5734SOL     OW28660   2.930   2.668   5.205 -0.3046 -0.1322 -0.0926
 5734SOL    HW128661   2.969   2.581   5.191 -1.9955 -0.8209 -0.5174
 5734SOL    HW228662   2.849   2.636   5.244 -0.7038  2.1977  0.9914
 5735SOL     OW28663   3.193   2.565   7.888 -0.0020 -0.1629  0.4117
 5735SOL    HW128664   3.265   2.583   7.827 -0.6552 -1.2225 -0.6652
 5735SOL    HW228665   3.210   2.474   7.912 -2.3728 -0.4126  1.1258
 5736SOL     OW28666   2.009   3.961   7.478 -0.4650  0.0006 -0.1681
 5736SOL    HW128667   2.034   4.022   7.408  1.8279 -0.6201  0.1265
 5736SOL    HW228668   2.079   3.897   7.489 -0.8464 -0.3165  0.3688
 5737SOL     OW28669   0.235   4.160   9.983  0.0899  0.6790  0.3452
 5737SOL    HW128670   0.164   4.097   9.978 -0.0419  0.7129  1.8560
 5737SOL    HW228671   0.305   4.099   9.959 -1.5091 -1.3631  0.8794
 5738SOL     OW28672   4.133   0.390   6.908  0.1811  0.2715 -0.5770
 5738SOL    HW128673   4.127   0.477   6.869 -1.2916  0.6631  0.5198
 5738SOL    HW228674   4.062   0.404   6.971  2.5149  1.3594  1.8281
 5739SOL     OW28675   4.065   1.539   1.925  0.2548  0.1159 -0.8211
 5739SOL    HW128676   4.131   1.607   1.906  3.1331 -2.2119  0.8302
 5739SOL    HW228677   4.028   1.511   1.841 -0.2580 -2.5584  0.3160
 5740SOL     OW28678   3.010   1.078   4.990 -0.3017  0.6843 -0.1722
 5740SOL    HW128679   3.056   1.129   4.924 -0.1245 -2.2499 -2.3194
 5740SOL    HW228680   3.041   0.989   4.975 -1.1363  0.2620  0.5474
 5741SOL     OW28681   3.258   2.236   8.505  0.1679  0.1346  0.0859
 5741SOL    HW128682   3.321   2.267   8.440  0.9025  0.1821  0.8176
 5741SOL    HW228683   3.240   2.315   8.555 -0.8919  0.0404 -0.1613
 5742SOL     OW28684   3.474   0.216   4.000 -0.2357 -0.2910  0.2474
 5742SOL    HW128685   3.414   0.291   3.995  2.8305  2.0370 -1.8390
 5742SOL    HW228686   3.498   0.223   4.093 -0.0665  1.2466  0.0876
 5743SOL     OW28687   4.309   4.099   4.973  0.0549 -0.3641  0.2222
 5743SOL    HW128688   4.264   4.182   4.987  2.4211  0.9092  0.4275
 5743SOL    HW228689   4.389   4.134   4.933  0.8184  0.1861  2.2465
 5744SOL     OW28690   4.410   2.964  16.532 -0.2466 -0.4457  0.2640
 5744SOL    HW128691   4.367   3.036  16.486 -0.3079 -0.5015  0.2326
 5744SOL    HW228692   4.470   2.935  16.463  0.0331 -2.8991  1.5610
 5745SOL     OW28693   3.063   0.411   2.714 -0.2119 -0.0122  0.1083
 5745SOL    HW128694   3.107   0.494   2.699 -2.0051  0.6868 -1.2851
 5745SOL    HW228695   2.996   0.427   2.647  0.1855  0.4866 -0.1639
 5746SOL     OW28696   4.367   0.056   5.129 -0.0391 -0.3944 -0.3259
 5746SOL    HW128697   4.436   0.080   5.068 -0.9821  0.5926 -1.0039
 5746SOL    HW228698   4.294   0.096   5.082 -0.7558 -1.4512 -0.1134
 5747SOL     OW28699   0.454   0.677   4.242  0.1271 -0.5521  0.3819
 5747SOL    HW128700   0.470   0.679   4.336 -2.2858  1.9521  0.7380
 5747SOL    HW228701   0.361   0.697   4.234  0.2602  0.5266  1.4581
 5748SOL     OW28702   4.348   4.397   1.959 -0.7873  0.2239  0.1562
 5748SOL    HW128703   4.295   4.465   1.917 -1.8147 -0.7785 -0.1655
 5748SOL    HW228704   4.316   4.317   1.917 -0.9070  0.0237  0.6392
 5749SOL     OW28705   1.035   0.691   3.873 -0.1826 -0.3654 -0.2335
 5749SOL    HW128706   1.122   0.712   3.909 -0.9607  3.8759 -0.8516
 5749SOL    HW228707   0.982   0.677   3.952  2.2652 -1.2509  1.2750
 5750SOL     OW28708   2.608   4.006   0.801  0.6142 -0.2447  0.6284
 5750SOL    HW128709   2.683   3.992   0.743 -0.9921  1.4896 -1.8658
 5750SOL    HW228710   2.623   4.092   0.841 -1.7355  0.5760 -0.2663
 5751SOL     OW28711   4.243   2.026  12.399 -0.2723  0.3646 -0.3123
 5751SOL    HW128712   4.153   2.011  12.370 -0.6525  3.6373 -0.8762
 5751SOL    HW228713   4.277   2.082  12.330 -0.3255  0.0019 -0.6280
 5752SOL     OW28714   4.542   0.634   7.601  0.0994  0.2063  0.5436
 5752SOL    HW128715   4.600   0.683   7.542  0.6825 -0.8861  0.2104
 5752SOL    HW228716   4.610   0.578   7.637  0.0326 -0.1740  0.0920
 5753SOL     OW28717   3.435   0.332   8.644 -0.0576 -0.1511 -0.3540
 5753SOL    HW128718   3.409   0.386   8.718  0.0791  1.1627 -1.2613
 5753SOL    HW228719   3.464   0.255   8.693  0.8894  0.4688  0.0538
 5754SOL     OW28720   0.310   1.205   2.820  0.2702  0.4173 -0.2512
 5754SOL    HW128721   0.273   1.149   2.889  0.2631  1.4137  0.5622
 5754SOL    HW228722   0.404   1.188   2.827  0.3462  1.2666  0.8850
 5755SOL     OW28723   4.093   0.675  17.197 -0.5001 -0.4471  0.6184
 5755SOL    HW128724   4.062   0.653  17.285  0.6743  1.5740  1.5362
 5755SOL    HW228725   4.140   0.755  17.221 -2.4805  0.7407  0.5074
 5756SOL     OW28726   0.373   0.693   8.539 -0.4241 -0.5575 -0.1006
 5756SOL    HW128727   0.444   0.737   8.586 -1.4716 -0.2387  1.1806
 5756SOL    HW228728   0.298   0.711   8.595 -0.1459 -0.4423  0.2299
 5757SOL     OW28729   4.120   4.079   2.117  0.2905  0.5710 -0.1330
 5757SOL    HW128730   4.187   4.033   2.066  0.4138 -0.1579  0.6980
 5757SOL    HW228731   4.086   4.149   2.060  0.9724  0.3110 -0.8747
 5758SOL     OW28732   0.568   1.350   4.656 -0.1409 -0.4324  0.9096
 5758SOL    HW128733   0.627   1.276   4.669  0.8068  0.3016  0.8377
 5758SOL    HW228734   0.613   1.410   4.597 -0.9963 -1.7123 -1.0095
 5759SOL     OW28735   0.387   4.430   4.192 -0.4883  0.2315 -0.2133
 5759SOL    HW128736   0.471   4.462   4.158 -0.9317 -0.4690 -1.9223
 5759SOL    HW228737   0.349   4.513   4.222 -1.7193 -1.0714  1.8164
 5760SOL     OW28738   0.239   4.480  11.219 -0.3320 -0.9204  0.3073
 5760SOL    HW128739   0.145   4.479  11.200 -0.4315  1.8627  0.5899
 5760SOL    HW228740   0.268   4.568  11.194 -1.4405 -1.5780 -3.2689
 5761SOL     OW28741   3.709   2.431   1.948  0.0528 -0.1759  0.1828
 5761SOL    HW128742   3.746   2.393   2.028  1.5311 -1.4133 -1.0959
 5761SOL    HW228743   3.782   2.409   1.890  0.7391  0.6053  0.7543
 5762SOL     OW28744   2.166   4.606   6.917 -0.5849  0.3609 -0.3321
 5762SOL    HW128745   2.218   4.679   6.950 -1.8140  1.6860 -1.3163
 5762SOL    HW228746   2.172   4.547   6.992  1.5141  1.8587  0.6612
 5763SOL     OW28747   4.578   3.107  10.470  0.4637  0.6793 -0.2256
 5763SOL    HW128748   4.562   3.048  10.543 -1.8023  0.6434 -0.7627
 5763SOL    HW228749   4.674   3.109  10.474  0.4678 -0.0578  0.0586
 5764SOL     OW28750   3.921   0.991   7.816 -0.2900 -0.2479 -0.0874
 5764SOL    HW128751   3.997   0.935   7.830  0.2173  0.5635  0.3680
 5764SOL    HW228752   3.945   1.046   7.742 -0.2978 -0.4444 -0.2361
 5765SOL     OW28753   3.549   0.111   8.786 -0.4431  0.0329 -0.3763
 5765SOL    HW128754   3.633   0.135   8.824 -1.1847  1.2055  0.5149
 5765SOL    HW228755   3.552   0.018   8.761 -2.1994 -0.0785 -0.1647
 5766SOL     OW28756   3.728   1.021   3.080  0.7158 -0.2061  0.2817
 5766SOL    HW128757   3.759   0.958   3.015  0.4553  0.4430 -0.4635
 5766SOL    HW228758   3.636   1.038   3.060  1.2304  2.4005  0.1800
 5767SOL     OW28759   0.189   2.737   4.835  0.7880  0.2522  0.4918
 5767SOL    HW128760   0.109   2.773   4.795 -0.0578 -0.7111  1.3237
 5767SOL    HW228761   0.236   2.819   4.846 -0.0622  0.8156 -0.0692
 5768SOL     OW28762   3.087   1.844   1.713  0.0187  0.6564  0.0281
 5768SOL    HW128763   3.006   1.869   1.758  0.2854  1.0668  0.2850
 5768SOL    HW228764   3.129   1.804   1.788 -1.7928  0.1569  0.7767
 5769SOL     OW28765   3.881   4.186  16.681 -0.1468 -1.1588 -0.3266
 5769SOL    HW128766   3.936   4.149  16.751 -1.5315 -1.7836  0.4322
 5769SOL    HW228767   3.811   4.121  16.675 -1.7089  0.7398 -2.7434
 5770SOL     OW28768   1.064   1.119  15.236  0.2468  0.0439 -0.1481
 5770SOL    HW128769   1.157   1.139  15.222  0.1019  1.1681  0.4893
 5770SOL    HW228770   1.034   1.198  15.281  0.9717 -0.2658  0.8734
 5771SOL     OW28771   1.152   0.109   3.791 -0.1342  0.1534 -0.2714
 5771SOL    HW128772   1.057   0.098   3.800 -0.3105  0.2011 -2.1119
 5771SOL    HW228773   1.167   0.112   3.885 -1.5574  0.8498 -0.0593
 5772SOL     OW28774   3.410   0.356   5.208  0.6706  0.0414 -0.0275
 5772SOL    HW128775   3.448   0.422   5.149 -0.4869  0.2922 -0.4858
 5772SOL    HW228776   3.317   0.375   5.218  0.9957  1.3977  0.3836
 5773SOL     OW28777   3.079   1.297   2.897  0.4296  0.0915  0.1036
 5773SOL    HW128778   3.080   1.290   2.802  0.4186 -1.7362  0.2202
 5773SOL    HW228779   3.022   1.222   2.915 -0.5903  0.6845 -0.6777
 5774SOL     OW28780   4.712   1.373   1.582 -0.0452  0.0060  0.1375
 5774SOL    HW128781   4.706   1.427   1.504 -3.3307 -0.2220  0.2522
 5774SOL    HW228782   4.657   1.298   1.559  0.0573  0.8404 -2.7644
 5775SOL     OW28783   2.306   1.423   0.587 -0.6767  0.1895  0.1759
 5775SOL    HW128784   2.367   1.351   0.570 -1.2078  0.3058 -2.2403
 5775SOL    HW228785   2.237   1.378   0.635  0.1967 -4.3069 -2.7350
 5776SOL     OW28786   2.355   1.254   6.306  0.6281  0.3353  0.4902
 5776SOL    HW128787   2.401   1.292   6.232  0.0001  1.2198  0.5581
 5776SOL    HW228788   2.426   1.191   6.324  0.4834  0.6267  2.0944
 5777SOL     OW28789   4.102   4.177  15.935  0.4279  0.2058  0.0941
 5777SOL    HW128790   4.105   4.247  15.869 -2.9673 -1.3095 -1.6345
 5777SOL    HW228791   4.111   4.229  16.015  1.9221  1.0428 -0.6066
 5778SOL     OW28792   1.201   0.438   5.367  0.0507  0.4284  0.5563
 5778SOL    HW128793   1.236   0.458   5.454 -1.6356 -0.4785  1.4402
 5778SOL    HW228794   1.107   0.437   5.385 -0.3043 -0.0991 -1.3827
 5779SOL     OW28795   1.161   1.391   5.287 -0.1036  0.1465  0.0546
 5779SOL    HW128796   1.250   1.399   5.320 -0.5341  1.4732  0.9250
 5779SOL    HW228797   1.155   1.444   5.207 -1.5036  0.3463  0.2769
 5780SOL     OW28798   3.052   0.188   3.193  0.0748 -0.4504  0.2819
 5780SOL    HW128799   3.121   0.237   3.148 -1.2739 -1.1080 -2.5370
 5780SOL    HW228800   3.036   0.118   3.128 -0.6846 -1.2238  1.3096
 5781SOL     OW28801   3.654   0.175   4.812  0.0253 -0.0814 -0.4830
 5781SOL    HW128802   3.566   0.144   4.792  0.2017 -1.5733  1.0243
 5781SOL    HW228803   3.649   0.267   4.786 -0.9464  0.1986  0.7150
 5782SOL     OW28804   4.265   0.036   3.624 -0.2380  0.0612  0.0139
 5782SOL    HW128805   4.352   0.068   3.600 -0.0179  1.1546  2.2801
 5782SOL    HW228806   4.205   0.102   3.590 -0.8130 -0.2024  0.5188
 5783SOL     OW28807   3.919   0.355  11.903  0.2550  0.4553 -0.9942
 5783SOL    HW128808   3.831   0.359  11.940  1.9485  0.9021  2.9759
 5783SOL    HW228809   3.903   0.292  11.833 -0.3481 -0.6453  0.1361
 5784SOL     OW28810   3.434   1.642  17.036  0.2765 -0.0839  0.3059
 5784SOL    HW128811   3.396   1.611  16.954  1.0863  1.0732 -0.5063
 5784SOL    HW228812   3.352   1.649  17.086  0.7019  0.2264  0.9553
 5785SOL     OW28813   3.893   3.947   6.542  0.5070  0.3834 -0.1366
 5785SOL    HW128814   3.871   3.985   6.627 -1.1034  2.3026 -1.4035
 5785SOL    HW228815   3.815   3.972   6.492  0.0540  1.1881  0.9549
 5786SOL     OW28816   2.921   0.636   7.430 -0.0707  0.3258  0.1477
 5786SOL    HW128817   2.878   0.552   7.447  1.0377  0.0244  1.4827
 5786SOL    HW228818   2.897   0.688   7.506 -1.9075 -2.0433  1.1785
 5787SOL     OW28819   0.672   3.094   9.063 -0.3026 -0.2786 -0.4135
 5787SOL    HW128820   0.750   3.038   9.057 -0.5504 -0.6590 -0.0084
 5787SOL    HW228821   0.692   3.164   9.001 -1.9836  0.7931  0.2788
 5788SOL     OW28822   2.604   1.598   5.926 -0.2612  0.5117 -0.2757
 5788SOL    HW128823   2.589   1.680   5.879 -0.8042  0.1643 -0.7079
 5788SOL    HW228824   2.692   1.615   5.960 -0.3453  0.8759 -0.2419
 5789SOL     OW28825   0.698   0.424  14.969 -0.0221 -0.5000  0.2503
 5789SOL    HW128826   0.667   0.340  15.004  2.0413 -0.7400  1.5671
 5789SOL    HW228827   0.618   0.473  14.953 -0.3784 -0.9269  0.7351
 5790SOL     OW28828   0.853   3.815  10.411  0.7206  0.4661  0.5794
 5790SOL    HW128829   0.781   3.754  10.425  0.9781 -0.0527 -0.3010
 5790SOL    HW228830   0.804   3.891  10.382 -0.7077 -1.9862 -3.5007
 5791SOL     OW28831   0.487   1.750   5.699  0.0481 -0.6128  0.3171
 5791SOL    HW128832   0.508   1.843   5.702  0.3394 -0.6540 -0.3318
 5791SOL    HW228833   0.528   1.731   5.615  1.1674  0.1610  0.6957
 5792SOL     OW28834   4.012   1.828   4.050  0.1200  0.0304  0.0869
 5792SOL    HW128835   3.968   1.810   4.134 -1.2139 -0.1643 -0.6612
 5792SOL    HW228836   3.939   1.812   3.990  0.4612 -1.3933  0.0367
 5793SOL     OW28837   1.395   1.786   7.101 -0.5100 -0.4600  0.6787
 5793SOL    HW128838   1.441   1.774   7.018 -0.1618 -0.6909  0.9047
 5793SOL    HW228839   1.339   1.709   7.112 -0.2721 -0.7262  0.0243
 5794SOL     OW28840   3.750   3.659   1.829 -0.3151  0.2772 -0.1164
 5794SOL    HW128841   3.776   3.568   1.840 -1.0486  0.2140  1.0802
 5794SOL    HW228842   3.796   3.671   1.746 -1.3652 -0.7196 -0.8453
 5795SOL     OW28843   3.365   1.289  13.561 -0.3090  0.5032 -0.1778
 5795SOL    HW128844   3.406   1.366  13.601  1.0213 -0.4537  0.2769
 5795SOL    HW228845   3.275   1.321  13.549 -0.5894 -0.7142 -1.2572
 5796SOL     OW28846   2.158   3.573   9.912 -0.0510 -0.1773  0.4140
 5796SOL    HW128847   2.253   3.565   9.902 -0.1759 -0.2526 -0.7261
 5796SOL    HW228848   2.140   3.666   9.898 -1.5558 -1.1310 -4.0504
 5797SOL     OW28849   2.550   2.082  17.635  0.0861  0.3201  0.5267
 5797SOL    HW128850   2.488   2.153  17.616  0.1587  0.0485 -0.7504
 5797SOL    HW228851   2.630   2.125  17.606  0.4930  1.0350  2.6940
 5798SOL     OW28852   0.704   3.301  13.399 -0.2052  0.2137  0.0969
 5798SOL    HW128853   0.750   3.301  13.483  0.4720 -0.3879 -0.2734
 5798SOL    HW228854   0.618   3.326  13.432 -0.7379 -0.1118 -1.0356
 5799SOL     OW28855   2.069   1.928  14.003 -0.3082  0.6127  0.6002
 5799SOL    HW128856   2.153   1.950  13.963  0.2682  0.3571  1.6602
 5799SOL    HW228857   2.034   1.862  13.942  2.7577 -0.0330 -0.4490
 5800SOL     OW28858   3.380   1.472   1.437 -0.2666 -0.1815 -0.0488
 5800SOL    HW128859   3.317   1.545   1.433  0.8426  0.9486  3.5654
 5800SOL    HW228860   3.459   1.503   1.393  0.9940 -3.1910  0.0945
 5801SOL     OW28861   3.482   2.073   2.252  0.4069 -0.4206  0.1557
 5801SOL    HW128862   3.574   2.048   2.258  0.4517  0.0138  1.2223
 5801SOL    HW228863   3.500   2.151   2.199 -0.1839  0.6008  1.4330
 5802SOL     OW28864   2.893   0.572  16.140 -0.0278 -0.7111  0.2520
 5802SOL    HW128865   2.931   0.610  16.061 -1.0405 -3.3182 -1.5005
 5802SOL    HW228866   2.873   0.488  16.099  0.9480 -0.4761 -0.7005
 5803SOL     OW28867   3.449   4.267   1.251 -0.2785 -0.4340 -0.1644
 5803SOL    HW128868   3.354   4.262   1.265 -0.4557 -0.8434 -1.5648
 5803SOL    HW228869   3.466   4.350   1.294 -1.7351  0.3324 -1.0721
 5804SOL     OW28870   2.217   2.634   2.772 -0.3021 -0.6005 -0.0393
 5804SOL    HW128871   2.310   2.625   2.794 -0.4440  0.1854  0.9016
 5804SOL    HW228872   2.193   2.682   2.852  1.0111  0.0800 -0.0453
 5805SOL     OW28873   1.836   2.690   6.237  0.1851 -0.3580 -0.1337
 5805SOL    HW128874   1.896   2.754   6.274  0.4423  0.1398 -1.4050
 5805SOL    HW228875   1.786   2.738   6.171  0.4783 -1.1351 -0.9111
 5806SOL     OW28876   3.509   1.744   4.790  0.5444 -0.3990  0.4343
 5806SOL    HW128877   3.508   1.837   4.811 -0.1920 -0.1449 -0.7035
 5806SOL    HW228878   3.578   1.750   4.724  0.3016  1.9161  0.4021
 5807SOL     OW28879   4.268   4.431   0.037 -0.3207 -0.3022 -0.2089
 5807SOL    HW128880   4.213   4.373   0.090 -0.8326 -1.4617 -1.9898
 5807SOL    HW228881   4.309   4.469   0.114  1.8863  0.0917 -1.5830
 5808SOL     OW28882   0.488   3.652  14.987 -0.1499  0.1279 -0.6786
 5808SOL    HW128883   0.581   3.676  14.993 -0.2280  0.2759 -0.0797
 5808SOL    HW228884   0.477   3.617  15.075  0.2915  2.4029  0.2723
 5809SOL     OW28885   1.822   2.768   9.262 -0.5163 -0.5332 -0.6219
 5809SOL    HW128886   1.871   2.850   9.250  1.1302 -1.3037  0.9089
 5809SOL    HW228887   1.736   2.789   9.227 -0.0547 -0.3281 -1.6272
 5810SOL     OW28888   1.894   3.112   6.505 -0.0429  0.2558  0.3029
 5810SOL    HW128889   1.863   3.172   6.572  1.4061  0.3083  0.9220
 5810SOL    HW228890   1.980   3.154   6.497 -1.3471  2.7563 -0.6261
 5811SOL     OW28891   0.776   2.966   3.969 -0.2816 -0.6819 -0.0519
 5811SOL    HW128892   0.815   3.049   3.997 -2.1903 -0.0770  0.7535
 5811SOL    HW228893   0.728   2.943   4.048  0.0420 -0.5608  0.1834
 5812SOL     OW28894   1.946   0.906  10.765  0.2587 -1.2315  0.3812
 5812SOL    HW128895   1.860   0.864  10.762  0.5924 -1.9485  0.8314
 5812SOL    HW228896   1.946   0.935  10.856 -0.6537  0.1018 -0.0424
 5813SOL     OW28897   2.804   1.382  10.041 -0.2563  0.5056  0.0151
 5813SOL    HW128898   2.796   1.300   9.993 -1.0420  1.2339 -1.0843
 5813SOL    HW228899   2.721   1.372  10.089 -0.3867  0.0180 -0.3101
 5814SOL     OW28900   4.710   1.416   6.664 -0.0137 -1.1839  0.2617
 5814SOL    HW128901   0.037   1.389   6.740  0.7717 -2.4175 -0.7258
 5814SOL    HW228902   4.629   1.441   6.710  0.6515  2.5198 -0.5229
 5815SOL     OW28903   0.911   1.927   6.277 -0.1847  0.0057 -0.4215
 5815SOL    HW128904   0.837   1.913   6.219 -0.6669 -0.0072  0.1991
 5815SOL    HW228905   0.966   1.980   6.220 -0.5142  0.8359  0.0380
 5816SOL     OW28906   2.594   4.671   8.122  0.2968 -0.1673  0.0712
 5816SOL    HW128907   2.617   4.590   8.076 -1.8226  0.1471 -1.5161
 5816SOL    HW228908   2.674   4.680   8.173 -0.0046 -0.2512  0.5625
 5817SOL     OW28909   0.137   2.871   7.236 -0.2326 -0.1201 -0.1503
 5817SOL    HW128910   0.206   2.806   7.250 -0.5479 -0.0411  1.7392
 5817SOL    HW228911   0.055   2.824   7.251  0.3078 -0.6649  1.0400
 5818SOL     OW28912   1.536   1.987   3.999  0.1207 -0.5058  0.2863
 5818SOL    HW128913   1.449   1.966   4.032 -0.3287  0.0180 -0.5859
 5818SOL    HW228914   1.526   1.991   3.904 -0.0298 -0.7494  0.2928
 5819SOL     OW28915   2.012   1.528   2.508  0.1414 -0.0056 -0.1900
 5819SOL    HW128916   2.059   1.585   2.569 -1.2484 -1.3001  2.0855
 5819SOL    HW228917   1.960   1.479   2.572 -0.6077 -0.5263 -1.1926
 5820SOL     OW28918   4.587   3.758   1.968  0.0703  0.0025 -0.0924
 5820SOL    HW128919   4.513   3.753   2.029 -0.8360 -0.7159 -1.2380
 5820SOL    HW228920   4.619   3.845   1.992  1.6226 -0.7496  0.5633
 5821SOL     OW28921   4.224   3.240   7.164 -0.0626  0.3475 -0.1157
 5821SOL    HW128922   4.228   3.336   7.170  0.3193  0.3658 -0.6586
 5821SOL    HW228923   4.211   3.221   7.257  0.2112 -1.1505 -0.3835
 5822SOL     OW28924   3.025   0.945   2.001  0.1068  0.5241  0.5186
 5822SOL    HW128925   3.077   0.867   2.020 -1.7710 -0.6493  0.8425
 5822SOL    HW228926   2.940   0.922   2.039  0.8512 -1.5387  0.8908
 5823SOL     OW28927   2.794   2.979  12.883  0.0315  0.0966 -0.7033
 5823SOL    HW128928   2.865   3.029  12.842  1.1735 -0.1266  1.0237
 5823SOL    HW228929   2.841   2.968  12.965 -2.3257 -0.0135  0.6315
 5824SOL     OW28930   0.862   3.295  13.598 -0.5331 -0.0778  0.4589
 5824SOL    HW128931   0.827   3.277  13.686 -0.0512  1.0395  0.8721
 5824SOL    HW228932   0.884   3.388  13.604  2.1134 -0.6477 -0.2991
 5825SOL     OW28933   0.375   2.145  11.075 -0.0584  0.8259 -0.3339
 5825SOL    HW128934   0.337   2.101  11.151 -0.3761  0.1332 -0.9021
 5825SOL    HW228935   0.315   2.123  11.004  0.8186 -1.3517 -0.4096
 5826SOL     OW28936   0.159   2.316   6.483  0.0145 -0.3641 -0.4646
 5826SOL    HW128937   0.222   2.338   6.415  2.2305 -2.7944  0.7914
 5826SOL    HW228938   0.223   2.272   6.539  0.0487 -0.0074 -0.2205
 5827SOL     OW28939   0.755   1.559  10.889 -0.1535  0.0703 -0.0600
 5827SOL    HW128940   0.754   1.480  10.943 -0.8149  0.5993  0.7122
 5827SOL    HW228941   0.822   1.606  10.938  1.5547 -0.5799 -1.7904
 5828SOL     OW28942   0.177   4.135   7.672 -0.1493 -0.1582  0.2765
 5828SOL    HW128943   0.259   4.166   7.710  0.5508 -0.7599 -0.7454
 5828SOL    HW228944   0.210   4.100   7.589 -0.4848  0.2281 -0.0193
 5829SOL     OW28945   1.597   1.429   9.043 -0.3470  0.3079  0.5148
 5829SOL    HW128946   1.522   1.412   9.100 -0.0574 -2.0189  0.1895
 5829SOL    HW228947   1.561   1.444   8.956 -1.8637  1.2618  1.3058
 5830SOL     OW28948   0.908   0.882  15.281  0.0917  0.5412  0.1081
 5830SOL    HW128949   0.898   0.820  15.354  3.4561  0.6435  0.6530
 5830SOL    HW228950   0.990   0.923  15.311  1.2746 -2.8168  1.4747
 5831SOL     OW28951   3.462   4.343   4.801  0.2900  0.6983 -0.6981
 5831SOL    HW128952   3.553   4.311   4.806  0.1639  0.9375  3.6232
 5831SOL    HW228953   3.420   4.299   4.728  0.7011  0.5471 -0.8443
 5832SOL     OW28954   2.042   3.596   5.888  0.0503 -0.1377  0.1365
 5832SOL    HW128955   1.998   3.669   5.844  1.3519 -0.3681 -1.5454
 5832SOL    HW228956   2.085   3.638   5.962  2.1691 -0.1253 -1.0859
 5833SOL     OW28957   0.143   1.227   6.055 -0.1652  0.3152  0.0316
 5833SOL    HW128958   0.214   1.281   6.091 -0.2978 -0.2119  1.1044
 5833SOL    HW228959   0.120   1.259   5.968  1.0515  3.0071  0.6954
 5834SOL     OW28960   4.589   3.864  14.734 -0.0909  0.4887 -0.0703
 5834SOL    HW128961   4.649   3.939  14.732  2.4670 -1.4879  1.3181
 5834SOL    HW228962   4.632   3.812  14.802 -1.6041  1.1100  1.3763
 5835SOL     OW28963   2.644   0.524   6.811 -0.3031 -0.1434 -0.2855
 5835SOL    HW128964   2.714   0.588   6.830 -0.4075  0.2450 -1.2022
 5835SOL    HW228965   2.589   0.551   6.885 -1.7644 -1.0727 -1.0427
 5836SOL     OW28966   4.331   4.091   5.640  0.3713 -0.0513  0.1219
 5836SOL    HW128967   4.382   4.054   5.567  0.7311 -0.8273  0.7668
 5836SOL    HW228968   4.267   4.022   5.658  0.5866  0.4456  2.7326
 5837SOL     OW28969   0.766   1.372  11.866  0.1342  0.0956 -0.1107
 5837SOL    HW128970   0.845   1.357  11.917 -0.5713 -2.4458  0.2479
 5837SOL    HW228971   0.699   1.366  11.934  1.3040 -1.6884  0.8919
 5838SOL     OW28972   3.608   3.372   9.133  0.3479  0.6554 -0.4385
 5838SOL    HW128973   3.675   3.362   9.065  0.5581 -0.2518 -0.0871
 5838SOL    HW228974   3.652   3.420   9.203  1.7954 -0.5641 -0.5320
 5839SOL     OW28975   2.496   2.459   2.394  0.2677 -0.0587  0.0436
 5839SOL    HW128976   2.574   2.408   2.372  0.3418  1.3187 -2.9410
 5839SOL    HW228977   2.538   2.537   2.432  0.3498 -0.3559  0.5641
 5840SOL     OW28978   3.369   1.566   3.381  0.0654  0.0732  0.2913
 5840SOL    HW128979   3.281   1.553   3.345 -0.9326  3.9877  1.3647
 5840SOL    HW228980   3.401   1.476   3.369  1.2271  0.2257  2.1944
 5841SOL     OW28981   1.030   3.383   5.741 -0.2903  0.1966 -0.1226
 5841SOL    HW128982   1.019   3.290   5.758 -1.2674  0.4674  0.7429
 5841SOL    HW228983   1.082   3.371   5.662  2.1872  1.6821  1.2971
 5842SOL     OW28984   3.214   3.575   2.047  0.3788 -0.8140  1.1908
 5842SOL    HW128985   3.230   3.560   1.954  1.7353  0.4444  1.2223
 5842SOL    HW228986   3.292   3.616   2.084  1.0705 -1.2752  0.2609
 5843SOL     OW28987   4.126   0.643   6.845 -0.0992 -0.5442 -0.1034
 5843SOL    HW128988   4.207   0.651   6.796 -1.1322 -0.5393 -1.7903
 5843SOL    HW228989   4.069   0.718   6.830  1.8063  1.0106  0.4521
 5844SOL     OW28990   0.105   2.727   6.585 -0.0835 -0.4530 -0.2425
 5844SOL    HW128991   0.191   2.742   6.624  0.0276  2.6114 -1.6934
 5844SOL    HW228992   0.136   2.681   6.507 -1.7002 -1.9708 -0.0030
 5845SOL     OW28993   2.147   4.508   6.591  0.5861 -0.0737  0.2187
 5845SOL    HW128994   2.224   4.455   6.572 -0.3538 -1.1109 -0.6848
 5845SOL    HW228995   2.095   4.486   6.514  0.2835  0.2381  0.3320
 5846SOL     OW28996   1.096   3.314  13.267  0.0974  0.4675  0.7732
 5846SOL    HW128997   1.062   3.402  13.284  0.3468  0.6467  0.3297
 5846SOL    HW228998   1.023   3.271  13.222  0.9603 -3.2117  2.8900
 5847SOL     OW28999   1.311   3.159   9.765  0.5246  0.4280  0.0760
 5847SOL    HW129000   1.303   3.070   9.731 -0.7126  1.1222 -1.4436
 5847SOL    HW229001   1.399   3.152   9.802  0.1968  2.6602  1.2746
 5848SOL     OW29002   4.228   3.824   7.213  0.6529  0.2260  0.6008
 5848SOL    HW129003   4.166   3.809   7.141 -0.4791  1.1049  1.3972
 5848SOL    HW229004   4.296   3.872   7.166 -0.0722  1.4362  0.7945
 5849SOL     OW29005   3.146   4.158   2.806 -0.4397 -0.2660  0.1229
 5849SOL    HW129006   3.203   4.208   2.864 -0.7795 -0.9214  1.0211
 5849SOL    HW229007   3.091   4.228   2.769 -1.2755  0.0224  1.8991
 5850SOL     OW29008   0.401   3.140  10.635  0.4551  0.0157  0.4861
 5850SOL    HW129009   0.488   3.106  10.612  0.6592  1.7515 -1.3436
 5850SOL    HW229010   0.408   3.152  10.729 -2.2608  0.7218  0.5850
 5851SOL     OW29011   3.623   2.170   9.302  0.7444  0.3393  0.5421
 5851SOL    HW129012   3.648   2.216   9.382 -0.1250 -0.9135  1.5371
 5851SOL    HW229013   3.709   2.142   9.270  1.8170  2.9269  1.1609
 5852SOL     OW29014   2.383   2.441   4.714 -0.7645  0.2111  0.3945
 5852SOL    HW129015   2.456   2.464   4.657 -1.8849 -0.0949 -1.1425
 5852SOL    HW229016   2.432   2.440   4.797  2.8773 -1.2972 -1.7632
 5853SOL     OW29017   3.854   3.985   5.201  0.5414  0.2342 -0.6790
 5853SOL    HW129018   3.905   4.059   5.170  0.0673  0.3577 -1.1676
 5853SOL    HW229019   3.784   3.979   5.135  1.6282 -0.1303 -1.7952
 5854SOL     OW29020   3.850   2.843   2.074  0.1686  0.8010  0.4258
 5854SOL    HW129021   3.876   2.755   2.101  1.4796  1.2911  0.7605
 5854SOL    HW229022   3.773   2.810   2.027 -0.4870 -0.7884  2.6055
 5855SOL     OW29023   0.840   3.751   6.059  0.3129  0.3425 -0.1899
 5855SOL    HW129024   0.880   3.694   6.125 -2.3556  2.0821  2.9587
 5855SOL    HW229025   0.789   3.682   6.017  0.0743 -0.1861  0.9646
 5856SOL     OW29026   3.142   2.760   5.402 -0.2308  0.6965  0.4589
 5856SOL    HW129027   3.100   2.697   5.343 -0.9640  2.8467 -1.2821
 5856SOL    HW229028   3.098   2.845   5.396 -1.4340  0.0282 -0.1998
 5857SOL     OW29029   0.552   2.055   5.841  1.0580  0.0547  0.3512
 5857SOL    HW129030   0.597   2.089   5.764  1.3756 -0.9995  0.0711
 5857SOL    HW229031   0.496   2.129   5.865  3.2647  1.4979  1.1115
 5858SOL     OW29032   2.862   2.951   8.260 -0.2922  0.8829 -0.1000
 5858SOL    HW129033   2.835   2.860   8.243 -0.6985  0.5175  2.4786
 5858SOL    HW229034   2.819   2.958   8.345 -0.1531  3.5441 -0.2639
 5859SOL     OW29035   2.816   0.257  11.919  0.0763  0.4565  0.9245
 5859SOL    HW129036   2.794   0.239  11.827 -1.1096  0.6729  1.1634
 5859SOL    HW229037   2.907   0.280  11.903 -0.5656  1.6790 -1.1358
 5860SOL     OW29038   2.299   2.599   5.082  0.4582 -0.2829  0.2450
 5860SOL    HW129039   2.251   2.522   5.050  0.0478  1.0693 -2.4274
 5860SOL    HW229040   2.380   2.568   5.041 -0.3663 -1.3288 -0.6122
 5861SOL     OW29041   3.048   4.190  13.770 -0.7122  0.8219  0.2579
 5861SOL    HW129042   3.071   4.219  13.858  0.7811  1.1124 -0.2228
 5861SOL    HW229043   2.974   4.248  13.749 -0.5767  0.6792 -0.6193
 5862SOL     OW29044   2.219   1.838   6.486  0.7998 -0.4521 -0.4059
 5862SOL    HW129045   2.253   1.814   6.400 -0.3519 -1.0501 -0.6924
 5862SOL    HW229046   2.303   1.831   6.533  1.0353 -0.3708 -0.8181
 5863SOL     OW29047   1.901   1.002   5.247  0.0134  0.4279  0.1423
 5863SOL    HW129048   1.839   1.075   5.249  0.0329  0.4633 -0.6898
 5863SOL    HW229049   1.937   0.996   5.335 -3.8576  1.1232  1.8022
 5864SOL     OW29050   4.677   2.169   9.851 -0.2566  0.9174  0.0862
 5864SOL    HW129051   0.024   2.121   9.893 -0.6979 -1.4355 -1.8314
 5864SOL    HW229052   4.715   2.257   9.851  3.1068 -0.5355  1.5636
 5865SOL     OW29053   0.194   2.949  16.501 -0.2442 -0.3776 -0.8836
 5865SOL    HW129054   0.189   2.864  16.545  4.8586  0.0925  0.6899
 5865SOL    HW229055   0.111   2.991  16.525  0.7934  0.4269  1.3102
 5866SOL     OW29056   3.382   4.491   9.628 -0.5522  0.1917  0.5703
 5866SOL    HW129057   3.427   4.408   9.609 -0.5160  0.7168 -1.5630
 5866SOL    HW229058   3.390   4.535   9.544  1.2373 -0.3457  0.4683
 5867SOL     OW29059   4.216   2.611   8.064 -0.2161 -0.7228  0.0488
 5867SOL    HW129060   4.130   2.597   8.103  0.7680 -0.0324  2.4167
 5867SOL    HW229061   4.187   2.597   7.973 -1.6599  0.5865  0.3016
 5868SOL     OW29062   2.701   4.642   8.740  0.4669 -0.3652  0.3008
 5868SOL    HW129063   2.743   4.570   8.787  0.5461 -0.3504  0.2529
 5868SOL    HW229064   2.618   4.600   8.717  0.3724 -1.1975  2.1643
 5869SOL     OW29065   2.250   0.762  11.075  0.1845  1.0441  0.0098
 5869SOL    HW129066   2.302   0.759  10.995  0.8394 -0.7508  0.4950
 5869SOL    HW229067   2.323   0.787  11.132 -0.2914  0.4995  0.8586
 5870SOL     OW29068   1.930   0.400  17.104 -0.0649  0.2461 -0.1737
 5870SOL    HW129069   1.869   0.329  17.124  2.6273 -2.1378 -0.4702
 5870SOL    HW229070   1.905   0.427  17.016 -3.2580 -2.4715 -0.1285
 5871SOL     OW29071   3.527   4.077   0.641 -0.4938 -0.2184  0.0949
 5871SOL    HW129072   3.550   4.120   0.723  1.7829 -1.6425  0.2089
 5871SOL    HW229073   3.583   4.120   0.576 -0.7305 -1.5193 -0.9647
 5872SOL     OW29074   1.228   3.379  14.600 -0.2946 -0.2062  0.4649
 5872SOL    HW129075   1.158   3.399  14.662  0.4405  0.4029  1.1011
 5872SOL    HW229076   1.312   3.387  14.646 -0.6490  0.1152  1.0694
 5873SOL     OW29077   1.823   3.102  13.843 -1.2508  0.2025  0.1478
 5873SOL    HW129078   1.760   3.162  13.803  0.1941  2.1275  0.7586
 5873SOL    HW229079   1.817   3.024  13.789 -1.1840 -0.6579  1.3823
 5874SOL     OW29080   0.197   2.674   8.544  0.4675 -0.6574 -0.3220
 5874SOL    HW129081   0.290   2.680   8.525  0.8194 -1.4555  1.1670
 5874SOL    HW229082   0.183   2.764   8.575 -0.6035 -0.9657  0.1067
 5875SOL     OW29083   3.056   4.614   7.579 -0.4446  0.1745 -0.0521
 5875SOL    HW129084   3.077   4.597   7.671 -1.2939 -1.4275 -0.1413
 5875SOL    HW229085   2.974   4.564   7.578  0.4972 -1.3253 -3.1406
 5876SOL     OW29086   3.506   0.482  12.433 -0.1063  0.5528  0.3658
 5876SOL    HW129087   3.594   0.480  12.472  0.3522 -0.5022 -0.6803
 5876SOL    HW229088   3.524   0.560  12.381  3.1025  0.6608  1.6005
 5877SOL     OW29089   1.681   4.672   5.697 -0.0400  0.4442 -0.1223
 5877SOL    HW129090   1.593   4.637   5.699  1.2460 -2.6442  2.6905
 5877SOL    HW229091   1.680   4.705   5.607  1.1363 -1.3511 -0.7955
 5878SOL     OW29092   1.770   2.878   4.991  0.2419 -0.4939  0.3744
 5878SOL    HW129093   1.744   2.952   5.046  1.3471  0.2206 -0.0644
 5878SOL    HW229094   1.769   2.919   4.904 -0.1275 -2.7012 -0.6537
 5879SOL     OW29095   0.601   2.339  12.049  0.0877 -0.0828  0.2552
 5879SOL    HW129096   0.688   2.318  12.014 -0.0545 -0.5698  0.1855
 5879SOL    HW229097   0.559   2.253  12.060 -0.9202  0.3660 -0.0755
 5880SOL     OW29098   0.001   0.268   2.499 -0.8230  0.0619  0.4212
 5880SOL    HW129099   4.633   0.291   2.498 -0.8290 -0.0551 -1.4924
 5880SOL    HW229100   0.009   0.188   2.551  2.6660 -0.9361 -1.6575
 5881SOL     OW29101   2.801   2.146   8.615  0.0538 -0.3564 -0.2504
 5881SOL    HW129102   2.778   2.211   8.549 -0.5800  0.3137  0.6459
 5881SOL    HW229103   2.872   2.099   8.569 -0.0062 -0.8196  0.1325
 5882SOL     OW29104   0.924   3.451   1.666  0.2561  0.2350 -0.1965
 5882SOL    HW129105   0.835   3.416   1.674  0.5457  0.0609  2.3057
 5882SOL    HW229106   0.964   3.365   1.678 -0.6229 -0.0068  0.9944
 5883SOL     OW29107   2.877   0.471  15.329  0.5431  0.5453  0.1938
 5883SOL    HW129108   2.843   0.503  15.412 -1.6579  2.6519 -1.4896
 5883SOL    HW229109   2.934   0.397  15.347 -0.0783 -0.4980 -2.0671
 5884SOL     OW29110   2.154   3.842   9.776 -0.2173  0.6717 -0.3791
 5884SOL    HW129111   2.247   3.858   9.794  0.5039 -2.2235 -1.5307
 5884SOL    HW229112   2.126   3.928   9.745  1.2118  0.5761 -1.9330
 5885SOL     OW29113   0.114   3.305   5.308 -0.3008  0.4847  0.0164
 5885SOL    HW129114   0.031   3.264   5.330 -0.3248  0.8153  0.5552
 5885SOL    HW229115   0.129   3.270   5.220  2.4951 -2.6952  1.7816
 5886SOL     OW29116   0.117   2.549   2.155 -0.5527  0.2983  0.0356
 5886SOL    HW129117   0.154   2.599   2.082 -2.2367  1.3719 -0.0946
 5886SOL    HW229118   0.033   2.536   2.110  0.0824  1.0381 -1.3855
 5887SOL     OW29119   0.713   0.547  14.690 -0.4597 -0.2096 -0.3431
 5887SOL    HW129120   0.672   0.497  14.620 -0.6481  2.2519 -2.0270
 5887SOL    HW229121   0.647   0.528  14.756  0.5908 -0.2602  0.6928
 5888SOL     OW29122   1.456   1.930   3.572  0.3464  0.0384  0.4690
 5888SOL    HW129123   1.484   1.900   3.486 -0.3087 -1.2053  0.6894
 5888SOL    HW229124   1.371   1.886   3.578  0.5318 -0.2770  0.8486
 5889SOL     OW29125   3.505   0.027   5.399  0.0517 -0.2167 -0.2442
 5889SOL    HW129126   3.547   4.719   5.320  1.7263  3.1165 -0.7033
 5889SOL    HW229127   3.583   0.049   5.451  0.0636  2.4165 -1.3577
 5890SOL     OW29128   4.356   2.625   2.752  0.2453  0.3618 -0.0507
 5890SOL    HW129129   4.341   2.703   2.699  1.7835  0.2255 -0.6910
 5890SOL    HW229130   4.443   2.612   2.714  0.2313  4.0191 -1.3612
 5891SOL     OW29131   4.606   0.823   6.596 -0.0339  0.4802 -0.0190
 5891SOL    HW129132   4.554   0.813   6.516 -0.0163 -2.9160  0.3608
 5891SOL    HW229133   4.682   0.871   6.564  1.2619 -1.5626 -0.0474
 5892SOL     OW29134   2.060   1.893   6.904 -0.6030  0.1758  0.1454
 5892SOL    HW129135   1.995   1.957   6.932 -2.8338 -2.2716  0.5630
 5892SOL    HW229136   2.031   1.812   6.945 -1.1294  0.4827  0.3839
 5893SOL     OW29137   2.261   4.153   1.446  0.2981  0.2522 -0.1302
 5893SOL    HW129138   2.203   4.225   1.470  0.8429  0.6293  0.0474
 5893SOL    HW229139   2.198   4.084   1.467  1.5977 -0.0565  2.6258
 5894SOL     OW29140   3.802   2.327  12.688 -0.5565  0.2993 -0.4481
 5894SOL    HW129141   3.864   2.364  12.625 -0.4453  0.5004 -0.2189
 5894SOL    HW229142   3.727   2.305  12.633  0.1762 -1.7195 -0.6388
 5895SOL     OW29143   3.943   4.002   3.045  0.2977 -0.3494  0.1215
 5895SOL    HW129144   3.868   3.949   3.018  2.0120 -0.0309 -5.1602
 5895SOL    HW229145   4.005   3.931   3.058 -0.2231 -0.8226  0.0400
 5896SOL     OW29146   1.737   2.704   5.967  0.7379  0.0153 -0.6039
 5896SOL    HW129147   1.814   2.691   5.912  1.8794  0.3909  0.9211
 5896SOL    HW229148   1.733   2.799   5.961 -1.8012 -0.1197 -1.2212
 5897SOL     OW29149   0.600   4.527   4.052 -0.2427 -0.1604 -0.3620
 5897SOL    HW129150   0.663   4.470   4.007 -2.2242 -1.4300 -1.5182
 5897SOL    HW229151   0.621   4.616   4.023  0.3910 -0.6038 -1.2706
 5898SOL     OW29152   2.515   1.072  11.193 -0.6158 -0.4460  0.7036
 5898SOL    HW129153   2.504   1.085  11.099  2.1829 -1.8037  0.1987
 5898SOL    HW229154   2.516   0.977  11.207 -0.7125 -0.7432 -1.3616
 5899SOL     OW29155   1.927   1.325   7.043  0.1489  0.2066  0.1321
 5899SOL    HW129156   1.938   1.230   7.046 -0.2461  0.1342 -0.5249
 5899SOL    HW229157   1.841   1.340   7.003  0.2287 -0.8634 -0.4561
 5900SOL     OW29158   0.346   3.367  12.811  0.2790  0.4996 -0.0935
 5900SOL    HW129159   0.314   3.451  12.844  0.9131  0.0699  1.6003
 5900SOL    HW229160   0.407   3.380  12.737 -0.0644 -2.3641 -0.8750
 5901SOL     OW29161   1.326   0.007  12.300 -0.4094  0.0165 -0.5520
 5901SOL    HW129162   1.406   0.019  12.351  0.8057 -2.4766 -1.8108
 5901SOL    HW229163   1.273   4.690  12.368  0.4547 -0.0275  0.0842
 5902SOL     OW29164   3.696   3.219   4.329 -0.1598  0.0781 -0.3045
 5902SOL    HW129165   3.666   3.168   4.404  2.2354 -0.1470  0.4983
 5902SOL    HW229166   3.785   3.242   4.354 -1.5917  2.3362  2.8101
 5903SOL     OW29167   1.034   0.730   8.486 -0.6068 -0.2060 -0.3867
 5903SOL    HW129168   1.092   0.658   8.511  0.9755  0.4775 -2.1611
 5903SOL    HW229169   1.049   0.792   8.558  1.2710  1.5014 -2.2517
 5904SOL     OW29170   0.957   3.970   1.775  0.4161 -0.4644  0.1378
 5904SOL    HW129171   0.879   4.024   1.759 -1.2547 -2.2693  2.1913
 5904SOL    HW229172   0.945   3.894   1.718  1.6996  0.1496 -0.9378
 5905SOL     OW29173   4.545   2.191  12.545 -0.1594  0.4836  0.0694
 5905SOL    HW129174   4.624   2.177  12.598 -0.5087  0.7770  0.6608
 5905SOL    HW229175   4.488   2.118  12.572  0.1375  0.1400 -0.2295
 5906SOL     OW29176   1.601   2.889   7.208 -0.1408 -0.5689  0.0551
 5906SOL    HW129177   1.561   2.803   7.219 -1.0035 -0.5753 -3.1087
 5906SOL    HW229178   1.547   2.936   7.271 -1.2527 -2.1476  0.2713
 5907SOL     OW29179   2.749   3.947   0.031 -0.5398 -0.0470  0.3319
 5907SOL    HW129180   2.684   3.935  17.661  0.5559 -0.4677 -0.6134
 5907SOL    HW229181   2.697   3.912   0.104 -0.2613 -1.1531 -0.0030
 5908SOL     OW29182   3.508   1.178   6.124  0.0411 -0.3043  0.6562
 5908SOL    HW129183   3.435   1.232   6.153  0.8726  0.0593  2.0650
 5908SOL    HW229184   3.541   1.150   6.210 -0.5511 -1.1862  0.5942
 5909SOL     OW29185   3.163   1.137  15.666 -0.1504 -0.5256  0.5109
 5909SOL    HW129186   3.223   1.062  15.662  1.5825  0.8555  0.7384
 5909SOL    HW229187   3.097   1.102  15.726 -4.7227  1.0144 -3.6444
 5910SOL     OW29188   3.444   0.007  15.346 -0.6036 -0.2786 -0.1430
 5910SOL    HW129189   3.521   4.721  15.402 -1.5473 -0.1580  1.1812
 5910SOL    HW229190   3.482   0.001  15.258 -0.8144 -2.0124 -0.1332
 5911SOL     OW29191   3.909   0.799  17.028  0.2155  0.1487 -0.1443
 5911SOL    HW129192   3.945   0.746  17.100  2.5857  0.8632 -0.8185
 5911SOL    HW229193   3.866   0.872  17.072 -0.6143 -0.5625  0.2539
 5912SOL     OW29194   0.131   0.302   6.999 -0.2410 -0.2181 -0.2010
 5912SOL    HW129195   0.157   0.241   7.068 -0.1379  1.2232  1.0533
 5912SOL    HW229196   0.066   0.355   7.047 -0.1364 -0.7210  0.4952
 5913SOL     OW29197   4.008   2.971  10.840  0.1326 -0.5042  0.2058
 5913SOL    HW129198   3.969   3.028  10.773 -1.7358 -1.6014  0.3551
 5913SOL    HW229199   3.974   3.007  10.922 -0.3619 -2.6586  0.9524
 5914SOL     OW29200   2.208   1.617   0.122 -0.6216  0.5493  0.1680
 5914SOL    HW129201   2.249   1.562   0.188 -1.8776 -0.3600  0.1960
 5914SOL    HW229202   2.147   1.667   0.177 -2.7741 -1.4328 -0.4431
 5915SOL     OW29203   0.971   0.085  11.973  0.1172  0.5362  0.7974
 5915SOL    HW129204   0.977   0.023  12.045 -0.6568 -2.1572 -1.4590
 5915SOL    HW229205   1.038   0.150  11.991  1.8121 -0.3791 -2.2508
 5916SOL     OW29206   0.116   3.786  14.452  0.6609 -0.0590 -0.5840
 5916SOL    HW129207   0.142   3.855  14.513  0.6315 -0.8004  0.2740
 5916SOL    HW229208   0.104   3.719  14.519  1.5471  1.4885  1.1098
 5917SOL     OW29209   0.188   0.787   3.066  0.0545  0.3414  0.8688
 5917SOL    HW129210   0.189   0.710   3.124 -1.8449  0.2550  0.8072
 5917SOL    HW229211   0.242   0.849   3.116  0.0106  0.4431  0.7888
 5918SOL     OW29212   0.797   3.688   0.641  0.0196 -0.3064 -0.3753
 5918SOL    HW129213   0.773   3.640   0.562 -1.3641  2.0643 -1.3864
 5918SOL    HW229214   0.727   3.678   0.705 -0.4210  1.9967 -0.5056
 5919SOL     OW29215   0.853   0.523   4.567 -0.0585  0.6180 -0.3811
 5919SOL    HW129216   0.824   0.486   4.484 -2.2858 -0.2503  0.7842
 5919SOL    HW229217   0.938   0.562   4.548  1.3008 -1.9396  0.4966
 5920SOL     OW29218   2.015   0.163  13.740 -0.1839 -0.2509  0.8763
 5920SOL    HW129219   1.993   0.160  13.834 -0.7899 -0.4980  0.7322
 5920SOL    HW229220   2.070   0.241  13.745 -1.4050  0.6280  0.5300
 5921SOL     OW29221   2.828   0.189  12.760 -0.6735 -0.2217  0.2693
 5921SOL    HW129222   2.750   0.240  12.781 -0.6631 -0.0244 -0.1636
 5921SOL    HW229223   2.811   0.114  12.817  1.7229 -1.1353 -0.2385
 5922SOL     OW29224   2.936   1.703   2.284  0.3743 -0.1142 -0.2538
 5922SOL    HW129225   2.948   1.709   2.189 -1.3096 -0.8138 -0.5038
 5922SOL    HW229226   3.003   1.641   2.311  0.0751 -0.3435 -0.0407
 5923SOL     OW29227   0.543   2.401   5.980 -0.0235 -0.1964 -0.2166
 5923SOL    HW129228   0.617   2.422   5.922  0.2346  0.0855  0.2143
 5923SOL    HW229229   0.564   2.454   6.057 -0.1681  0.7784 -0.8397
 5924SOL     OW29230   2.025   4.414  14.576  0.4698  0.4527  0.2732
 5924SOL    HW129231   2.105   4.405  14.524 -0.1173  0.0535 -0.5704
 5924SOL    HW229232   1.956   4.435  14.513 -1.0830  0.2389  1.9204
 5925SOL     OW29233   2.250   1.499   4.016 -0.5568 -0.1181  0.6263
 5925SOL    HW129234   2.288   1.419   3.981  2.3546  1.3722  0.3480
 5925SOL    HW229235   2.331   1.534   4.055  0.1841 -2.0062  0.7706
 5926SOL     OW29236   0.359   0.475   4.037  0.5136 -0.0622 -0.6212
 5926SOL    HW129237   0.368   0.519   4.122 -0.2208  1.6219 -1.4139
 5926SOL    HW229238   0.363   0.552   3.981  1.7722  1.5885  1.7281
 5927SOL     OW29239   2.138   3.221  13.357  0.2759 -0.4068  0.1700
 5927SOL    HW129240   2.087   3.244  13.434 -0.9701  1.8509 -1.3076
 5927SOL    HW229241   2.084   3.273  13.298  1.9842 -0.2391 -1.2512
 5928SOL     OW29242   1.378   0.363  11.974  0.3522 -0.6352  0.5195
 5928SOL    HW129243   1.385   0.409  12.057  0.9846 -1.4553  0.9155
 5928SOL    HW229244   1.317   0.297  12.007 -0.6002  0.0683  0.1773
 5929SOL     OW29245   2.943   2.658   4.747  0.7186  0.3949 -0.1208
 5929SOL    HW129246   2.969   2.748   4.767  3.1518  0.3271 -2.9020
 5929SOL    HW229247   2.949   2.664   4.651  0.1603  0.2907 -0.1617
 5930SOL     OW29248   0.782   0.867   9.120  0.7703 -0.1057  0.9713
 5930SOL    HW129249   0.876   0.853   9.129  0.9746  0.7279  0.1285
 5930SOL    HW229250   0.744   0.779   9.123  1.1577 -0.2510  1.4712
 5931SOL     OW29251   0.518   2.124   7.433  0.4162  0.3817  0.2783
 5931SOL    HW129252   0.578   2.194   7.407  2.8790 -2.4129 -1.6367
 5931SOL    HW229253   0.445   2.184   7.418  0.9972  0.4317 -2.3570
 5932SOL     OW29254   1.291   0.712   4.047 -0.1166 -0.1330 -1.1493
 5932SOL    HW129255   1.370   0.692   4.097 -0.4529  0.4474 -0.3971
 5932SOL    HW229256   1.286   0.807   4.051 -3.3565 -0.3083 -0.1688
 5933SOL     OW29257   1.134   1.440   6.378  0.5204 -0.3911 -0.5721
 5933SOL    HW129258   1.083   1.491   6.314 -0.8274 -1.1268 -0.0772
 5933SOL    HW229259   1.069   1.381   6.416  0.2846  0.0207 -0.3420
 5934SOL     OW29260   1.303   1.810   8.853  0.3246  0.0295  0.0833
 5934SOL    HW129261   1.361   1.820   8.778 -0.4055 -0.6659 -0.5602
 5934SOL    HW229262   1.350   1.876   8.905 -0.1793  0.6956 -0.3048
 5935SOL     OW29263   4.495   1.137   9.616  0.1161 -0.1413  0.1676
 5935SOL    HW129264   4.502   1.052   9.659 -0.0017 -0.7992 -1.1071
 5935SOL    HW229265   4.478   1.203   9.682 -1.4079  0.1138 -0.4886
 5936SOL     OW29266   4.209   3.917   6.050 -0.6146  0.1310 -0.0539
 5936SOL    HW129267   4.150   3.887   6.120  1.2524  0.4054  1.6454
 5936SOL    HW229268   4.297   3.902   6.084 -1.2347 -3.2179  0.0537
 5937SOL     OW29269   3.846   4.242  11.270 -0.0175 -0.0237  0.3893
 5937SOL    HW129270   3.856   4.257  11.364  0.3508 -2.1655  0.6919
 5937SOL    HW229271   3.895   4.318  11.239  2.2881 -1.0869  1.3799
 5938SOL     OW29272   4.588   1.159   4.753  0.4364  0.6699 -0.0180
 5938SOL    HW129273   4.676   1.154   4.792 -0.5766 -0.3363  2.1879
 5938SOL    HW229274   4.588   1.247   4.715 -0.6505  1.6106  2.1508
 5939SOL     OW29275   2.391   3.878   7.239  1.0226 -0.2956  0.0824
 5939SOL    HW129276   2.483   3.871   7.263  1.3002 -0.4609 -1.0341
 5939SOL    HW229277   2.365   3.793   7.202  3.2805 -0.3428 -1.4296
 5940SOL     OW29278   1.759   3.808   3.240 -0.1466  0.1332 -0.1533
 5940SOL    HW129279   1.852   3.829   3.228  0.4481 -1.4627  1.5965
 5940SOL    HW229280   1.729   3.896   3.222 -0.1415 -0.1574 -1.5740
 5941SOL     OW29281   1.773   3.346  10.587 -0.4178  0.8081 -0.4970
 5941SOL    HW129282   1.698   3.327  10.644 -1.3279 -0.4214 -2.1118
 5941SOL    HW229283   1.734   3.413  10.530  0.1386  1.3816 -0.2056
 5942SOL     OW29284   4.350   4.249   2.986  0.7834  0.2415 -0.0453
 5942SOL    HW129285   4.269   4.293   2.960  0.5071  0.3650  1.0567
 5942SOL    HW229286   4.399   4.234   2.905  2.4506 -1.8350  1.3480
 5943SOL     OW29287   1.088   3.369   3.118 -0.5523 -0.4044 -0.1150
 5943SOL    HW129288   1.183   3.357   3.121 -0.3926  0.3801 -2.2622
 5943SOL    HW229289   1.079   3.397   3.027  0.0579  0.1711  0.0036
 5944SOL     OW29290   2.457   4.709   4.863  0.0224  0.0645  0.6581
 5944SOL    HW129291   2.460   4.679   4.772 -0.4014  1.1791  0.2794
 5944SOL    HW229292   2.385   0.045   4.845 -0.8505 -1.0716  0.3452
 5945SOL     OW29293   2.786   2.626   7.099  0.2328  1.0740 -0.2329
 5945SOL    HW129294   2.803   2.590   7.012  2.1833 -0.1980  0.6645
 5945SOL    HW229295   2.874   2.603   7.131 -0.5979 -0.9287  0.6080
 5946SOL     OW29296   0.823   1.404   8.572 -0.2343  0.0411 -0.0230
 5946SOL    HW129297   0.860   1.491   8.556 -0.1545  0.1529  0.7744
 5946SOL    HW229298   0.763   1.389   8.500 -1.1164  0.7466  0.5665
 5947SOL     OW29299   2.724   3.004   5.786 -0.1972 -0.0456  0.6640
 5947SOL    HW129300   2.671   2.943   5.734  0.2684 -1.1291  1.4690
 5947SOL    HW229301   2.669   3.012   5.864 -0.0897  1.2665  0.6153
 5948SOL     OW29302   4.711   1.637  12.414  0.8287 -0.3120 -0.4063
 5948SOL    HW129303   0.045   1.561  12.417  2.7797  1.1633 -0.5306
 5948SOL    HW229304   4.630   1.588  12.423  1.1642 -0.9233 -0.6946
 5949SOL     OW29305   1.927   3.057   3.279  0.0197 -0.1035  0.2455
 5949SOL    HW129306   1.983   3.097   3.212 -1.3244  0.4503 -0.5553
 5949SOL    HW229307   1.924   3.128   3.343  0.4695  0.7567 -0.6823
 5950SOL     OW29308   1.033   0.446   5.851 -0.3515  0.1530 -0.0779
 5950SOL    HW129309   1.081   0.404   5.780  0.9036  0.4908  0.5790
 5950SOL    HW229310   0.947   0.421   5.818  0.8178 -1.3478 -1.9917
 5951SOL     OW29311   3.619   3.178   5.541  0.8061 -0.6341  0.0946
 5951SOL    HW129312   3.654   3.100   5.498 -0.3289 -0.9330 -0.2776
 5951SOL    HW229313   3.700   3.192   5.590  0.2397 -1.9578  1.4030
 5952SOL     OW29314   2.939   2.115  10.026 -0.3270 -0.1924 -0.2018
 5952SOL    HW129315   2.927   2.118  10.121 -1.2669 -1.0322 -0.2961
 5952SOL    HW229316   2.921   2.207  10.008  1.0032  0.1171  0.0583
 5953SOL     OW29317   3.612   4.248   3.430  0.0115  0.3413  0.4380
 5953SOL    HW129318   3.636   4.187   3.361 -0.4200  0.4412  0.1988
 5953SOL    HW229319   3.528   4.210   3.457  0.1895 -0.9696 -0.8671
 5954SOL     OW29320   1.737   1.545   4.557  0.0784 -0.0810  0.3790
 5954SOL    HW129321   1.675   1.594   4.503  1.6452  0.7641 -0.6579
 5954SOL    HW229322   1.699   1.564   4.643 -0.7236  1.1815 -0.2547
 5955SOL     OW29323   0.113   4.346   8.951 -0.6148 -0.2636 -0.7952
 5955SOL    HW129324   0.097   4.267   9.004 -0.4643  1.0476  1.2133
 5955SOL    HW229325   0.181   4.304   8.898  0.2632 -0.5760  0.5734
 5956SOL     OW29326   3.026   0.782  15.592  0.2867 -0.6707 -0.2379
 5956SOL    HW129327   2.948   0.732  15.614 -1.4008  1.3909 -1.5949
 5956SOL    HW229328   3.029   0.846  15.664 -1.8403  0.4120 -1.1138
 5957SOL     OW29329   3.743   2.379  13.431 -0.4776  0.4961  0.5506
 5957SOL    HW129330   3.701   2.465  13.437 -0.4447  0.4907  0.8672
 5957SOL    HW229331   3.797   2.396  13.354  1.2158 -0.8477  1.4569
 5958SOL     OW29332   3.906   4.244  15.350 -0.8730 -0.2112  0.6459
 5958SOL    HW129333   3.940   4.239  15.439 -0.2777  1.9037  0.5303
 5958SOL    HW229334   3.881   4.152  15.345  2.6204 -1.1668  0.5439
 5959SOL     OW29335   4.103   1.509   2.777 -0.5817  0.4076  0.5665
 5959SOL    HW129336   4.094   1.414   2.788  0.0824  0.3046  0.2052
 5959SOL    HW229337   4.015   1.536   2.751 -0.1131  1.6636  0.2875
 5960SOL     OW29338   2.255   4.524   2.478  0.4184 -0.1311 -0.1485
 5960SOL    HW129339   2.168   4.492   2.504  0.7417 -0.8579  0.0263
 5960SOL    HW229340   2.307   4.481   2.546 -1.2583 -3.2820 -0.8396
 5961SOL     OW29341   4.127   2.661   5.939 -0.7291 -0.3219 -0.0315
 5961SOL    HW129342   4.192   2.614   5.991 -1.7254 -0.1995  1.3356
 5961SOL    HW229343   4.044   2.614   5.941 -0.7976 -0.1831  0.6332
 5962SOL     OW29344   0.932   3.870  12.442 -0.4821  0.3411 -0.2136
 5962SOL    HW129345   0.882   3.805  12.491  0.1116 -0.0334 -0.0993
 5962SOL    HW229346   0.879   3.948  12.458 -0.7046  0.2015 -0.2728
 5963SOL     OW29347   3.407   3.987   6.892  0.4187  0.2524 -0.3354
 5963SOL    HW129348   3.488   4.012   6.848  0.6516 -1.2152 -0.7175
 5963SOL    HW229349   3.371   3.940   6.817  1.1785  0.4230 -0.8059
 5964SOL     OW29350   4.355   3.168   3.651 -0.4400  0.0035 -0.4690
 5964SOL    HW129351   4.335   3.077   3.673  0.5039 -0.1097 -0.0841
 5964SOL    HW229352   4.304   3.178   3.571 -0.2461  1.5432 -0.3945
 5965SOL     OW29353   3.874   3.557   6.968  0.1733  0.0843 -0.1830
 5965SOL    HW129354   3.842   3.646   6.951  0.3337  0.3165  0.7499
 5965SOL    HW229355   3.817   3.512   6.906 -0.5073 -2.1392  2.0677
 5966SOL     OW29356   2.425   4.369  17.692 -0.1657 -0.2696  0.2702
 5966SOL    HW129357   2.476   4.403   0.066 -0.8472 -2.5509  1.7966
 5966SOL    HW229358   2.398   4.287   0.033  0.2560 -0.1006  0.8982
 5967SOL     OW29359   0.236   0.349  12.282 -0.1957  0.2636 -0.0925
 5967SOL    HW129360   0.218   0.261  12.315  1.9485  0.4668  1.6153
 5967SOL    HW229361   0.220   0.332  12.189  1.8598  2.4712 -0.8412
 5968SOL     OW29362   1.443   0.877   0.403 -0.0777 -0.2231  0.6370
 5968SOL    HW129363   1.449   0.796   0.452  0.9872  0.8901  2.3449
 5968SOL    HW229364   1.402   0.942   0.461  0.1805  1.2984 -0.8645
 5969SOL     OW29365   0.450   0.525   7.146  0.1512 -0.2291 -0.1486
 5969SOL    HW129366   0.529   0.553   7.191 -0.2554 -0.8431  0.9406
 5969SOL    HW229367   0.487   0.521   7.057  0.6874 -1.0222  0.1105
 5970SOL     OW29368   1.667   3.216  13.600 -0.2848 -0.4136  0.1449
 5970SOL    HW129369   1.595   3.251  13.652 -1.9454  1.0876 -3.2028
 5970SOL    HW229370   1.619   3.179  13.527  0.2143 -1.0034  0.1166
 5971SOL     OW29371   0.535   2.684   7.758 -0.2063 -0.4779  0.6260
 5971SOL    HW129372   0.537   2.605   7.705 -0.2295 -0.2387  0.2673
 5971SOL    HW229373   0.609   2.682   7.818 -0.6213  0.2616  1.1735
 5972SOL     OW29374   1.756   1.898   5.883  0.0994  0.0035 -0.2925
 5972SOL    HW129375   1.794   1.983   5.909 -0.0460  0.3123 -1.1140
 5972SOL    HW229376   1.745   1.866   5.973  0.5776 -0.0335 -0.2445
 5973SOL     OW29377   0.076   2.148  15.181  0.2694 -0.0341 -0.0686
 5973SOL    HW129378   0.068   2.239  15.154 -1.5862 -0.9086 -2.4536
 5973SOL    HW229379   0.007   2.105  15.131 -1.8990  2.0158  1.1953
 5974SOL     OW29380   4.335   2.984   5.700  0.3848  0.1202 -0.5904
 5974SOL    HW129381   4.369   3.073   5.707 -0.4363  0.5313 -1.9405
 5974SOL    HW229382   4.273   2.982   5.774  0.8370 -0.2446 -0.2155
 5975SOL     OW29383   2.841   0.719   4.374  0.0917 -0.0041  0.2016
 5975SOL    HW129384   2.784   0.660   4.422 -0.1369 -0.9551 -1.2464
 5975SOL    HW229385   2.855   0.787   4.441 -0.1434  0.9657 -0.7363
 5976SOL     OW29386   4.155   0.472  17.056 -0.1330 -0.0360  1.0637
 5976SOL    HW129387   4.118   0.542  17.110  0.0522  0.4967  0.5009
 5976SOL    HW229388   4.219   0.518  17.001  1.2659 -3.4878 -0.2654
 5977SOL     OW29389   4.333   1.413   3.407  0.1820 -0.5195  0.3836
 5977SOL    HW129390   4.371   1.425   3.494  0.4873  3.5435 -0.3128
 5977SOL    HW229391   4.287   1.329   3.411  0.7779 -0.8623  0.0051
 5978SOL     OW29392   2.771   4.063  17.368 -0.4146 -0.3037 -0.1026
 5978SOL    HW129393   2.732   4.145  17.398 -0.5059  0.4051 -2.1678
 5978SOL    HW229394   2.851   4.099  17.331  0.9597 -3.0393  0.1819
 5979SOL     OW29395   4.393   2.068   0.940  0.2704 -0.3881  0.2508
 5979SOL    HW129396   4.457   2.055   1.010  0.0178  0.6548  0.6769
 5979SOL    HW229397   4.432   2.042   0.856  0.0407 -2.1272  0.6847
 5980SOL     OW29398   2.965   4.148   3.868 -0.8339 -0.1501  0.1396
 5980SOL    HW129399   2.945   4.242   3.865 -0.4029 -0.0245  1.2428
 5980SOL    HW229400   2.883   4.109   3.838 -0.9075 -0.1401  0.3322
 5981SOL     OW29401   1.424   3.575   7.117 -0.1484 -0.1012 -0.4565
 5981SOL    HW129402   1.442   3.571   7.023  2.9124 -0.8743  0.1686
 5981SOL    HW229403   1.510   3.557   7.154 -0.9020 -0.7387  0.9980
 5982SOL     OW29404   1.447   3.736  15.926 -0.0718 -0.4391  0.5269
 5982SOL    HW129405   1.449   3.645  15.957  0.7764 -1.0107 -1.1312
 5982SOL    HW229406   1.500   3.779  15.993  1.7984  0.3442 -1.4567
 5983SOL     OW29407   2.295   0.657  15.953 -1.0430 -0.1946 -0.2714
 5983SOL    HW129408   2.276   0.716  16.026 -1.3822 -0.7544  0.0954
 5983SOL    HW229409   2.264   0.711  15.880 -0.1790  1.4213  0.5853
 5984SOL     OW29410   4.633   4.302   4.782  0.1404  0.8564  0.0626
 5984SOL    HW129411   4.674   4.378   4.741  0.0146  0.4157 -0.8870
 5984SOL    HW229412   4.617   4.339   4.869 -2.3906  0.1701 -0.1050
 5985SOL     OW29413   4.570   3.613   1.570 -0.4147  0.0740  0.7292
 5985SOL    HW129414   4.619   3.533   1.551 -0.4787 -0.0959  1.2688
 5985SOL    HW229415   4.572   3.653   1.483  4.6137  0.3454  1.0107
 5986SOL     OW29416   3.033   0.102   9.034  0.3694  0.6827 -0.2776
 5986SOL    HW129417   2.969   0.097   9.105  1.6892  0.4291  0.8935
 5986SOL    HW229418   3.063   0.185   9.070 -0.9130 -1.0824  4.9102
 5987SOL     OW29419   1.416   4.407   6.646 -0.6581 -0.0174  0.4559
 5987SOL    HW129420   1.393   4.427   6.555  1.3421  0.7085  0.0992
 5987SOL    HW229421   1.511   4.400   6.638 -0.6920 -1.0574  0.9097
 5988SOL     OW29422   2.626   2.286   3.934  0.2217  0.1967  0.2470
 5988SOL    HW129423   2.644   2.339   4.012  1.3651 -1.7322  1.2993
 5988SOL    HW229424   2.572   2.214   3.968 -1.3779 -0.6567 -4.1906
 5989SOL     OW29425   2.349   0.349   6.432 -0.4624 -0.7169  0.1907
 5989SOL    HW129426   2.388   0.322   6.516  2.7385 -0.9968 -1.4002
 5989SOL    HW229427   2.348   0.267   6.383  2.2922 -2.3602  2.8663
 5990SOL     OW29428   1.993   4.462   8.285  0.2596 -0.2700 -0.0300
 5990SOL    HW129429   1.918   4.515   8.310  2.1710  2.5707 -0.3460
 5990SOL    HW229430   1.959   4.374   8.270  0.1333 -0.6886  2.7620
 5991SOL     OW29431   4.108   4.341  10.781 -0.0999  0.1601 -0.5622
 5991SOL    HW129432   4.164   4.276  10.738  0.6859 -0.0006  0.6989
 5991SOL    HW229433   4.162   4.420  10.794  1.0550 -0.5461 -1.0192
 5992SOL     OW29434   0.832   4.163   9.128 -0.0011 -0.2547  0.3123
 5992SOL    HW129435   0.784   4.108   9.190  0.0921 -1.0475 -0.3342
 5992SOL    HW229436   0.765   4.195   9.068 -0.9968  0.6329  1.8746
 5993SOL     OW29437   2.702   4.348   8.593 -0.4395 -0.4856  0.0165
 5993SOL    HW129438   2.639   4.277   8.582 -2.6871  1.4122  0.4673
 5993SOL    HW229439   2.710   4.343   8.688 -2.5939  0.4596  0.2665
 5994SOL     OW29440   4.249   0.044  16.621 -0.2227 -0.0467  0.2641
 5994SOL    HW129441   4.271   0.072  16.709  1.3150  0.4424 -0.2659
 5994SOL    HW229442   4.321   4.706  16.609 -1.8380 -1.8442  0.0804
 5995SOL     OW29443   3.356   0.521  12.696 -0.0800 -0.0553 -0.0747
 5995SOL    HW129444   3.417   0.467  12.645  2.5806  0.6271  2.4381
 5995SOL    HW229445   3.326   0.584  12.630 -0.6321 -1.2131 -0.9307
 5996SOL     OW29446   4.385   4.572   0.223 -0.4927  0.3211 -0.1210
 5996SOL    HW129447   4.437   4.642   0.183 -1.1258 -0.2654 -1.9616
 5996SOL    HW229448   4.456   4.518   0.259 -0.8442 -1.0222 -1.4734
 5997SOL     OW29449   1.138   1.147   4.400  0.2227 -0.0115  0.4022
 5997SOL    HW129450   1.213   1.180   4.448  1.4905 -1.3430 -0.6248
 5997SOL    HW229451   1.120   1.215   4.335 -1.2057 -0.0397  0.7776
 5998SOL     OW29452   3.795   4.060   2.152  0.6259  0.2473  0.4239
 5998SOL    HW129453   3.744   4.140   2.141  0.1019 -0.0573  0.6425
 5998SOL    HW229454   3.725   4.001   2.180 -1.0456  1.2512 -1.6453
 5999SOL     OW29455   3.720   1.875   7.293 -0.0472  0.2887 -0.4534
 5999SOL    HW129456   3.746   1.784   7.309  0.4959  0.6806  0.8899
 5999SOL    HW229457   3.692   1.913   7.376 -2.4659 -1.2479 -0.5593
 6000SOL     OW29458   1.009   3.054  10.417  1.1187  0.3294 -0.5121
 6000SOL    HW129459   1.018   2.963  10.390 -0.4742 -0.3111  1.1705
 6000SOL    HW229460   1.029   3.067  10.509 -2.0334  0.9023  0.0942
 6001SOL     OW29461   0.074   4.401   3.483  0.2392 -0.7965 -0.2408
 6001SOL    HW129462   0.096   4.463   3.414 -0.5088 -0.1749  0.0812
 6001SOL    HW229463   4.717   4.444   3.510  1.6892  1.4804  0.5078
 6002SOL     OW29464   3.057   1.365   4.191  0.3144  0.5494 -0.3753
 6002SOL    HW129465   3.103   1.283   4.210 -1.3265  0.3396  2.6219
 6002SOL    HW229466   3.058   1.371   4.095  1.2965 -0.8114 -0.4553
 6003SOL     OW29467   3.714   1.225   5.139 -0.1182  0.0595 -0.5846
 6003SOL    HW129468   3.753   1.304   5.101  1.7682 -0.5709  0.0491
 6003SOL    HW229469   3.620   1.245   5.131  0.2961  1.4829 -1.8678
 6004SOL     OW29470   2.985   3.681  16.877 -0.0702 -0.3585 -0.6815
 6004SOL    HW129471   2.890   3.688  16.870  0.0400 -0.5441 -2.2796
 6004SOL    HW229472   3.015   3.772  16.879 -2.2977  0.3169  1.7779
 6005SOL     OW29473   3.501   2.400   3.680 -0.2810 -0.1892  0.3070
 6005SOL    HW129474   3.501   2.315   3.637  0.3171 -0.5748  1.0711
 6005SOL    HW229475   3.560   2.384   3.754  0.2270  2.6112  0.5280
 6006SOL     OW29476   3.868   1.624   8.530 -0.3398 -0.5730  0.6151
 6006SOL    HW129477   3.915   1.697   8.569  1.4140 -0.9170 -0.8481
 6006SOL    HW229478   3.944   1.575   8.499 -2.4052 -1.5377 -2.9405
 6007SOL     OW29479   3.646   3.418   7.883  0.2303  0.0437 -0.7862
 6007SOL    HW129480   3.652   3.323   7.891  0.0298 -0.1417 -2.8019
 6007SOL    HW229481   3.618   3.448   7.969 -0.5911 -0.1572 -0.9788
 6008SOL     OW29482   2.142   1.659   2.701  0.3059 -0.6864  0.5288
 6008SOL    HW129483   2.154   1.622   2.788 -1.6406 -2.6778 -0.0731
 6008SOL    HW229484   2.214   1.722   2.694 -1.6562  1.4282 -0.5934
 6009SOL     OW29485   4.378   1.775   8.937 -0.1775 -0.3033 -0.3667
 6009SOL    HW129486   4.342   1.711   8.999  1.8136 -0.5342  0.5305
 6009SOL    HW229487   4.407   1.853   8.983 -0.4804 -0.7782  0.6245
 6010SOL     OW29488   1.207   3.374   5.259 -0.1649 -0.1891  0.2937
 6010SOL    HW129489   1.148   3.442   5.226  1.1916  0.0062 -1.6780
 6010SOL    HW229490   1.275   3.375   5.192  0.0671 -1.9260  0.4954
 6011SOL     OW29491   0.561   4.716   5.644 -0.4999  1.0114 -0.0840
 6011SOL    HW129492   0.579   4.683   5.556  0.5403 -0.8566  0.8427
 6011SOL    HW229493   0.646   0.034   5.656 -0.3690  1.0883 -1.2965
 6012SOL     OW29494   0.021   1.199   0.588 -0.1872 -0.5476 -0.4918
 6012SOL    HW129495   4.666   1.147   0.576 -1.4569  1.3016 -0.0798
 6012SOL    HW229496   0.034   1.194   0.683 -0.2337 -0.6993 -0.4926
 6013SOL     OW29497   3.538   0.618   6.850 -0.4367 -0.1116  0.1313
 6013SOL    HW129498   3.560   0.543   6.794 -0.3327  0.2627 -0.3322
 6013SOL    HW229499   3.557   0.689   6.789 -0.6958 -0.1832 -0.0334
 6014SOL     OW29500   3.873   1.515   4.145 -0.2466  0.0678 -0.8045
 6014SOL    HW129501   3.935   1.449   4.175 -2.0948 -2.3013 -2.1710
 6014SOL    HW229502   3.790   1.467   4.142 -0.1385 -0.1570 -0.2119
 6015SOL     OW29503   1.117   2.329   6.320  0.1850 -0.0128 -0.3425
 6015SOL    HW129504   1.023   2.313   6.305  0.0661 -0.0630  0.4639
 6015SOL    HW229505   1.129   2.424   6.313  0.0406  0.1315  1.3908
 6016SOL     OW29506   4.177   2.104  10.691 -0.6887 -0.4035  0.3680
 6016SOL    HW129507   4.215   2.178  10.738  0.5201 -1.8489  1.6422
 6016SOL    HW229508   4.179   2.135  10.600  2.2565 -0.2427  0.4977
 6017SOL     OW29509   2.251   1.806   8.361 -0.7762 -0.1419  0.3348
 6017SOL    HW129510   2.289   1.810   8.449 -0.8966 -1.3521  0.4370
 6017SOL    HW229511   2.316   1.855   8.312 -2.5229  1.4965 -0.3521
 6018SOL     OW29512   0.222   0.416   2.397  0.0656  0.3855 -0.7780
 6018SOL    HW129513   0.209   0.500   2.441  1.6608  0.6970 -0.8966
 6018SOL    HW229514   0.149   0.361   2.426  0.9972 -0.6705 -0.4420
 6019SOL     OW29515   1.420   0.146   3.691 -0.0573  0.0734  0.3666
 6019SOL    HW129516   1.327   0.147   3.712 -0.6381 -0.1391 -2.1424
 6019SOL    HW229517   1.431   0.055   3.663 -0.0765  0.1467  0.1182
 6020SOL     OW29518   2.475   3.526   3.863 -0.0289 -0.2172  0.4666
 6020SOL    HW129519   2.560   3.571   3.864 -0.4121  0.5897 -2.7773
 6020SOL    HW229520   2.494   3.455   3.925 -2.1011 -0.8400  0.3863
 6021SOL     OW29521   4.288   4.090   1.398 -0.1195  0.2804 -0.4571
 6021SOL    HW129522   4.198   4.065   1.376 -0.0494 -1.6997  1.4860
 6021SOL    HW229523   4.262   4.179   1.419  0.8461  0.3402  0.5082
 6022SOL     OW29524   3.891   3.168  10.692 -0.6302  0.9067  0.2620
 6022SOL    HW129525   3.872   3.209  10.607  0.7671  2.2629  0.5894
 6022SOL    HW229526   3.933   3.244  10.735 -0.2757  1.5382 -1.1843
 6023SOL     OW29527   3.127   2.643  17.005 -0.0791  0.3100  0.3220
 6023SOL    HW129528   3.053   2.670  17.058  0.2479 -2.1171  2.0220
 6023SOL    HW229529   3.156   2.565  17.054  0.4911 -0.6676 -1.5592
 6024SOL     OW29530   0.792   3.992   5.935 -0.3258 -0.1159 -0.5457
 6024SOL    HW129531   0.798   3.913   5.990 -0.4273  1.0916  1.2053
 6024SOL    HW229532   0.706   3.973   5.898  0.4188 -0.5943 -2.0113
 6025SOL     OW29533   4.673   1.643   4.551 -0.8392 -0.2894  0.3592
 6025SOL    HW129534   4.685   1.722   4.498 -0.4356 -0.2147  0.5626
 6025SOL    HW229535   4.623   1.678   4.624  2.5350  1.1229  1.9992
 6026SOL     OW29536   1.048   1.531   5.042 -0.2207  0.2707  0.4324
 6026SOL    HW129537   1.050   1.482   4.959  0.6336 -0.3573  0.8245
 6026SOL    HW229538   1.038   1.622   5.014  1.0589 -0.5932 -2.8621
 6027SOL     OW29539   3.772   1.830  10.019 -0.3404 -0.3432 -0.6938
 6027SOL    HW129540   3.720   1.760  10.058  1.3150 -0.7876  0.7238
 6027SOL    HW229541   3.707   1.893   9.986 -0.3683  0.0358  0.0869
 6028SOL     OW29542   3.803   3.753   1.300 -0.6366  0.8529  0.1379
 6028SOL    HW129543   3.833   3.775   1.212 -2.5943  3.5067  0.1170
 6028SOL    HW229544   3.734   3.817   1.316 -1.4483 -0.3740  1.5469
 6029SOL     OW29545   0.967   3.829  13.065 -0.3806  0.0288  0.2984
 6029SOL    HW129546   0.968   3.821  12.970 -0.4349 -0.3696  0.3312
 6029SOL    HW229547   0.876   3.849  13.084 -0.2907 -1.0468  1.8525
 6030SOL     OW29548   2.308   1.133  13.972 -0.0392  0.3033  0.1430
 6030SOL    HW129549   2.383   1.178  13.934  0.9745 -0.9245  0.6711
 6030SOL    HW229550   2.350   1.078  14.038 -2.2435 -0.3516  1.0030
 6031SOL     OW29551   4.244   1.788   3.923  0.2224 -0.1201 -0.0304
 6031SOL    HW129552   4.158   1.797   3.963 -0.3209  2.2819 -1.7555
 6031SOL    HW229553   4.236   1.845   3.847  2.3592 -1.2323 -1.0802
 6032SOL     OW29554   1.898   3.277   7.964  0.1344  0.4887  0.3525
 6032SOL    HW129555   1.941   3.199   8.001 -1.1790 -0.1360  0.5655
 6032SOL    HW229556   1.839   3.240   7.898 -0.4551  1.2370  0.4629
 6033SOL     OW29557   3.514   0.458   7.887  0.0474  0.4800  0.1458
 6033SOL    HW129558   3.506   0.550   7.861 -0.7095  0.4072  0.1081
 6033SOL    HW229559   3.531   0.470   7.980  2.7752  1.0117 -0.4306
 6034SOL     OW29560   2.630   2.690   2.433  0.0214 -0.6880  0.0399
 6034SOL    HW129561   2.585   2.766   2.395  2.0120 -0.4050 -1.7822
 6034SOL    HW229562   2.715   2.728   2.453 -0.8986  1.5602 -0.2891
 6035SOL     OW29563   4.585   4.018   2.099 -0.4533 -0.3585  0.1117
 6035SOL    HW129564   4.608   4.039   2.189  0.7975 -0.9005 -0.0918
 6035SOL    HW229565   4.655   4.067   2.056 -1.1559  1.2812  0.8073
 6036SOL     OW29566   3.127   3.311   9.104  0.0460 -0.3205 -0.3749
 6036SOL    HW129567   3.102   3.382   9.162  1.0951  1.3217 -1.9306
 6036SOL    HW229568   3.056   3.248   9.105 -0.8416  0.7070  0.6556
 6037SOL     OW29569   1.719   4.471   5.112  0.3289  0.0514 -0.0555
 6037SOL    HW129570   1.753   4.390   5.074  0.5677  1.3317 -2.6190
 6037SOL    HW229571   1.758   4.538   5.056 -0.1055 -0.3751 -0.8689
 6038SOL     OW29572   0.098   1.032  17.693  0.3332  0.2185  0.2379
 6038SOL    HW129573   0.063   1.020   0.082  0.2634 -1.6352 -0.0497
 6038SOL    HW229574   0.182   1.065   0.025  0.6206  1.1067 -1.4521
 6039SOL     OW29575   4.435   3.927   9.478 -0.0452  0.1008 -0.8412
 6039SOL    HW129576   4.432   3.902   9.571  1.2631 -0.3211 -0.9148
 6039SOL    HW229577   4.343   3.929   9.452 -0.3961 -1.2367  0.3007
 6040SOL     OW29578   4.187   0.673  10.339 -0.2224 -0.3431 -0.3394
 6040SOL    HW129579   4.211   0.707  10.426 -1.2557 -1.5668  0.4123
 6040SOL    HW229580   4.267   0.696  10.292 -0.1361 -0.2694 -0.1564
 6041SOL     OW29581   4.415   3.382   3.882 -0.1746 -0.0552  0.1042
 6041SOL    HW129582   4.344   3.446   3.874 -0.7155 -0.1389  4.2105
 6041SOL    HW229583   4.383   3.318   3.818  0.0311  0.0280 -0.0813
 6042SOL     OW29584   3.605   1.556   9.110 -0.4764  0.1230 -0.3955
 6042SOL    HW129585   3.576   1.490   9.047 -0.6209  0.4064 -0.6241
 6042SOL    HW229586   3.698   1.540   9.096  0.4632  2.7716  2.8572
 6043SOL     OW29587   0.258   4.398  16.734  0.3596 -0.2125  0.0526
 6043SOL    HW129588   0.257   4.432  16.824 -2.8617 -0.5452  0.1574
 6043SOL    HW229589   0.258   4.304  16.752  0.0057 -0.2172  0.0328
 6044SOL     OW29590   3.946   1.114  12.760 -0.6326  0.1038  0.3496
 6044SOL    HW129591   3.897   1.092  12.839 -0.3391  0.4163  0.6190
 6044SOL    HW229592   4.030   1.096  12.803 -0.5876  1.5208  0.8667
 6045SOL     OW29593   1.971   3.259   1.563 -0.0631 -0.2739 -0.3512
 6045SOL    HW129594   1.965   3.231   1.654  1.7447 -1.0866 -0.4802
 6045SOL    HW229595   1.991   3.351   1.578 -1.3894  0.1617 -1.2861
 6046SOL     OW29596   1.780   3.824   2.617 -0.3307 -0.0422 -0.4806
 6046SOL    HW129597   1.843   3.874   2.564 -2.0558  1.2668 -1.2980
 6046SOL    HW229598   1.699   3.875   2.612 -0.4331 -0.1637  0.0143
 6047SOL     OW29599   3.090   2.571  11.937  0.0802  0.5508  0.3609
 6047SOL    HW129600   3.022   2.622  11.980 -0.2740  1.9325 -1.8636
 6047SOL    HW229601   3.059   2.484  11.964  0.4446 -0.3623 -2.1649
 6048SOL     OW29602   2.938   3.995   9.045  0.3229  0.1894  0.3845
 6048SOL    HW129603   2.939   3.961   8.955 -1.4713  0.1033  0.3914
 6048SOL    HW229604   2.959   4.088   9.036  1.7149 -0.1594  0.0551
 6049SOL     OW29605   1.166   1.172   3.679  0.2154 -0.0883 -0.2005
 6049SOL    HW129606   1.115   1.143   3.754 -1.4140 -0.3947 -1.4201
 6049SOL    HW229607   1.116   1.249   3.649  0.8399  0.3282 -0.1809
 6050SOL     OW29608   4.180   4.455  16.926 -0.2631 -0.0831  0.1569
 6050SOL    HW129609   4.141   4.512  16.861  1.5102  0.4188 -0.4765
 6050SOL    HW229610   4.112   4.467  16.992  2.8850  0.6192  3.2913
 6051SOL     OW29611   0.875   1.024  15.646  0.3896 -0.2087 -0.0882
 6051SOL    HW129612   0.781   1.006  15.637  0.5887 -1.1686 -0.1821
 6051SOL    HW229613   0.892   0.935  15.676  0.0442 -0.7051 -1.3857
 6052SOL     OW29614   3.178   0.782   7.391 -0.0762  0.3055 -0.2158
 6052SOL    HW129615   3.083   0.784   7.380 -0.1800 -0.4388  0.5181
 6052SOL    HW229616   3.199   0.875   7.400  0.6212 -0.0767  2.0023
 6053SOL     OW29617   1.801   1.382   9.783  0.2701  0.0290 -0.1056
 6053SOL    HW129618   1.756   1.300   9.804 -0.8276  0.4586 -0.7542
 6053SOL    HW229619   1.795   1.427   9.867 -0.0861  0.6978 -0.4840
 6054SOL     OW29620   1.394   1.126   7.742 -0.2878  0.2312  1.0466
 6054SOL    HW129621   1.358   1.212   7.720  2.3446  0.5002 -2.0381
 6054SOL    HW229622   1.414   1.135   7.836  1.7801 -0.2214  0.6285
 6055SOL     OW29623   2.066   2.439   6.811  0.9244 -0.4867 -0.0340
 6055SOL    HW129624   2.063   2.423   6.905 -0.1848  0.0479  0.0239
 6055SOL    HW229625   2.038   2.531   6.817 -2.0085 -1.3712 -0.2310
 6056SOL     OW29626   1.068   1.857   5.188  0.1708  0.8951  0.6461
 6056SOL    HW129627   0.991   1.822   5.142  1.8964 -1.5813 -0.3531
 6056SOL    HW229628   1.082   1.937   5.138  1.2408  0.9756  1.0739
 6057SOL     OW29629   2.784   4.198   1.343 -0.2369  0.1548 -1.0124
 6057SOL    HW129630   2.696   4.164   1.357 -0.4733  1.8139  1.6116
 6057SOL    HW229631   2.770   4.262   1.272 -0.2240  1.6826  0.3592
 6058SOL     OW29632   2.348   0.229   2.802  0.3188 -0.3286  0.0213
 6058SOL    HW129633   2.257   0.214   2.776  0.0781 -1.4547  1.4961
 6058SOL    HW229634   2.397   0.218   2.720  0.9753 -1.8243  0.5941
 6059SOL     OW29635   3.259   3.102   5.617 -0.2583  0.5300  0.0451
 6059SOL    HW129636   3.199   3.028   5.620 -0.6589  0.9697  2.9936
 6059SOL    HW229637   3.342   3.055   5.606 -0.8410 -0.4182 -0.2811
 6060SOL     OW29638   1.575   2.420   2.652  0.3940  0.4742  0.5640
 6060SOL    HW129639   1.593   2.403   2.745 -0.8828 -2.0968  0.3369
 6060SOL    HW229640   1.660   2.418   2.608  0.2085  2.8187  0.1326
 6061SOL     OW29641   2.833   1.864   0.038  0.0932 -0.0299  0.0424
 6061SOL    HW129642   2.762   1.928   0.039  1.0053  0.9716  0.0207
 6061SOL    HW229643   2.915   1.913   0.033 -1.5557  2.7311  0.3951
 6062SOL     OW29644   2.144   3.361   8.635 -0.4755 -0.5738 -0.4469
 6062SOL    HW129645   2.062   3.381   8.681 -0.5523 -1.4746 -0.2041
 6062SOL    HW229646   2.205   3.347   8.707 -1.1684 -0.8930  0.0753
 6063SOL     OW29647   0.610   2.496   5.220 -0.3074  0.0017  0.2500
 6063SOL    HW129648   0.609   2.545   5.138 -3.2648 -2.3700 -1.1038
 6063SOL    HW229649   0.542   2.537   5.274 -0.8124  2.3422 -2.1302
 6064SOL     OW29650   0.774   1.004   3.973  0.0172  0.4087  0.0384
 6064SOL    HW129651   0.790   0.991   3.880 -0.1424  0.5200 -0.0047
 6064SOL    HW229652   0.679   1.016   3.974  0.4389  3.9256 -2.9369
 6065SOL     OW29653   4.231   0.674   4.809  0.3555 -0.3309 -0.1624
 6065SOL    HW129654   4.322   0.661   4.783  0.2124 -0.5775 -0.5396
 6065SOL    HW229655   4.242   0.691   4.903  0.3064  1.3582 -0.4631
 6066SOL     OW29656   0.539   0.524   1.613  0.0682 -0.3319 -0.3261
 6066SOL    HW129657   0.576   0.612   1.619  0.2649 -0.3666 -1.0365
 6066SOL    HW229658   0.523   0.518   1.519  0.6915  0.0162 -0.4543
 6067SOL     OW29659   4.336   3.532   1.675 -0.4129  0.0726 -0.3212
 6067SOL    HW129660   4.426   3.542   1.644 -0.0107  0.5094  0.9981
 6067SOL    HW229661   4.320   3.625   1.688 -0.0281  0.3140 -1.5814
 6068SOL     OW29662   1.032   1.209   1.899  0.1358 -0.1298  0.4819
 6068SOL    HW129663   0.944   1.243   1.880 -1.4851 -2.9387  2.9594
 6068SOL    HW229664   1.091   1.262   1.846  1.0081 -1.2911  0.3093
 6069SOL     OW29665   2.086   3.990   3.735  0.6001 -0.2952  0.1296
 6069SOL    HW129666   2.094   3.994   3.831 -1.0902  0.8152  0.2319
 6069SOL    HW229667   2.097   3.896   3.722 -0.9662 -0.4407 -0.1753
 6070SOL     OW29668   0.305   3.943   4.106 -0.0191  0.1471  0.4441
 6070SOL    HW129669   0.297   3.849   4.122 -0.8906  0.1852  0.2024
 6070SOL    HW229670   0.238   3.954   4.038 -0.0750 -0.4762  0.4055
 6071SOL     OW29671   1.469   2.020  10.487 -0.9965  0.0922  0.1256
 6071SOL    HW129672   1.473   2.082  10.559  1.6869  1.1228 -0.8893
 6071SOL    HW229673   1.431   2.075  10.418 -2.1143 -1.0533 -0.1654
 6072SOL     OW29674   4.401   1.751   4.728  0.2475 -0.1982  0.3725
 6072SOL    HW129675   4.387   1.835   4.772  0.4064 -0.4474  0.9022
 6072SOL    HW229676   4.312   1.720   4.710 -0.2411 -0.5074  3.3500
 6073SOL     OW29677   2.780   4.364  12.234 -0.0125 -0.0365 -0.3822
 6073SOL    HW129678   2.773   4.337  12.326  3.2346 -1.0930 -0.4284
 6073SOL    HW229679   2.697   4.336  12.194 -1.0250  0.7857  1.1362
 6074SOL     OW29680   3.811   3.385   4.080  0.0426  0.0847  0.0621
 6074SOL    HW129681   3.856   3.359   4.160  1.8146 -0.2730 -1.0413
 6074SOL    HW229682   3.884   3.390   4.018  0.8674  2.1876  1.2265
 6075SOL     OW29683   1.876   4.287  15.413 -0.1372 -0.2694 -0.5655
 6075SOL    HW129684   1.927   4.213  15.379 -0.9392 -0.0460 -2.2689
 6075SOL    HW229685   1.910   4.275  15.502 -1.4748  0.6608  0.0739
 6076SOL     OW29686   3.132   3.392   4.129  0.6499  0.2614 -0.7256
 6076SOL    HW129687   3.174   3.357   4.051 -0.8617 -1.1556 -0.8929
 6076SOL    HW229688   3.205   3.442   4.166  0.8728 -0.1781 -0.5724
 6077SOL     OW29689   3.998   0.086   6.146  0.7832  0.0389  0.8054
 6077SOL    HW129690   3.913   0.051   6.169 -0.8053  1.8618 -2.2045
 6077SOL    HW229691   4.031   0.110   6.233  3.1577  0.4478 -0.1948
 6078SOL     OW29692   3.137   0.023   5.403  0.7101  0.0859  0.2416
 6078SOL    HW129693   3.113   0.064   5.487 -1.6652 -0.7410 -0.0443
 6078SOL    HW229694   3.097   4.661   5.413 -0.6215  0.8044  1.1643
 6079SOL     OW29695   3.835   2.697   9.850  0.2473 -0.6708 -0.3295
 6079SOL    HW129696   3.897   2.650   9.794  1.0097 -0.6987  0.5361
 6079SOL    HW229697   3.882   2.701   9.933 -0.0783 -0.4350 -0.1590
 6080SOL     OW29698   0.917   0.399   7.048  0.5899  0.0062 -0.3659
 6080SOL    HW129699   0.927   0.311   7.083 -0.9333 -0.1269 -0.2791
 6080SOL    HW229700   0.833   0.385   7.003 -0.5909  1.2763  1.4179
 6081SOL     OW29701   0.992   2.298   2.928  0.0031  0.3614 -0.1239
 6081SOL    HW129702   1.060   2.305   2.861  0.3148  0.2442  0.1823
 6081SOL    HW229703   0.958   2.387   2.917 -0.2402  0.2767 -0.0442
 6082SOL     OW29704   2.872   2.274   6.148 -0.5263 -0.3121 -0.0677
 6082SOL    HW129705   2.866   2.290   6.242 -1.2656  1.4175 -0.4047
 6082SOL    HW229706   2.785   2.292   6.113 -0.7988 -0.8026  0.3567
 6083SOL     OW29707   2.475   0.307   4.936  0.2604  0.3615 -0.7061
 6083SOL    HW129708   2.421   0.253   4.878 -0.1479  1.3332 -1.2317
 6083SOL    HW229709   2.484   0.391   4.890  0.5706 -0.1844 -1.6371
 6084SOL     OW29710   0.284   3.902   4.821 -0.4553 -0.0196  0.1379
 6084SOL    HW129711   0.352   3.853   4.866  1.1414  0.9562 -1.1725
 6084SOL    HW229712   0.340   3.940   4.753 -2.2075  1.2013 -0.6258
 6085SOL     OW29713   0.144   3.987   1.013 -0.5393  0.3701 -0.2568
 6085SOL    HW129714   0.127   3.956   1.102  0.7188 -2.0517 -0.8617
 6085SOL    HW229715   0.192   4.065   1.039  0.2624 -0.4087  0.5807
 6086SOL     OW29716   1.712   3.196   8.227 -0.1490 -0.3674  0.3631
 6086SOL    HW129717   1.717   3.148   8.144  0.5498  1.3400 -0.5657
 6086SOL    HW229718   1.628   3.235   8.204 -0.4581 -0.5020  1.2363
 6087SOL     OW29719   4.368   0.642   8.128  0.4395 -0.1554  0.2319
 6087SOL    HW129720   4.401   0.643   8.038  1.7215 -2.1818  0.6827
 6087SOL    HW229721   4.438   0.691   8.171  0.0621  0.9089 -0.3723
 6088SOL     OW29722   2.074   3.693   3.677 -0.5385 -0.6519 -0.0831
 6088SOL    HW129723   2.073   3.655   3.589  0.2476  3.4771 -1.8460
 6088SOL    HW229724   2.133   3.632   3.722 -2.0015 -1.3181  0.9356
 6089SOL     OW29725   2.042   2.419   7.089  0.1067  0.1100 -0.0561
 6089SOL    HW129726   2.085   2.437   7.173  0.3927 -1.3929  0.1150
 6089SOL    HW229727   1.981   2.353   7.119 -0.9325  0.4368 -1.4703
 6090SOL     OW29728   0.580   4.454   0.650 -0.2564  1.0378 -0.1676
 6090SOL    HW129729   0.508   4.504   0.612 -0.5681  0.3436 -0.4969
 6090SOL    HW229730   0.530   4.374   0.667  1.3073  0.5500  2.1143
 6091SOL     OW29731   3.963   4.028   3.372  0.1183  0.5227 -0.3562
 6091SOL    HW129732   3.984   4.122   3.373 -1.6754  0.9457 -2.3755
 6091SOL    HW229733   3.944   4.015   3.279  1.0412  3.8530 -1.0444
 6092SOL     OW29734   1.711   3.409   2.730 -0.1151 -0.1623  0.2667
 6092SOL    HW129735   1.806   3.419   2.726 -0.0213  0.0484  2.9649
 6092SOL    HW229736   1.682   3.483   2.677  1.6682  1.4045  1.4723
 6093SOL     OW29737   4.285   2.189   5.885  0.1636  0.2421  0.1931
 6093SOL    HW129738   4.354   2.201   5.820 -2.8892  0.6758 -2.9496
 6093SOL    HW229739   4.276   2.094   5.889 -0.3526  0.2950  0.3623
 6094SOL     OW29740   0.787   2.156   6.670  0.2662  0.9894  0.0709
 6094SOL    HW129741   0.771   2.244   6.636 -1.1485  1.2068  1.2941
 6094SOL    HW229742   0.882   2.161   6.677  0.4066  0.1683 -1.4585
 6095SOL     OW29743   2.420   0.116   7.353 -0.1007 -0.0757 -0.3854
 6095SOL    HW129744   2.333   0.100   7.315 -1.2886  1.4897  1.6469
 6095SOL    HW229745   2.456   0.181   7.293 -1.9544  0.2974 -1.1104
 6096SOL     OW29746   1.689   4.624   3.642  0.6091  0.5982 -0.0191
 6096SOL    HW129747   1.732   4.598   3.561  0.4456  1.9079 -0.5250
 6096SOL    HW229748   1.750   4.691   3.672  0.6549  0.8061 -0.5740
 6097SOL     OW29749   4.297   0.409   9.550 -0.3467 -0.6392  0.4936
 6097SOL    HW129750   4.364   0.346   9.578  0.6523 -0.2768 -1.1069
 6097SOL    HW229751   4.348   0.489   9.543  0.3821 -1.4604 -3.7513
 6098SOL     OW29752   0.527   0.450  13.028 -0.4680 -0.0392  0.0324
 6098SOL    HW129753   0.443   0.488  13.003 -0.4036 -1.3586 -2.1997
 6098SOL    HW229754   0.518   0.360  12.996 -0.3555 -0.1661  0.3623
 6099SOL     OW29755   4.406   4.423   6.559  0.4023  0.1028  0.3954
 6099SOL    HW129756   4.445   4.345   6.520 -1.2209 -1.5030  1.9240
 6099SOL    HW229757   4.481   4.474   6.587  0.7251 -0.1953  0.0683
 6100SOL     OW29758   1.764   1.319  10.589 -0.2596  0.2931 -0.1007
 6100SOL    HW129759   1.858   1.324  10.604 -0.1460  1.2120 -1.0326
 6100SOL    HW229760   1.745   1.411  10.607 -1.3633  0.2980 -1.2250
 6101SOL     OW29761   1.797   2.823   3.298 -0.1188 -0.3443 -0.3661
 6101SOL    HW129762   1.708   2.860   3.293  1.2687  3.2160  1.1341
 6101SOL    HW229763   1.849   2.903   3.289  1.2247 -1.0283  1.4390
 6102SOL     OW29764   2.237   3.451   5.711  0.1152 -0.4286 -0.1528
 6102SOL    HW129765   2.316   3.492   5.745  1.5174 -2.6990 -0.6588
 6102SOL    HW229766   2.185   3.531   5.714  1.8493  0.7324 -1.1825
 6103SOL     OW29767   1.578   2.609   3.498  0.1148  0.3977 -0.8466
 6103SOL    HW129768   1.521   2.620   3.422 -1.7567 -0.5544  0.4185
 6103SOL    HW229769   1.518   2.607   3.572  0.1487 -0.0038 -0.8319
 6104SOL     OW29770   0.252   1.885   6.371  0.0879 -0.2688 -0.6547
 6104SOL    HW129771   0.313   1.888   6.444 -0.5427  2.0114 -0.2368
 6104SOL    HW229772   0.263   1.790   6.361  1.5907 -0.2830  1.3146
 6105SOL     OW29773   3.967   0.254  12.174 -0.4919 -0.4075  0.1874
 6105SOL    HW129774   3.964   0.279  12.081 -1.3806  1.0513  0.6101
 6105SOL    HW229775   3.899   0.304  12.219  0.4306  2.1120 -1.2049
 6106SOL     OW29776   3.877   1.572  14.286 -0.8400 -0.2734  0.0153
 6106SOL    HW129777   3.965   1.607  14.298 -0.7179 -0.5729 -0.0041
 6106SOL    HW229778   3.859   1.510  14.357 -0.5299 -0.1651  0.1902
 6107SOL     OW29779   2.761   2.636   4.955  0.2725 -0.7181 -0.0928
 6107SOL    HW129780   2.818   2.652   4.880  0.0961 -1.8963 -0.4738
 6107SOL    HW229781   2.833   2.620   5.016 -0.9451 -0.4178  1.4312
 6108SOL     OW29782   4.456   0.557   7.863  0.2013 -0.1812  0.3608
 6108SOL    HW129783   4.381   0.500   7.876  2.7390 -3.4057  0.8634
 6108SOL    HW229784   4.480   0.540   7.772  0.2636 -0.6007  0.4562
 6109SOL     OW29785   0.030   1.028   0.272  0.4116 -0.4378 -0.2637
 6109SOL    HW129786   0.090   0.958   0.298  1.6441  0.6131 -0.2838
 6109SOL    HW229787   0.090   1.099   0.294 -2.1864  1.5101  0.4616
 6110SOL     OW29788   1.078   4.393  10.451  0.3378  0.4328  0.1006
 6110SOL    HW129789   1.147   4.415  10.388  0.1238  1.0099  0.0751
 6110SOL    HW229790   1.110   4.311  10.490 -1.2208  0.3648  1.2267
 6111SOL     OW29791   0.451   1.419   7.191  0.6034  0.1874  0.4920
 6111SOL    HW129792   0.465   1.411   7.286 -0.0904 -1.5323  0.4510
 6111SOL    HW229793   0.518   1.481   7.164  2.1870 -1.3394  0.8753
 6112SOL     OW29794   0.949   2.673   7.677 -0.1559  0.0095  0.6343
 6112SOL    HW129795   1.027   2.632   7.713  1.2067  0.5248 -1.7379
 6112SOL    HW229796   0.880   2.646   7.737 -0.0606  0.7890  1.0979
 6113SOL     OW29797   2.712   3.905   2.053 -0.2037 -0.2243 -0.5283
 6113SOL    HW129798   2.807   3.899   2.044 -0.4420 -2.6857 -1.1349
 6113SOL    HW229799   2.694   3.949   1.970  2.5528 -0.8318 -1.4166
 6114SOL     OW29800   0.339   1.683  13.978  0.5330 -0.1230 -0.0859
 6114SOL    HW129801   0.413   1.743  13.972  0.8203 -0.3016  1.7550
 6114SOL    HW229802   0.278   1.755  13.960  0.2289 -0.6406 -1.1576
 6115SOL     OW29803   3.596   3.639   7.721  0.0423  0.3893 -0.0779
 6115SOL    HW129804   3.632   3.585   7.792 -0.2624 -1.3316 -1.2326
 6115SOL    HW229805   3.676   3.680   7.688  0.9631  0.2246  1.9248
 6116SOL     OW29806   2.164   1.190  10.926  0.3059  0.0650 -0.2396
 6116SOL    HW129807   2.160   1.245  11.004 -1.4831  1.4606 -1.3229
 6116SOL    HW229808   2.109   1.118  10.957  0.5740  0.1585  0.4644
 6117SOL     OW29809   1.181   0.982   3.493 -0.3783 -0.0056 -0.1653
 6117SOL    HW129810   1.121   0.920   3.535 -0.7651  0.0940 -0.5694
 6117SOL    HW229811   1.199   1.042   3.566  1.4273 -1.1528  0.3302
 6118SOL     OW29812   4.707   0.274   8.095  0.5884 -0.8900  0.4307
 6118SOL    HW129813   0.008   0.236   8.179  0.3124  0.5032  1.1483
 6118SOL    HW229814   0.056   0.335   8.087 -2.6829  3.5871  3.6599
 6119SOL     OW29815   3.654   1.284  11.924 -0.1594  0.3120 -0.0089
 6119SOL    HW129816   3.683   1.314  11.838  0.9689 -0.3309  0.1467
 6119SOL    HW229817   3.608   1.203  11.903  1.1107 -0.3636 -0.1893
 6120SOL     OW29818   3.859   0.001   4.178 -0.1935 -0.2080  0.3975
 6120SOL    HW129819   3.926   4.657   4.177  0.1350  0.1086  0.8329
 6120SOL    HW229820   3.783   4.669   4.194 -1.1101  0.5866 -1.1106
 6121SOL     OW29821   1.822   2.205   5.061  0.1898 -0.0286  0.8379
 6121SOL    HW129822   1.802   2.120   5.100 -0.4392 -0.7039 -0.9703
 6121SOL    HW229823   1.900   2.187   5.010 -1.2880 -2.1662 -0.6390
 6122SOL     OW29824   3.002   0.728  10.525  0.2818 -0.1493 -0.0027
 6122SOL    HW129825   2.984   0.682  10.443  1.2476 -0.4943 -0.0297
 6122SOL    HW229826   3.092   0.757  10.515 -0.7858  3.6466  1.7148
 6123SOL     OW29827   1.922   4.098   5.985  0.1641 -0.1581 -0.3733
 6123SOL    HW129828   1.832   4.127   6.003  0.4751  1.0880 -0.8117
 6123SOL    HW229829   1.933   4.146   5.903 -1.5987  0.0717 -0.4847
 6124SOL     OW29830   1.882   1.065   4.797  0.1583  0.3076  0.1830
 6124SOL    HW129831   1.907   1.141   4.850 -1.1000  1.1158 -0.3842
 6124SOL    HW229832   1.963   1.028   4.762  0.2295  0.7603 -0.1343
 6125SOL     OW29833   4.534   2.929  13.155 -0.3232 -0.1691  0.1806
 6125SOL    HW129834   4.585   2.886  13.224  0.8551  2.4592  0.9427
 6125SOL    HW229835   4.552   2.878  13.076  1.2118 -0.6030  0.7997
 6126SOL     OW29836   0.458   4.466  12.513  0.0196 -0.5101 -0.5510
 6126SOL    HW129837   0.516   4.536  12.542 -0.3786 -0.3605 -0.1184
 6126SOL    HW229838   0.375   4.498  12.547 -0.1224 -2.0492  0.5319
 6127SOL     OW29839   0.374   0.202   2.502  0.6750  0.6241 -0.1629
 6127SOL    HW129840   0.465   0.222   2.481  0.0104  1.2424 -2.3573
 6127SOL    HW229841   0.316   0.266   2.463  2.0002  1.4832 -0.7146
 6128SOL     OW29842   0.020   2.314   7.281  0.2976  0.7903 -0.1976
 6128SOL    HW129843   0.032   2.234   7.229  1.2764 -0.3716  1.8019
 6128SOL    HW229844   0.026   2.368   7.202  1.0013  1.3333  0.2316
 6129SOL     OW29845   1.558   3.377   2.046  0.0747  0.3130 -0.5799
 6129SOL    HW129846   1.623   3.331   2.100 -0.4463  1.1585  0.7740
 6129SOL    HW229847   1.483   3.318   2.051 -0.0550  0.3911 -1.6910
 6130SOL     OW29848   2.287   3.522  17.546 -0.1056  0.4847  0.2883
 6130SOL    HW129849   2.268   3.450  17.606 -0.2993 -0.5321 -0.9880
 6130SOL    HW229850   2.272   3.482  17.460  1.7789 -0.6983  0.5040
 6131SOL     OW29851   3.609   2.066  11.312 -0.3076  0.2966 -0.3475
 6131SOL    HW129852   3.638   1.975  11.314  1.4507  0.8898  1.9541
 6131SOL    HW229853   3.522   2.050  11.348 -0.1470  1.0587  0.3729
 6132SOL     OW29854   0.600   4.656   5.378 -0.0908 -0.2397 -0.0980
 6132SOL    HW129855   0.692   4.684   5.376 -0.7560  2.0460  1.8691
 6132SOL    HW229856   0.562   4.723   5.322 -1.0995  0.2516  1.1716
 6133SOL     OW29857   4.701   1.327   7.723  0.7860  0.3305  0.3471
 6133SOL    HW129858   0.000   1.235   7.737  1.7288  0.7165  1.2289
 6133SOL    HW229859   4.610   1.328   7.753  0.9590  0.8030  0.8628
 6134SOL     OW29860   3.847   0.645  14.639 -0.5525 -0.7123 -0.4171
 6134SOL    HW129861   3.906   0.571  14.653 -1.2149 -0.9170  1.2521
 6134SOL    HW229862   3.864   0.685  14.724  2.6683 -1.7326 -0.5771
 6135SOL     OW29863   2.216   0.360   4.648  0.4050 -0.5048 -0.2028
 6135SOL    HW129864   2.160   0.331   4.576  0.0411  0.1218 -0.1705
 6135SOL    HW229865   2.303   0.333   4.619  0.1055 -3.0114  1.2760
 6136SOL     OW29866   0.735   1.015   5.692 -0.0600  0.1199  0.3000
 6136SOL    HW129867   0.666   1.034   5.756  0.7733  1.1719  0.8784
 6136SOL    HW229868   0.808   1.001   5.752 -0.3315  1.6693  0.9900
 6137SOL     OW29869   3.068   3.802  11.955 -0.3746 -0.2793 -0.3912
 6137SOL    HW129870   3.094   3.756  11.875  1.7669 -0.1355  0.2292
 6137SOL    HW229871   2.982   3.761  11.965  0.3575 -1.9976 -1.0461
 6138SOL     OW29872   2.873   4.392   8.388 -0.0396 -0.1465  1.0380
 6138SOL    HW129873   2.811   4.397   8.461  1.2401  0.5113  2.0833
 6138SOL    HW229874   2.816   4.354   8.321  1.7203  0.0610 -0.5812
 6139SOL     OW29875   1.141   2.220   8.840  0.7886  0.8296 -0.5762
 6139SOL    HW129876   1.074   2.171   8.792  0.4006  0.9920 -0.1966
 6139SOL    HW229877   1.115   2.307   8.810 -0.0670  0.6998 -0.2141
 6140SOL     OW29878   1.678   2.665   2.723  0.1537  0.3622  0.7026
 6140SOL    HW129879   1.674   2.611   2.645 -1.3061 -0.6088  1.4453
 6140SOL    HW229880   1.588   2.661   2.757 -1.1357 -1.4500 -3.0170
 6141SOL     OW29881   4.170   1.513  11.152  0.2097  0.6432  0.3114
 6141SOL    HW129882   4.134   1.533  11.066  0.3476  1.5205  0.4573
 6141SOL    HW229883   4.223   1.591  11.169  2.0098 -0.5129 -0.0031
 6142SOL     OW29884   4.421   1.391   7.853 -0.3918  0.0310  0.6626
 6142SOL    HW129885   4.345   1.419   7.905 -1.0802  1.2419 -0.9723
 6142SOL    HW229886   4.473   1.374   7.931 -1.5060  2.2869  1.8875
 6143SOL     OW29887   0.329   2.332  15.234 -0.3837 -0.4562 -0.0459
 6143SOL    HW129888   0.414   2.364  15.267 -0.2965 -2.1848  1.3951
 6143SOL    HW229889   0.269   2.384  15.288  0.8887 -0.1759  1.1029
 6144SOL     OW29890   1.420   2.614   7.683  0.8871 -0.4115  0.0133
 6144SOL    HW129891   1.368   2.687   7.716  1.4136  0.0137 -0.0897
 6144SOL    HW229892   1.474   2.658   7.616 -1.0384  0.9986 -0.6069
 6145SOL     OW29893   3.870   3.245   9.994 -0.1522  0.8346 -0.2104
 6145SOL    HW129894   3.881   3.270   9.902 -3.2240  0.0171 -0.8207
 6145SOL    HW229895   3.843   3.322  10.043  0.9533  0.4116  1.0466
 6146SOL     OW29896   4.186   3.730   8.201 -1.0306  0.0210 -0.4596
 6146SOL    HW129897   4.184   3.736   8.105 -1.0927  1.8489 -0.3411
 6146SOL    HW229898   4.277   3.702   8.212 -1.2325  0.2061  1.5363
 6147SOL     OW29899   0.645   3.867   7.157 -0.1418  0.1796  0.3698
 6147SOL    HW129900   0.558   3.840   7.188 -0.3710  0.4436 -0.0365
 6147SOL    HW229901   0.694   3.887   7.237  1.0444  0.1934 -0.3631
 6148SOL     OW29902   0.485   3.257   7.112 -0.2428  0.3629  0.3654
 6148SOL    HW129903   0.468   3.200   7.037  1.7630 -2.6386  2.2067
 6148SOL    HW229904   0.426   3.214   7.175 -0.7039 -0.3396 -0.5524
 6149SOL     OW29905   4.073   3.640   1.491 -0.3118  0.2210  0.6415
 6149SOL    HW129906   4.002   3.636   1.556 -0.4611 -0.4364  0.4349
 6149SOL    HW229907   4.109   3.552   1.479 -0.1592  0.3989 -0.1753
 6150SOL     OW29908   4.358   3.152  10.655  0.1199  0.4918  0.4843
 6150SOL    HW129909   4.357   3.064  10.694  0.1912 -0.1260 -0.9054
 6150SOL    HW229910   4.427   3.148  10.589 -1.1684 -2.8198 -0.6821
 6151SOL     OW29911   2.768   0.985  10.805 -0.3953  0.3257  0.1294
 6151SOL    HW129912   2.680   1.022  10.802  0.0645  1.1426 -2.6502
 6151SOL    HW229913   2.754   0.890  10.816 -2.0572  0.7467  1.7078
 6152SOL     OW29914   1.183   0.533  12.381  0.5843 -0.2775  0.1707
 6152SOL    HW129915   1.264   0.520  12.332  0.7719 -0.4683  0.5268
 6152SOL    HW229916   1.171   0.441  12.404  1.0960 -0.4187 -0.1409
 6153SOL     OW29917   4.582   4.604   8.176 -0.7632 -0.1449 -0.0583
 6153SOL    HW129918   4.569   4.664   8.249 -0.3328  1.2478 -1.1263
 6153SOL    HW229919   4.662   4.649   8.149 -2.6077  1.7307 -2.2893
 6154SOL     OW29920   0.256   2.558   6.062 -0.3131  0.0894 -0.0197
 6154SOL    HW129921   0.302   2.609   5.995 -1.7298  1.8066  0.3281
 6154SOL    HW229922   0.166   2.567   6.029 -0.7020  0.1993  1.0756
 6155SOL     OW29923   1.605   1.212   7.381 -0.1986  0.2888  0.0716
 6155SOL    HW129924   1.642   1.160   7.309 -0.3723 -0.0237  0.2102
 6155SOL    HW229925   1.597   1.145   7.448 -1.0860  0.2117 -0.1122
 6156SOL     OW29926   0.944   1.954   2.083  0.3511 -0.0822 -0.7188
 6156SOL    HW129927   0.910   1.929   2.170  1.4858 -1.2312 -0.5986
 6156SOL    HW229928   0.913   1.879   2.032 -2.6318  0.7883 -0.1718
 6157SOL     OW29929   1.883   0.442   6.236 -0.3251  0.2595 -0.4921
 6157SOL    HW129930   1.954   0.500   6.206 -0.5744  0.8673  0.0877
 6157SOL    HW229931   1.896   0.368   6.177 -0.6753 -0.7531  0.7104
 6158SOL     OW29932   2.909   0.364   0.646 -0.1339 -0.4716 -0.4730
 6158SOL    HW129933   2.843   0.342   0.580  0.3188  1.2403 -1.5030
 6158SOL    HW229934   2.860   0.428   0.698 -1.6932 -1.9379 -0.1367
 6159SOL     OW29935   3.374   2.745   8.210  0.1889 -0.4621  0.0586
 6159SOL    HW129936   3.298   2.780   8.164  0.6487  0.0576 -0.2988
 6159SOL    HW229937   3.331   2.720   8.292 -1.7171 -0.7441 -1.0386
 6160SOL     OW29938   2.026   4.107   7.720  0.1264  0.2591 -0.1616
 6160SOL    HW129939   2.016   4.056   7.640  0.1699 -1.1336  0.7354
 6160SOL    HW229940   2.061   4.036   7.773  0.9263 -1.2954 -2.8065
 6161SOL     OW29941   3.887   1.433   1.419  0.2773 -0.2239  0.5862
 6161SOL    HW129942   3.961   1.463   1.367  0.3546 -0.2935  0.6562
 6161SOL    HW229943   3.861   1.353   1.373  0.3175  0.2162 -0.2033
 6162SOL     OW29944   0.174   1.103  14.490  0.3288 -0.4726 -0.3265
 6162SOL    HW129945   0.257   1.141  14.464  0.1480  0.1691  0.0604
 6162SOL    HW229946   0.103   1.139  14.436  0.8274  2.1333  0.8163
 6163SOL     OW29947   2.343   4.031   2.599 -0.9504  0.1739 -0.1167
 6163SOL    HW129948   2.395   4.062   2.672  0.4490  3.4229 -2.4921
 6163SOL    HW229949   2.306   4.111   2.561  0.3851  1.4935  1.3733
 6164SOL     OW29950   1.835   4.682  10.245 -0.3916 -0.4414 -0.6164
 6164SOL    HW129951   1.895   4.724  10.183  1.6865 -2.4817  0.0425
 6164SOL    HW229952   1.878   4.597  10.249  0.7627  0.0897 -2.0067
 6165SOL     OW29953   1.544   0.145  16.437  0.4143  0.4828  0.4811
 6165SOL    HW129954   1.519   0.057  16.467  0.7398  0.4415  0.6278
 6165SOL    HW229955   1.590   0.138  16.354 -0.7296  2.7381 -0.3389
 6166SOL     OW29956   3.067   0.625   9.570  0.0913  0.1203  0.3843
 6166SOL    HW129957   3.155   0.588   9.580  0.2715  0.3216 -0.4571
 6166SOL    HW229958   3.021   0.551   9.611  0.3493 -0.1192  0.2433
 6167SOL     OW29959   3.367   3.704  13.467 -0.2488 -0.2959  0.3180
 6167SOL    HW129960   3.384   3.641  13.397 -2.2806 -0.2012 -0.2496
 6167SOL    HW229961   3.390   3.665  13.551  0.3304 -0.3481  0.1347
 6168SOL     OW29962   3.042   2.070   8.458  0.2817  0.1845 -0.2493
 6168SOL    HW129963   3.120   2.122   8.475  0.0944  0.2599  0.3701
 6168SOL    HW229964   3.038   2.094   8.366 -2.0616 -0.1798 -0.2325
 6169SOL     OW29965   1.053   3.022   5.064 -0.2704  0.1774  0.0499
 6169SOL    HW129966   1.108   2.978   5.000  0.7252  0.1876  0.9008
 6169SOL    HW229967   1.093   2.989   5.144  0.3947  0.6703 -0.0805
 6170SOL     OW29968   2.932   0.920   5.292  0.0776 -0.1892  0.3532
 6170SOL    HW129969   2.953   0.937   5.384  1.8205 -0.2634 -0.0317
 6170SOL    HW229970   3.015   0.926   5.245  0.8918 -0.0377  1.8176
 6171SOL     OW29971   3.521   0.723   7.766  0.0352  0.2409  0.0812
 6171SOL    HW129972   3.527   0.813   7.736  0.6099  0.3424  0.4924
 6171SOL    HW229973   3.446   0.690   7.717 -0.6498 -0.4329  1.6038
 6172SOL     OW29974   1.962   4.197  11.675 -0.1896 -0.3352 -0.2027
 6172SOL    HW129975   1.963   4.128  11.609  1.8623 -0.6968  0.2092
 6172SOL    HW229976   2.053   4.193  11.706 -0.4080  1.7484  0.6781
 6173SOL     OW29977   4.154   4.393   2.336  0.2861 -0.0362  0.2109
 6173SOL    HW129978   4.065   4.358   2.332 -0.2123  1.1657  0.8762
 6173SOL    HW229979   4.138   4.487   2.328 -1.0810 -0.3976 -1.3203
 6174SOL     OW29980   1.537   3.124  13.371  0.1794  0.2808 -0.3643
 6174SOL    HW129981   1.455   3.146  13.415 -0.7159  1.9756 -2.8775
 6174SOL    HW229982   1.501   3.091  13.288 -0.0088 -0.1533 -0.1095
 6175SOL     OW29983   3.986   0.681  11.110 -0.3330 -0.4044 -0.2599
 6175SOL    HW129984   4.025   0.593  11.112 -1.7110 -0.9869  1.2033
 6175SOL    HW229985   4.051   0.732  11.158 -2.4897  3.5483 -1.5477
 6176SOL     OW29986   1.022   0.062   4.362  0.1900  0.1738  0.7160
 6176SOL    HW129987   0.933   0.065   4.328 -0.9595  0.2710  3.7688
 6176SOL    HW229988   1.043   0.154   4.350  0.7898 -0.5295 -3.5407
 6177SOL     OW29989   4.167   0.000   4.712 -0.4628 -0.1189  0.3808
 6177SOL    HW129990   4.082   4.686   4.690 -0.0084 -0.3626 -0.9662
 6177SOL    HW229991   4.163   0.051   4.792  1.1928  0.6161 -0.0095
 6178SOL     OW29992   2.585   3.612   2.628  0.1734  0.1231 -0.3219
 6178SOL    HW129993   2.555   3.530   2.667 -0.5696 -0.0028 -1.1648
 6178SOL    HW229994   2.669   3.592   2.587 -0.2949  0.9228 -1.6455
 6179SOL     OW29995   3.543   2.249   7.006 -0.4054 -0.0310 -0.4099
 6179SOL    HW129996   3.561   2.211   6.920  1.1011 -2.3573  0.9200
 6179SOL    HW229997   3.465   2.303   6.998 -0.3294  0.1643  0.1552
 6180SOL     OW29998   2.461   1.300   2.443  0.5709 -0.3476 -0.4133
 6180SOL    HW129999   2.488   1.237   2.510 -0.7984  0.1339  0.5886
 6180SOL    HW230000   2.386   1.347   2.480 -0.0665 -1.6621 -0.0339
 6181SOL     OW30001   0.404   2.406   4.811  0.1629  0.0100  0.3280
 6181SOL    HW130002   0.334   2.382   4.871 -0.8932  2.0406 -0.1027
 6181SOL    HW230003   0.392   2.358   4.729 -0.2143 -0.9426  0.9347
 6182SOL     OW30004   2.650   2.968   9.454 -0.6212  0.2619 -0.0089
 6182SOL    HW130005   2.657   2.995   9.546 -0.1658  0.8815 -0.2309
 6182SOL    HW230006   2.661   3.035   9.387  2.0949 -0.1665  0.0067
 6183SOL     OW30007   3.124   4.072   5.130  0.4229  0.0382 -0.2122
 6183SOL    HW130008   3.208   4.043   5.163  1.6254  1.6571 -1.8748
 6183SOL    HW230009   3.061   4.008   5.164  0.8830 -0.2462  0.0941
 6184SOL     OW30010   3.869   3.761   4.882 -0.3300 -0.0152  0.2764
 6184SOL    HW130011   3.813   3.738   4.808  0.4159  2.0858 -0.9641
 6184SOL    HW230012   3.810   3.811   4.938  0.3564 -0.1106  1.0823
 6185SOL     OW30013   2.832   1.772  15.412 -0.0592  0.4769 -0.1043
 6185SOL    HW130014   2.878   1.759  15.329 -2.0683  0.1080 -1.1579
 6185SOL    HW230015   2.756   1.717  15.394  1.3128 -0.4106 -3.1153
 6186SOL     OW30016   2.469   0.578   7.016 -0.1633 -0.1817 -0.2638
 6186SOL    HW130017   2.385   0.611   6.984  1.1364  1.6975 -1.7612
 6186SOL    HW230018   2.483   0.630   7.096 -0.4470 -0.3159 -0.1269
 6187SOL     OW30019   4.582   2.465   5.797 -0.1399  0.3922  0.1414
 6187SOL    HW130020   4.582   2.371   5.817 -0.7014  0.3847  0.1305
 6187SOL    HW230021   4.653   2.499   5.850  1.7168 -2.7463 -0.3566
 6188SOL     OW30022   1.737   3.689   6.210 -0.6310  0.2555 -0.1434
 6188SOL    HW130023   1.701   3.751   6.273 -2.7548 -1.0558 -0.0624
 6188SOL    HW230024   1.795   3.626   6.253 -0.6163  0.8736  0.7348
 6189SOL     OW30025   2.889   1.140   7.551 -0.1170 -0.1594 -0.6576
 6189SOL    HW130026   2.842   1.071   7.599  0.4192  0.4804  0.7761
 6189SOL    HW230027   2.813   1.192   7.523 -1.3361 -0.0655  2.7509
 6190SOL     OW30028   2.055   4.240   2.789  0.2211 -0.2776  0.3036
 6190SOL    HW130029   2.114   4.294   2.843  0.0918 -0.2139  0.3825
 6190SOL    HW230030   1.971   4.260   2.830 -0.2946 -0.1005 -0.8649
 6191SOL     OW30031   4.401   3.024   8.526  0.3896  0.3662 -0.4747
 6191SOL    HW130032   4.359   3.109   8.512 -0.7263  0.0841  1.2317
 6191SOL    HW230033   4.369   3.018   8.616 -1.0373  1.5001 -0.8983
 6192SOL     OW30034   3.750   2.007   2.159 -0.4357  0.9258 -0.3734
 6192SOL    HW130035   3.787   1.936   2.212  0.5117  2.8220  1.5156
 6192SOL    HW230036   3.788   1.999   2.072  0.5719 -1.1337  0.2600
 6193SOL     OW30037   0.952   4.458   6.034  0.1224 -0.0039  0.4843
 6193SOL    HW130038   0.943   4.479   6.127  1.0657 -0.6036  0.7098
 6193SOL    HW230039   0.908   4.373   6.031 -1.1631  0.6526  0.5167
 6194SOL     OW30040   1.601   2.469   7.393 -0.3139 -0.3976  0.7262
 6194SOL    HW130041   1.543   2.394   7.400  0.8919 -1.7339 -3.3023
 6194SOL    HW230042   1.650   2.455   7.312 -0.0833  0.0915  0.7803
 6195SOL     OW30043   0.291   2.084  15.344 -0.1135  0.7881  0.3348
 6195SOL    HW130044   0.341   2.165  15.337  1.3434 -0.1194  0.0569
 6195SOL    HW230045   0.242   2.082  15.262 -1.6648  1.0299  1.2692
 6196SOL     OW30046   1.304   2.425   8.950  0.0975 -0.4548 -0.6497
 6196SOL    HW130047   1.298   2.335   8.917  0.8377 -1.5538  2.1372
 6196SOL    HW230048   1.338   2.482   8.881 -0.6907  1.2115  0.3516
 6197SOL     OW30049   3.107   3.420   4.692  0.1370  0.1339 -0.0069
 6197SOL    HW130050   3.162   3.490   4.657  0.3397 -1.1641 -2.2826
 6197SOL    HW230051   3.121   3.435   4.785 -2.0446 -0.7790  0.4561
 6198SOL     OW30052   1.025   0.037   2.824  0.2376  0.3450 -0.5157
 6198SOL    HW130053   0.977   4.679   2.813  0.2490  0.4428 -1.2927
 6198SOL    HW230054   1.077   0.047   2.744  1.6049  1.4846  0.5396
 6199SOL     OW30055   3.896   2.368   1.756  0.0699 -0.4355 -0.0677
 6199SOL    HW130056   3.861   2.395   1.671  1.0682 -1.5561 -0.8394
 6199SOL    HW230057   3.958   2.439   1.768  1.0554 -0.8380 -2.8026
 6200SOL     OW30058   1.635   3.415   5.945  0.4445 -0.2108  0.1923
 6200SOL    HW130059   1.672   3.394   6.030  1.5686 -0.4097 -0.3426
 6200SOL    HW230060   1.621   3.329   5.905  1.1650 -1.3336  2.3639
 6201SOL     OW30061   1.649   3.466  16.662  0.0090  0.5222  0.1289
 6201SOL    HW130062   1.726   3.523  16.663  1.0013 -0.8143  0.1565
 6201SOL    HW230063   1.630   3.467  16.568  2.2016 -2.9948 -0.3427
 6202SOL     OW30064   4.712   4.336   1.378 -0.1919  0.0043  0.0659
 6202SOL    HW130065   4.634   4.351   1.325  0.6719  0.8224 -0.9567
 6202SOL    HW230066   4.681   4.297   1.460 -0.6353 -2.3229 -1.1905
 6203SOL     OW30067   0.500   2.258   2.604 -0.2386 -0.0404 -0.2559
 6203SOL    HW130068   0.582   2.278   2.557 -0.5171  2.0382  0.1414
 6203SOL    HW230069   0.525   2.210   2.684  1.8758 -1.3508 -1.6864
 6204SOL     OW30070   2.063   4.190  11.272 -0.0272 -0.2032 -0.2149
 6204SOL    HW130071   2.050   4.200  11.178  0.2955 -1.8202 -0.4280
 6204SOL    HW230072   2.026   4.269  11.311  3.6834  1.2750  0.3717
 6205SOL     OW30073   4.506   1.839   0.273 -0.3337 -0.3016  0.2721
 6205SOL    HW130074   4.556   1.760   0.251 -0.7426 -0.7914  1.1107
 6205SOL    HW230075   4.418   1.803   0.262  0.7509 -3.3027  1.3096
 6206SOL     OW30076   0.904   0.684   7.165 -0.3806  0.3067 -0.3993
 6206SOL    HW130077   0.992   0.690   7.204 -1.2511  1.0757  1.4731
 6206SOL    HW230078   0.918   0.603   7.117  0.2241  0.1775 -0.0127
 6207SOL     OW30079   4.564   0.286   7.427  0.0357 -0.3643  0.1376
 6207SOL    HW130080   4.602   0.228   7.361  1.2578 -1.7397  2.0417
 6207SOL    HW230081   4.626   0.358   7.438 -0.4116 -0.0233  0.4292
 6208SOL     OW30082   2.659   3.819   4.327  0.1249 -0.3938 -0.3987
 6208SOL    HW130083   2.637   3.726   4.321  2.0380 -0.8396 -0.7255
 6208SOL    HW230084   2.742   3.820   4.278  0.2220  0.2342 -0.2181
 6209SOL     OW30085   0.573   3.077   4.188  0.1233  0.1552  0.2783
 6209SOL    HW130086   0.545   3.109   4.274  0.9388  2.5399 -0.3531
 6209SOL    HW230087   0.552   3.151   4.130 -0.6088  1.3429  2.0631
 6210SOL     OW30088   1.151   0.393  11.536 -0.9307 -0.7707 -0.1597
 6210SOL    HW130089   1.186   0.480  11.514 -2.8582  0.0934  0.2644
 6210SOL    HW230090   1.058   0.403  11.518 -1.1137  0.4069  1.4734
 6211SOL     OW30091   0.064   1.753   7.961  0.1084 -0.0545  0.1008
 6211SOL    HW130092   0.150   1.773   7.925  0.3878 -2.6539 -0.6383
 6211SOL    HW230093   0.053   1.836   8.008 -1.5983  0.9536 -2.0017
 6212SOL     OW30094   3.404   1.066  13.435 -0.1073 -0.1817  0.1604
 6212SOL    HW130095   3.394   1.148  13.483  0.6769  0.8939 -1.5114
 6212SOL    HW230096   3.341   1.067  13.363 -0.3179 -0.8576  0.3348
 6213SOL     OW30097   3.065   4.379   1.123 -0.4078 -0.2167  0.3918
 6213SOL    HW130098   3.100   4.407   1.039 -0.9877 -1.2206 -0.1744
 6213SOL    HW230099   2.971   4.388   1.111 -0.1508  0.7078 -0.9401
 6214SOL     OW30100   3.393   1.223   7.093 -0.4992 -0.1573 -0.2622
 6214SOL    HW130101   3.321   1.193   7.038 -1.5445  2.1612 -0.1551
 6214SOL    HW230102   3.441   1.141   7.105  0.6259  0.5059 -0.2354
 6215SOL     OW30103   0.511   0.111   9.385  0.1308  0.0049 -0.1715
 6215SOL    HW130104   0.466   0.195   9.388 -1.3656 -0.7642 -0.9879
 6215SOL    HW230105   0.440   0.048   9.389 -0.3107  0.4957 -0.3152
 6216SOL     OW30106   1.221   0.370   2.970  0.5841  0.5553  0.1706
 6216SOL    HW130107   1.160   0.386   2.898  2.0798  0.6277 -1.0968
 6216SOL    HW230108   1.258   0.289   2.935 -0.0371 -0.5095  2.0012
 6217SOL     OW30109   3.601   2.090   6.780 -0.1985 -0.3558  0.3537
 6217SOL    HW130110   3.528   2.029   6.772  0.0216 -0.4330 -1.1028
 6217SOL    HW230111   3.577   2.156   6.715 -2.3310 -1.7915 -0.3117
 6218SOL     OW30112   0.878   1.867   2.353 -0.6576 -0.1058  0.2213
 6218SOL    HW130113   0.841   1.880   2.440 -0.2562  0.7243  0.2774
 6218SOL    HW230114   0.916   1.780   2.350  0.3141  0.3013  0.7069
 6219SOL     OW30115   1.848   4.579   6.117 -0.5928  0.0058  0.5231
 6219SOL    HW130116   1.806   4.659   6.085  2.1514  1.2079 -0.0244
 6219SOL    HW230117   1.827   4.517   6.048  0.0068  0.4161 -0.0209
 6220SOL     OW30118   4.184   3.224   3.439  0.2692 -0.2103 -0.2243
 6220SOL    HW130119   4.097   3.184   3.436  0.1883 -0.0886  0.4349
 6220SOL    HW230120   4.171   3.300   3.382  0.9013 -0.6313 -0.9271
 6221SOL     OW30121   4.021   1.719  15.534 -0.1662  0.5268  0.0066
 6221SOL    HW130122   3.945   1.708  15.591  0.2773 -1.9867  0.1166
 6221SOL    HW230123   3.993   1.672  15.455 -4.0619 -0.3953  1.9440
 6222SOL     OW30124   2.435   2.777  12.338 -0.6241 -0.2220 -0.0773
 6222SOL    HW130125   2.350   2.815  12.312 -1.2268 -2.1262 -0.9414
 6222SOL    HW230126   2.474   2.753  12.254 -1.1585 -2.5275  0.3118
 6223SOL     OW30127   3.134   4.424   0.851 -0.4868 -0.0141  0.0427
 6223SOL    HW130128   3.137   4.517   0.832  0.0498  0.3953  2.1347
 6223SOL    HW230129   3.223   4.401   0.824 -0.9830 -1.0737 -0.6820
 6224SOL     OW30130   4.305   0.602  17.501  0.3289  0.2593 -0.1985
 6224SOL    HW130131   4.215   0.586  17.471 -0.0278  2.3474 -0.3100
 6224SOL    HW230132   4.344   0.636  17.420  0.1454  2.5689  0.6760
 6225SOL     OW30133   1.588   2.810   3.047  0.7618 -0.4894 -0.3573
 6225SOL    HW130134   1.651   2.882   3.044 -2.2793  2.2990  2.4344
 6225SOL    HW230135   1.656   2.744   3.062 -0.0528 -1.3963 -0.6324
 6226SOL     OW30136   0.159   3.279   3.858 -0.2144  0.1968 -0.1857
 6226SOL    HW130137   0.235   3.310   3.907  0.4661 -0.3280 -0.9218
 6226SOL    HW230138   0.126   3.363   3.825 -1.2210  0.7083  2.0847
 6227SOL     OW30139   3.659   0.663   1.937 -0.1043  0.2495  0.9349
 6227SOL    HW130140   3.714   0.693   1.865  1.0268  0.2913  1.8205
 6227SOL    HW230141   3.572   0.638   1.905  0.3826 -1.0060  0.6090
 6228SOL     OW30142   3.172   0.936   3.229 -0.4535 -0.0302 -0.2186
 6228SOL    HW130143   3.107   0.867   3.241 -0.6200 -0.1782 -1.8914
 6228SOL    HW230144   3.214   0.899   3.151  0.4466 -1.8868  1.1643
 6229SOL     OW30145   2.826   4.709   8.260 -0.0525 -0.3664  0.9384
 6229SOL    HW130146   2.864   4.707   8.348 -0.2759 -0.7104  1.0295
 6229SOL    HW230147   2.908   4.706   8.211 -1.0600 -1.4854 -0.6667
 6230SOL     OW30148   0.247   4.577  16.954  0.2557 -0.0224 -0.1147
 6230SOL    HW130149   0.308   4.508  16.979  0.2405  0.9568  2.5893
 6230SOL    HW230150   0.302   4.618  16.888 -1.8550 -1.3794 -2.7560
 6231SOL     OW30151   4.357   3.440   6.941  0.8791  0.0623 -0.1874
 6231SOL    HW130152   4.271   3.457   6.904 -0.0607  0.5393  2.1920
 6231SOL    HW230153   4.341   3.352   6.976 -0.1374 -0.4428 -1.9210
 6232SOL     OW30154   3.045   4.249  15.008  0.1351 -0.8228 -0.1529
 6232SOL    HW130155   3.023   4.285  15.094  1.8366 -0.8339  0.2741
 6232SOL    HW230156   3.099   4.315  14.965 -1.2843 -0.7790 -1.8970
 6233SOL     OW30157   1.788   0.676  11.142  0.1813 -0.6975 -0.1688
 6233SOL    HW130158   1.737   0.607  11.183 -0.1043 -0.7612 -0.6359
 6233SOL    HW230159   1.751   0.747  11.194  3.3559 -0.4131  1.7175
 6234SOL     OW30160   2.794   1.244  11.510  0.0945 -0.5918  0.0970
 6234SOL    HW130161   2.762   1.314  11.453 -0.7858 -0.9350  0.1771
 6234SOL    HW230162   2.815   1.300  11.585 -0.7515  0.9040 -0.7815
 6235SOL     OW30163   4.042   1.417  13.076  0.1138 -0.0772  0.6163
 6235SOL    HW130164   4.098   1.369  13.136 -0.3596  0.1610  1.2615
 6235SOL    HW230165   3.966   1.360  13.066 -1.5167  2.1343  0.2285
 6236SOL     OW30166   0.504   2.402   7.297  1.1374 -0.0113  0.1699
 6236SOL    HW130167   0.492   2.367   7.209 -1.0430  0.2390  0.3794
 6236SOL    HW230168   0.420   2.385   7.340  0.6273  0.0771 -0.8009
 6237SOL     OW30169   3.166   4.113  14.236  0.1543 -0.2944  0.6776
 6237SOL    HW130170   3.249   4.156  14.212 -0.2169  1.3539  2.3475
 6237SOL    HW230171   3.167   4.114  14.332 -1.4881 -1.0336  0.6868
 6238SOL     OW30172   4.417   1.431  11.391 -0.0315 -0.1862  0.0904
 6238SOL    HW130173   4.382   1.343  11.406  1.4322 -0.5345  1.4161
 6238SOL    HW230174   4.469   1.411  11.313 -0.2336  1.8939 -0.5937
 6239SOL     OW30175   0.411   2.463   3.621 -0.2114 -0.6892  0.3322
 6239SOL    HW130176   0.368   2.548   3.635  0.2693 -0.3080 -0.4740
 6239SOL    HW230177   0.392   2.413   3.700  0.9190 -0.1679  0.9372
 6240SOL     OW30178   2.744   0.414   2.271 -0.0017 -0.4386  0.2647
 6240SOL    HW130179   2.805   0.475   2.228  0.5861 -1.2581 -0.0599
 6240SOL    HW230180   2.683   0.472   2.317  0.8839  0.8800 -0.2090
 6241SOL     OW30181   0.507   2.174   3.327 -0.0560 -0.2456 -0.1142
 6241SOL    HW130182   0.550   2.111   3.269 -0.7860 -2.5926  1.9157
 6241SOL    HW230183   0.482   2.100   3.382 -0.9680  0.3225  0.2391
 6242SOL     OW30184   3.208   3.208   4.970  0.4465 -0.1591  0.4069
 6242SOL    HW130185   3.294   3.249   4.968 -0.1165  0.9140 -2.3126
 6242SOL    HW230186   3.220   3.135   4.909 -3.4290 -0.3098 -0.1592
 6243SOL     OW30187   2.598   1.624   7.939 -0.0578 -0.5987  0.0788
 6243SOL    HW130188   2.554   1.644   7.856 -0.2306 -0.8552  0.1052
 6243SOL    HW230189   2.677   1.581   7.907  0.3693  0.3251 -0.1114
 6244SOL     OW30190   3.406   2.374   3.159 -0.5270 -0.2272  0.5028
 6244SOL    HW130191   3.391   2.281   3.173 -0.2722 -0.1775  1.1197
 6244SOL    HW230192   3.450   2.404   3.239  0.0786  0.0175  0.0718
 6245SOL     OW30193   1.934   2.026  11.267  0.3496 -0.2325 -0.0029
 6245SOL    HW130194   1.987   2.070  11.201 -1.2158 -1.1526 -1.8567
 6245SOL    HW230195   1.850   2.068  11.248  1.0548  0.9603 -0.4871
 6246SOL     OW30196   2.799   3.626   3.708  0.5970  0.4096 -0.5647
 6246SOL    HW130197   2.780   3.655   3.797  1.0888 -0.0277 -0.3201
 6246SOL    HW230198   2.754   3.542   3.709 -0.2689  0.9099  1.6908
 6247SOL     OW30199   0.426   0.833  12.977 -0.2181 -0.4242 -0.3191
 6247SOL    HW130200   0.374   0.754  12.966 -3.0079  1.0811  1.9456
 6247SOL    HW230201   0.488   0.809  13.046  2.2174 -1.8942 -3.0644
 6248SOL     OW30202   3.067   0.697  13.910  0.4433  0.1355 -0.3179
 6248SOL    HW130203   3.003   0.756  13.951 -0.3227 -0.5680 -0.5054
 6248SOL    HW230204   3.088   0.764  13.845 -0.1091 -0.4740 -1.1255
 6249SOL     OW30205   0.471   0.910   8.970  0.3306 -0.1827  0.2108
 6249SOL    HW130206   0.475   0.957   9.054 -0.3958 -1.3779  0.9158
 6249SOL    HW230207   0.414   0.839   9.000  1.3881 -1.2247 -0.2573
 6250SOL     OW30208   3.523   3.909   2.643  0.5564  0.2853 -0.3314
 6250SOL    HW130209   3.435   3.935   2.616  0.6003  0.9553  0.1625
 6250SOL    HW230210   3.518   3.815   2.628 -0.4817  0.1835  0.6780
 6251SOL     OW30211   2.021   3.047   8.520  0.0862  0.0537  0.3180
 6251SOL    HW130212   2.109   3.076   8.547  0.1315 -0.6190  0.9030
 6251SOL    HW230213   1.978   3.123   8.482  1.5834 -0.9348 -3.3792
 6252SOL     OW30214   2.842   4.643  10.695 -0.0435 -0.4104  0.4710
 6252SOL    HW130215   2.931   4.610  10.682 -0.0108 -1.0575  2.3366
 6252SOL    HW230216   2.796   4.587  10.759  0.2712  1.4755  2.3473
 6253SOL     OW30217   2.767   1.236   4.719 -0.4451 -0.1580 -0.1692
 6253SOL    HW130218   2.730   1.226   4.807  1.5320 -0.1884  0.6566
 6253SOL    HW230219   2.684   1.209   4.680 -0.5069  2.1956 -1.6310
 6254SOL     OW30220   4.223   1.586   5.363 -0.6825  0.1865  0.2443
 6254SOL    HW130221   4.188   1.503   5.332 -0.9105  0.6811 -0.8142
 6254SOL    HW230222   4.143   1.639   5.370  0.4213  1.8964 -0.1462
 6255SOL     OW30223   4.618   3.793   7.079 -0.5970  0.2703 -0.4672
 6255SOL    HW130224   4.612   3.704   7.044  0.3137 -0.5659  1.5025
 6255SOL    HW230225   4.712   3.815   7.081 -0.7924  1.1199 -0.7486
 6256SOL     OW30226   1.287   0.147  13.925 -0.0084 -0.0740  0.5515
 6256SOL    HW130227   1.267   0.241  13.933 -0.1056 -0.0604  0.1127
 6256SOL    HW230228   1.337   0.140  13.844  1.5912 -0.7723  1.6136
 6257SOL     OW30229   3.467   0.836  11.661 -0.1658  0.0665 -0.2480
 6257SOL    HW130230   3.463   0.835  11.565 -1.6950 -1.4958 -0.1663
 6257SOL    HW230231   3.525   0.762  11.677  0.8024  0.5472 -1.5545
 6258SOL     OW30232   3.867   0.788  12.611  0.3748 -0.3391  0.0756
 6258SOL    HW130233   3.962   0.797  12.600  0.0298  0.6344 -1.9476
 6258SOL    HW230234   3.858   0.693  12.602 -0.5564 -0.2229 -0.1598
 6259SOL     OW30235   3.675   2.365   5.619  0.4524 -0.5185  0.1010
 6259SOL    HW130236   3.716   2.281   5.605 -2.0265 -1.5970 -0.7677
 6259SOL    HW230237   3.629   2.354   5.703  0.1757  0.1579  0.0444
 6260SOL     OW30238   0.603   2.874  12.815 -0.3532  0.7468  0.1737
 6260SOL    HW130239   0.582   2.965  12.837 -0.4396  0.6142  0.6230
 6260SOL    HW230240   0.671   2.866  12.882  1.6051 -1.6055 -2.1104
 6261SOL     OW30241   2.855   4.695   0.933 -0.0088  0.0615 -0.5220
 6261SOL    HW130242   2.945   4.708   0.963  0.6737 -1.0454 -2.0697
 6261SOL    HW230243   2.846   0.057   0.892 -1.8162  0.9505  1.7021
 6262SOL     OW30244   0.771   3.076   9.551  0.4001  0.4359  0.1069
 6262SOL    HW130245   0.820   3.158   9.559  1.7033 -0.0830 -2.5339
 6262SOL    HW230246   0.729   3.102   9.469  0.1404  0.7128  0.3270
 6263SOL     OW30247   4.633   1.999   4.135 -0.2813 -0.2009 -0.4787
 6263SOL    HW130248   4.695   2.045   4.079 -0.3204 -0.1325 -0.4655
 6263SOL    HW230249   4.626   1.918   4.085  2.0486 -2.4402  2.8002
 6264SOL     OW30250   2.729   2.067   0.374  0.0427 -0.0990  0.6336
 6264SOL    HW130251   2.713   2.081   0.467  0.6317 -1.4274  0.9417
 6264SOL    HW230252   2.709   2.155   0.344  2.0478  0.4052  0.7821
 6265SOL     OW30253   0.269   4.509   5.942 -0.1100 -0.2868 -0.5518
 6265SOL    HW130254   0.180   4.541   5.929 -0.4830 -1.6231 -1.2431
 6265SOL    HW230255   0.287   4.476   5.854  0.1905 -0.4238 -0.4405
 6266SOL     OW30256   3.990   4.549  17.121 -0.6834  0.0607  0.0591
 6266SOL    HW130257   3.952   4.570  17.206  1.1849  2.8943  0.1797
 6266SOL    HW230258   3.911   4.519  17.075  0.1397 -1.5628 -0.3028
 6267SOL     OW30259   1.546   3.114   9.299  0.5298 -0.1074  1.0135
 6267SOL    HW130260   1.630   3.126   9.255  0.2518  0.9520  0.7723
 6267SOL    HW230261   1.543   3.180   9.368 -1.1222 -0.6883  1.5019
 6268SOL     OW30262   3.641   4.027  11.285 -0.2674  0.0330  0.2218
 6268SOL    HW130263   3.558   4.073  11.298  0.4044  1.5109 -0.6692
 6268SOL    HW230264   3.695   4.092  11.240 -0.0393 -0.4229 -0.1569
 6269SOL     OW30265   0.987   1.918   7.958  0.0106 -0.2028  0.4539
 6269SOL    HW130266   0.928   1.909   8.033 -0.8549 -1.9621 -0.4432
 6269SOL    HW230267   0.917   1.904   7.894 -1.9476 -0.3854  2.6298
 6270SOL     OW30268   4.002   3.678   3.336 -0.2936  0.2458 -0.2983
 6270SOL    HW130269   4.036   3.741   3.272  0.5053  0.0595 -0.0599
 6270SOL    HW230270   4.055   3.706   3.411 -0.4562  0.1762 -0.1566
 6271SOL     OW30271   3.690   2.379   9.478 -0.0201 -0.2745 -0.8249
 6271SOL    HW130272   3.728   2.322   9.544  0.4739 -1.2647 -1.9614
 6271SOL    HW230273   3.763   2.417   9.430  1.1687 -0.0443  1.1733
 6272SOL     OW30274   1.343   2.240   5.422 -0.4478  0.4790 -0.1026
 6272SOL    HW130275   1.287   2.287   5.360 -0.6156 -1.6295 -1.5382
 6272SOL    HW230276   1.392   2.180   5.366  2.1492  0.4483  2.2010
 6273SOL     OW30277   2.794   3.242  13.327 -0.0121  0.2563  0.3223
 6273SOL    HW130278   2.738   3.273  13.398 -1.2044  0.0403 -0.5215
 6273SOL    HW230279   2.872   3.237  13.383 -0.0588 -1.2306  0.2520
 6274SOL     OW30280   3.801   2.852   3.455  0.1388 -0.5091 -0.4715
 6274SOL    HW130281   3.842   2.794   3.519  1.1811  0.7555  0.0073
 6274SOL    HW230282   3.819   2.812   3.369  0.7939 -1.1156 -0.0551
 6275SOL     OW30283   1.677   0.194  11.410  0.0121  0.1845  0.7714
 6275SOL    HW130284   1.596   0.148  11.389  1.1665 -0.4666 -2.2210
 6275SOL    HW230285   1.735   0.156  11.345 -1.4862 -0.9085  0.0864
 6276SOL     OW30286   0.762   1.747   4.250 -0.6123 -0.2319  0.3488
 6276SOL    HW130287   0.731   1.776   4.164  0.5922 -0.5672 -0.1958
 6276SOL    HW230288   0.687   1.760   4.308 -0.2189  0.8964  0.6062
 6277SOL     OW30289   4.543   1.505  11.722  0.1971 -0.2819 -0.0292
 6277SOL    HW130290   4.581   1.518  11.809  2.5951 -0.4164 -1.0474
 6277SOL    HW230291   4.552   1.590  11.678  0.3600 -0.1035  0.3475
 6278SOL     OW30292   1.095   0.311   4.346  0.0138 -0.2601 -1.0171
 6278SOL    HW130293   1.175   0.297   4.296  1.0749  2.4541 -0.0712
 6278SOL    HW230294   1.109   0.395   4.390 -2.2337 -1.0740  1.2788
 6279SOL     OW30295   2.699   3.098  15.361 -0.0372  0.2083  0.1780
 6279SOL    HW130296   2.703   3.025  15.423  2.0522 -0.2478 -0.4766
 6279SOL    HW230297   2.605   3.112  15.357  0.0164  0.9551  1.5563
 6280SOL     OW30298   1.328   0.280   4.198 -0.2869  0.3490  0.1824
 6280SOL    HW130299   1.411   0.299   4.243 -0.7012 -0.2980  1.2381
 6280SOL    HW230300   1.368   0.265   4.112 -1.1475  0.6142 -0.2554
 6281SOL     OW30301   1.632   1.098  10.528 -0.3851  0.6848  0.4588
 6281SOL    HW130302   1.670   1.180  10.558  0.8727  0.3843 -0.2962
 6281SOL    HW230303   1.543   1.123  10.504 -1.9859 -2.7650  2.6274
 6282SOL     OW30304   1.819   0.220   8.883  0.1446  0.2754 -0.1243
 6282SOL    HW130305   1.786   0.141   8.927  0.1177  1.1528  1.4125
 6282SOL    HW230306   1.900   0.188   8.844  0.6099  0.0583  1.0267
 6283SOL     OW30307   2.432   4.385   6.707  0.2485 -0.5745  0.3160
 6283SOL    HW130308   2.392   4.374   6.793 -1.5594  2.3821 -0.1671
 6283SOL    HW230309   2.513   4.429   6.732  0.4854 -1.2146  0.6605
 6284SOL     OW30310   2.536   4.433  16.015 -0.3151 -0.0208  0.1403
 6284SOL    HW130311   2.547   4.506  15.954 -0.6399 -0.0767  0.0156
 6284SOL    HW230312   2.617   4.386  15.996 -0.5856  0.1246 -1.3597
 6285SOL     OW30313   2.744   1.104   5.851  0.1428 -0.4682 -0.4492
 6285SOL    HW130314   2.750   1.099   5.946  0.5901 -4.9966 -0.6873
 6285SOL    HW230315   2.731   1.196   5.829  3.0481 -0.4233 -1.9836
 6286SOL     OW30316   4.226   3.727   6.577 -0.1260 -0.0780 -0.3664
 6286SOL    HW130317   4.191   3.755   6.662  2.4729 -0.8141  0.9480
 6286SOL    HW230318   4.321   3.727   6.592 -0.3338 -0.5747  0.9731
 6287SOL     OW30319   1.590   1.674   0.996  0.0665  0.4787 -0.0433
 6287SOL    HW130320   1.508   1.698   1.040 -0.9908  0.8405 -2.1997
 6287SOL    HW230321   1.655   1.657   1.064 -0.2989 -3.0292 -0.5671
 6288SOL     OW30322   1.709   0.822   0.550  0.3315  0.2110 -0.0866
 6288SOL    HW130323   1.704   0.828   0.455 -1.8516  1.6113  0.1090
 6288SOL    HW230324   1.616   0.811   0.569  0.3648  0.5285  0.2749
 6289SOL     OW30325   0.765   4.355  17.436 -0.2548 -0.1079 -0.0290
 6289SOL    HW130326   0.734   4.364  17.526 -0.3839  1.3503 -0.2232
 6289SOL    HW230327   0.858   4.333  17.448  0.1613  1.1920 -0.8151
 6290SOL     OW30328   4.692   3.331  13.152 -0.1554 -0.6737  0.1120
 6290SOL    HW130329   4.653   3.303  13.234  0.7487 -0.3802  0.6489
 6290SOL    HW230330   4.672   3.262  13.089  0.3186 -0.9404  0.2560
 6291SOL     OW30331   1.902   1.713   7.524  0.4234  0.2454  0.5160
 6291SOL    HW130332   1.890   1.626   7.486 -3.8616  0.7096  0.7990
 6291SOL    HW230333   1.831   1.713   7.588 -0.7279  1.0522 -0.7538
 6292SOL     OW30334   0.263   4.012   6.650 -0.3163 -0.3546  0.2684
 6292SOL    HW130335   0.254   4.093   6.700 -0.5286 -1.5295  2.1390
 6292SOL    HW230336   0.271   4.051   6.563 -1.7776  1.8610  1.1317
 6293SOL     OW30337   3.667   4.128   2.483 -0.5556  0.2479 -0.1847
 6293SOL    HW130338   3.628   4.043   2.503 -1.6759  0.1867 -2.5996
 6293SOL    HW230339   3.750   4.117   2.528 -0.4373  0.1625 -0.4229
 6294SOL     OW30340   0.392   2.500  13.440  0.2566 -0.6105  0.5261
 6294SOL    HW130341   0.405   2.578  13.386 -0.0048 -0.2974  0.9261
 6294SOL    HW230342   0.444   2.442  13.384 -0.4240 -0.9976  0.2968
 6295SOL     OW30343   2.372   0.345  17.457  0.1373 -0.4371  0.4819
 6295SOL    HW130344   2.405   0.258  17.478 -0.5199 -0.6353  0.6878
 6295SOL    HW230345   2.281   0.349  17.488  0.4225  0.1786  1.2646
 6296SOL     OW30346   2.079   4.261   5.454 -0.9577 -0.8627  0.5946
 6296SOL    HW130347   2.003   4.309   5.487  0.6181 -0.5371  3.7227
 6296SOL    HW230348   2.100   4.302   5.370  0.2884  0.1768  1.4015
 6297SOL     OW30349   3.097   4.270   3.296  0.2627  0.1138  0.7232
 6297SOL    HW130350   3.120   4.341   3.237  0.1289  0.0881  0.6415
 6297SOL    HW230351   3.095   4.316   3.380  0.0290  0.1237  0.7128
 6298SOL     OW30352   1.918   0.887   3.824 -0.2765 -0.1506  0.6849
 6298SOL    HW130353   1.995   0.929   3.862  0.2707 -0.6997  0.1899
 6298SOL    HW230354   1.975   0.823   3.782 -0.3249  1.1203 -1.2746
 6299SOL     OW30355   3.291   0.823   5.017 -0.0684 -0.3530 -0.1104
 6299SOL    HW130356   3.319   0.915   5.013 -3.0890  0.5083 -1.6244
 6299SOL    HW230357   3.279   0.815   5.111  1.0709 -0.6481  0.0106
 6300SOL     OW30358   2.499   1.022   8.271  0.2300 -0.0763 -0.2527
 6300SOL    HW130359   2.495   1.089   8.339 -0.1509  1.0364 -1.3680
 6300SOL    HW230360   2.594   1.018   8.259  0.1701 -0.5212 -0.6073
 6301SOL     OW30361   4.321   4.195  16.903 -0.0690  0.1797 -0.0395
 6301SOL    HW130362   4.265   4.267  16.932 -1.3266  0.2142 -2.5438
 6301SOL    HW230363   4.364   4.167  16.984  0.3237  0.2971 -0.2087
 6302SOL     OW30364   2.532   4.141   2.400 -0.3465  0.1134 -0.1891
 6302SOL    HW130365   2.565   4.174   2.483 -0.1906 -0.4804 -0.0136
 6302SOL    HW230366   2.469   4.079   2.436 -1.1036  0.6572 -0.5768
 6303SOL     OW30367   0.949   4.247   2.659 -0.0781  0.2055  0.6276
 6303SOL    HW130368   1.043   4.256   2.642 -0.1685  0.3712  0.2174
 6303SOL    HW230369   0.913   4.191   2.591  1.5885  0.4667 -0.4798
 6304SOL     OW30370   2.510   1.063  10.801 -0.0872  0.2535  0.3878
 6304SOL    HW130371   2.444   0.994  10.802 -1.1793  1.2623 -1.4103
 6304SOL    HW230372   2.500   1.087  10.709  1.7524  2.9637  0.9030
 6305SOL     OW30373   4.584   4.311   8.800 -0.1421  0.1525  0.0364
 6305SOL    HW130374   4.632   4.254   8.741 -0.8476 -0.4316  0.0196
 6305SOL    HW230375   4.652   4.365   8.840  0.6725 -0.3533 -0.6902
 6306SOL     OW30376   4.279   1.270  11.091  0.0610  0.3985 -0.2007
 6306SOL    HW130377   4.240   1.350  11.127  2.4393  0.9377  1.2101
 6306SOL    HW230378   4.251   1.284  11.001 -0.6816  0.8922  0.1043
 6307SOL     OW30379   0.436   3.064   8.179 -0.2028 -0.2861  0.7698
 6307SOL    HW130380   0.449   3.018   8.262  0.7508 -1.6493 -0.1390
 6307SOL    HW230381   0.525   3.063   8.143  0.2581  1.2113  1.8209
 6308SOL     OW30382   3.264   2.012   8.198 -0.2493  0.3043  0.5186
 6308SOL    HW130383   3.208   1.940   8.168 -1.0884  2.8661 -4.1001
 6308SOL    HW230384   3.315   2.017   8.117  0.3295  1.2363  0.9451
 6309SOL     OW30385   2.306   2.414   8.181 -0.2279 -0.3019 -0.1958
 6309SOL    HW130386   2.215   2.395   8.202 -0.1581  1.2434  1.5302
 6309SOL    HW230387   2.341   2.328   8.157 -2.5557 -1.6419  1.1828
 6310SOL     OW30388   3.029   0.318   3.563 -0.3223 -0.1571 -0.2485
 6310SOL    HW130389   3.067   0.250   3.508  2.6835  0.5382  0.9574
 6310SOL    HW230390   2.964   0.269   3.614 -1.1755 -0.9013 -2.0404
 6311SOL     OW30391   4.633   0.390   0.688 -0.5982  0.0066  0.3947
 6311SOL    HW130392   4.541   0.375   0.712 -0.2759 -1.4837  0.6792
 6311SOL    HW230393   4.621   0.372   0.595 -1.8552 -0.0946  0.5672
 6312SOL     OW30394   4.005   3.269   5.060  0.3522 -0.4404 -0.6927
 6312SOL    HW130395   3.993   3.271   5.155  2.9086  0.6680 -0.3970
 6312SOL    HW230396   3.987   3.362   5.047  0.4095 -0.3886 -0.4043
 6313SOL     OW30397   3.901   3.741   7.242 -0.1448  0.1346  0.4116
 6313SOL    HW130398   3.883   3.648   7.256  0.5599 -0.0847 -0.1420
 6313SOL    HW230399   3.956   3.763   7.317  3.0559  0.0305 -1.9254
 6314SOL     OW30400   0.932   0.271   1.323  0.6640 -0.4194  0.6459
 6314SOL    HW130401   0.877   0.195   1.302  0.0386  0.5772 -1.2940
 6314SOL    HW230402   0.881   0.307   1.396  1.5288 -0.2334  1.1569
 6315SOL     OW30403   2.054   3.484   5.468  0.3884  0.1603  0.5563
 6315SOL    HW130404   2.041   3.432   5.548  0.9765  1.8949  1.7719
 6315SOL    HW230405   2.097   3.553   5.517  1.3210  0.2506 -0.4070
 6316SOL     OW30406   0.678   1.676  15.416 -0.3607 -0.3745 -0.0780
 6316SOL    HW130407   0.754   1.622  15.397  1.0988  1.1970  1.2820
 6316SOL    HW230408   0.721   1.760  15.429 -1.3934  0.1864 -0.2456
 6317SOL     OW30409   0.099   2.202   3.256 -0.5013 -0.0986 -0.2033
 6317SOL    HW130410   0.167   2.269   3.259 -0.9769  0.5329 -4.1461
 6317SOL    HW230411   0.098   2.196   3.161 -1.5225 -0.2223 -0.1833
 6318SOL     OW30412   1.818   3.601   3.801  0.1163 -0.4682 -0.0902
 6318SOL    HW130413   1.759   3.570   3.732  0.4551  1.0732 -1.0816
 6318SOL    HW230414   1.902   3.605   3.755 -0.5064  0.3915 -1.1769
 6319SOL     OW30415   2.522   3.421   8.590 -0.2538 -0.8242 -0.0788
 6319SOL    HW130416   2.526   3.346   8.650 -2.6352 -0.2045  0.8545
 6319SOL    HW230417   2.604   3.408   8.542 -0.6304  0.1547 -1.0064
 6320SOL     OW30418   0.655   0.480   2.411 -0.2750 -0.4638 -0.3510
 6320SOL    HW130419   0.705   0.399   2.398 -1.0655 -0.7836 -1.4235
 6320SOL    HW230420   0.579   0.450   2.362 -0.9460  1.0369 -0.1957
 6321SOL     OW30421   1.610   2.218   4.370  0.1048 -0.3945  0.2138
 6321SOL    HW130422   1.680   2.192   4.311  2.4203 -0.0583  2.8026
 6321SOL    HW230423   1.637   2.179   4.453  0.1888  1.3243  0.9869
 6322SOL     OW30424   2.027   4.651   3.588  0.0843  0.0280  0.5893
 6322SOL    HW130425   2.014   0.012   3.630  0.5016  1.2187 -1.6667
 6322SOL    HW230426   1.983   4.661   3.504 -1.0493  1.5390  1.3497
 6323SOL     OW30427   3.200   0.176   2.435  0.2393  0.4084 -0.0671
 6323SOL    HW130428   3.190   0.082   2.444  2.2620  0.3609  1.8207
 6323SOL    HW230429   3.112   0.203   2.411 -0.0531 -0.2418  0.2956
 6324SOL     OW30430   2.489   0.642   1.988 -0.1562  0.1476  0.1860
 6324SOL    HW130431   2.449   0.617   2.072  3.2686  0.3212  1.8839
 6324SOL    HW230432   2.483   0.737   1.981  0.6341  0.1824 -0.0807
 6325SOL     OW30433   3.344   0.713   5.593 -0.4883  0.2204 -0.4531
 6325SOL    HW130434   3.379   0.743   5.677 -0.2634 -0.1460 -0.4127
 6325SOL    HW230435   3.291   0.788   5.569  1.0385  0.9713 -1.5259
 6326SOL     OW30436   3.278   0.367  15.856  0.6122  0.0541 -0.3595
 6326SOL    HW130437   3.349   0.408  15.806  2.8869 -1.5387  1.6247
 6326SOL    HW230438   3.308   0.277  15.866 -3.2121 -0.9373  2.1157
 6327SOL     OW30439   3.836   0.485   6.754  0.0891 -0.2244 -0.1323
 6327SOL    HW130440   3.844   0.470   6.848  1.4133 -1.5527 -0.4610
 6327SOL    HW230441   3.880   0.568   6.741  0.7155 -0.6593 -0.7607
 6328SOL     OW30442   2.586   4.156   2.656 -0.1735 -0.0986 -0.0987
 6328SOL    HW130443   2.563   4.134   2.747 -0.4422 -1.6361 -0.5418
 6328SOL    HW230444   2.676   4.183   2.675  0.2318 -0.4688 -1.5272
 6329SOL     OW30445   0.463   3.420   3.785 -0.2836 -0.4316 -0.2961
 6329SOL    HW130446   0.367   3.417   3.795 -0.3381  0.7526 -0.5123
 6329SOL    HW230447   0.464   3.414   3.689 -0.2456 -1.7386 -0.2147
 6330SOL     OW30448   0.102   4.513   7.536  0.1738  0.1776 -0.4572
 6330SOL    HW130449   0.192   4.538   7.516 -0.4358  2.8269  0.1450
 6330SOL    HW230450   0.110   4.511   7.631  2.3039  0.9762 -0.6179
 6331SOL     OW30451   3.257   3.277   3.919  0.5222 -0.0467 -0.3427
 6331SOL    HW130452   3.224   3.260   3.832  0.7412 -0.3836 -0.3614
 6331SOL    HW230453   3.313   3.201   3.937  0.8447  0.7219  2.0199
 6332SOL     OW30454   1.822   0.218   6.390  0.4501  0.1425 -0.7400
 6332SOL    HW130455   1.839   0.305   6.353  2.0236  0.2817  0.3393
 6332SOL    HW230456   1.887   0.213   6.460  0.0064 -1.0924 -0.4150
 6333SOL     OW30457   3.581   0.591   2.719  0.1629 -0.0394 -0.1130
 6333SOL    HW130458   3.543   0.504   2.732  1.7302 -0.4662  1.6084
 6333SOL    HW230459   3.654   0.608   2.778  1.1699  0.9222 -1.6481
 6334SOL     OW30460   3.116   3.807   8.547 -0.0884 -0.3059  0.7469
 6334SOL    HW130461   3.067   3.732   8.581 -1.4129  0.9812  1.6533
 6334SOL    HW230462   3.040   3.862   8.529 -0.9007 -1.8207 -0.4390
 6335SOL     OW30463   4.615   1.515   4.325  0.2408 -0.2914  0.3972
 6335SOL    HW130464   4.684   1.448   4.323  0.3299 -0.2421  1.5967
 6335SOL    HW230465   4.638   1.568   4.401  1.0808 -0.3546  0.1928
 6336SOL     OW30466   0.717   0.186   4.552  0.2058  0.2423  0.1766
 6336SOL    HW130467   0.755   0.256   4.499  1.1332 -1.4277 -1.3578
 6336SOL    HW230468   0.786   0.190   4.619  0.1578  0.4551  0.2114
 6337SOL     OW30469   2.185   1.845   4.658  0.5615  0.0682 -0.0096
 6337SOL    HW130470   2.210   1.927   4.616 -1.4423  0.6764 -0.0068
 6337SOL    HW230471   2.221   1.778   4.599  1.8838  1.3378 -0.6343
 6338SOL     OW30472   0.810   0.099   5.747 -0.2095 -0.0896 -0.2553
 6338SOL    HW130473   0.795   0.138   5.833  0.2629 -2.1194  0.7461
 6338SOL    HW230474   0.886   0.043   5.760  0.4266  0.8367  0.0097
 6339SOL     OW30475   4.056   1.548   6.602 -0.5901 -0.1725  0.7424
 6339SOL    HW130476   4.058   1.577   6.693  0.8887  0.7461  0.4345
 6339SOL    HW230477   4.128   1.487   6.583 -2.0612 -0.5585 -3.6039
 6340SOL     OW30478   2.705   3.048   9.122 -0.4760  0.2487  0.4768
 6340SOL    HW130479   2.690   2.953   9.124 -0.1447  0.2019  0.7863
 6340SOL    HW230480   2.619   3.081   9.098 -0.1439  0.9351  0.2347
 6341SOL     OW30481   3.082   1.039  13.435  0.4968  0.0620 -0.2746
 6341SOL    HW130482   3.168   1.032  13.477 -0.0423  0.2478  0.8627
 6341SOL    HW230483   3.096   1.002  13.348  0.7727 -2.4871  0.8581
 6342SOL     OW30484   2.160   2.377   4.575  0.2101 -0.4847 -0.0532
 6342SOL    HW130485   2.116   2.460   4.590 -0.1783 -0.6704 -0.1672
 6342SOL    HW230486   2.244   2.401   4.615 -0.4509 -0.4710  1.3144
 6343SOL     OW30487   2.202   0.315   6.926 -0.3287 -0.5165 -0.2605
 6343SOL    HW130488   2.188   0.372   7.001  0.7191  0.2142 -0.6074
 6343SOL    HW230489   2.129   0.347   6.873 -2.6216 -2.1624  1.9477
 6344SOL     OW30490   2.889   2.792   2.422 -0.3356  0.0119 -0.7400
 6344SOL    HW130491   2.925   2.851   2.356 -0.8023  0.8855 -0.2103
 6344SOL    HW230492   2.889   2.851   2.497  1.4241  0.3540 -1.0232
 6345SOL     OW30493   1.558   4.422  17.257 -0.3368  0.2212 -0.7614
 6345SOL    HW130494   1.622   4.375  17.312  0.8170  2.5096 -0.1539
 6345SOL    HW230495   1.600   4.508  17.266  0.1337 -0.3078  2.0779
 6346SOL     OW30496   4.629   0.028  14.931  0.0691  0.4599 -0.0276
 6346SOL    HW130497   4.723   0.041  14.939  0.2283 -1.1856  0.6132
 6346SOL    HW230498   4.595   0.057  15.016 -1.3515 -3.1397  0.6258
 6347SOL     OW30499   1.074   0.310  16.597  0.6627  0.1766 -0.4501
 6347SOL    HW130500   1.166   0.331  16.611  0.6700 -0.2639  0.1603
 6347SOL    HW230501   1.035   0.391  16.628 -1.5498 -0.8920 -0.4405
 6348SOL     OW30502   4.290   3.292   5.066 -0.4926 -0.0529  0.7255
 6348SOL    HW130503   4.195   3.288   5.064 -0.4541  1.6080 -2.9562
 6348SOL    HW230504   4.303   3.211   5.115  0.7761 -0.2166  0.1151
 6349SOL     OW30505   2.777   2.033   7.570 -0.2657  0.5664 -0.3109
 6349SOL    HW130506   2.756   1.948   7.531  3.2464 -0.0265 -0.8691
 6349SOL    HW230507   2.769   2.010   7.663  0.9616 -2.6663 -1.0173
 6350SOL     OW30508   1.783   0.353   8.272 -0.2839  0.1450 -0.3259
 6350SOL    HW130509   1.844   0.305   8.216 -1.0959 -3.6299  2.0013
 6350SOL    HW230510   1.814   0.441   8.253  0.3212  0.1023  0.4451
 6351SOL     OW30511   2.612   3.562   4.772  0.2166 -0.5064 -0.4048
 6351SOL    HW130512   2.647   3.498   4.834 -0.8386 -0.9606 -0.2831
 6351SOL    HW230513   2.597   3.638   4.829  0.1076  0.6194 -1.9320
 6352SOL     OW30514   4.596   3.266   2.109  0.3291  0.6597  1.0953
 6352SOL    HW130515   4.509   3.280   2.070 -0.2553  0.0310  2.1655
 6352SOL    HW230516   4.591   3.288   2.202 -0.7845  1.2213  0.8985
 6353SOL     OW30517   3.409   0.323   2.530  0.1324 -0.2037 -0.5237
 6353SOL    HW130518   3.481   0.337   2.468 -1.3960  1.8474 -1.8545
 6353SOL    HW230519   3.338   0.301   2.470 -0.3553  1.7993 -0.6966
 6354SOL     OW30520   0.268   2.161   4.167 -0.3376  0.8683 -0.2815
 6354SOL    HW130521   0.282   2.247   4.129 -1.4002  0.9249 -0.5504
 6354SOL    HW230522   0.197   2.135   4.108  0.1011  0.8774 -0.8146
 6355SOL     OW30523   0.555   2.073   8.146 -0.0021 -0.1145  0.4470
 6355SOL    HW130524   0.463   2.098   8.136  0.7504  2.0412 -0.9967
 6355SOL    HW230525   0.597   2.156   8.169  2.5540 -1.3664  0.2469
 6356SOL     OW30526   1.001   0.542   0.371 -0.2119 -0.3791 -0.4387
 6356SOL    HW130527   0.980   0.477   0.437 -0.3814 -0.3242 -0.4378
 6356SOL    HW230528   1.057   0.608   0.411 -1.6996  0.0222  1.0022
 6357SOL     OW30529   4.454   0.308   1.347  0.1303 -0.2404 -0.1910
 6357SOL    HW130530   4.517   0.360   1.397  1.0669  0.5132 -2.1674
 6357SOL    HW230531   4.442   0.364   1.270  1.8019  1.8741  1.1098
 6358SOL     OW30532   4.290   0.666   4.506 -0.5374 -0.0586 -0.3830
 6358SOL    HW130533   4.212   0.711   4.540 -2.1848 -0.2014 -3.9160
 6358SOL    HW230534   4.260   0.632   4.422  0.0430 -2.5699  0.4240
 6359SOL     OW30535   3.715   2.151   8.025 -0.7348  0.5526  0.6846
 6359SOL    HW130536   3.735   2.172   8.116  1.2631 -0.1513  0.4134
 6359SOL    HW230537   3.685   2.240   8.005 -0.7772  0.3409 -0.1975
 6360SOL     OW30538   1.870   1.424   8.817  0.3240 -0.1140  0.1227
 6360SOL    HW130539   1.868   1.518   8.832 -1.2756 -0.1452  0.1149
 6360SOL    HW230540   1.872   1.417   8.722  3.9084  0.9442  0.1117
 6361SOL     OW30541   3.147   3.131   6.050 -0.4717 -0.2031  0.0691
 6361SOL    HW130542   3.196   3.168   5.976  0.0633 -1.6789 -0.3060
 6361SOL    HW230543   3.217   3.100   6.108 -0.0160  0.3706 -0.1698
 6362SOL     OW30544   0.671   2.740   2.131  0.5106  0.0810 -0.2199
 6362SOL    HW130545   0.651   2.799   2.058 -1.9194 -0.5509 -0.0674
 6362SOL    HW230546   0.617   2.665   2.109  0.2842  0.1294  0.1665
 6363SOL     OW30547   0.218   1.361   3.684 -0.6061  0.3998 -0.3599
 6363SOL    HW130548   0.166   1.315   3.618 -0.3845  1.5568 -1.3283
 6363SOL    HW230549   0.295   1.391   3.635  1.1033 -1.8002  0.9490
 6364SOL     OW30550   2.674   2.911   5.102 -0.1360 -0.1436 -0.2178
 6364SOL    HW130551   2.693   2.817   5.105  2.8333  0.4046 -1.1732
 6364SOL    HW230552   2.668   2.925   5.197 -2.5722 -1.0400 -0.2576
 6365SOL     OW30553   3.568   1.458   7.666  0.3257  0.3491 -0.2174
 6365SOL    HW130554   3.549   1.448   7.759  1.9525 -2.1496 -0.1595
 6365SOL    HW230555   3.502   1.397   7.633  0.1898  1.1096 -1.3597
 6366SOL     OW30556   3.610   2.691   6.314 -0.1729  0.4454  0.6746
 6366SOL    HW130557   3.641   2.688   6.404  1.5808 -0.8458  0.0190
 6366SOL    HW230558   3.626   2.778   6.277 -0.3518 -0.0535 -0.5650
 6367SOL     OW30559   2.542   0.332  13.940  0.3194 -0.0975 -0.1035
 6367SOL    HW130560   2.503   0.290  13.863 -1.7320  1.6231  0.0175
 6367SOL    HW230561   2.636   0.335  13.922  0.5073 -0.2298  0.8414
 6368SOL     OW30562   0.259   0.425   5.782 -0.1198  0.3575 -0.4068
 6368SOL    HW130563   0.262   0.349   5.840 -0.2323  0.3389 -0.4261
 6368SOL    HW230564   0.292   0.501   5.831  1.6381 -0.4220 -0.3882
 6369SOL     OW30565   3.587   3.930   4.230 -0.0049 -0.3068  0.1902
 6369SOL    HW130566   3.626   3.862   4.176 -2.5064 -0.4379 -1.4690
 6369SOL    HW230567   3.522   3.975   4.176  1.7152  1.1321 -0.6546
 6370SOL     OW30568   2.587   3.723   3.219 -0.2944 -0.0156  0.0774
 6370SOL    HW130569   2.519   3.784   3.189 -1.1481 -1.0657 -0.1232
 6370SOL    HW230570   2.594   3.673   3.138  0.7343 -0.2092  0.2900
 6371SOL     OW30571   3.015   2.631   5.799 -0.0097  0.2332  0.1644
 6371SOL    HW130572   3.043   2.574   5.727  2.2704 -0.3817  1.5244
 6371SOL    HW230573   3.092   2.687   5.809 -0.0806  0.0935  1.6163
 6372SOL     OW30574   3.470   0.853   4.219 -0.1062 -0.2251  0.1748
 6372SOL    HW130575   3.487   0.882   4.309  0.1187 -1.4522  0.5201
 6372SOL    HW230576   3.477   0.758   4.215  0.2890 -0.2067  0.4395
 6373SOL     OW30577   3.336   3.397   9.386 -0.1888 -0.7079  0.1873
 6373SOL    HW130578   3.376   3.354   9.310  1.4145  0.0911  0.5814
 6373SOL    HW230579   3.278   3.450   9.332  0.7208  0.0407 -0.0617
 6374SOL     OW30580   1.114   3.864   6.920 -0.4353  0.4415 -0.1116
 6374SOL    HW130581   1.109   3.947   6.873  1.0125 -0.1735 -1.3438
 6374SOL    HW230582   1.089   3.800   6.853  3.9119 -0.9456 -0.4247
 6375SOL     OW30583   3.902   1.772   4.287 -0.1188  0.5627 -0.5511
 6375SOL    HW130584   3.817   1.736   4.260 -0.0448  0.4462 -0.6281
 6375SOL    HW230585   3.945   1.690   4.311 -1.4294 -0.0120 -0.1895
 6376SOL     OW30586   1.438   3.336   6.601 -0.1101  0.3652  0.1287
 6376SOL    HW130587   1.529   3.316   6.579  0.3672  1.7081  0.8405
 6376SOL    HW230588   1.410   3.371   6.517  1.7513  1.5207 -0.0178
 6377SOL     OW30589   4.475   4.099   8.952 -0.5328  0.1861 -0.0726
 6377SOL    HW130590   4.490   4.192   8.933  2.3572 -0.3700 -0.4920
 6377SOL    HW230591   4.405   4.100   9.018 -0.0794  1.1028  0.3904
 6378SOL     OW30592   0.758   1.070   3.437  1.0660 -0.5220 -0.5071
 6378SOL    HW130593   0.808   1.043   3.360  2.0916 -2.6208  0.9041
 6378SOL    HW230594   0.690   1.004   3.422  1.8701 -1.0987 -1.6199
 6379SOL     OW30595   0.934   1.894  12.533  0.1262  0.2013  0.3937
 6379SOL    HW130596   1.019   1.853  12.520 -0.1940 -1.0203  2.1501
 6379SOL    HW230597   0.907   1.871  12.622  1.5315  1.0502  1.0418
 6380SOL     OW30598   0.157   4.622   3.326 -0.4284 -0.2004  0.7134
 6380SOL    HW130599   0.140   4.714   3.309  2.0347  0.1497  0.1924
 6380SOL    HW230600   0.248   4.615   3.298 -0.2722 -1.2181  1.4701
 6381SOL     OW30601   4.244   3.851   3.927  0.0209  0.4297 -0.0259
 6381SOL    HW130602   4.325   3.808   3.901 -0.6923 -0.4491 -0.8444
 6381SOL    HW230603   4.235   3.830   4.020 -0.1250 -0.1699 -0.1769
 6382SOL     OW30604   2.361   3.112   5.005  0.1605  0.0348  0.2451
 6382SOL    HW130605   2.367   3.048   5.075  0.1344  0.4451  0.6210
 6382SOL    HW230606   2.391   3.053   4.935  0.1033 -0.5500  0.7233
 6383SOL     OW30607   1.456   0.723   5.942 -0.2480  0.0211 -0.5096
 6383SOL    HW130608   1.525   0.715   6.008 -1.1139 -2.0132  0.1692
 6383SOL    HW230609   1.407   0.644   5.965 -1.0451  0.5411 -0.4183
 6384SOL     OW30610   1.274   4.075   7.508 -0.0366 -0.1017  0.3395
 6384SOL    HW130611   1.353   4.026   7.485  1.7240  1.8680  2.2355
 6384SOL    HW230612   1.255   4.118   7.424  1.9384  1.2798  0.6087
 6385SOL     OW30613   0.277   3.509   7.974 -0.5089  0.8994  0.3207
 6385SOL    HW130614   0.346   3.574   7.987 -1.9876  2.6972 -0.8234
 6385SOL    HW230615   0.309   3.446   8.039  1.2739 -2.5341 -3.8375
 6386SOL     OW30616   0.448   2.828   2.804 -0.0872  0.3098 -0.3538
 6386SOL    HW130617   0.535   2.787   2.807 -0.5263 -0.4408  2.0394
 6386SOL    HW230618   0.401   2.745   2.794 -0.3195  0.4137 -0.1096
 6387SOL     OW30619   2.831   2.026   3.984  0.6304 -0.2286  0.4085
 6387SOL    HW130620   2.805   2.005   3.894 -0.4803 -1.7349  1.0684
 6387SOL    HW230621   2.893   2.098   3.979  0.5837 -0.3594 -1.7386
 6388SOL     OW30622   2.932   0.612   3.529 -0.0034 -0.1728 -0.4775
 6388SOL    HW130623   2.947   0.636   3.621 -0.5750  0.8998 -0.6663
 6388SOL    HW230624   2.975   0.527   3.524 -1.3026 -0.9215  1.1095
 6389SOL     OW30625   4.719   3.136   7.304  0.1692  0.0217 -0.2258
 6389SOL    HW130626   0.032   3.202   7.246 -3.2668  2.3382  0.2043
 6389SOL    HW230627   0.054   3.060   7.298 -0.6376 -0.5834 -0.5537
 6390SOL     OW30628   4.269   0.260   7.245 -0.6382  0.2826  0.1746
 6390SOL    HW130629   4.323   0.205   7.188 -0.6681  2.0359 -1.5259
 6390SOL    HW230630   4.295   0.347   7.214  2.3254 -0.0386  1.7546
 6391SOL     OW30631   1.561   0.123  12.102 -0.0599 -0.2310  0.2730
 6391SOL    HW130632   1.478   0.086  12.132 -0.5105  0.9438  0.4672
 6391SOL    HW230633   1.626   0.074  12.151 -0.0189  1.6643  2.0792
 6392SOL     OW30634   4.498   1.019  17.298 -0.5260 -0.0042  0.2898
 6392SOL    HW130635   4.428   0.999  17.236  0.3017 -1.9482 -0.0192
 6392SOL    HW230636   4.564   1.064  17.245 -0.3997  1.6692  1.8525
 6393SOL     OW30637   0.359   3.767  13.786  0.3499  0.2531 -0.1218
 6393SOL    HW130638   0.300   3.809  13.849 -1.1765 -0.9977 -0.7221
 6393SOL    HW230639   0.437   3.824  13.787  0.0952  0.5528  2.1624
 6394SOL     OW30640   4.294   4.591   5.751  0.1680  0.5330 -0.1628
 6394SOL    HW130641   4.365   4.655   5.755  0.7870 -0.3063  2.5689
 6394SOL    HW230642   4.287   4.563   5.842  0.0797 -0.5156 -0.4882
 6395SOL     OW30643   2.210   4.458  13.405  0.0433 -0.3039  0.6694
 6395SOL    HW130644   2.140   4.515  13.435  0.3045 -0.1813  1.0421
 6395SOL    HW230645   2.172   4.461  13.317  0.4403  0.8223  0.5384
 6396SOL     OW30646   0.814   4.229   6.033  0.1019 -0.2962  0.0400
 6396SOL    HW130647   0.769   4.199   6.111 -0.2930 -0.7129 -0.3442
 6396SOL    HW230648   0.835   4.144   5.993 -0.9870 -0.8765  0.7163
 6397SOL     OW30649   2.495   3.125   5.558 -0.5597 -0.3268  0.1848
 6397SOL    HW130650   2.576   3.171   5.578  0.9369 -2.8931 -0.0000
 6397SOL    HW230651   2.532   3.058   5.500  2.7517  0.6043  1.2433
 6398SOL     OW30652   4.011   2.317   6.652  0.2972  0.2463 -0.5126
 6398SOL    HW130653   3.977   2.365   6.577  0.6414  0.1741 -0.7131
 6398SOL    HW230654   4.016   2.226   6.621  2.4616  0.9650 -2.1887
 6399SOL     OW30655   1.177   3.599   7.238 -0.1396 -0.2860 -0.2725
 6399SOL    HW130656   1.249   3.568   7.184  1.5960 -0.8346  2.3660
 6399SOL    HW230657   1.188   3.694   7.239 -0.3809 -0.2476 -1.3527
 6400SOL     OW30658   2.968   2.671   3.924 -0.5741 -0.6115 -0.2355
 6400SOL    HW130659   2.987   2.625   4.005 -1.5610 -2.0138 -0.8040
 6400SOL    HW230660   2.903   2.610   3.890 -1.9122  0.6564  0.0224
 6401SOL     OW30661   0.472   0.828   1.008 -0.3844 -0.7421 -0.0215
 6401SOL    HW130662   0.401   0.764   1.001 -0.1551 -0.9249 -0.6342
 6401SOL    HW230663   0.426   0.912   0.997 -0.9408 -0.9022  1.0161
 6402SOL     OW30664   2.755   4.508   2.619 -0.1801 -0.3509  0.5455
 6402SOL    HW130665   2.694   4.547   2.681 -0.2621 -1.2538  1.0397
 6402SOL    HW230666   2.707   4.523   2.538 -0.4131  0.9016  0.9138
 6403SOL     OW30667   4.530   3.854   9.041  0.0080 -0.2349  0.2648
 6403SOL    HW130668   4.542   3.893   9.128 -0.4046 -1.0619  0.6995
 6403SOL    HW230669   4.511   3.933   8.991 -3.3899 -0.3846  1.3264
 6404SOL     OW30670   3.146   0.013   3.641  0.6605  0.2910 -0.0894
 6404SOL    HW130671   3.127   0.080   3.707  1.4718  0.1694  0.2756
 6404SOL    HW230672   3.167   0.066   3.564  1.6101 -0.6097 -0.4493
 6405SOL     OW30673   4.163   3.077   7.599  0.0821 -0.2436 -0.5467
 6405SOL    HW130674   4.131   3.045   7.515 -0.6106 -0.1707 -0.3114
 6405SOL    HW230675   4.207   3.160   7.581  0.4240 -0.4514 -0.6564
 6406SOL     OW30676   1.526   1.436   0.457  0.2638 -0.0385 -0.2591
 6406SOL    HW130677   1.536   1.509   0.395 -1.5042  0.9936  0.6634
 6406SOL    HW230678   1.617   1.412   0.469 -0.1423 -0.2837  2.2884
 6407SOL     OW30679   0.626   4.336  17.667  1.0583  0.1486 -0.2555
 6407SOL    HW130680   0.600   4.264   0.025 -1.9132  1.9962  0.6773
 6407SOL    HW230681   0.559   4.400  17.691  1.5793  1.4762 -2.3693
 6408SOL     OW30682   2.006   1.650   6.992  0.2856 -0.0716 -0.5247
 6408SOL    HW130683   1.936   1.680   7.049 -0.3580 -0.9175 -0.8741
 6408SOL    HW230684   2.030   1.570   7.039  0.4818  0.6894  0.6777
 6409SOL     OW30685   2.780   4.373  14.858  0.0251  0.4092 -0.1452
 6409SOL    HW130686   2.795   4.460  14.822 -0.7917  0.7827  0.4087
 6409SOL    HW230687   2.697   4.389  14.905 -0.3741 -0.2720 -0.6176
 6410SOL     OW30688   1.549   4.020   7.457  0.3458 -0.2998  0.3110
 6410SOL    HW130689   1.605   3.953   7.418 -1.3814 -1.7270  0.3145
 6410SOL    HW230690   1.597   4.097   7.424 -1.9880  0.0292 -2.3206
 6411SOL     OW30691   2.411   1.468  15.788  0.2488 -0.1328  0.0820
 6411SOL    HW130692   2.492   1.449  15.834  0.5244  0.8920  0.0215
 6411SOL    HW230693   2.349   1.433  15.852 -0.0201 -2.5822 -1.5227
 6412SOL     OW30694   0.026   0.530   2.915 -0.0837 -0.4822  0.3914
 6412SOL    HW130695   0.047   0.457   2.857  0.3536 -0.4364  0.4961
 6412SOL    HW230696   4.705   0.486   2.986  1.6639  1.0981  2.4869
 6413SOL     OW30697   0.356   3.683   7.745  0.0169 -0.0188 -0.3988
 6413SOL    HW130698   0.398   3.600   7.723 -3.0548 -2.3104  2.4674
 6413SOL    HW230699   0.421   3.748   7.720  0.8971 -1.0250 -0.7354
 6414SOL     OW30700   0.871   0.817   0.873  0.5278  0.6487 -0.1600
 6414SOL    HW130701   0.962   0.833   0.900  0.8889 -0.8380 -0.4918
 6414SOL    HW230702   0.883   0.744   0.813  1.7877  1.6623 -1.1381
 6415SOL     OW30703   1.529   1.576   3.317 -0.3412 -0.7498  0.1642
 6415SOL    HW130704   1.447   1.550   3.274  1.0100 -2.4509 -1.3597
 6415SOL    HW230705   1.588   1.512   3.276  0.6601  0.2230  0.0913
 6416SOL     OW30706   3.916   2.290  12.384  0.3647  0.2760 -0.4282
 6416SOL    HW130707   3.949   2.205  12.356  1.6472  0.4326  0.5723
 6416SOL    HW230708   3.825   2.259  12.386  0.5867 -0.2837  1.1282
 6417SOL     OW30709   4.271   4.409   4.028  0.2444 -0.2886  0.0645
 6417SOL    HW130710   4.262   4.378   3.938 -1.4530  1.3373 -0.3080
 6417SOL    HW230711   4.319   4.335   4.066  0.4196  0.5210  1.4066
 6418SOL     OW30712   1.936   4.176   5.739 -0.1964 -0.7089  0.0634
 6418SOL    HW130713   1.889   4.115   5.682  1.0985 -1.9142  0.2996
 6418SOL    HW230714   1.944   4.242   5.670 -0.0764 -0.7404  0.0484
 6419SOL     OW30715   4.045   2.727   8.669  0.2118  0.4993 -0.9810
 6419SOL    HW130716   4.023   2.817   8.691  1.1207  0.3137  0.6858
 6419SOL    HW230717   4.109   2.736   8.598  1.4912  0.8810  0.2126
 6420SOL     OW30718   2.056   3.136   3.039 -0.0005 -0.1485 -0.1688
 6420SOL    HW130719   1.993   3.081   2.992 -0.9254  2.0326 -1.4930
 6420SOL    HW230720   2.131   3.081   3.020  1.9290  2.2760  0.5153
 6421SOL     OW30721   0.712   0.576  11.152 -0.0472 -0.2649 -0.5218
 6421SOL    HW130722   0.698   0.507  11.217  1.4701  0.2928  0.3920
 6421SOL    HW230723   0.770   0.632  11.203  0.2090 -0.4666 -0.5969
 6422SOL     OW30724   3.670   2.581  14.072 -0.8828  0.2187  0.1797
 6422SOL    HW130725   3.588   2.616  14.106 -1.2008  1.2229 -1.5743
 6422SOL    HW230726   3.737   2.633  14.117  0.6416 -1.0928 -0.5887
 6423SOL     OW30727   1.378   1.240   3.459 -0.4202 -0.2571 -0.3089
 6423SOL    HW130728   1.296   1.289   3.469  0.4296  0.9882  0.7004
 6423SOL    HW230729   1.407   1.268   3.372 -0.5468  2.9197  0.6443
 6424SOL     OW30730   2.842   0.205   7.889  0.1868 -0.6876  0.0720
 6424SOL    HW130731   2.863   0.112   7.876  0.1423 -0.8619  1.2226
 6424SOL    HW230732   2.753   0.213   7.855  0.4544 -1.6078 -0.8597
 6425SOL     OW30733   3.147   1.169   2.097  0.8258 -0.1206 -0.0370
 6425SOL    HW130734   3.213   1.160   2.029  0.3485 -0.9064 -0.3887
 6425SOL    HW230735   3.093   1.097   2.063  0.5588  0.0353  0.0510
 6426SOL     OW30736   0.738   4.417  13.506  0.4914  0.1354 -0.0458
 6426SOL    HW130737   0.788   4.438  13.585  0.2533  3.0562 -0.6376
 6426SOL    HW230738   0.742   4.505  13.467 -1.6951 -0.2142 -1.1106
 6427SOL     OW30739   2.755   0.187   6.131 -0.5899  0.2067  0.4714
 6427SOL    HW130740   2.836   0.171   6.180  0.6756  0.2837 -1.6122
 6427SOL    HW230741   2.736   0.096   6.110  0.2929  0.2324 -0.4137
 6428SOL     OW30742   2.209   0.625   3.038  0.1263  0.2542 -0.3665
 6428SOL    HW130743   2.228   0.568   3.112  2.3485 -0.0234 -1.1687
 6428SOL    HW230744   2.134   0.678   3.065  1.1820  1.8868 -0.6481
 6429SOL     OW30745   4.654   4.499   6.661 -0.0749  0.5939 -0.0178
 6429SOL    HW130746   4.645   4.435   6.731 -2.6735 -0.3528 -1.2098
 6429SOL    HW230747   4.619   4.575   6.706 -0.6569  1.0266 -1.1955
 6430SOL     OW30748   4.142   0.006   0.209  0.0305 -0.8030 -0.5682
 6430SOL    HW130749   4.183   0.017   0.123 -0.3406 -3.7718 -1.1428
 6430SOL    HW230750   4.214   4.682   0.250  0.0358 -0.2552  0.0551
 6431SOL     OW30751   2.962   3.922   2.533  0.4354  0.1806 -0.0942
 6431SOL    HW130752   2.991   3.836   2.502  1.1755 -0.5184  2.5786
 6431SOL    HW230753   2.970   3.903   2.626  0.2443 -1.5388 -0.4239
 6432SOL     OW30754   3.037   3.116   1.860  0.5966  0.5972  0.1261
 6432SOL    HW130755   2.987   3.066   1.796  0.0471  1.2778  0.0324
 6432SOL    HW230756   3.083   3.047   1.908  1.6950  0.2698 -1.3855
 6433SOL     OW30757   2.893   0.369   8.115 -0.3153 -0.0669 -0.8355
 6433SOL    HW130758   2.891   0.292   8.058  0.5488 -0.2109 -0.6753
 6433SOL    HW230759   2.968   0.343   8.169 -0.4397  0.6333 -0.3237
 6434SOL     OW30760   1.964   1.066   8.234 -0.6297 -0.3110  0.6054
 6434SOL    HW130761   2.010   1.049   8.317 -1.4615 -0.7041  0.9902
 6434SOL    HW230762   2.014   1.142   8.204  0.8968 -0.8065  1.8554
 6435SOL     OW30763   4.650   0.708   5.632 -0.2123  0.3033  0.5409
 6435SOL    HW130764   4.574   0.650   5.625  0.4219 -0.4112 -0.3100
 6435SOL    HW230765   4.716   0.642   5.615  0.7353  0.3593  3.9656
 6436SOL     OW30766   3.329   3.313  11.670  0.4365 -0.2134 -0.0133
 6436SOL    HW130767   3.353   3.390  11.619 -0.3584 -1.0696 -1.6564
 6436SOL    HW230768   3.235   3.334  11.667  0.2477 -1.0647 -0.1743
 6437SOL     OW30769   4.222   1.569  14.125  0.4646  0.4647 -0.4180
 6437SOL    HW130770   4.181   1.618  14.196 -3.4650 -1.7257 -1.1272
 6437SOL    HW230771   4.155   1.501  14.121 -0.7683  1.6933 -0.9574
 6438SOL     OW30772   1.240   4.222   9.411 -0.0798  0.3851  0.0625
 6438SOL    HW130773   1.174   4.156   9.390  0.4786 -0.4851  1.0723
 6438SOL    HW230774   1.318   4.176   9.443  0.0184  1.9390  2.0650
 6439SOL     OW30775   0.158   2.041   1.670 -0.0679  0.1848  0.0703
 6439SOL    HW130776   0.175   2.125   1.628  1.8698 -0.8694 -1.2616
 6439SOL    HW230777   0.112   1.998   1.598  1.5390  0.8311 -1.3345
 6440SOL     OW30778   1.107   4.362  13.371  0.3712 -0.1961  0.1470
 6440SOL    HW130779   1.141   4.276  13.397 -0.8409 -0.6231  0.3109
 6440SOL    HW230780   1.133   4.414  13.447  0.1342  0.2026 -0.0445
 6441SOL     OW30781   2.845   1.928   1.085 -0.3393 -0.5367 -0.3361
 6441SOL    HW130782   2.874   1.856   1.030 -0.9392  0.1254 -1.5147
 6441SOL    HW230783   2.912   1.994   1.068 -0.8541  0.2599  0.6956
 6442SOL     OW30784   3.078   3.433   7.052  0.2062 -0.0239  0.2854
 6442SOL    HW130785   3.157   3.455   7.102 -1.0994  2.0620  1.3803
 6442SOL    HW230786   3.071   3.504   6.989  2.5872  0.6027  0.7056
 6443SOL     OW30787   1.221   3.607   2.014  0.1188  0.0377 -0.0386
 6443SOL    HW130788   1.248   3.545   1.946 -1.4239  0.7154 -1.2633
 6443SOL    HW230789   1.172   3.548   2.071  0.4941 -0.8687 -0.6480
 6444SOL     OW30790   1.123   0.921   4.985 -0.0101  0.4906 -0.0454
 6444SOL    HW130791   1.106   0.940   5.077  3.4916 -0.5316  0.7905
 6444SOL    HW230792   1.209   0.961   4.970  0.2205  0.5379  1.3674
 6445SOL     OW30793   1.784   0.775   4.127 -0.0788 -0.4169 -0.1337
 6445SOL    HW130794   1.756   0.837   4.060  0.1945  1.2631  1.3084
 6445SOL    HW230795   1.828   0.824   4.196  0.8242 -2.6473  0.8505
 6446SOL     OW30796   2.687   1.413   8.904 -0.6793 -0.0542  0.0012
 6446SOL    HW130797   2.723   1.327   8.880  1.2636  0.4651  1.0062
 6446SOL    HW230798   2.645   1.387   8.986 -2.8257  0.2449 -1.0017
 6447SOL     OW30799   3.585   3.163  10.687 -0.2773  0.2918 -0.4503
 6447SOL    HW130800   3.576   3.072  10.659  1.3204 -0.2952  0.9894
 6447SOL    HW230801   3.677   3.184  10.675 -0.4580  2.8929  2.8906
 6448SOL     OW30802   4.300   3.689   1.998 -0.1071  0.2810 -0.6235
 6448SOL    HW130803   4.288   3.737   1.916  1.9490 -0.3876 -1.3211
 6448SOL    HW230804   4.234   3.620   1.996  0.7145 -0.4903 -1.1291
 6449SOL     OW30805   3.456   1.300   5.167 -0.6873 -0.3734 -0.8601
 6449SOL    HW130806   3.434   1.374   5.110  0.1567  1.6655  1.4648
 6449SOL    HW230807   3.434   1.333   5.254 -0.8671 -1.1091 -0.6268
 6450SOL     OW30808   1.886   0.575   3.579 -0.4110  0.1740  0.0231
 6450SOL    HW130809   1.956   0.638   3.598  0.7276 -0.3543 -2.4058
 6450SOL    HW230810   1.900   0.509   3.646 -0.7948  0.0054 -0.0636
 6451SOL     OW30811   0.702   2.748  12.268  0.3747  0.1226  0.1063
 6451SOL    HW130812   0.656   2.718  12.190  0.8190 -0.2331 -0.0164
 6451SOL    HW230813   0.647   2.703  12.332  1.1329 -1.1983 -0.1716
 6452SOL     OW30814   2.964   3.035   0.859  0.3977  0.0358 -1.0656
 6452SOL    HW130815   2.908   2.971   0.902  0.3345  0.3661 -0.6595
 6452SOL    HW230816   3.043   2.997   0.897 -0.7573  0.4337  1.7008
 6453SOL     OW30817   1.537   0.677   5.479  0.5624  0.2610  0.1122
 6453SOL    HW130818   1.617   0.708   5.436  0.0535 -1.2101 -1.8959
 6453SOL    HW230819   1.468   0.699   5.418 -0.2241 -1.9380  0.2177
 6454SOL     OW30820   2.329   4.245   8.036  0.3090  0.4105  0.8117
 6454SOL    HW130821   2.240   4.222   8.063  0.4051  0.4405  1.1563
 6454SOL    HW230822   2.329   4.336   8.065 -0.7006  0.1636  1.6037
 6455SOL     OW30823   3.176   1.098  15.366  0.2960 -0.2831 -0.2630
 6455SOL    HW130824   3.201   1.029  15.427 -1.0864 -0.7396 -0.2133
 6455SOL    HW230825   3.107   1.052  15.318  0.3955 -0.4640 -0.2316
 6456SOL     OW30826   3.340   0.053  11.419  0.0572 -0.2807  0.2318
 6456SOL    HW130827   3.349   0.122  11.354 -4.3544  0.1607  0.1247
 6456SOL    HW230828   3.345   4.696  11.369 -2.9699 -0.9244  1.0018
 6457SOL     OW30829   1.606   0.724   7.345 -0.2646 -0.0908 -0.1943
 6457SOL    HW130830   1.575   0.651   7.292 -1.2446  0.0222  0.2143
 6457SOL    HW230831   1.694   0.738   7.310  0.4354 -2.0606  0.8070
 6458SOL     OW30832   2.568   2.432   6.657 -0.0048 -0.3762  0.0638
 6458SOL    HW130833   2.556   2.513   6.607  1.0273  0.7029  1.5550
 6458SOL    HW230834   2.484   2.432   6.704  0.7087  3.7832  1.3144
 6459SOL     OW30835   2.040   4.495   7.953 -0.4047 -0.3755 -0.3075
 6459SOL    HW130836   2.060   4.517   8.044  1.0706 -2.9247  0.0044
 6459SOL    HW230837   1.958   4.448   7.963  0.3507 -1.1537  2.4120
 6460SOL     OW30838   0.109   0.422   1.529  0.4048  0.8160  0.0315
 6460SOL    HW130839   0.148   0.411   1.615 -1.6032 -1.1305  0.7073
 6460SOL    HW230840   0.016   0.443   1.542  0.3178  1.2391 -1.2819
 6461SOL     OW30841   3.867   2.462   3.740  0.0380  0.0543  0.2381
 6461SOL    HW130842   3.871   2.397   3.670  0.0405  0.1197  0.1781
 6461SOL    HW230843   3.801   2.420   3.795 -0.0617  1.0888  0.9122
 6462SOL     OW30844   2.473   2.454   7.262 -0.0408 -0.0593 -0.1078
 6462SOL    HW130845   2.521   2.490   7.337  1.2769 -0.6674 -0.6598
 6462SOL    HW230846   2.544   2.443   7.198  1.4711  1.5089  1.3016
 6463SOL     OW30847   4.160   1.314   4.869 -0.7260  0.1121  0.1640
 6463SOL    HW130848   4.195   1.284   4.785 -2.3471  0.1442 -0.5347
 6463SOL    HW230849   4.238   1.299   4.922 -2.0153 -0.8208  1.7974
 6464SOL     OW30850   1.444   1.988  12.656  0.4450  1.0830 -0.1584
 6464SOL    HW130851   1.522   2.031  12.690  1.3847 -1.0716  0.4575
 6464SOL    HW230852   1.489   1.917  12.608 -1.7594  0.5027 -1.3511
 6465SOL     OW30853   3.891   4.487   8.720 -0.3466 -0.6977 -0.7957
 6465SOL    HW130854   3.983   4.486   8.748 -0.9479 -0.7875  1.1414
 6465SOL    HW230855   3.874   4.394   8.705 -1.1004 -1.0278  2.2711
 6466SOL     OW30856   0.957   1.488   2.201  0.5773  0.1194  0.1806
 6466SOL    HW130857   1.007   1.563   2.231  3.2084 -0.9917 -1.4334
 6466SOL    HW230858   0.904   1.459   2.275  0.7637  0.9518  0.6316
 6467SOL     OW30859   1.837   0.747   4.689 -0.3508 -0.0803  0.6898
 6467SOL    HW130860   1.758   0.751   4.743 -0.0037  1.4072  1.0711
 6467SOL    HW230861   1.846   0.653   4.674  0.2891  0.1114 -0.0879
 6468SOL     OW30862   1.088   4.582   4.143 -0.3672 -0.1921  0.2466
 6468SOL    HW130863   1.100   4.656   4.083 -1.2795 -0.9063 -0.7944
 6468SOL    HW230864   1.083   4.632   4.225  1.2251 -1.8127  1.3359
 6469SOL     OW30865   0.664   1.403   4.945 -0.1678 -0.1687 -0.3720
 6469SOL    HW130866   0.592   1.465   4.960 -0.6397 -0.7517 -0.2539
 6469SOL    HW230867   0.664   1.385   4.851 -3.4886 -1.6977 -0.0541
 6470SOL     OW30868   1.976   0.207  12.721  0.2827  0.1103 -0.7384
 6470SOL    HW130869   1.927   0.137  12.764 -0.1997  1.3184  0.6822
 6470SOL    HW230870   2.015   0.247  12.799 -2.3630 -2.1589  1.7936
 6471SOL     OW30871   0.733   3.443   3.429 -0.2638  0.3356 -0.0062
 6471SOL    HW130872   0.787   3.489   3.365 -0.6213 -0.3155 -0.7831
 6471SOL    HW230873   0.791   3.437   3.505  1.4641  1.6426 -1.2078
 6472SOL     OW30874   0.451   2.381   8.774  0.1299 -0.0980  0.8239
 6472SOL    HW130875   0.367   2.401   8.731  0.0596 -1.5350  0.2905
 6472SOL    HW230876   0.505   2.358   8.698  1.5850  1.5340  1.3767
 6473SOL     OW30877   0.441   3.885   1.570 -0.0987 -0.2666  0.1140
 6473SOL    HW130878   0.364   3.930   1.604 -0.3739 -0.6440  0.0003
 6473SOL    HW230879   0.478   3.872   1.657 -2.2935 -1.1812  0.9154
 6474SOL     OW30880   4.658   1.646   6.506  0.2382 -0.5967  0.1766
 6474SOL    HW130881   0.021   1.673   6.478  0.6351 -0.6962  1.3210
 6474SOL    HW230882   4.681   1.575   6.566  0.7210 -1.3332 -0.8632
 6475SOL     OW30883   1.179   2.048   3.345  0.7611 -0.5568 -0.1604
 6475SOL    HW130884   1.162   2.113   3.276  1.3517  0.4191  0.6026
 6475SOL    HW230885   1.215   2.103   3.415 -0.8796 -1.5761  1.4615
 6476SOL     OW30886   4.350   1.524   4.362  0.6192  0.3979  0.0504
 6476SOL    HW130887   4.443   1.522   4.342  0.8370  1.0037  1.0299
 6476SOL    HW230888   4.317   1.519   4.272  1.5518 -0.6428 -0.2314
 6477SOL     OW30889   1.289   0.668   7.165 -0.1830  0.0553 -0.8391
 6477SOL    HW130890   1.322   0.738   7.221  1.8383 -1.0331 -0.6753
 6477SOL    HW230891   1.255   0.725   7.096  2.1210  0.7759 -1.3903
 6478SOL     OW30892   1.561   3.196   4.753 -0.0357  0.4108 -0.1630
 6478SOL    HW130893   1.510   3.122   4.721  3.4092 -2.2143  0.3346
 6478SOL    HW230894   1.649   3.161   4.738 -0.2701 -0.4978  0.5921
 6479SOL     OW30895   0.112   2.353   2.749  0.1298 -0.3131 -0.3200
 6479SOL    HW130896   0.153   2.330   2.666 -0.2050  1.5832 -1.0043
 6479SOL    HW230897   0.175   2.408   2.795 -1.1715 -0.3363  1.5110
 6480SOL     OW30898   2.345   1.160   7.073 -0.0518  0.1821 -0.7476
 6480SOL    HW130899   2.350   1.162   6.978 -0.4464  1.3869 -0.7481
 6480SOL    HW230900   2.358   1.252   7.097 -0.9925 -0.3144  1.6996
 6481SOL     OW30901   2.062   0.714   9.566  0.8095  0.0190 -0.7158
 6481SOL    HW130902   2.126   0.764   9.516  1.1208 -1.2271 -1.5845
 6481SOL    HW230903   2.118   0.645   9.602 -1.6194 -1.9322 -0.6232
 6482SOL     OW30904   0.454   3.233   4.920  0.1283 -0.6052 -0.5069
 6482SOL    HW130905   0.474   3.162   4.859  3.5428 -0.1355  0.0263
 6482SOL    HW230906   0.507   3.211   4.997 -0.0605 -0.0627 -0.2180
 6483SOL     OW30907   0.863   4.673   2.210  0.3443  0.1018  0.8046
 6483SOL    HW130908   0.935   4.673   2.274  0.9500 -0.7332  0.1246
 6483SOL    HW230909   0.877   4.589   2.165  0.2534  0.7094 -0.3542
 6484SOL     OW30910   4.384   0.296   7.696 -0.7947  0.1099 -0.5833
 6484SOL    HW130911   4.454   0.269   7.755  0.8132  3.8461 -0.8229
 6484SOL    HW230912   4.327   0.340   7.759 -2.9140  1.9857 -3.8284
 6485SOL     OW30913   4.159   2.088   8.273 -0.0125  0.0372  0.5489
 6485SOL    HW130914   4.173   2.093   8.368 -0.1341  0.5228  0.5394
 6485SOL    HW230915   4.243   2.123   8.241 -0.5562  0.7569 -0.0674
 6486SOL     OW30916   4.346   1.723   2.131 -0.1570  0.0204  0.4747
 6486SOL    HW130917   4.368   1.677   2.050 -0.9264  0.8398 -0.1885
 6486SOL    HW230918   4.274   1.777   2.101 -0.5086 -0.4484  0.4776
 6487SOL     OW30919   3.819   2.233  11.489 -0.2122  0.3235  0.7410
 6487SOL    HW130920   3.779   2.234  11.575  1.7542 -1.6199  1.6680
 6487SOL    HW230921   3.896   2.179  11.507 -0.2054 -0.0728 -0.4711
 6488SOL     OW30922   4.056   2.289   0.876 -0.8891 -0.1259 -0.1433
 6488SOL    HW130923   4.075   2.291   0.969  0.2994 -1.6165 -0.3593
 6488SOL    HW230924   4.139   2.303   0.830 -0.8285 -0.9752 -0.2838
 6489SOL     OW30925   2.647   4.349   4.309  0.4342 -0.6819 -0.0598
 6489SOL    HW130926   2.620   4.257   4.307 -0.0905 -0.5068 -1.1848
 6489SOL    HW230927   2.719   4.352   4.247  1.2138 -2.2489  0.7748
 6490SOL     OW30928   4.566   0.412   8.364 -1.1319 -0.3681 -0.9488
 6490SOL    HW130929   4.615   0.473   8.419 -1.6152  0.5993 -1.5952
 6490SOL    HW230930   4.482   0.406   8.411  0.4583  1.8723  2.1776
 6491SOL     OW30931   3.413   2.868  15.532 -0.0710 -0.0046 -0.2394
 6491SOL    HW130932   3.450   2.924  15.600 -1.3743  0.0524  0.4154
 6491SOL    HW230933   3.319   2.883  15.537 -0.1201 -0.4180  0.0988
 6492SOL     OW30934   4.016   2.025   6.645 -0.3748 -0.2837 -0.6208
 6492SOL    HW130935   3.928   1.987   6.644 -0.5713  0.1519  0.6067
 6492SOL    HW230936   4.062   1.960   6.592 -1.5550  0.1856 -2.2460
 6493SOL     OW30937   1.576   0.791   6.697  0.1470  0.0613 -0.3791
 6493SOL    HW130938   1.490   0.773   6.659 -0.0717  0.0169  0.1312
 6493SOL    HW230939   1.634   0.771   6.624  0.6279  0.9790 -0.2563
 6494SOL     OW30940   3.973   0.471   4.183  0.4535 -0.3638  0.1643
 6494SOL    HW130941   3.962   0.377   4.169 -0.8005 -0.5527  2.4251
 6494SOL    HW230942   3.895   0.500   4.230  0.0388  0.7496 -1.2215
 6495SOL     OW30943   1.583   1.777  12.520  0.1150  0.2122 -0.1508
 6495SOL    HW130944   1.659   1.721  12.539 -1.2884 -0.4696  3.6178
 6495SOL    HW230945   1.527   1.721  12.466  0.0801  0.9588 -0.8821
 6496SOL     OW30946   0.081   1.340   4.960 -0.0438  0.6659 -0.0557
 6496SOL    HW130947   0.113   1.397   4.890 -0.1985 -0.5164 -1.0942
 6496SOL    HW230948   0.075   1.261   4.906 -0.5686  1.5270 -1.2678
 6497SOL     OW30949   4.433   4.174   6.820 -0.4795 -0.8163 -0.8013
 6497SOL    HW130950   4.522   4.148   6.794 -0.5837 -2.7584  0.7836
 6497SOL    HW230951   4.380   4.150   6.744 -0.9686  1.8896 -1.2945
 6498SOL     OW30952   0.999   4.100   3.410 -0.4322  0.5193 -0.3564
 6498SOL    HW130953   1.071   4.120   3.350 -0.5766  0.5725 -0.5141
 6498SOL    HW230954   0.933   4.161   3.375  2.4259  2.4834 -2.2702
 6499SOL     OW30955   0.457   1.229   9.006 -0.3143  0.4324 -0.1722
 6499SOL    HW130956   0.513   1.166   9.051  0.4262 -0.1192 -1.8848
 6499SOL    HW230957   0.458   1.298   9.072 -3.7134  0.7492 -0.4546
 6500SOL     OW30958   0.307   3.909   2.692  0.0655  0.1166  0.0928
 6500SOL    HW130959   0.254   3.882   2.618  1.3814 -0.3099 -0.7036
 6500SOL    HW230960   0.347   3.824   2.710 -1.2631  0.0328  2.6246
 6501SOL     OW30961   1.656   4.276   5.696 -1.0593  0.3598 -0.3184
 6501SOL    HW130962   1.720   4.302   5.630 -1.2551 -0.0468 -0.6712
 6501SOL    HW230963   1.620   4.206   5.641 -0.6395 -1.0711  1.2091
 6502SOL     OW30964   0.930   4.071   2.050  0.4271 -0.1897  0.1176
 6502SOL    HW130965   0.989   4.032   1.985 -0.7134  0.7129 -1.4445
 6502SOL    HW230966   0.852   4.049   1.999  0.4455  0.0350 -0.0052
 6503SOL     OW30967   0.391   4.196   2.351  0.3633  0.2190 -0.1706
 6503SOL    HW130968   0.316   4.221   2.404 -1.9145 -1.8648 -2.3772
 6503SOL    HW230969   0.462   4.221   2.410  1.2626 -0.5477 -0.9129
 6504SOL     OW30970   1.005   3.073   7.737 -0.1268 -0.1905  0.2558
 6504SOL    HW130971   0.915   3.077   7.705  0.7151 -1.3177 -2.2814
 6504SOL    HW230972   1.057   3.110   7.665 -0.9941  0.9070  0.1925
 6505SOL     OW30973   2.601   1.353   5.821 -0.0061 -0.4635  0.2685
 6505SOL    HW130974   2.588   1.437   5.864  1.3621  0.0135 -0.2349
 6505SOL    HW230975   2.628   1.392   5.738 -0.5417 -0.1985  0.2212
 6506SOL     OW30976   4.198   3.196   2.686  0.6080 -1.0286 -0.2277
 6506SOL    HW130977   4.255   3.273   2.677 -0.2592 -0.2406  0.9468
 6506SOL    HW230978   4.156   3.222   2.768  0.2253 -1.4532 -0.2918
 6507SOL     OW30979   3.805   0.052   7.890  0.0852 -0.4664 -0.5055
 6507SOL    HW130980   3.814   0.034   7.984  0.7588  3.0633  0.0993
 6507SOL    HW230981   3.783   0.145   7.893 -0.3077 -0.6039  0.7496
 6508SOL     OW30982   4.176   0.387   1.267 -0.2120 -0.4547  0.7746
 6508SOL    HW130983   4.184   0.372   1.361  2.2764 -0.1856  0.6053
 6508SOL    HW230984   4.192   0.304   1.222 -1.6290 -0.5020  0.3567
 6509SOL     OW30985   0.982   4.616  13.165  0.2532  0.4899 -0.4998
 6509SOL    HW130986   0.943   4.649  13.083 -1.0621 -0.7001 -0.3524
 6509SOL    HW230987   0.901   4.622  13.217  1.0880 -0.4470  0.8841
 6510SOL     OW30988   0.783   0.832   5.464 -0.0723  0.3421  0.1520
 6510SOL    HW130989   0.749   0.865   5.547  1.7743 -1.3130  1.5872
 6510SOL    HW230990   0.860   0.889   5.456  1.4281 -1.5423  1.1158
 6511SOL     OW30991   0.680   1.674   5.185  0.2928  0.2329  0.2776
 6511SOL    HW130992   0.738   1.724   5.128  0.9246 -0.5129  0.2518
 6511SOL    HW230993   0.621   1.649   5.114 -0.2973 -0.7427  1.1069
 6512SOL     OW30994   2.364   2.844   5.740 -0.0994  0.2961  0.1313
 6512SOL    HW130995   2.309   2.873   5.667  0.1971  0.1669 -0.1452
 6512SOL    HW230996   2.309   2.847   5.818 -0.0347  0.2446  0.1795
 6513SOL     OW30997   0.612   0.610  17.041 -0.3605 -0.1457 -0.2053
 6513SOL    HW130998   0.627   0.516  17.050 -2.7020 -0.6261 -1.1321
 6513SOL    HW230999   0.525   0.613  17.080 -1.0998 -1.6434 -1.7292
 6514SOL     OW31000   2.062   1.275   1.249  0.3623 -0.0969  0.4202
 6514SOL    HW131001   2.103   1.264   1.335  0.3884  3.2190  0.8411
 6514SOL    HW231002   2.112   1.210   1.200  1.4578 -0.7767  2.4307
 6515SOL     OW31003   2.723   3.633   3.957  0.4394 -0.5842  0.5493
 6515SOL    HW131004   2.757   3.704   4.012 -0.5373  1.5768 -1.6047
 6515SOL    HW231005   2.755   3.555   4.002  3.2349  0.0608 -0.3634
 6516SOL     OW31006   3.710   3.048   4.070  0.1274 -0.2818 -0.1507
 6516SOL    HW131007   3.617   3.070   4.072  0.1849 -0.0972  0.4182
 6516SOL    HW231008   3.748   3.108   4.134  1.0584  0.0282 -0.9783
 6517SOL     OW31009   2.132   3.482   8.056 -0.2829 -0.5276  0.3023
 6517SOL    HW131010   2.092   3.561   8.093  1.7393  1.8560 -2.6571
 6517SOL    HW231011   2.062   3.420   8.078  0.3189 -1.8918 -1.6203
 6518SOL     OW31012   0.955   4.551   6.301  0.5894 -0.2461 -0.5162
 6518SOL    HW131013   0.991   4.636   6.324  1.6831 -0.4367 -1.4905
 6518SOL    HW231014   0.920   4.531   6.387  0.6809 -3.0527 -1.1123
 6519SOL     OW31015   0.193   3.774   3.791  0.1003 -0.0671  0.9301
 6519SOL    HW131016   0.188   3.852   3.846  0.3707 -0.9802  2.2496
 6519SOL    HW231017   0.109   3.775   3.745  0.1478  1.0967  0.8739
 6520SOL     OW31018   4.518   0.138   4.941  0.0496  0.7877 -0.7030
 6520SOL    HW131019   4.490   0.200   4.874 -1.0341  0.7080 -0.3313
 6520SOL    HW231020   4.601   0.114   4.901  2.5619  3.4924  2.9164
 6521SOL     OW31021   2.591   0.921   3.401  0.1654 -0.6711  0.3527
 6521SOL    HW131022   2.623   0.851   3.459  0.7081 -0.3772  0.4097
 6521SOL    HW231023   2.540   0.860   3.348 -1.2137  0.5143  0.3375
 6522SOL     OW31024   2.711   1.243  16.366 -0.1743 -0.0649  0.3394
 6522SOL    HW131025   2.666   1.178  16.419 -0.3075  1.1877  1.7400
 6522SOL    HW231026   2.677   1.325  16.401 -0.5187  0.2287 -0.6788
 6523SOL     OW31027   2.324   3.819   1.973  0.7176 -0.0507  0.0196
 6523SOL    HW131028   2.335   3.883   2.044 -0.4019  0.3428 -0.1630
 6523SOL    HW231029   2.314   3.891   1.911  0.6650  1.6671  2.0127
 6524SOL     OW31030   0.202   3.735   2.487  0.3282 -0.0783  0.0564
 6524SOL    HW131031   0.153   3.752   2.407  1.0749  0.8613 -0.1923
 6524SOL    HW231032   0.260   3.660   2.476  2.2637  1.3993  0.2183
 6525SOL     OW31033   1.926   2.151   6.692 -0.1438 -0.9286 -0.7354
 6525SOL    HW131034   2.002   2.109   6.651  2.0557  2.3636 -0.0963
 6525SOL    HW231035   1.942   2.134   6.785  0.5041 -0.6079 -0.7878
 6526SOL     OW31036   0.616   2.306  13.611  0.3937 -0.0392  0.4036
 6526SOL    HW131037   0.641   2.237  13.672  2.3632  1.9375  1.8470
 6526SOL    HW231038   0.573   2.249  13.547  0.5705 -0.7674  0.9248
 6527SOL     OW31039   2.160   3.148  14.886 -0.1594  0.1855  0.2096
 6527SOL    HW131040   2.183   3.092  14.812  1.2975 -2.2953  2.5481
 6527SOL    HW231041   2.209   3.112  14.960  0.5873 -0.2588 -0.5048
 6528SOL     OW31042   3.530   2.665  10.012 -0.4031  0.2796 -0.0823
 6528SOL    HW131043   3.563   2.735  10.068  0.6605 -0.1514 -0.1614
 6528SOL    HW231044   3.474   2.623  10.078  0.4829  1.3161  1.3364
 6529SOL     OW31045   1.218   2.942   0.546 -0.4244  0.5092 -0.3490
 6529SOL    HW131046   1.167   2.970   0.622  0.5518  0.2409  0.3982
 6529SOL    HW231047   1.198   2.849   0.553 -1.2263  0.7301  0.2251
 6530SOL     OW31048   4.039   3.609   9.156 -0.3820  0.2067 -0.1287
 6530SOL    HW131049   4.115   3.625   9.099  0.1512 -2.6310 -0.2391
 6530SOL    HW231050   4.073   3.597   9.244 -0.0246 -0.0018 -0.2932
 6531SOL     OW31051   1.647   3.191   5.797  0.3377 -0.2105 -0.0718
 6531SOL    HW131052   1.644   3.239   5.714  0.5042  0.9807  0.6208
 6531SOL    HW231053   1.670   3.107   5.756 -2.2420 -0.5991 -0.7330
 6532SOL     OW31054   4.054   1.088  17.144  0.4234 -0.2829  0.1432
 6532SOL    HW131055   4.041   1.166  17.090  1.2739  0.5833  1.1979
 6532SOL    HW231056   3.966   1.051  17.139 -0.0263  0.9317 -1.0986
 6533SOL     OW31057   1.125   2.946   0.207  0.5405  0.0908  0.4552
 6533SOL    HW131058   1.204   2.973   0.254  0.9299 -1.0839  0.4698
 6533SOL    HW231059   1.158   2.870   0.159  0.8485  0.3235  0.2954
 6534SOL     OW31060   2.665   0.229  11.103 -0.2068  0.1131  0.1283
 6534SOL    HW131061   2.659   0.135  11.088  0.7140  0.2485 -1.0410
 6534SOL    HW231062   2.575   0.256  11.086  0.8246  2.9679 -0.8411
 6535SOL     OW31063   3.051   1.773   6.578  0.1096  0.2820 -0.0101
 6535SOL    HW131064   2.992   1.799   6.506  2.5100  3.1761 -0.9084
 6535SOL    HW231065   3.094   1.856   6.596 -1.7024  0.9001  1.5415
 6536SOL     OW31066   4.281   3.079   2.074 -0.1584 -0.2947 -0.3084
 6536SOL    HW131067   4.244   2.997   2.105 -2.3153  2.4473  4.4096
 6536SOL    HW231068   4.375   3.066   2.089 -0.4255  0.6154  2.0616
 6537SOL     OW31069   0.691   3.677   8.646  0.5576  0.0115  0.9602
 6537SOL    HW131070   0.776   3.717   8.660  2.6192 -3.7662 -0.8574
 6537SOL    HW231071   0.712   3.588   8.673  1.7576 -0.1795 -0.6326
 6538SOL     OW31072   0.195   3.466   4.117 -0.0777  0.2319 -0.4904
 6538SOL    HW131073   0.266   3.407   4.142  0.2636 -0.5142 -3.1833
 6538SOL    HW231074   0.118   3.427   4.158  0.9289 -4.0447 -2.6396
 6539SOL     OW31075   4.059   3.334  10.833 -0.4935  0.3943  0.5858
 6539SOL    HW131076   4.055   3.425  10.863  0.1416  0.8896 -0.8450
 6539SOL    HW231077   4.103   3.291  10.905  1.9998  1.3090 -0.4120
 6540SOL     OW31078   3.146   3.935  10.652 -0.4907 -0.3482 -0.6391
 6540SOL    HW131079   3.054   3.962  10.649 -0.4721 -0.4196 -1.7184
 6540SOL    HW231080   3.166   3.921  10.560  3.5699 -1.7338  0.4257
 6541SOL     OW31081   0.585   1.807   1.891  0.2644 -0.1526 -0.6667
 6541SOL    HW131082   0.582   1.833   1.983  0.7017 -1.2608 -0.3422
 6541SOL    HW231083   0.499   1.836   1.862 -0.1199 -0.8435 -0.2063
 6542SOL     OW31084   4.327   1.131   8.259 -0.3230 -0.0138  0.2386
 6542SOL    HW131085   4.247   1.183   8.259 -0.7545 -0.7065 -1.7752
 6542SOL    HW231086   4.295   1.050   8.299  0.0369  0.1351  0.8290
 6543SOL     OW31087   1.446   2.650   7.214  0.5563 -0.0187 -0.5287
 6543SOL    HW131088   1.360   2.610   7.200 -1.0394  3.0542  0.4289
 6543SOL    HW231089   1.491   2.578   7.257  4.9474  1.3486 -2.8778
 6544SOL     OW31090   4.658   1.130   5.852 -0.0650  0.0692  0.2287
 6544SOL    HW131091   4.719   1.057   5.855  1.0058  0.9943  0.9744
 6544SOL    HW231092   4.623   1.136   5.941  0.4160  1.0122  0.3600
 6545SOL     OW31093   2.919   4.466  16.011 -0.1730  0.1580 -0.4249
 6545SOL    HW131094   2.858   4.536  15.987  0.2599  0.5003 -0.5170
 6545SOL    HW231095   2.873   4.392  15.970 -1.2526  0.5992 -0.0081
 6546SOL     OW31096   3.601   4.386   6.369  0.4096 -0.4916 -0.1350
 6546SOL    HW131097   3.657   4.391   6.291  2.5291 -0.4848  1.3731
 6546SOL    HW231098   3.615   4.473   6.407  0.4269 -0.8540  0.6858
 6547SOL     OW31099   0.309   0.382   8.583  0.3135 -0.5912 -0.2416
 6547SOL    HW131100   0.326   0.469   8.548  0.7826 -0.5572  0.0741
 6547SOL    HW231101   0.391   0.368   8.632  1.7877  1.2432 -2.1620
 6548SOL     OW31102   0.042   0.624  15.322  0.2129  0.0212  0.2334
 6548SOL    HW131103   0.073   0.535  15.303 -2.7164 -1.3127  1.7363
 6548SOL    HW231104   0.001   0.601  15.405  1.5378  1.2888  1.2406
 6549SOL     OW31105   3.331   3.883  13.166 -0.0236 -0.1246  0.1319
 6549SOL    HW131106   3.328   3.814  13.232 -0.4931  0.7059  0.9790
 6549SOL    HW231107   3.414   3.875  13.119 -0.2134 -1.5929  0.0526
 6550SOL     OW31108   2.850   3.599   6.775  0.6792 -0.0178 -0.1356
 6550SOL    HW131109   2.942   3.621   6.788  0.8969 -1.7165  1.2319
 6550SOL    HW231110   2.863   3.515   6.732 -0.1715  1.1468 -2.6313
 6551SOL     OW31111   0.511   2.537   1.218  0.1609 -0.5692  0.4378
 6551SOL    HW131112   0.598   2.576   1.219 -0.4210  0.7109  0.0561
 6551SOL    HW231113   0.467   2.584   1.148  0.7904 -1.0107 -0.2483
 6552SOL     OW31114   2.491   1.856   3.964 -0.0098 -0.0276  0.6420
 6552SOL    HW131115   2.547   1.812   3.901 -0.9088 -1.6380  0.9710
 6552SOL    HW231116   2.399   1.848   3.938  0.5863 -1.0249 -1.1041
 6553SOL     OW31117   2.035   3.781   3.184 -0.0285  0.1129 -0.1014
 6553SOL    HW131118   2.075   3.837   3.250 -3.0102  0.6762  1.2275
 6553SOL    HW231119   2.063   3.825   3.104 -0.2679 -0.7103 -0.6402
 6554SOL     OW31120   4.358   0.627  14.577  0.0982  0.4655 -0.2421
 6554SOL    HW131121   4.318   0.645  14.662 -1.2528 -2.8097 -0.2115
 6554SOL    HW231122   4.333   0.703  14.524 -2.7699 -0.6282 -0.4214
 6555SOL     OW31123   0.742   2.304   3.440 -0.4142  0.8514 -0.2104
 6555SOL    HW131124   0.820   2.309   3.386  0.8615  2.2477  1.7514
 6555SOL    HW231125   0.678   2.277   3.374 -1.7036 -0.7929  1.7116
 6556SOL     OW31126   2.857   4.507   3.179  0.5675  0.2740 -0.2606
 6556SOL    HW131127   2.878   4.558   3.257  3.2805  2.3993 -2.3820
 6556SOL    HW231128   2.816   4.434   3.226 -1.0919  0.6507 -1.1227
 6557SOL     OW31129   0.527   4.513   8.417  0.5731 -0.3908 -0.5956
 6557SOL    HW131130   0.601   4.543   8.364  0.5341 -0.5041 -0.7143
 6557SOL    HW231131   0.464   4.584   8.410  0.8265  0.2269  3.5235
 6558SOL     OW31132   2.443   4.138   1.165  0.1745  0.5754  0.2123
 6558SOL    HW131133   2.386   4.118   1.240  1.0100  0.8340  0.9086
 6558SOL    HW231134   2.410   4.225   1.143  1.1123  1.0403  0.6446
 6559SOL     OW31135   2.600   4.424   7.976  0.0531 -0.1735 -0.1193
 6559SOL    HW131136   2.614   4.488   7.907  2.1879  0.2563  0.7352
 6559SOL    HW231137   2.509   4.402   7.956  0.6706  0.1275 -3.1785
 6560SOL     OW31138   1.001   1.428   1.042  0.1128 -0.1138 -0.5885
 6560SOL    HW131139   0.909   1.402   1.045 -0.1205  0.9505  1.3804
 6560SOL    HW231140   1.026   1.409   0.951  0.4058  1.1448 -0.7792
 6561SOL     OW31141   0.251   2.730  15.624  0.1447  0.1059 -0.6011
 6561SOL    HW131142   0.275   2.650  15.576  0.5420 -1.2629  1.8641
 6561SOL    HW231143   0.269   2.789  15.551 -0.1437  2.3357  1.1202
 6562SOL     OW31144   4.508   3.185  12.777  0.5315 -0.2888  0.1170
 6562SOL    HW131145   4.428   3.187  12.724 -0.0335 -2.2226  0.8946
 6562SOL    HW231146   4.563   3.154  12.706 -0.9469 -2.4494 -0.0992
 6563SOL     OW31147   4.385   1.058   6.365 -0.3106 -0.6418 -0.4480
 6563SOL    HW131148   4.297   1.084   6.391 -0.7606 -2.0103 -0.5857
 6563SOL    HW231149   4.442   1.109   6.423 -1.6250  0.0069  0.2759
 6564SOL     OW31150   1.480   4.248   7.683  0.4045 -0.1950 -0.0429
 6564SOL    HW131151   1.451   4.220   7.597  2.9897 -1.0828 -0.6170
 6564SOL    HW231152   1.397   4.274   7.723  0.1733 -0.2362 -0.5065
 6565SOL     OW31153   0.532   1.789   9.364 -0.1902  0.4682 -0.4892
 6565SOL    HW131154   0.553   1.765   9.274 -0.6338 -2.7674  0.2691
 6565SOL    HW231155   0.455   1.734   9.382 -2.2893  2.8002 -2.1782
 6566SOL     OW31156   3.633   1.726   4.261 -0.0143  0.3451  0.0024
 6566SOL    HW131157   3.598   1.775   4.335 -0.7702  0.4332 -0.4158
 6566SOL    HW231158   3.578   1.648   4.272  0.8168 -0.3359 -0.7085
 6567SOL     OW31159   2.849   0.403  10.972 -0.0618  0.4607  0.0584
 6567SOL    HW131160   2.806   0.376  11.053 -1.7470  2.2323 -0.2366
 6567SOL    HW231161   2.861   0.323  10.921 -1.5721  0.6126 -0.5465
 6568SOL     OW31162   0.080   2.873   2.237  0.0064  0.4578  0.3358
 6568SOL    HW131163   0.172   2.851   2.227  0.3532  1.3552  1.4929
 6568SOL    HW231164   0.042   2.793   2.273 -0.2627  1.1453  1.5757
 6569SOL     OW31165   2.158   4.084   4.501 -0.3005  0.1514 -0.1269
 6569SOL    HW131166   2.174   4.065   4.594  0.7826 -1.0915 -0.5617
 6569SOL    HW231167   2.162   3.997   4.463 -1.5751 -0.2515  0.6430
 6570SOL     OW31168   2.242   3.792   7.500  0.3484 -0.4604  0.0790
 6570SOL    HW131169   2.287   3.836   7.572 -2.2057  1.8251  0.2520
 6570SOL    HW231170   2.286   3.818   7.419  0.0940 -1.0364 -0.2445
 6571SOL     OW31171   3.188   2.089  10.710  0.5339 -0.1721  0.8365
 6571SOL    HW131172   3.101   2.118  10.680  0.9032  0.4538  0.3660
 6571SOL    HW231173   3.163   2.003  10.745  1.5515 -0.8854 -0.2011
 6572SOL     OW31174   3.355   0.392   2.775 -0.1116 -0.7593  0.0544
 6572SOL    HW131175   3.291   0.451   2.737 -1.6574 -1.8952  0.9066
 6572SOL    HW231176   3.378   0.351   2.692  2.6168 -0.3746  0.6130
 6573SOL     OW31177   1.449   4.467   7.043 -0.6591  0.1157 -0.0237
 6573SOL    HW131178   1.412   4.529   7.105  2.0430  1.2196  0.4997
 6573SOL    HW231179   1.541   4.494   7.051 -0.7095 -0.1811  1.6218
 6574SOL     OW31180   4.268   4.139  10.734 -0.4379 -0.1311 -0.7034
 6574SOL    HW131181   4.282   4.156  10.641  0.2473 -0.5529 -0.6833
 6574SOL    HW231182   4.349   4.098  10.765 -0.7729  0.3627  0.8127
 6575SOL     OW31183   0.480   1.814  12.394  0.1336 -0.5521 -0.2675
 6575SOL    HW131184   0.478   1.791  12.302  0.6406  1.4875 -0.7864
 6575SOL    HW231185   0.563   1.776  12.422 -0.0894 -1.8429 -1.3826
 6576SOL     OW31186   0.028   0.257  16.578 -0.1205 -0.0134  0.2609
 6576SOL    HW131187   0.034   0.353  16.582  2.0208 -0.1196 -0.7181
 6576SOL    HW231188   0.036   0.242  16.672 -0.3687  0.2381  0.3222
 6577SOL     OW31189   1.043   4.456   5.606  0.2007  0.6528 -0.3937
 6577SOL    HW131190   1.002   4.380   5.648 -1.4186  1.5473 -0.3629
 6577SOL    HW231191   1.033   4.521   5.676 -2.0468 -0.6084  0.4602
 6578SOL     OW31192   0.815   1.958  14.295  0.4800  0.0571 -0.0983
 6578SOL    HW131193   0.858   1.889  14.245 -1.9827 -1.7005  0.2325
 6578SOL    HW231194   0.727   1.920  14.304  0.5558  0.7370  3.3585
 6579SOL     OW31195   1.614   3.894   2.327 -0.1425 -0.4142  0.3208
 6579SOL    HW131196   1.629   3.939   2.244  1.2931  0.7769  1.2312
 6579SOL    HW231197   1.622   3.806   2.290 -1.5973  0.0592 -1.1289
 6580SOL     OW31198   3.235   4.079  14.927  0.6146 -0.4304  0.6361
 6580SOL    HW131199   3.301   4.141  14.957  0.6551 -0.7555  1.2211
 6580SOL    HW231200   3.156   4.129  14.944  1.3701  1.4977 -1.4864
 6581SOL     OW31201   1.333   3.833  15.708 -0.0128 -0.6200 -0.1503
 6581SOL    HW131202   1.361   3.798  15.792 -0.1455 -0.5082 -0.0590
 6581SOL    HW231203   1.270   3.764  15.690  1.4430 -1.8518 -0.5462
 6582SOL     OW31204   1.862   3.836   8.522  0.0542  0.3043  0.6247
 6582SOL    HW131205   1.905   3.761   8.479 -0.8141 -1.2104  2.4384
 6582SOL    HW231206   1.813   3.796   8.593 -2.2469 -1.0086 -1.7002
 6583SOL     OW31207   1.412   3.492   4.699  0.3405  0.6107 -0.1956
 6583SOL    HW131208   1.371   3.569   4.660  1.8990  0.6150 -1.8407
 6583SOL    HW231209   1.454   3.458   4.620  0.5949 -1.9076  1.0034
 6584SOL     OW31210   1.171   4.503   3.147  0.5049  0.1774 -0.2515
 6584SOL    HW131211   1.138   4.515   3.236 -1.1421  0.4788 -0.9029
 6584SOL    HW231212   1.113   4.562   3.097 -0.6733 -0.0960  0.7954
 6585SOL     OW31213   1.131   0.716  14.649 -0.2978 -0.1107 -0.0750
 6585SOL    HW131214   1.139   0.669  14.732  1.6662  0.8215  0.2566
 6585SOL    HW231215   1.058   0.776  14.663 -2.5902 -2.7353 -0.7968
 6586SOL     OW31216   0.184   3.734   6.340 -0.0949  0.2353  0.1283
 6586SOL    HW131217   0.182   3.784   6.258 -1.1649  1.5331  0.9447
 6586SOL    HW231218   0.260   3.680   6.319  0.9874  1.5640  0.6434
 6587SOL     OW31219   2.023   3.956   9.522 -0.5113  0.3888  0.9122
 6587SOL    HW131220   2.068   3.993   9.447 -1.8091  2.7968  1.3274
 6587SOL    HW231221   1.932   3.980   9.503 -0.4567 -0.9867 -1.0279
 6588SOL     OW31222   3.897   3.554   6.208  0.3218  0.1832  0.5672
 6588SOL    HW131223   3.932   3.591   6.289  1.3297 -2.1160  1.1688
 6588SOL    HW231224   3.882   3.634   6.158 -3.4977 -0.0850  1.2070
 6589SOL     OW31225   3.972   2.154   7.003  0.2941 -0.2756  0.1934
 6589SOL    HW131226   3.956   2.160   7.098 -1.6501 -1.8812 -0.0290
 6589SOL    HW231227   3.921   2.074   6.991 -0.9189  0.8720 -2.3369
 6590SOL     OW31228   3.670   2.713   1.937 -0.1586 -0.2730 -0.3521
 6590SOL    HW131229   3.666   2.729   1.843 -0.2130  1.0059 -0.1384
 6590SOL    HW231230   3.686   2.619   1.942  2.4380  0.1735 -0.1140
 6591SOL     OW31231   4.012   1.037  11.031  0.6199  0.2727  0.8203
 6591SOL    HW131232   4.025   0.980  11.106  1.9915 -3.1846 -2.0271
 6591SOL    HW231233   3.921   1.064  11.045  0.8090 -0.6255  3.7149
 6592SOL     OW31234   2.393   1.302   4.984 -0.3964 -0.2634 -0.5337
 6592SOL    HW131235   2.304   1.279   4.958 -0.2822 -1.4831  0.1110
 6592SOL    HW231236   2.372   1.393   5.004 -1.9837 -0.6635 -0.3710
 6593SOL     OW31237   3.667   0.957   8.699  0.2580  0.6295 -0.4286
 6593SOL    HW131238   3.655   1.051   8.716  0.5740  0.5283  0.3585
 6593SOL    HW231239   3.720   0.926   8.773 -3.4935  0.1665  2.0556
 6594SOL     OW31240   0.934   0.327   1.783 -0.7940 -0.2799  0.1318
 6594SOL    HW131241   0.865   0.358   1.725 -0.3743  0.1585 -0.1341
 6594SOL    HW231242   0.971   0.252   1.737  0.1604 -0.7760  1.7097
 6595SOL     OW31243   1.686   3.060   3.148 -0.0532  0.2382 -0.9398
 6595SOL    HW131244   1.703   3.125   3.081  2.7161  2.6162  2.0774
 6595SOL    HW231245   1.760   3.057   3.209 -0.8447  1.2524  0.0563
 6596SOL     OW31246   0.870   3.778   8.107  0.5083 -0.5041  0.2355
 6596SOL    HW131247   0.940   3.793   8.171 -0.3414  1.7538  0.6223
 6596SOL    HW231248   0.860   3.861   8.061 -2.0903 -0.7145  0.4079
 6597SOL     OW31249   1.417   0.943  15.207 -0.1011 -0.5173 -0.1499
 6597SOL    HW131250   1.445   1.003  15.275 -1.7197 -0.8149  0.7763
 6597SOL    HW231251   1.382   0.999  15.138  0.1430  2.0312  1.8269
 6598SOL     OW31252   0.679   4.264  10.688  0.0047  0.0274  0.1862
 6598SOL    HW131253   0.708   4.348  10.652  0.4634 -0.6542 -1.0243
 6598SOL    HW231254   0.658   4.291  10.778 -1.0581  0.5935 -0.2456
 6599SOL     OW31255   0.411   2.545  14.977  0.4325 -0.5374 -0.1163
 6599SOL    HW131256   0.422   2.614  15.042  1.6547 -0.5091 -0.3577
 6599SOL    HW231257   0.316   2.551  14.964  0.2663 -1.3103  0.7682
 6600SOL     OW31258   4.045   2.077   4.039  0.4128 -0.0974  0.1635
 6600SOL    HW131259   4.032   1.984   4.056  0.4379 -0.0754  0.2984
 6600SOL    HW231260   4.139   2.086   4.053  0.3665 -0.7053  0.8646
 6601SOL     OW31261   3.395   2.904   5.893  0.9730  0.1694  0.0221
 6601SOL    HW131262   3.432   2.982   5.935 -0.3759 -0.3201  2.1282
 6601SOL    HW231263   3.438   2.900   5.808  0.6906 -0.3172 -0.1004
 6602SOL     OW31264   3.118   1.670   1.504  0.0083 -0.0137  0.2137
 6602SOL    HW131265   3.121   1.729   1.579 -0.6963  0.3572 -0.0472
 6602SOL    HW231266   3.116   1.728   1.428  2.0014 -1.0301 -0.6205
 6603SOL     OW31267   4.422   3.992   7.410  0.4686 -0.3603 -0.4124
 6603SOL    HW131268   4.463   3.906   7.408  1.5883  0.2010 -2.0493
 6603SOL    HW231269   4.450   4.036   7.490  1.0203  1.0403 -1.3795
 6604SOL     OW31270   3.420   1.547   5.026 -1.0233 -0.2371  0.0726
 6604SOL    HW131271   3.480   1.588   5.088  3.7813 -2.1304 -3.2776
 6604SOL    HW231272   3.459   1.560   4.940  0.8374  0.4446  1.0243
 6605SOL     OW31273   1.119   3.919   7.669 -0.3833  0.3528  0.1839
 6605SOL    HW131274   1.166   3.977   7.609  0.8190 -1.0917 -0.2696
 6605SOL    HW231275   1.157   3.834   7.645  0.8548  0.4813  1.6759
 6606SOL     OW31276   0.794   1.910  12.264 -0.2847 -0.1929 -0.2997
 6606SOL    HW131277   0.791   2.002  12.237 -2.7428 -0.4174 -0.8449
 6606SOL    HW231278   0.844   1.912  12.345  0.3517 -0.0203 -0.6956
 6607SOL     OW31279   0.045   3.409   1.753 -0.7040  0.8951 -0.0408
 6607SOL    HW131280   4.703   3.343   1.772 -0.8222  0.5289 -1.7525
 6607SOL    HW231281   0.038   3.467   1.829 -1.6667  0.6950  0.0175
 6608SOL     OW31282   3.712   3.639   8.086 -0.2951 -0.7407 -0.3553
 6608SOL    HW131283   3.689   3.732   8.088  0.5497 -0.5301 -0.3602
 6608SOL    HW231284   3.623   3.605   8.094 -0.7994  0.6510  0.0364
 6609SOL     OW31285   3.984   1.299  17.679  0.3547 -0.2895  0.2490
 6609SOL    HW131286   4.001   1.205  17.676 -0.6173 -0.5086  1.3983
 6609SOL    HW231287   4.014   1.323   0.068  2.1952  1.8217 -0.9434
 6610SOL     OW31288   1.387   4.703   7.946 -0.7321  0.1117  0.2183
 6610SOL    HW131289   1.403   4.648   8.022  1.7998 -0.5743 -0.8034
 6610SOL    HW231290   1.423   0.063   7.972 -1.4603  0.7534 -0.8630
 6611SOL     OW31291   2.170   0.772   2.197  0.2466  0.4329 -0.7390
 6611SOL    HW131292   2.256   0.729   2.193  0.2687  0.3758  0.2858
 6611SOL    HW231293   2.120   0.702   2.239 -0.5916  1.2366 -0.4161
 6612SOL     OW31294   0.637   4.180  16.020 -0.3156 -0.2748  0.2799
 6612SOL    HW131295   0.550   4.213  16.041 -0.6181  0.7612 -2.5172
 6612SOL    HW231296   0.680   4.259  15.987 -0.6059 -0.0468  0.4465
 6613SOL     OW31297   4.013   1.338  11.283  0.2813  0.1642 -0.0392
 6613SOL    HW131298   4.076   1.390  11.234  2.0202 -2.1368 -0.2660
 6613SOL    HW231299   4.051   1.250  11.291 -0.6097 -0.4070 -1.8454
 6614SOL     OW31300   3.685   0.267   8.170  0.0379  0.7659  0.7336
 6614SOL    HW131301   3.778   0.273   8.151 -0.2417 -0.6548 -1.0737
 6614SOL    HW231302   3.681   0.201   8.239 -1.8699  1.4499  1.2737
 6615SOL     OW31303   3.685   1.695  16.947  0.4870  0.4769  0.6400
 6615SOL    HW131304   3.744   1.639  16.998  1.4449  0.3498 -0.6090
 6615SOL    HW231305   3.604   1.685  16.997  0.7390  3.0001  1.5426
 6616SOL     OW31306   2.753   2.410   7.440  0.1391  0.0598  0.0570
 6616SOL    HW131307   2.710   2.331   7.407 -1.8242  0.5493  1.4191
 6616SOL    HW231308   2.794   2.379   7.521  1.9167  0.8965 -0.5351
 6617SOL     OW31309   4.452   4.380   8.019  0.5163 -0.5271  0.5645
 6617SOL    HW131310   4.477   4.313   8.082 -1.3445 -1.6778  0.0651
 6617SOL    HW231311   4.513   4.453   8.031 -0.5195  0.1901  1.4347
 6618SOL     OW31312   2.041   4.662  13.571  0.0267 -0.5596  0.4262
 6618SOL    HW131313   1.985   4.671  13.495 -1.5219 -1.5587  1.4560
 6618SOL    HW231314   2.033   0.030  13.594  0.7735  0.1044 -1.9468
 6619SOL     OW31315   0.381   2.715   7.171 -0.0024  0.3708  0.2774
 6619SOL    HW131316   0.468   2.723   7.210  0.5750 -0.5751 -0.8548
 6619SOL    HW231317   0.358   2.624   7.190 -1.4239  0.6051 -0.3075
 6620SOL     OW31318   1.876   0.812   0.201 -0.5464  0.0556 -0.7175
 6620SOL    HW131319   1.888   0.785   0.110  0.8191  0.5295 -0.6761
 6620SOL    HW231320   1.809   0.749   0.229  0.0016  0.2943  1.1357
 6621SOL     OW31321   1.288   4.181   3.574  0.2175 -0.0497 -0.1346
 6621SOL    HW131322   1.239   4.251   3.530  0.6950  0.4977  0.2020
 6621SOL    HW231323   1.207   4.138   3.600 -0.6344  1.3762 -0.4053
 6622SOL     OW31324   3.645   3.937   9.003  0.9815 -0.1407  0.1069
 6622SOL    HW131325   3.574   3.885   9.040 -0.3836  0.4643 -1.6220
 6622SOL    HW231326   3.590   3.997   8.952 -0.1289 -0.9697  0.3294
 6623SOL     OW31327   2.911   4.673  12.588  0.1798 -0.6580  0.0419
 6623SOL    HW131328   2.863   4.720  12.658 -2.5707  1.1368 -3.0432
 6623SOL    HW231329   2.968   0.017  12.553  0.1495  0.3492  1.9269
 6624SOL     OW31330   1.893   2.114   9.275 -0.1149 -0.3497  0.4457
 6624SOL    HW131331   1.905   2.070   9.359  0.8044 -1.8569 -0.4836
 6624SOL    HW231332   1.973   2.166   9.273 -0.2798 -0.1529 -1.0877
 6625SOL     OW31333   1.971   3.195   5.934 -0.0292 -0.0079 -0.1327
 6625SOL    HW131334   1.898   3.247   5.900 -0.8637 -0.6538  0.6834
 6625SOL    HW231335   2.039   3.231   5.877  1.9693 -1.2732  1.4408
 6626SOL     OW31336   4.015   0.641   5.658 -0.3939 -0.1645 -0.3203
 6626SOL    HW131337   3.980   0.624   5.570 -0.8497  3.0873 -0.7391
 6626SOL    HW231338   4.050   0.556   5.685 -1.5734 -0.7557 -0.6572
 6627SOL     OW31339   3.696   4.165  12.697 -0.0486 -0.0438  0.6701
 6627SOL    HW131340   3.644   4.220  12.756 -0.3359 -0.1251  0.4931
 6627SOL    HW231341   3.660   4.190  12.612  0.8670  0.8042  0.5233
 6628SOL     OW31342   1.996   4.514  11.162  0.1207 -0.4669  0.2191
 6628SOL    HW131343   2.052   4.584  11.129 -1.5726  1.2436  0.9712
 6628SOL    HW231344   1.989   4.530  11.256  2.5169  1.2750  0.1044
 6629SOL     OW31345   2.820   4.165   9.565 -0.1808  0.1594  0.8243
 6629SOL    HW131346   2.726   4.165   9.580 -0.5125 -0.2861 -1.3257
 6629SOL    HW231347   2.843   4.072   9.564 -1.3387 -0.1519  4.5406
 6630SOL     OW31348   4.461   2.041  10.186  0.6839 -0.0812  0.1716
 6630SOL    HW131349   4.538   1.990  10.160  0.1586  0.0601 -1.6070
 6630SOL    HW231350   4.404   1.994  10.126 -2.4069  1.9192  1.5611
 6631SOL     OW31351   3.493   1.994   5.279  0.0677 -0.0828  0.0068
 6631SOL    HW131352   3.521   2.080   5.249 -3.6795  0.7198 -1.2075
 6631SOL    HW231353   3.425   1.980   5.213  1.7978 -4.3776 -0.8263
 6632SOL     OW31354   1.350   1.025  13.783  0.0785 -0.2020  0.4218
 6632SOL    HW131355   1.287   1.060  13.721 -0.4874  1.7550  2.0899
 6632SOL    HW231356   1.434   1.067  13.763 -0.6468  0.1957 -1.7126
 6633SOL     OW31357   4.366   0.448  15.913  0.2880  0.4635 -0.1574
 6633SOL    HW131358   4.318   0.530  15.898  3.2251  2.1610 -0.2695
 6633SOL    HW231359   4.368   0.448  16.008 -0.7814  0.2632 -0.1319
 6634SOL     OW31360   0.641   1.149   6.570 -0.1995 -0.1904  0.3780
 6634SOL    HW131361   0.677   1.237   6.568 -2.5506  0.7916  0.6134
 6634SOL    HW231362   0.666   1.125   6.659  2.7884  2.5550  0.2616
 6635SOL     OW31363   0.119   3.059   5.795  0.1018 -0.1345 -0.2422
 6635SOL    HW131364   0.031   3.078   5.829 -0.3497  0.8326 -1.9461
 6635SOL    HW231365   0.094   2.987   5.737  0.9769 -1.1830  0.7063
 6636SOL     OW31366   3.960   1.480  10.423 -0.1579  0.1260 -0.3443
 6636SOL    HW131367   3.959   1.514  10.512 -1.0856 -2.5579  0.6330
 6636SOL    HW231368   3.938   1.561  10.376  0.4983  1.0815  1.0071
 6637SOL     OW31369   4.334   1.383   7.302  0.1731 -0.0722  0.1251
 6637SOL    HW131370   4.261   1.348   7.353 -0.0752  2.5850  1.5815
 6637SOL    HW231371   4.414   1.348   7.341 -0.2174  0.3533  1.3107
 6638SOL     OW31372   4.050   1.442   7.161 -0.3761  0.1502 -0.1592
 6638SOL    HW131373   4.042   1.517   7.219 -0.6721  1.1302 -1.4735
 6638SOL    HW231374   3.958   1.421   7.142 -0.7993  0.7588  1.3017
 6639SOL     OW31375   2.498   1.659   7.149  0.3254 -0.5160  0.2926
 6639SOL    HW131376   2.572   1.656   7.088 -1.0978 -2.8246 -1.2837
 6639SOL    HW231377   2.433   1.705   7.097  1.5498  3.0889  1.9450
 6640SOL     OW31378   2.798   3.980  16.629  0.4765 -0.2469 -0.5712
 6640SOL    HW131379   2.777   4.056  16.683 -2.9032 -2.5144  1.2643
 6640SOL    HW231380   2.865   3.944  16.687  0.5491 -1.1502 -1.2262
 6641SOL     OW31381   1.813   2.743   0.589  0.0136 -0.2150  0.3760
 6641SOL    HW131382   1.776   2.724   0.675  1.4543 -0.6692  0.8949
 6641SOL    HW231383   1.774   2.828   0.566  0.8087  0.0841  0.1473
 6642SOL     OW31384   1.183   4.507  15.093 -0.0463 -0.0732  0.0275
 6642SOL    HW131385   1.203   4.552  15.011 -1.7950 -2.4521 -1.7002
 6642SOL    HW231386   1.227   4.423  15.101 -0.8066 -0.2244  2.7063
 6643SOL     OW31387   3.564   3.086   0.353 -0.4232 -0.2520 -0.6385
 6643SOL    HW131388   3.471   3.073   0.335 -0.4222 -0.7469 -0.3129
 6643SOL    HW231389   3.585   2.999   0.388 -0.7571  0.2973  0.9390
 6644SOL     OW31390   2.330   2.884   8.967  0.0678  0.6974 -0.7226
 6644SOL    HW131391   2.374   2.799   8.968 -2.3714 -0.5875 -1.6063
 6644SOL    HW231392   2.260   2.888   9.032  0.5315  0.0104 -0.1746
 6645SOL     OW31393   0.558   1.568   3.736  0.2196 -0.2959  0.0065
 6645SOL    HW131394   0.566   1.660   3.760 -1.4028  0.0852 -0.8733
 6645SOL    HW231395   0.526   1.563   3.646  1.0094  0.0305 -0.2918
 6646SOL     OW31396   0.299   0.758  12.102  0.3169 -0.2984 -0.3639
 6646SOL    HW131397   0.273   0.668  12.083 -0.9208 -0.4160  1.9841
 6646SOL    HW231398   0.216   0.805  12.109  0.9469  0.3199  2.5190
 6647SOL     OW31399   1.152   2.061   9.083  0.1895 -0.0157  0.4617
 6647SOL    HW131400   1.193   2.100   9.006  1.3785  2.4399  2.3529
 6647SOL    HW231401   1.223   2.036   9.143  0.6176 -3.1367 -1.3266
 6648SOL     OW31402   4.431   0.335  17.283 -0.1578 -0.2470 -0.3568
 6648SOL    HW131403   4.424   0.384  17.202  1.3416  0.1877 -0.2223
 6648SOL    HW231404   4.341   0.303  17.292  0.2662 -1.1531  0.7745
 6649SOL     OW31405   0.756   2.852   0.692 -0.0627  0.0821 -0.1813
 6649SOL    HW131406   0.730   2.798   0.617  3.0700 -0.8799 -0.5651
 6649SOL    HW231407   0.809   2.794   0.746  0.6483  0.5842 -0.3431
 6650SOL     OW31408   2.877   2.071   7.278  0.1934 -0.0786 -0.2966
 6650SOL    HW131409   2.889   2.132   7.351 -1.3960 -1.2732  0.9584
 6650SOL    HW231410   2.965   2.038   7.261 -0.3829 -0.6641 -2.1373
 6651SOL     OW31411   1.076   2.187  12.540 -0.2444 -0.0944 -0.2490
 6651SOL    HW131412   1.043   2.147  12.620  0.4237 -0.0172  0.0588
 6651SOL    HW231413   1.014   2.258  12.524 -1.4234 -0.3806  3.0174
 6652SOL     OW31414   3.601   1.879   5.853 -0.3196  0.0572 -0.3664
 6652SOL    HW131415   3.619   1.814   5.785 -0.7718 -0.6226  0.1603
 6652SOL    HW231416   3.646   1.840   5.928 -1.8334  1.1339  1.1032
 6653SOL     OW31417   3.331   4.040   9.766  0.0060 -0.2584 -0.1913
 6653SOL    HW131418   3.312   4.033   9.860  0.1720 -1.4843 -0.2585
 6653SOL    HW231419   3.244   4.015   9.734 -0.4541  2.2675 -0.9436
 6654SOL     OW31420   0.885   3.221   6.075  0.3486  0.2562  0.1613
 6654SOL    HW131421   0.922   3.258   6.156  2.2752  1.0693 -1.0725
 6654SOL    HW231422   0.825   3.156   6.111  0.5794  0.0152  0.1099
 6655SOL     OW31423   2.919   2.321   4.283 -0.1450 -0.2258  0.3043
 6655SOL    HW131424   2.965   2.288   4.360  1.1731  0.3989 -0.2148
 6655SOL    HW231425   2.953   2.257   4.222  1.0804  0.0341  0.7210
 6656SOL     OW31426   3.953   4.513  11.225 -0.3657  0.1207  0.4795
 6656SOL    HW131427   3.992   4.559  11.300  0.5478  1.6097 -0.9018
 6656SOL    HW231428   3.984   4.563  11.150  0.1327  0.8036  1.1334
 6657SOL     OW31429   3.322   1.783   1.224 -0.0793  0.6827 -0.6320
 6657SOL    HW131430   3.370   1.858   1.258 -0.4459  0.7237 -0.2136
 6657SOL    HW231431   3.238   1.786   1.268 -1.2472 -0.4919 -2.7559
 6658SOL     OW31432   0.723   2.064   9.676 -0.4001  0.4614 -0.3197
 6658SOL    HW131433   0.717   2.025   9.590  2.7684 -1.2841  0.2582
 6658SOL    HW231434   0.803   2.117   9.672  0.8163 -1.2017  2.2537
 6659SOL     OW31435   0.249   3.609   5.095 -0.3621  0.0401 -0.0810
 6659SOL    HW131436   0.281   3.559   5.020  0.9106  0.7212 -0.0007
 6659SOL    HW231437   0.158   3.611   5.067 -0.9211 -0.5004  1.7024
 6660SOL     OW31438   1.333   3.132   5.306  0.1118  0.3891  0.1395
 6660SOL    HW131439   1.277   3.086   5.369 -0.1700 -1.6954 -1.6457
 6660SOL    HW231440   1.328   3.225   5.330 -1.5341  0.6690 -1.3567
 6661SOL     OW31441   1.538   1.846   8.666 -0.2930 -0.7390  0.0120
 6661SOL    HW131442   1.607   1.788   8.635  0.4668 -0.1643  0.6407
 6661SOL    HW231443   1.595   1.891   8.729 -0.3650 -0.6896  0.0423
 6662SOL     OW31444   3.871   3.932  17.318 -0.0542  0.0911 -0.1017
 6662SOL    HW131445   3.830   3.923  17.404 -3.1770  0.6760 -1.5554
 6662SOL    HW231446   3.796   3.936  17.259  0.6142 -0.7299 -1.0202
 6663SOL     OW31447   2.701   0.978   6.881  0.2349  0.0118 -0.9486
 6663SOL    HW131448   2.634   0.974   6.949  0.9331 -1.2566 -0.3369
 6663SOL    HW231449   2.706   0.884   6.866 -0.4254 -0.1089 -0.4034
 6664SOL     OW31450   3.203   1.324   8.604 -0.1282  0.0500 -0.1786
 6664SOL    HW131451   3.260   1.396   8.630 -0.9879  0.8970 -0.6288
 6664SOL    HW231452   3.131   1.376   8.566 -0.4649 -0.0094  0.3755
 6665SOL     OW31453   1.633   3.679   6.508  0.1257 -0.7475  0.5244
 6665SOL    HW131454   1.627   3.709   6.599  0.6345  0.0726  0.2944
 6665SOL    HW231455   1.704   3.741   6.490 -0.0955 -0.9544 -1.0239
 6666SOL     OW31456   3.407   1.838  10.152 -0.5338 -0.0147 -0.2127
 6666SOL    HW131457   3.484   1.804  10.199 -0.3773  1.6297  0.7447
 6666SOL    HW231458   3.390   1.763  10.096  0.7412 -1.5631  1.4585
 6667SOL     OW31459   0.764   2.017   9.149 -0.1394  0.1742  0.6383
 6667SOL    HW131460   0.836   1.981   9.098 -0.1873  2.2713 -0.9162
 6667SOL    HW231461   0.685   2.010   9.095 -0.1308  4.6316  0.0812
 6668SOL     OW31462   0.535   1.338   2.493  0.1324  0.1132 -0.0897
 6668SOL    HW131463   0.488   1.279   2.433  0.2856  1.3186 -1.4071
 6668SOL    HW231464   0.469   1.347   2.561  1.9584  0.4681  1.6233
 6669SOL     OW31465   1.733   2.554   4.503 -0.0689  0.3943 -0.3103
 6669SOL    HW131466   1.786   2.517   4.433 -2.1571 -0.5913 -1.3533
 6669SOL    HW231467   1.701   2.471   4.537 -0.4089 -0.3726 -2.5176
 6670SOL     OW31468   0.699   4.230  14.608  0.2505 -0.1079 -0.3143
 6670SOL    HW131469   0.636   4.301  14.619 -0.5393 -0.6762 -1.1850
 6670SOL    HW231470   0.636   4.159  14.617  1.9683 -1.4970  0.9909
 6671SOL     OW31471   0.085   3.884   7.998  0.1468 -0.4752 -0.2409
 6671SOL    HW131472   0.078   3.812   8.061 -2.0655  0.4292  0.5448
 6671SOL    HW231473   0.020   3.861   7.931 -0.8820  1.2557  0.1639
 6672SOL     OW31474   3.456   3.960  14.688 -0.2199  0.0459 -0.7368
 6672SOL    HW131475   3.476   3.961  14.594 -0.7938  1.8735 -0.8402
 6672SOL    HW231476   3.544   3.960  14.724 -0.3480  2.0427 -0.4529
 6673SOL     OW31477   3.520   4.142  15.606 -0.8906  0.5634 -0.6137
 6673SOL    HW131478   3.588   4.203  15.634  1.4348 -3.4090  2.5604
 6673SOL    HW231479   3.503   4.179  15.520  0.4470  0.2942 -0.9943
 6674SOL     OW31480   4.261   3.103   6.127 -0.6206 -0.1527  0.3574
 6674SOL    HW131481   4.222   3.191   6.125  1.4730  0.7405 -1.9732
 6674SOL    HW231482   4.227   3.070   6.044  2.3926  0.3736 -1.0716
 6675SOL     OW31483   3.947   0.804   3.675 -0.0282  0.2794  0.3699
 6675SOL    HW131484   4.002   0.756   3.737  2.7514  0.2565 -2.0789
 6675SOL    HW231485   3.929   0.741   3.605 -0.1360 -1.0556  1.6196
 6676SOL     OW31486   0.441   1.741   3.027  0.2350  0.1658  0.0001
 6676SOL    HW131487   0.423   1.650   3.051 -0.0567  0.4397  0.8406
 6676SOL    HW231488   0.491   1.729   2.947  1.6688 -0.9360  1.0484
 6677SOL     OW31489   4.247   3.505   7.264  0.1523  0.7928 -0.3003
 6677SOL    HW131490   4.339   3.480   7.258  0.5676  2.3905 -0.5292
 6677SOL    HW231491   4.245   3.596   7.235 -1.3179  1.3519  1.6257
 6678SOL     OW31492   3.658   2.383  17.429  0.0166  0.1262 -0.2028
 6678SOL    HW131493   3.617   2.418  17.350  0.1372  0.0368 -0.3053
 6678SOL    HW231494   3.740   2.433  17.435  0.6403 -1.2239  2.5909
 6679SOL     OW31495   4.080   1.384   7.791 -0.2435  0.0912  0.1775
 6679SOL    HW131496   4.046   1.460   7.837 -0.6294  0.7486 -1.1969
 6679SOL    HW231497   4.100   1.433   7.711  0.6451 -1.6156 -0.6657
 6680SOL     OW31498   3.777   3.085   7.131  0.2064  0.5431 -0.0916
 6680SOL    HW131499   3.803   3.177   7.121  1.3803  0.3365  0.9994
 6680SOL    HW231500   3.729   3.069   7.050 -2.7429 -1.7433  2.1150
 6681SOL     OW31501   2.204   2.801   2.210  0.0470 -0.4762 -0.0685
 6681SOL    HW131502   2.224   2.786   2.302  3.2920 -1.2246 -0.8949
 6681SOL    HW231503   2.203   2.896   2.216  0.9132 -0.4770  0.0541
 6682SOL     OW31504   0.702   1.474   1.153  0.4371 -0.6918 -0.4163
 6682SOL    HW131505   0.670   1.431   1.233 -0.7025  1.7169  0.4299
 6682SOL    HW231506   0.722   1.397   1.101 -0.4741 -0.9245 -0.4357
 6683SOL     OW31507   2.876   4.692  11.876 -0.2762 -0.0951  0.5058
 6683SOL    HW131508   2.823   4.702  11.955  2.2809  1.0238  2.0573
 6683SOL    HW231509   2.844   4.608  11.844  2.1770 -0.8391  0.0731
 6684SOL     OW31510   2.525   2.159   3.250  0.1282  0.1393  0.3114
 6684SOL    HW131511   2.484   2.076   3.226 -0.3254  1.1031 -2.2275
 6684SOL    HW231512   2.532   2.196   3.163 -0.0011 -1.4405 -0.3759
 6685SOL     OW31513   1.547   4.209   3.513 -0.5272 -0.1038  0.1942
 6685SOL    HW131514   1.456   4.196   3.538 -0.4491  1.7181  1.4513
 6685SOL    HW231515   1.579   4.196   3.603 -1.6713  2.0766  0.9299
 6686SOL     OW31516   0.130   0.269   7.309  0.3072 -0.0589 -0.4513
 6686SOL    HW131517   0.226   0.274   7.317 -0.0680 -0.2176  4.2697
 6686SOL    HW231518   0.111   0.355   7.346  2.3147  0.9525 -1.7673
 6687SOL     OW31519   0.265   0.948   3.964 -0.4183  0.5651 -0.1287
 6687SOL    HW131520   0.204   0.957   3.891 -0.5386  1.1709  0.0482
 6687SOL    HW231521   0.320   0.876   3.934  0.6033  1.3570 -0.1550
 6688SOL     OW31522   2.655   0.399   8.967 -0.0644  0.1680  0.2387
 6688SOL    HW131523   2.627   0.308   8.956  0.2172  0.3162 -1.8018
 6688SOL    HW231524   2.722   0.396   9.036 -0.5796  3.4879  0.8416
 6689SOL     OW31525   4.332   1.279  11.767  0.2060  0.4680  0.3231
 6689SOL    HW131526   4.343   1.356  11.823 -1.2814  0.4380  0.6799
 6689SOL    HW231527   4.239   1.266  11.788  0.0255 -3.4187 -2.7987
 6690SOL     OW31528   1.652   1.734   3.686  0.1443  0.2102  0.2143
 6690SOL    HW131529   1.687   1.818   3.655  0.7389 -1.8440 -4.6075
 6690SOL    HW231530   1.564   1.729   3.650 -1.1042 -3.0165  3.7534
 6691SOL     OW31531   4.100   0.605   7.530  0.1122 -0.2064 -0.2215
 6691SOL    HW131532   4.112   0.620   7.624  0.9709  1.1179 -0.5480
 6691SOL    HW231533   4.183   0.564   7.507  0.2647 -1.7265  3.0068
 6692SOL     OW31534   1.186   4.680   5.292  0.0670  0.0081  0.2066
 6692SOL    HW131535   1.169   4.589   5.315 -2.9823  0.2440 -1.1094
 6692SOL    HW231536   1.204   4.708   5.382  1.2995 -0.3971  0.0767
 6693SOL     OW31537   2.030   2.221   3.145 -0.2450  0.3123  0.0001
 6693SOL    HW131538   1.945   2.249   3.111 -0.2020 -0.0886 -0.4328
 6693SOL    HW231539   2.089   2.293   3.122  1.0127  0.0838  2.4766
 6694SOL     OW31540   4.538   4.220  17.416  0.2212 -0.4958  0.1176
 6694SOL    HW131541   4.460   4.260  17.454  1.0753  0.7705  0.5556
 6694SOL    HW231542   4.520   4.126  17.417  2.0098 -0.8293  0.1172
 6695SOL     OW31543   0.996   3.767  16.172  0.1672 -0.4254 -0.5224
 6695SOL    HW131544   0.937   3.754  16.246  0.7480  0.4371  0.1000
 6695SOL    HW231545   0.981   3.860  16.152  1.1502 -0.4759 -1.5115
 6696SOL     OW31546   1.136   0.099  13.158 -0.3019  0.2941 -0.3415
 6696SOL    HW131547   1.166   0.082  13.069  0.9275  1.4565 -0.1524
 6696SOL    HW231548   1.084   0.023  13.181  0.2635  0.0711  0.2041
 6697SOL     OW31549   0.841   0.149  14.180  0.4782 -0.8019  0.0803
 6697SOL    HW131550   0.839   0.065  14.225 -3.5784 -1.3374 -1.0973
 6697SOL    HW231551   0.936   0.166  14.175  0.5937 -1.8470 -1.2393
 6698SOL     OW31552   0.834   2.407   4.220  0.1991  0.1836 -0.5719
 6698SOL    HW131553   0.884   2.404   4.301  1.0571  1.0503 -1.0667
 6698SOL    HW231554   0.827   2.313   4.206  3.1516 -0.3872  1.6878
 6699SOL     OW31555   4.061   4.360   5.930  0.1096  0.1320  0.2022
 6699SOL    HW131556   4.032   4.397   5.847 -0.6430  0.4244  0.5948
 6699SOL    HW231557   4.025   4.424   5.991  1.2619  1.6022 -0.6623
 6700SOL     OW31558   4.271   0.002   2.207 -0.1685  0.5732 -0.0703
 6700SOL    HW131559   4.350   4.702   2.158 -0.7258  1.5676 -1.4681
 6700SOL    HW231560   4.210   0.013   2.134 -1.0285  2.0253  0.8638
 6701SOL     OW31561   3.168   4.346   9.719  0.1197  0.8706 -0.1194
 6701SOL    HW131562   3.235   4.413   9.706  0.6438  0.4491  0.3841
 6701SOL    HW231563   3.163   4.300   9.636  0.8479 -2.4300  1.6613
 6702SOL     OW31564   3.103   3.051   4.442 -0.2029 -0.3905 -0.4231
 6702SOL    HW131565   3.166   3.122   4.425 -0.2161 -0.3794 -0.4261
 6702SOL    HW231566   3.071   3.044   4.352  1.8718  0.9622 -1.2677
 6703SOL     OW31567   4.463   4.652  17.446  0.5344 -0.6495 -0.5401
 6703SOL    HW131568   4.551   4.678  17.472 -0.7365  2.3646  0.8436
 6703SOL    HW231569   4.475   4.674  17.354  1.5965  1.3923  0.0809
 6704SOL     OW31570   3.185   4.213   6.132  0.2866 -0.1498 -0.4643
 6704SOL    HW131571   3.251   4.276   6.160 -0.9473  1.8562 -2.0248
 6704SOL    HW231572   3.138   4.275   6.076 -1.0744  0.2497  1.1385
 6705SOL     OW31573   4.264   0.923  17.172 -0.2200  0.1730  0.4154
 6705SOL    HW131574   4.289   0.930  17.080  1.1217  1.2188  0.8661
 6705SOL    HW231575   4.198   0.992  17.169 -0.9140 -0.5393 -0.9823
 6706SOL     OW31576   2.897   2.159  10.283  0.1542  0.0760 -0.1571
 6706SOL    HW131577   2.856   2.135  10.366 -3.3533  2.6783 -1.0969
 6706SOL    HW231578   2.917   2.251  10.302 -2.6825  0.2423  2.0033
 6707SOL     OW31579   3.451   3.217   7.706  0.4659  0.4825  0.1669
 6707SOL    HW131580   3.412   3.300   7.678  1.4987  1.1444  0.6526
 6707SOL    HW231581   3.451   3.173   7.621  2.0099  0.3541  0.2251
 6708SOL     OW31582   2.743   1.125   7.971  0.4363 -0.2438  0.3912
 6708SOL    HW131583   2.682   1.053   7.954  0.8971 -0.0909 -1.9930
 6708SOL    HW231584   2.813   1.083   8.021 -0.8161 -0.0964  2.2361
 6709SOL     OW31585   4.163   3.844   6.794 -0.1324  0.1022 -0.4530
 6709SOL    HW131586   4.237   3.845   6.855 -1.0725  1.8268  0.6352
 6709SOL    HW231587   4.096   3.861   6.859 -0.8886 -1.3673 -0.8567
 6710SOL     OW31588   0.660   0.321   3.660  0.5241 -0.7554 -0.4436
 6710SOL    HW131589   0.640   0.236   3.699 -0.5286 -0.2565  0.0782
 6710SOL    HW231590   0.569   0.350   3.657  0.0066 -2.2948  0.1293
 6711SOL     OW31591   0.325   2.716   5.230 -0.0251 -0.1439  0.1534
 6711SOL    HW131592   0.252   2.773   5.206 -1.7271 -1.5825  1.9157
 6711SOL    HW231593   0.387   2.784   5.253  0.3868 -0.0746 -1.1587
 6712SOL     OW31594   4.527   0.452   5.283  0.9100  0.2458 -0.0962
 6712SOL    HW131595   4.524   0.545   5.261 -0.2071  0.3225  0.3623
 6712SOL    HW231596   4.434   0.427   5.279  0.8458  0.5286 -0.4361
 6713SOL     OW31597   0.009   4.682   3.712 -0.4325 -0.9429  0.4800
 6713SOL    HW131598   4.720   4.677   3.807  0.6467 -0.0806  0.6719
 6713SOL    HW231599   4.680   4.606   3.689 -0.5479 -0.3514 -1.2159
 6714SOL     OW31600   3.295   3.247   3.283 -0.3058  0.1033 -0.1009
 6714SOL    HW131601   3.374   3.292   3.254  0.7405  0.1274  2.7391
 6714SOL    HW231602   3.257   3.310   3.345 -1.1778 -1.3989  0.9080
 6715SOL     OW31603   2.861   0.412   9.648 -0.5184  0.0826  0.2974
 6715SOL    HW131604   2.810   0.338   9.614  1.6394 -1.8987  1.3396
 6715SOL    HW231605   2.950   0.381   9.633 -1.5279 -2.1044 -1.2708
 6716SOL     OW31606   3.239   1.233   8.013 -0.4758  0.1263 -0.0887
 6716SOL    HW131607   3.226   1.138   8.019 -0.6609  0.1863  0.4669
 6716SOL    HW231608   3.332   1.250   8.025 -0.8607  2.6917 -0.7979
 6717SOL     OW31609   3.045   1.323  15.138  0.2004 -0.4511  0.3543
 6717SOL    HW131610   2.996   1.336  15.219  0.3760  0.2517  0.3480
 6717SOL    HW231611   3.012   1.392  15.080  1.9901  0.5655  0.5624
 6718SOL     OW31612   2.554   4.341   7.653 -0.1834  0.5574  0.0677
 6718SOL    HW131613   2.512   4.405   7.594 -0.0553  0.1844 -0.4306
 6718SOL    HW231614   2.603   4.401   7.709 -1.5773  1.6174  0.1481
 6719SOL     OW31615   3.342   4.434   6.916  0.2261  0.1401 -0.3529
 6719SOL    HW131616   3.301   4.498   6.858  1.1458  0.5098 -0.5862
 6719SOL    HW231617   3.264   4.405   6.963  1.0185 -0.2344  0.7378
 6720SOL     OW31618   4.149   0.683   9.989 -0.4430 -0.2865 -0.0808
 6720SOL    HW131619   4.103   0.767   9.987  0.8808  0.4514  0.0404
 6720SOL    HW231620   4.072   0.632  10.016  0.7387 -1.2295  1.5631
 6721SOL     OW31621   4.323   2.428   2.485  0.4210  0.1756 -0.1441
 6721SOL    HW131622   4.279   2.513   2.477  0.2990  0.1736  0.4842
 6721SOL    HW231623   4.369   2.445   2.567  1.5271 -0.0948 -0.7161
 6722SOL     OW31624   2.389   1.121  12.116 -0.0206 -0.7648  0.9176
 6722SOL    HW131625   2.319   1.151  12.057 -0.3449 -1.0285  1.1771
 6722SOL    HW231626   2.443   1.063  12.062  1.2329 -0.1382  1.5037
 6723SOL     OW31627   2.395   2.109   3.925 -0.1182 -0.4273  0.6600
 6723SOL    HW131628   2.342   2.142   3.997  0.5502  2.2863 -0.0627
 6723SOL    HW231629   2.426   2.028   3.964 -0.7532 -0.6917  0.6002
 6724SOL     OW31630   2.909   1.924   3.305  0.6491 -0.7205  0.1237
 6724SOL    HW131631   2.897   1.883   3.219  1.2666  0.1036 -0.3581
 6724SOL    HW231632   2.871   1.853   3.358  0.5495 -1.9681 -1.6008
 6725SOL     OW31633   0.854   3.940  11.625  0.2893  0.2533 -0.3278
 6725SOL    HW131634   0.798   4.001  11.674 -1.1885  0.3486 -2.1634
 6725SOL    HW231635   0.937   3.962  11.668  0.8700 -0.7889 -0.9144
 6726SOL     OW31636   1.573   2.589   9.061 -0.3250  0.2734 -0.4801
 6726SOL    HW131637   1.523   2.670   9.067 -1.4063 -0.5896  2.5881
 6726SOL    HW231638   1.602   2.574   9.151 -0.8290 -0.0193 -0.3641
 6727SOL     OW31639   4.686   1.027   8.685  0.3564  0.9040  0.0676
 6727SOL    HW131640   4.724   1.113   8.665  0.0126  1.4420  1.7757
 6727SOL    HW231641   4.720   0.985   8.763  1.3073  1.5731  0.0090
 6728SOL     OW31642   2.187   0.946  17.348  0.0389  0.2894  0.4561
 6728SOL    HW131643   2.124   0.956  17.277 -0.2431 -0.7010  0.5733
 6728SOL    HW231644   2.240   1.024  17.330 -2.1708  1.0256 -2.9106
 6729SOL     OW31645   0.604   3.379   7.961  0.2415  0.0907  0.1384
 6729SOL    HW131646   0.611   3.315   7.890 -2.6923  1.8059 -1.7447
 6729SOL    HW231647   0.542   3.338   8.022  0.9233  0.0824  0.8228
 6730SOL     OW31648   0.170   2.774   2.916  0.6561  0.1446 -0.0455
 6730SOL    HW131649   0.156   2.863   2.946 -0.9643 -0.5812  1.3362
 6730SOL    HW231650   0.219   2.738   2.990  0.3269  0.1238  0.1601
 6731SOL     OW31651   1.602   1.360   4.391 -0.4380  0.1764  0.1734
 6731SOL    HW131652   1.649   1.394   4.467 -1.7357 -1.8724  1.8717
 6731SOL    HW231653   1.660   1.371   4.315  0.4703 -4.9286  0.0810
 6732SOL     OW31654   3.619   1.018   4.707  0.3545  0.0583 -0.0856
 6732SOL    HW131655   3.647   0.962   4.779 -0.1889  0.2344  0.2640
 6732SOL    HW231656   3.697   1.073   4.704  0.0582  0.3935 -1.6265
 6733SOL     OW31657   2.456   3.879   9.776  0.3719  0.2503  0.0409
 6733SOL    HW131658   2.531   3.892   9.717  2.6393 -1.5293  2.5418
 6733SOL    HW231659   2.492   3.907   9.860 -2.4967  0.3059  1.2596
 6734SOL     OW31660   2.367   2.527   7.926 -0.4506 -0.0836  0.9493
 6734SOL    HW131661   2.365   2.473   8.005  1.8511  1.4977  2.0942
 6734SOL    HW231662   2.463   2.527   7.917 -0.4831 -1.9461  0.5213
 6735SOL     OW31663   3.009   2.628   8.904  0.1568  0.0419  0.1914
 6735SOL    HW131664   3.014   2.542   8.946 -1.5275 -0.5075 -0.7448
 6735SOL    HW231665   3.079   2.665   8.958 -0.3649  0.4659  0.5859
 6736SOL     OW31666   2.790   4.532   7.518 -0.0219  0.4010 -0.7919
 6736SOL    HW131667   2.755   4.584   7.446  0.3698 -1.9502 -2.6849
 6736SOL    HW231668   2.798   4.448   7.474 -0.4780  0.0236 -0.1464
 6737SOL     OW31669   0.608   0.944   6.190  0.0873  0.0270 -0.2224
 6737SOL    HW131670   0.602   0.875   6.257  1.5106  1.1452  1.0699
 6737SOL    HW231671   0.556   1.009   6.236  0.4916 -0.7105  1.2878
 6738SOL     OW31672   0.586   1.205   8.743 -0.5275 -0.1593 -0.0825
 6738SOL    HW131673   0.532   1.209   8.821  1.8421  1.1244  1.4923
 6738SOL    HW231674   0.527   1.149   8.692 -1.8043  0.2406  0.9463
 6739SOL     OW31675   1.600   4.048   1.592  0.2362  0.0865  0.7676
 6739SOL    HW131676   1.532   4.006   1.646 -1.7159 -1.0627 -2.6149
 6739SOL    HW231677   1.613   3.977   1.529 -0.2919  1.0306 -0.4028
 6740SOL     OW31678   4.449   3.621   8.208  0.1457 -0.2535  0.1559
 6740SOL    HW131679   4.406   3.540   8.181  0.0845  0.3947 -1.6553
 6740SOL    HW231680   4.536   3.605   8.171  1.3690 -1.4236  3.5441
 6741SOL     OW31681   3.636   3.974   6.033  0.1120  0.1813  0.4478
 6741SOL    HW131682   3.612   4.061   6.002  1.7739  0.5268  0.1548
 6741SOL    HW231683   3.562   3.921   6.003  0.1964 -0.3389  1.1510
 6742SOL     OW31684   3.356   3.381   1.419 -0.2960 -0.0141 -0.3234
 6742SOL    HW131685   3.377   3.457   1.474  3.6140  0.4513 -2.5204
 6742SOL    HW231686   3.292   3.328   1.467  2.5597 -1.3472  2.0233
 6743SOL     OW31687   2.339   1.716  12.981  0.0874 -0.2124  0.3742
 6743SOL    HW131688   2.421   1.736  12.935 -0.3083 -1.3472 -0.8179
 6743SOL    HW231689   2.335   1.621  12.985  0.2116 -0.1606  1.7984
 6744SOL     OW31690   0.622   2.906   5.013 -0.1316 -0.0709 -0.5772
 6744SOL    HW131691   0.615   2.811   5.003  1.2995 -0.5822  3.2147
 6744SOL    HW231692   0.579   2.921   5.097 -1.1781  2.3302 -1.5393
 6745SOL     OW31693   3.486   4.355   4.157 -0.2832  0.1170  0.2208
 6745SOL    HW131694   3.552   4.424   4.149  3.0051 -2.9922  0.4072
 6745SOL    HW231695   3.537   4.287   4.113 -1.7668  0.1727 -1.5626
 6746SOL     OW31696   0.501   0.390   5.650  0.3757 -0.3820  0.9050
 6746SOL    HW131697   0.466   0.474   5.619 -0.5719 -0.9797  0.3463
 6746SOL    HW231698   0.422   0.367   5.699 -1.1858  0.2661 -1.3118
 6747SOL     OW31699   3.646   3.888  15.638  0.5887  0.0069  0.0988
 6747SOL    HW131700   3.715   3.904  15.702  0.5653 -1.1521  0.4135
 6747SOL    HW231701   3.582   3.959  15.643  1.7867  1.1466 -0.5033
 6748SOL     OW31702   3.819   1.644   0.061 -0.0351 -0.0889 -0.2827
 6748SOL    HW131703   3.905   1.670   0.095 -0.1959  1.8536 -1.3364
 6748SOL    HW231704   3.853   1.620  17.673 -0.5407 -2.5751  0.2109
 6749SOL     OW31705   1.208   2.471   5.793  0.5961  0.7013  0.2465
 6749SOL    HW131706   1.115   2.476   5.771  0.4956 -1.2229  0.1700
 6749SOL    HW231707   1.220   2.376   5.797 -0.4444  0.5122 -1.1669
 6750SOL     OW31708   4.273   0.381   4.112  0.7172  0.6739 -0.2510
 6750SOL    HW131709   4.282   0.399   4.019 -0.4313  1.1507 -0.2734
 6750SOL    HW231710   4.193   0.327   4.112  0.9163  0.3536  2.7865
 6751SOL     OW31711   2.104   0.611   5.017  0.4307  0.5080 -0.0742
 6751SOL    HW131712   2.109   0.628   4.923  2.0254 -2.8550 -0.5743
 6751SOL    HW231713   2.193   0.633   5.044  1.2112 -1.3606 -1.1214
 6752SOL     OW31714   2.253   4.108   6.561  0.4897  0.5184  0.5119
 6752SOL    HW131715   2.261   4.183   6.503  1.0460 -0.1689 -0.3033
 6752SOL    HW231716   2.199   4.143   6.631  0.2734 -1.6760  1.4460
 6753SOL     OW31717   0.790   1.263   5.573 -0.4890  0.1896 -0.4242
 6753SOL    HW131718   0.788   1.168   5.589 -0.0655  0.4145  1.0042
 6753SOL    HW231719   0.797   1.306   5.658  2.4151  2.2245 -1.6919
 6754SOL     OW31720   3.912   0.199   2.971 -0.7200  0.4168  0.0088
 6754SOL    HW131721   3.939   0.238   2.888 -0.7213  0.6301  0.1077
 6754SOL    HW231722   3.926   0.110   2.940 -0.1878  0.5564 -0.1534
 6755SOL     OW31723   4.349   0.877   3.807  0.2774  1.1701 -0.4531
 6755SOL    HW131724   4.287   0.890   3.879 -1.1188 -1.5284 -1.1961
 6755SOL    HW231725   4.409   0.948   3.832 -0.2317  0.9546  1.4051
 6756SOL     OW31726   0.757   0.747   2.859  0.1369  0.4351  0.2538
 6756SOL    HW131727   0.809   0.790   2.927  0.7242 -1.3347  0.9335
 6756SOL    HW231728   0.696   0.693   2.911  0.9311 -0.5210  0.1990
 6757SOL     OW31729   3.527   0.890   4.475  0.3042 -0.2073 -0.4384
 6757SOL    HW131730   3.571   0.943   4.542 -1.5793  2.8431 -1.5860
 6757SOL    HW231731   3.436   0.898   4.501  1.1582  1.3292  2.1118
 6758SOL     OW31732   3.180   2.611   3.465  0.1148  0.7676 -0.1545
 6758SOL    HW131733   3.155   2.537   3.410 -0.7947  0.8496  0.1428
 6758SOL    HW231734   3.156   2.578   3.551 -1.3520 -0.1143 -0.9037
 6759SOL     OW31735   2.719   0.131   2.599  0.4237 -0.0323 -0.8994
 6759SOL    HW131736   2.702   0.224   2.584  0.8522 -0.1547 -2.0955
 6759SOL    HW231737   2.628   0.104   2.586  0.7040 -0.6122 -1.6314
 6760SOL     OW31738   4.416   3.545  11.729  0.1193 -0.5598 -0.4902
 6760SOL    HW131739   4.387   3.609  11.794 -1.3969 -0.4676 -1.2629
 6760SOL    HW231740   4.483   3.506  11.785 -0.8927 -1.0795  0.3533
 6761SOL     OW31741   2.928   2.013   8.808  0.6621 -0.1005  0.4523
 6761SOL    HW131742   2.882   2.054   8.735 -0.4606 -1.5982  0.3015
 6761SOL    HW231743   3.016   2.050   8.800  0.3382  0.5147 -0.2449
 6762SOL     OW31744   4.074   0.862   1.358 -0.3945  0.4123  0.4897
 6762SOL    HW131745   4.059   0.936   1.300 -2.5878 -1.5744 -1.4709
 6762SOL    HW231746   3.987   0.824   1.359  0.9770 -2.7708 -0.9459
 6763SOL     OW31747   0.313   4.071   7.425 -0.3363 -0.1715 -0.5175
 6763SOL    HW131748   0.395   4.030   7.396 -0.4384  0.7213 -2.0319
 6763SOL    HW231749   0.250   4.067   7.353  1.0234 -1.0268 -1.6554
 6764SOL     OW31750   1.612   3.193   5.358  0.4771  0.0863  0.6728
 6764SOL    HW131751   1.664   3.113   5.358  2.1590  1.1750 -0.3909
 6764SOL    HW231752   1.537   3.150   5.319  0.9014  0.2874 -0.3893
 6765SOL     OW31753   1.338   3.307  15.225  0.6858 -0.2572  0.0371
 6765SOL    HW131754   1.330   3.310  15.129  1.7493  0.8283 -0.0242
 6765SOL    HW231755   1.428   3.337  15.243  0.7363 -0.7349  0.5965
 6766SOL     OW31756   1.969   0.102  17.113  0.2340 -0.0618  0.1041
 6766SOL    HW131757   1.889   0.146  17.084 -0.6614 -1.3275  0.6726
 6766SOL    HW231758   1.958   0.021  17.064  1.0549 -0.5020  0.6381
 6767SOL     OW31759   1.596   1.888   1.348 -0.2861  0.3514 -0.0308
 6767SOL    HW131760   1.505   1.883   1.317 -0.4069  1.2533  0.1794
 6767SOL    HW231761   1.630   1.810   1.305  0.1012  0.3994  0.1900
 6768SOL     OW31762   3.619   4.685   6.424 -0.8744  0.5151  0.1170
 6768SOL    HW131763   3.598   4.657   6.513  2.4186 -1.0756  0.3709
 6768SOL    HW231764   3.572   0.044   6.420  0.9431  1.7138  3.8153
 6769SOL     OW31765   3.604   0.124  16.666 -0.4966  0.0164  0.1070
 6769SOL    HW131766   3.604   0.048  16.725 -0.6231 -0.2234 -0.2000
 6769SOL    HW231767   3.552   0.187  16.715 -1.2202  0.0275 -0.6677
 6770SOL     OW31768   2.522   1.717   4.724 -0.2326 -0.5003  0.6978
 6770SOL    HW131769   2.427   1.716   4.740 -0.5916  0.5195 -1.3278
 6770SOL    HW231770   2.540   1.627   4.749 -1.3736 -0.9568 -0.1090
 6771SOL     OW31771   2.505   4.327   7.221  0.1601  0.6580 -0.2921
 6771SOL    HW131772   2.507   4.393   7.290 -0.5386 -0.4639  0.7945
 6771SOL    HW231773   2.516   4.246   7.271 -0.6084  1.3402  0.9821
 6772SOL     OW31774   1.709   4.706   8.079  0.4416  0.1345 -0.5760
 6772SOL    HW131775   1.661   0.060   8.051 -0.0091  0.2382  0.5004
 6772SOL    HW231776   1.774   0.023   8.136 -1.9036  2.1722  0.6198
 6773SOL     OW31777   3.188   2.965   4.009  0.0542  0.1289  0.4311
 6773SOL    HW131778   3.111   2.980   4.063 -1.0388 -4.1300  0.1063
 6773SOL    HW231779   3.151   2.906   3.943  1.2281  1.4069 -1.3836
 6774SOL     OW31780   3.556   2.980   3.470  0.1333 -0.2781  0.6518
 6774SOL    HW131781   3.488   2.913   3.468 -0.1552  0.0315  0.0709
 6774SOL    HW231782   3.634   2.924   3.469  0.8159  0.6662  0.5065
 6775SOL     OW31783   3.553   4.569   0.593 -0.3567  0.0227 -0.3684
 6775SOL    HW131784   3.514   4.649   0.626 -0.3593  1.4053 -3.7684
 6775SOL    HW231785   3.642   4.587   0.624 -1.0230  2.9172 -0.1563
 6776SOL     OW31786   3.772   1.086   1.567  0.0231 -0.2383  0.4721
 6776SOL    HW131787   3.761   1.147   1.494 -0.6652 -0.3990  0.4415
 6776SOL    HW231788   3.705   1.116   1.629  1.3940  1.0362  1.3281
 6777SOL     OW31789   4.613   1.317  11.186  0.1688  0.4089 -0.2797
 6777SOL    HW131790   4.571   1.231  11.185  0.8361  0.0491  1.3951
 6777SOL    HW231791   4.618   1.339  11.094  2.3832  1.4581  0.0939
 6778SOL     OW31792   3.409   2.694   2.162 -0.3546 -0.1767  0.0367
 6778SOL    HW131793   3.430   2.618   2.109 -0.6249 -0.7714  0.7765
 6778SOL    HW231794   3.448   2.672   2.247 -0.6046  0.1445  0.2374
 6779SOL     OW31795   0.699   3.025   8.069  0.1405 -0.0738  0.2673
 6779SOL    HW131796   0.678   3.064   7.984  0.6559 -0.6320 -0.1094
 6779SOL    HW231797   0.767   2.960   8.053 -1.6651 -1.9526  0.2334
 6780SOL     OW31798   2.842   2.715   9.372  0.0446  0.4685 -0.0194
 6780SOL    HW131799   2.769   2.659   9.344  1.0102 -1.3435  1.0792
 6780SOL    HW231800   2.813   2.804   9.354  1.8580  0.9230 -0.6439
 6781SOL     OW31801   2.343   1.690   0.560 -0.7434 -0.1004 -0.4643
 6781SOL    HW131802   2.337   1.704   0.465 -3.2351  1.2239 -0.0929
 6781SOL    HW231803   2.334   1.595   0.557 -1.6548 -0.0377  0.3289
 6782SOL     OW31804   0.538   0.647   6.907 -0.1123  0.1273 -0.1062
 6782SOL    HW131805   0.468   0.711   6.909 -1.1082 -0.9654  0.1179
 6782SOL    HW231806   0.553   0.642   6.812  1.6270 -0.5956  0.1926
 6783SOL     OW31807   1.069   2.486   0.177  0.4228 -0.0785 -0.3625
 6783SOL    HW131808   1.114   2.562   0.140 -0.6857  1.2491  0.9822
 6783SOL    HW231809   1.065   2.508   0.270 -2.6232 -1.0223 -0.2552
 6784SOL     OW31810   3.901   1.842   2.665 -0.1263  0.3317  0.0972
 6784SOL    HW131811   3.935   1.800   2.586 -1.8832  0.8487 -0.9361
 6784SOL    HW231812   3.945   1.926   2.652  0.3341  0.0329 -0.3015
 6785SOL     OW31813   2.479   3.597   8.866 -0.0773  0.1379  0.0413
 6785SOL    HW131814   2.436   3.682   8.859 -1.1174 -0.2206  2.3488
 6785SOL    HW231815   2.479   3.596   8.961  2.3053  0.8303  0.0426
 6786SOL     OW31816   3.152   4.580   1.313 -0.0098  0.1876  0.3937
 6786SOL    HW131817   3.120   4.490   1.316 -0.7928  0.4066 -1.4957
 6786SOL    HW231818   3.108   4.600   1.231 -0.1919 -0.3644  0.3602
 6787SOL     OW31819   2.095   2.877   4.918  0.0221  0.3271  0.3038
 6787SOL    HW131820   2.173   2.887   4.972 -0.6609 -0.6957  1.4924
 6787SOL    HW231821   2.031   2.911   4.982  0.3516  1.3703  0.0776
 6788SOL     OW31822   4.049   1.103   8.654 -0.0810 -0.5300 -0.4194
 6788SOL    HW131823   4.033   1.183   8.605  0.4453 -0.5978 -0.7005
 6788SOL    HW231824   4.140   1.095   8.624 -0.0960  1.1120 -0.8984
 6789SOL     OW31825   2.658   0.874  17.683 -0.0504 -0.1857  0.3830
 6789SOL    HW131826   2.615   0.957   0.004 -0.3372 -0.2613  0.0862
 6789SOL    HW231827   2.616   0.849  17.600  2.5826 -0.2364 -0.9150
 6790SOL     OW31828   3.163   0.813   4.080  0.0106  0.2885 -0.1566
 6790SOL    HW131829   3.158   0.746   4.149 -1.0455 -0.5337 -1.0411
 6790SOL    HW231830   3.204   0.883   4.131 -0.8289  0.2301  0.6188
 6791SOL     OW31831   2.162   4.071   3.082 -0.0654 -0.2856  0.0513
 6791SOL    HW131832   2.122   4.106   3.162 -1.9544 -2.3692  0.0488
 6791SOL    HW231833   2.169   4.155   3.037  1.2778 -1.4138 -1.8592
 6792SOL     OW31834   4.125   3.420   6.325 -0.3755  0.2665 -0.5364
 6792SOL    HW131835   4.215   3.389   6.315 -0.4380 -0.1926  0.3385
 6792SOL    HW231836   4.114   3.419   6.420  0.5878 -3.7361 -0.4495
 6793SOL     OW31837   3.419   1.896   6.700 -0.1284 -0.1411 -0.1800
 6793SOL    HW131838   3.450   1.838   6.631  0.0673 -2.6376  2.0018
 6793SOL    HW231839   3.406   1.845   6.780 -0.2723  0.4536  0.1831
 6794SOL     OW31840   3.456   2.886   5.632  0.0176  0.6369 -0.6559
 6794SOL    HW131841   3.418   2.802   5.608  0.5425  0.1714  0.1822
 6794SOL    HW231842   3.522   2.897   5.563 -0.8208  0.5225 -1.4777
 6795SOL     OW31843   0.373   1.388   6.133  0.2687 -0.5416 -0.4235
 6795SOL    HW131844   0.434   1.436   6.076  0.8679 -1.8606 -0.8787
 6795SOL    HW231845   0.426   1.356   6.206  1.4801  2.2700 -0.0580
 6796SOL     OW31846   0.061   1.540   3.310  0.0935 -0.2325  0.1437
 6796SOL    HW131847   4.694   1.544   3.283 -0.3210 -0.8133  1.4872
 6796SOL    HW231848   0.046   1.518   3.402 -3.2408 -3.0405 -1.0483
 6797SOL     OW31849   2.684   2.071   2.563 -0.3718 -0.5324 -0.6913
 6797SOL    HW131850   2.767   2.024   2.560  0.2301  0.4534  0.5144
 6797SOL    HW231851   2.698   2.156   2.522  0.5745  0.0535  0.8467
 6798SOL     OW31852   0.322   4.122  13.928 -0.3174 -0.0081  0.0524
 6798SOL    HW131853   0.328   4.047  13.986  1.3460  1.1939  1.4219
 6798SOL    HW231854   0.243   4.107  13.875  0.5852  1.8679 -1.8581
 6799SOL     OW31855   0.288   2.618  17.692 -0.2535 -0.2580  0.4404
 6799SOL    HW131856   0.210   2.599  17.639 -0.4016 -2.3547  1.3975
 6799SOL    HW231857   0.253   2.614   0.082 -2.0912 -1.2075 -0.3217
 6800SOL     OW31858   2.439   4.015   8.427 -0.5868 -0.2164 -0.5570
 6800SOL    HW131859   2.508   4.022   8.361 -0.7948  0.5364 -0.6881
 6800SOL    HW231860   2.408   3.927   8.407 -1.0580 -0.2851  0.4497
 6801SOL     OW31861   1.585   4.465   4.670  0.0460 -0.1875 -0.0608
 6801SOL    HW131862   1.557   4.517   4.745  2.7772  0.7248  0.3023
 6801SOL    HW231863   1.549   4.517   4.597 -0.9917 -0.5819  0.1707
 6802SOL     OW31864   0.109   4.673   8.083 -0.3997  0.3441 -0.4238
 6802SOL    HW131865   0.148   0.034   8.061 -0.5221  0.3507 -0.6118
 6802SOL    HW231866   0.183   4.625   8.122 -1.3878 -1.7733 -1.1841
 6803SOL     OW31867   3.753   1.515   9.354 -0.4584  0.2967  0.2664
 6803SOL    HW131868   3.701   1.565   9.291 -0.9201  0.0247  0.4314
 6803SOL    HW231869   3.799   1.453   9.298  0.2055 -0.2219  1.3904
 6804SOL     OW31870   2.655   0.709  16.756 -0.1843 -0.6267  0.6563
 6804SOL    HW131871   2.668   0.795  16.716  0.4956 -1.2022 -0.3672
 6804SOL    HW231872   2.592   0.734  16.823 -0.6260 -0.2797  0.1122
 6805SOL     OW31873   0.431   1.995  16.539 -0.1516  0.2211  0.0785
 6805SOL    HW131874   0.450   2.063  16.474  1.0273 -0.1746  0.0171
 6805SOL    HW231875   0.514   1.947  16.543 -1.9547 -2.9005 -0.0094
 6806SOL     OW31876   2.765   2.973   8.813  0.2786  0.6488  0.4728
 6806SOL    HW131877   2.786   2.941   8.900 -0.4662 -0.6009  0.1937
 6806SOL    HW231878   2.845   2.950   8.765  0.4751  1.2274  0.5210
 6807SOL     OW31879   2.322   3.300  15.266 -0.5913  0.2199 -0.2591
 6807SOL    HW131880   2.229   3.319  15.261 -0.5158  1.0385  1.7611
 6807SOL    HW231881   2.352   3.387  15.292 -0.7963  0.8800 -2.2520
 6808SOL     OW31882   4.444   4.710  10.400 -0.0744  0.4860  0.3223
 6808SOL    HW131883   4.405   0.038  10.470 -0.1620 -0.7976  1.2214
 6808SOL    HW231884   4.490   0.055  10.353 -0.7056 -0.9709 -2.4471
 6809SOL     OW31885   1.820   3.792   7.568 -0.5863 -0.2985  0.0430
 6809SOL    HW131886   1.769   3.742   7.504 -1.2560 -0.9045  1.0415
 6809SOL    HW231887   1.870   3.853   7.514  0.0367  0.2146  1.1956
 6810SOL     OW31888   2.968   4.199   7.521  0.8949 -0.4110 -0.4456
 6810SOL    HW131889   3.058   4.217   7.491  0.4171  1.5323 -0.7084
 6810SOL    HW231890   2.918   4.232   7.446  2.7839  2.1456 -0.5926
 6811SOL     OW31891   3.152   3.513  17.270  0.0447 -0.4981  0.5028
 6811SOL    HW131892   3.064   3.536  17.241  0.7994 -0.7643 -2.0406
 6811SOL    HW231893   3.156   3.420  17.245 -0.7181 -0.6390  0.9064
 6812SOL     OW31894   1.868   1.793  12.257  0.0383  0.5403  0.2933
 6812SOL    HW131895   1.918   1.792  12.338  1.0377 -0.5748 -0.3424
 6812SOL    HW231896   1.926   1.827  12.189  0.7022 -1.8769 -0.3734
 6813SOL     OW31897   3.372   3.227  12.054  0.1660 -0.4650  0.4734
 6813SOL    HW131898   3.460   3.249  12.084  0.6892  0.1975 -1.5647
 6813SOL    HW231899   3.386   3.193  11.966  0.0698  1.1963 -0.1905
 6814SOL     OW31900   1.559   1.979   1.636 -0.4180  0.1757 -0.1032
 6814SOL    HW131901   1.583   1.959   1.546 -0.2204 -1.4064  0.2906
 6814SOL    HW231902   1.605   2.062   1.645  0.5973 -0.2864 -0.9704
 6815SOL     OW31903   1.171   0.161  15.310 -0.0016 -0.2399 -0.1599
 6815SOL    HW131904   1.101   0.111  15.268 -1.3771  1.7350 -0.2112
 6815SOL    HW231905   1.126   0.207  15.381  1.8236  0.9787  0.2156
 6816SOL     OW31906   2.441   0.175   2.550 -0.5835 -0.2965  0.3320
 6816SOL    HW131907   2.475   0.208   2.467  1.3582  1.8145  1.9794
 6816SOL    HW231908   2.353   0.161   2.515  0.4667 -1.5227 -1.8259
 6817SOL     OW31909   1.171   3.636   5.594  0.1137  0.1258  0.0908
 6817SOL    HW131910   1.261   3.642   5.627  0.0286 -1.6237  0.6301
 6817SOL    HW231911   1.163   3.543   5.575 -0.0896 -0.0595  1.1142
 6818SOL     OW31912   1.083   4.253  15.446  0.2891 -0.1242 -0.0760
 6818SOL    HW131913   1.113   4.250  15.355  1.1799 -0.9340  0.2401
 6818SOL    HW231914   1.144   4.195  15.492 -0.1941 -0.0760  0.6191
 6819SOL     OW31915   1.129   1.606   6.779 -0.3043  0.7273  0.5036
 6819SOL    HW131916   1.132   1.702   6.787 -0.1741  0.6029  1.8225
 6819SOL    HW231917   1.211   1.605   6.729  0.7521 -1.7088  2.3317
 6820SOL     OW31918   1.567   0.312  16.678  0.1030  0.8302  0.2186
 6820SOL    HW131919   1.571   0.253  16.602 -0.4783 -1.1580  1.7197
 6820SOL    HW231920   1.524   0.265  16.750 -0.0770  1.2779  0.3994
 6821SOL     OW31921   0.920   3.631   8.381  0.2477  1.1903  0.3092
 6821SOL    HW131922   0.949   3.722   8.385  0.8153  1.1151 -2.4812
 6821SOL    HW231923   0.825   3.636   8.369 -0.0072 -2.0621  0.8278
 6822SOL     OW31924   2.897   4.102   4.965  0.6366 -0.2151  0.5081
 6822SOL    HW131925   2.946   4.139   4.891  1.3487 -1.5621  0.3161
 6822SOL    HW231926   2.967   4.047   5.000  1.3542 -0.0500 -0.6457
 6823SOL     OW31927   3.168   2.874   0.686  0.0781  0.6190 -0.2643
 6823SOL    HW131928   3.199   2.946   0.741 -2.2062  1.8057 -0.5005
 6823SOL    HW231929   3.107   2.842   0.753 -2.0435  1.7823 -1.6202
 6824SOL     OW31930   0.758   2.024  14.024  0.1856 -0.3416 -0.1422
 6824SOL    HW131931   0.848   1.999  14.005  0.6394  2.0122 -0.9955
 6824SOL    HW231932   0.781   2.049  14.114  0.2712 -2.4365  0.4365
 6825SOL     OW31933   0.846   0.486  10.228 -0.3799 -0.5245  1.2015
 6825SOL    HW131934   0.772   0.505  10.170  0.5447  0.6228  0.3943
 6825SOL    HW231935   0.904   0.439  10.169 -0.5269 -0.4242  0.9774
 6826SOL     OW31936   3.085   0.967   2.617 -0.7164  0.5451  0.4902
 6826SOL    HW131937   3.105   0.974   2.523  2.7321 -0.8846  1.1048
 6826SOL    HW231938   3.056   1.055   2.638 -0.5019  0.4881  1.0344
 6827SOL     OW31939   2.117   4.047  10.262  0.3641 -0.0695  0.1279
 6827SOL    HW131940   2.072   4.130  10.245 -2.2407 -1.3785  0.5790
 6827SOL    HW231941   2.049   3.996  10.307 -1.0695  0.1251 -1.7994
 6828SOL     OW31942   1.529   2.113  17.079  0.8365  0.0300  0.5134
 6828SOL    HW131943   1.502   2.022  17.084 -3.5794  1.3797  1.8902
 6828SOL    HW231944   1.502   2.141  17.167  2.7785  0.7103  0.8893
 6829SOL     OW31945   1.773   2.560   8.234 -0.4065  0.0470 -0.3524
 6829SOL    HW131946   1.715   2.604   8.296 -0.3916  1.1987 -1.1544
 6829SOL    HW231947   1.848   2.618   8.251 -0.8539  0.7192 -0.6705
 6830SOL     OW31948   4.018   4.642  11.011 -0.3845  0.3889 -0.1554
 6830SOL    HW131949   4.096   4.695  10.998 -1.9140  2.3682 -1.1981
 6830SOL    HW231950   3.997   4.609  10.924 -1.4360 -2.1615  1.0494
 6831SOL     OW31951   0.424   3.674   6.832  0.3535 -0.2481 -0.0071
 6831SOL    HW131952   0.393   3.709   6.749 -1.8154  0.7848  1.2342
 6831SOL    HW231953   0.342   3.627   6.850  0.3263  0.0359  0.6074
 6832SOL     OW31954   3.992   2.690   6.942 -0.0933  0.5108  0.4097
 6832SOL    HW131955   3.991   2.611   6.996  2.8268  1.3612  1.7097
 6832SOL    HW231956   3.927   2.742   6.989 -0.6602  0.2359 -0.0617
 6833SOL     OW31957   2.750   3.921   3.469 -0.2861  0.1131  0.1678
 6833SOL    HW131958   2.825   3.862   3.470 -0.3384  0.0546  2.6808
 6833SOL    HW231959   2.797   4.002   3.450 -1.3910  1.1081  1.5758
 6834SOL     OW31960   1.093   3.714   0.691  0.5713  0.2110 -0.3394
 6834SOL    HW131961   1.118   3.805   0.677 -2.3858  0.6551 -2.6766
 6834SOL    HW231962   1.001   3.712   0.663  0.4913  1.3376 -0.1482
 6835SOL     OW31963   3.533   4.609   6.687  0.0066 -0.2683 -0.1326
 6835SOL    HW131964   3.508   4.681   6.746  0.0829 -1.3196  1.1932
 6835SOL    HW231965   3.584   4.554   6.746  1.1995  0.7528 -0.2141
 6836SOL     OW31966   4.489   2.988   4.558  0.4202 -0.2399  0.2130
 6836SOL    HW131967   4.443   3.045   4.496  1.5243  1.0199  0.5631
 6836SOL    HW231968   4.426   2.990   4.631  1.6940 -3.7607  1.4182
 6837SOL     OW31969   3.047   0.860   8.405 -0.3091  0.2002  0.5224
 6837SOL    HW131970   3.045   0.770   8.439 -1.1774 -0.4536 -1.2231
 6837SOL    HW231971   3.102   0.909   8.465 -0.1231 -1.4626  1.7239
 6838SOL     OW31972   2.018   1.044   3.114 -0.0048 -0.3310  0.1369
 6838SOL    HW131973   2.057   1.051   3.201 -0.1277  1.6761  0.0348
 6838SOL    HW231974   1.950   1.111   3.122  0.1746 -0.0029 -1.0192
 6839SOL     OW31975   1.462   0.258   3.970  0.0142  0.1139 -0.0571
 6839SOL    HW131976   1.472   0.170   4.007 -1.5849 -0.4447 -0.9356
 6839SOL    HW231977   1.457   0.227   3.879  0.5435 -0.0441 -0.0342
 6840SOL     OW31978   2.764   1.534   4.634  0.3202 -0.1092 -0.0047
 6840SOL    HW131979   2.844   1.485   4.614  1.5502  1.3968  1.2561
 6840SOL    HW231980   2.705   1.459   4.644 -0.5729  0.6677  0.5378
 6841SOL     OW31981   3.776   0.790   4.344  0.1363 -0.0352 -0.0154
 6841SOL    HW131982   3.724   0.861   4.381  1.9791  1.1950  0.1575
 6841SOL    HW231983   3.740   0.790   4.255  0.8080  1.8114 -0.2753
 6842SOL     OW31984   1.264   3.254   8.614 -0.0998  0.6142 -0.1900
 6842SOL    HW131985   1.263   3.168   8.572 -0.6285  1.1286 -1.2140
 6842SOL    HW231986   1.182   3.243   8.663  0.4880 -3.1163 -0.0897
 6843SOL     OW31987   2.098   2.619   4.618  0.1266 -0.4090  0.2917
 6843SOL    HW131988   2.047   2.698   4.599 -0.1683 -0.3479  1.2997
 6843SOL    HW231989   2.161   2.662   4.675 -0.2826  0.7081 -0.0973
 6844SOL     OW31990   0.950   0.640   0.670 -0.1525  0.1487  0.1057
 6844SOL    HW131991   1.042   0.654   0.649 -0.5969  1.5004 -0.8760
 6844SOL    HW231992   0.943   0.546   0.653 -1.8283  0.1174  0.9295
 6845SOL     OW31993   2.840   0.334  15.987  0.0098 -0.5122 -0.0098
 6845SOL    HW131994   2.760   0.380  15.963 -0.7621 -1.3725  0.9031
 6845SOL    HW231995   2.869   0.290  15.907 -1.0123 -0.2916 -0.4980
 6846SOL     OW31996   2.335   0.101  10.033  0.0522 -0.0184 -0.0814
 6846SOL    HW131997   2.317   0.193  10.014 -0.4705 -0.0411  0.3060
 6846SOL    HW231998   2.419   0.107  10.079  1.2928 -0.3352 -2.3180
 6847SOL     OW31999   0.680   3.032   6.153 -0.4020  0.5711 -0.0934
 6847SOL    HW132000   0.712   3.008   6.240 -0.3819 -1.2828 -0.6109
 6847SOL    HW232001   0.598   3.080   6.167 -0.1309  0.8648  0.4721
 6848SOL     OW32002   0.168   0.777  11.161 -0.2816  0.3014 -0.1606
 6848SOL    HW132003   0.109   0.849  11.185  0.4703  1.0975 -0.7055
 6848SOL    HW232004   0.117   0.742  11.088 -1.1527  0.8022  0.2030
 6849SOL     OW32005   3.187   0.421   4.730 -0.7638 -0.4312  0.6147
 6849SOL    HW132006   3.136   0.421   4.811 -0.7934  0.1542  0.5993
 6849SOL    HW232007   3.254   0.484   4.758  0.1334 -1.1261  0.0337
 6850SOL     OW32008   0.489   1.220   7.974  0.3589  0.1508  0.8430
 6850SOL    HW132009   0.451   1.148   8.025 -0.1084  0.3775  0.8138
 6850SOL    HW232010   0.566   1.241   8.028  1.3179 -2.3559  0.4655
 6851SOL     OW32011   3.877   1.623  13.048  0.2321 -0.0053 -0.1544
 6851SOL    HW132012   3.950   1.562  13.039 -0.4618 -0.4748 -2.6104
 6851SOL    HW232013   3.909   1.714  13.054 -1.1243  0.3350  1.8201
 6852SOL     OW32014   0.039   4.469  13.038 -0.1729  0.2856 -0.1024
 6852SOL    HW132015   0.064   4.514  12.957 -0.7889  2.0742  0.6916
 6852SOL    HW232016   0.108   4.407  13.061  0.7174  0.2775 -2.8278
 6853SOL     OW32017   1.475   0.933   2.255  0.5520  0.5526 -0.3272
 6853SOL    HW132018   1.451   1.014   2.210 -3.1090  0.4116  1.4019
 6853SOL    HW232019   1.565   0.914   2.226 -0.4929 -3.1215 -1.1489
 6854SOL     OW32020   4.499   1.577   3.257  1.3022 -0.1141 -0.5087
 6854SOL    HW132021   4.454   1.646   3.306  0.6102  1.2224 -3.0105
 6854SOL    HW232022   4.445   1.506   3.291  1.1769 -0.6255 -1.7854
 6855SOL     OW32023   0.841   0.709  15.042 -0.0730  0.2139  0.4253
 6855SOL    HW132024   0.844   0.794  15.086 -1.1285  1.3932 -1.8129
 6855SOL    HW232025   0.827   0.729  14.950 -1.2605  2.5858  1.1121
 6856SOL     OW32026   0.639   4.576  12.923  0.3042  0.0454  0.0623
 6856SOL    HW132027   0.651   4.491  12.965 -0.4463 -0.0901  0.0102
 6856SOL    HW232028   0.681   4.569  12.837 -1.0792  0.6769 -0.6650
 6857SOL     OW32029   1.009   4.191  15.155  0.0609 -0.2020 -0.4933
 6857SOL    HW132030   0.931   4.197  15.210  0.8238  0.0778  0.5508
 6857SOL    HW232031   0.982   4.247  15.082 -1.3558 -0.1978  0.0326
 6858SOL     OW32032   1.352   1.141  10.482  0.1697 -0.1211 -0.5263
 6858SOL    HW132033   1.281   1.156  10.545  1.7689  1.5075  0.8987
 6858SOL    HW232034   1.319   1.069  10.428 -2.0776  0.7996 -0.3950
 6859SOL     OW32035   2.838   0.948   1.782  0.0476 -0.2049 -0.4320
 6859SOL    HW132036   2.795   1.034   1.780  1.7972  0.7216  0.9262
 6859SOL    HW232037   2.883   0.943   1.866  1.8717  1.8899 -1.2618
 6860SOL     OW32038   1.411   4.136   7.075 -0.5194  0.1344 -0.3779
 6860SOL    HW132039   1.321   4.161   7.057  0.3111  1.1896 -3.0900
 6860SOL    HW232040   1.401   4.043   7.094  2.5208 -0.1621 -0.1572
 6861SOL     OW32041   4.204   2.084   7.554  0.0578  0.4576  0.0056
 6861SOL    HW132042   4.223   2.095   7.647 -1.0144 -4.3608  0.7483
 6861SOL    HW232043   4.244   2.162   7.516  0.6739  1.0998  1.9518
 6862SOL     OW32044   0.852   0.786  14.739  0.0939 -0.4787  0.4989
 6862SOL    HW132045   0.815   0.707  14.699 -2.1249  0.8474 -0.0847
 6862SOL    HW232046   0.772   0.837  14.725  1.0457  1.2948  1.6022
 6863SOL     OW32047   2.440   1.084   5.200 -0.1576 -0.4851  0.4603
 6863SOL    HW132048   2.506   1.105   5.266 -1.6231 -1.2148  2.1743
 6863SOL    HW232049   2.398   1.006   5.237 -1.6891  0.8084  1.4290
 6864SOL     OW32050   2.436   3.289  11.133  0.2804  0.4771  0.0099
 6864SOL    HW132051   2.459   3.219  11.194  2.2283  1.6885  0.6340
 6864SOL    HW232052   2.456   3.257  11.045 -1.4608  1.3403 -0.7177
 6865SOL     OW32053   0.225   0.799  15.465  0.5702 -0.0792 -0.2894
 6865SOL    HW132054   0.173   0.728  15.428  1.1075  0.9960 -3.0778
 6865SOL    HW232055   0.271   0.768  15.543  0.6479  1.9209  0.4780
 6866SOL     OW32056   4.259   1.173   1.352 -0.5811  0.2289 -0.5195
 6866SOL    HW132057   4.258   1.105   1.420  0.5971 -0.4042 -1.1479
 6866SOL    HW232058   4.310   1.137   1.280 -1.2299 -1.9124  0.0854
 6867SOL     OW32059   3.620   3.469  14.195 -0.0477 -0.7252  0.0233
 6867SOL    HW132060   3.536   3.501  14.228 -0.3444 -2.4696  0.9106
 6867SOL    HW232061   3.650   3.420  14.271  0.1471  0.4363  0.6927
 6868SOL     OW32062   2.703   2.609   8.888  0.0934 -0.7359  0.6241
 6868SOL    HW132063   2.790   2.605   8.928 -0.3233  0.9803  1.6747
 6868SOL    HW232064   2.699   2.525   8.842  4.1202 -0.8241  0.4213
 6869SOL     OW32065   2.477   1.052  17.319 -0.3853  0.1850 -0.0606
 6869SOL    HW132066   2.409   1.069  17.384  1.9916  1.6157  2.0482
 6869SOL    HW232067   2.515   1.140  17.319 -0.1835  0.0921 -1.5774
 6870SOL     OW32068   1.377   4.024  16.481  0.5537  0.0239  0.4187
 6870SOL    HW132069   1.337   4.034  16.568 -0.5302 -2.2731  0.1764
 6870SOL    HW232070   1.303   4.031  16.421 -0.5209 -0.0979  1.7116
 6871SOL     OW32071   4.312   1.650   0.200  0.1361  0.7415 -0.6132
 6871SOL    HW132072   4.308   1.611   0.112  0.7318 -1.6926  0.4530
 6871SOL    HW232073   4.360   1.581   0.246 -0.8005 -0.5783 -1.5991
 6872SOL     OW32074   3.140   4.197  13.057 -0.0253 -0.4490 -0.3405
 6872SOL    HW132075   3.103   4.197  13.145 -1.2464 -1.9428 -0.8532
 6872SOL    HW232076   3.210   4.261  13.073  0.3696 -0.9541 -0.0402
 6873SOL     OW32077   0.092   1.533   3.840  0.1413 -0.0463  0.3202
 6873SOL    HW132078   0.129   1.459   3.792 -2.3882 -0.9471 -0.2010
 6873SOL    HW232079   0.053   1.492   3.918 -2.0252 -1.9256 -1.7685
 6874SOL     OW32080   1.657   3.350  17.249 -0.3758  0.1155  0.2101
 6874SOL    HW132081   1.625   3.269  17.207  2.6166 -0.4687 -0.9346
 6874SOL    HW232082   1.751   3.339  17.236 -0.6565 -1.0019 -0.9934
 6875SOL     OW32083   3.847   2.741   6.068  0.2944 -0.1791  0.3315
 6875SOL    HW132084   3.839   2.657   6.023  1.2234  0.1196 -0.3937
 6875SOL    HW232085   3.914   2.721   6.134 -0.4151 -0.9655  0.8133
 6876SOL     OW32086   4.597   4.007   0.670  0.0249 -0.1823 -0.2548
 6876SOL    HW132087   4.516   3.957   0.671 -0.6758  0.9484 -0.1519
 6876SOL    HW232088   4.624   4.030   0.759  0.0837 -0.5877 -0.1662
 6877SOL     OW32089   1.799   0.764   2.943 -0.2545  0.1928 -0.1580
 6877SOL    HW132090   1.727   0.705   2.922 -0.5114 -0.3955  2.4187
 6877SOL    HW232091   1.815   0.819   2.867  0.6602  1.4403  0.9446
 6878SOL     OW32092   0.694   4.343  13.036 -0.2019  0.1255 -0.4642
 6878SOL    HW132093   0.672   4.250  13.039 -0.9420  0.3141 -0.0237
 6878SOL    HW232094   0.772   4.329  13.090 -1.6705  0.1133  1.6164
 6879SOL     OW32095   3.020   4.024   5.889  0.1309  0.4484  0.2540
 6879SOL    HW132096   3.053   3.992   5.805  0.6378  1.0348  0.2287
 6879SOL    HW232097   3.006   4.118   5.879 -1.6227  0.2511  0.8658
 6880SOL     OW32098   3.656   3.479   1.250 -0.0445 -0.1288  0.1162
 6880SOL    HW132099   3.582   3.429   1.216  1.5398  0.5508 -4.2664
 6880SOL    HW232100   3.651   3.555   1.193  0.5099 -1.0813 -1.1967
 6881SOL     OW32101   4.387   1.151   4.955 -0.0848  0.4317  0.5738
 6881SOL    HW132102   4.455   1.148   5.022  0.0834  0.7664  0.4209
 6881SOL    HW232103   4.441   1.152   4.876 -1.3352  1.3792 -0.2813
 6882SOL     OW32104   4.027   3.142   3.754  0.5167  0.3725  0.2519
 6882SOL    HW132105   4.055   3.059   3.793  0.0678 -0.3383 -0.9508
 6882SOL    HW232106   4.048   3.127   3.662 -3.3519 -0.8475 -0.4221
 6883SOL     OW32107   2.700   2.721   4.463  0.6837 -0.2731 -0.1739
 6883SOL    HW132108   2.623   2.730   4.408  0.5214  0.8184  0.2302
 6883SOL    HW232109   2.694   2.794   4.526 -1.3873  0.2087 -0.9477
 6884SOL     OW32110   3.028   2.936   5.084  0.4964 -0.1830  0.3593
 6884SOL    HW132111   3.035   2.851   5.128 -1.4776  1.0651  3.0785
 6884SOL    HW232112   2.968   2.991   5.135  0.3622 -1.0283  1.1258
 6885SOL     OW32113   2.624   1.699   9.726 -0.4261  0.1978 -0.3424
 6885SOL    HW132114   2.568   1.728   9.799  1.7695  1.4098  0.8708
 6885SOL    HW232115   2.691   1.660   9.781  0.6408 -0.2409 -1.9787
 6886SOL     OW32116   3.826   1.834   3.832 -0.0721  0.0769  0.1806
 6886SOL    HW132117   3.886   1.764   3.807 -0.6252 -0.8078  1.3416
 6886SOL    HW232118   3.756   1.833   3.767 -0.3951  2.1007  0.5049
 6887SOL     OW32119   2.309   3.284   6.977 -0.9746  0.1692  0.7575
 6887SOL    HW132120   2.401   3.300   7.000 -0.0736 -3.5746 -0.2402
 6887SOL    HW232121   2.313   3.221   6.905 -1.0978  0.1013  0.8109
 6888SOL     OW32122   2.466   0.305   3.882 -0.1608 -0.2514 -0.5759
 6888SOL    HW132123   2.540   0.358   3.913  0.9239 -0.7430 -2.3462
 6888SOL    HW232124   2.486   0.218   3.919  1.7212  0.9608  1.3036
 6889SOL     OW32125   3.455   0.800   8.662 -0.0814  0.1798  0.6753
 6889SOL    HW132126   3.487   0.731   8.603 -2.5336  0.2694 -0.7625
 6889SOL    HW232127   3.532   0.853   8.681 -0.3945  0.6702  0.5849
 6890SOL     OW32128   4.068   1.756  12.815 -0.0799  0.1716  0.0557
 6890SOL    HW132129   4.017   1.797  12.886  0.5751 -0.1229  0.6870
 6890SOL    HW232130   4.126   1.832  12.810  1.8227 -1.3015 -0.1366
 6891SOL     OW32131   0.808   1.690   5.698  0.2604  0.1813 -0.0952
 6891SOL    HW132132   0.748   1.716   5.627  0.3007 -2.4743 -1.1367
 6891SOL    HW232133   0.869   1.763   5.703 -0.4424  0.8657 -1.4483
 6892SOL     OW32134   0.401   1.479   5.282 -0.1486 -0.4490 -0.2911
 6892SOL    HW132135   0.492   1.471   5.309 -0.8956  0.6389  2.4588
 6892SOL    HW232136   0.406   1.523   5.197  2.3707  1.3168  0.7830
 6893SOL     OW32137   2.687   3.317   2.495 -0.0447  0.1112  0.2926
 6893SOL    HW132138   2.730   3.363   2.422 -1.3583 -2.1588 -1.9270
 6893SOL    HW232139   2.761   3.265   2.528 -0.9448 -1.5579 -0.3262
 6894SOL     OW32140   4.527   3.289   0.321  0.2315 -0.0654 -0.2142
 6894SOL    HW132141   4.589   3.217   0.333  0.0620  0.0530  1.4582
 6894SOL    HW232142   4.589   3.359   0.299 -0.3949 -0.7105 -3.9270
 6895SOL     OW32143   2.216   0.376   0.292  0.6625  0.3380  0.0461
 6895SOL    HW132144   2.264   0.311   0.242 -0.8112  1.0347 -2.3059
 6895SOL    HW232145   2.248   0.457   0.252  0.9916 -0.1015 -0.5801
 6896SOL     OW32146   2.308   4.511   3.224 -0.2590 -0.2229 -0.3433
 6896SOL    HW132147   2.278   4.434   3.178 -2.1438 -0.0983  0.6835
 6896SOL    HW232148   2.225   4.544   3.259  0.5896  0.0106  1.4545
 6897SOL     OW32149   0.943   2.477   0.424  0.0939 -0.2996 -0.8376
 6897SOL    HW132150   0.922   2.423   0.348 -2.5063  3.3745 -2.6871
 6897SOL    HW232151   0.973   2.406   0.481  0.2201 -0.7516 -1.4560
 6898SOL     OW32152   2.243   1.776   3.910  0.1748  0.0504  0.0525
 6898SOL    HW132153   2.197   1.777   3.826  0.5729  0.8724 -0.1620
 6898SOL    HW232154   2.209   1.694   3.945 -2.1991  0.5589 -1.0419
 6899SOL     OW32155   2.235   0.708  17.457 -0.2873  0.1349 -0.0726
 6899SOL    HW132156   2.215   0.791  17.415  2.1209  0.8459  0.2340
 6899SOL    HW232157   2.156   0.655  17.445  1.1802 -2.2878  0.9527
 6900SOL     OW32158   1.280   0.247   7.361  0.4126  0.3360 -0.4181
 6900SOL    HW132159   1.207   0.188   7.342  1.6210 -1.1076 -0.5676
 6900SOL    HW232160   1.259   0.339   7.347  1.6103  0.4634 -1.3475
 6901SOL     OW32161   2.317   3.600   5.360 -0.2652  0.0889  0.0349
 6901SOL    HW132162   2.378   3.618   5.432 -0.5232 -0.6895  0.4422
 6901SOL    HW232163   2.308   3.505   5.355 -0.7784 -0.0549  3.5131
 6902SOL     OW32164   1.413   2.646   3.292 -0.4243 -0.2070  0.6598
 6902SOL    HW132165   1.431   2.593   3.215  0.3357 -1.2370  1.5365
 6902SOL    HW232166   1.326   2.682   3.278 -0.0933  0.8841  1.3848
 6903SOL     OW32167   0.745   2.407   6.575  0.2817 -0.7915  0.2812
 6903SOL    HW132168   0.756   2.492   6.619 -0.3928 -0.5883  0.0524
 6903SOL    HW232169   0.803   2.413   6.499  1.8836 -2.8418  1.3190
 6904SOL     OW32170   0.674   2.082   3.626 -0.2028  0.4051  0.2526
 6904SOL    HW132171   0.644   2.120   3.708 -2.2834  0.5383 -0.5698
 6904SOL    HW232172   0.678   2.169   3.585  0.6360 -1.0286 -2.7492
 6905SOL     OW32173   0.748   1.628   3.440  0.0035 -0.0513  0.3448
 6905SOL    HW132174   0.667   1.626   3.491 -1.1254  2.0526 -1.4048
 6905SOL    HW232175   0.736   1.718   3.411  1.3844 -0.1523 -0.5052
 6906SOL     OW32176   4.479   1.738   0.979 -0.1458  0.2042  0.5578
 6906SOL    HW132177   4.561   1.693   0.957 -0.3135 -0.8505  2.0495
 6906SOL    HW232178   4.426   1.683   0.922  0.0221  0.0553  0.5464
 6907SOL     OW32179   4.185   2.682   2.464  0.5531  0.8273  0.3236
 6907SOL    HW132180   4.188   2.777   2.462  0.5901  0.8353  0.6917
 6907SOL    HW232181   4.107   2.682   2.519 -0.2302  0.9186 -0.7961
 6908SOL     OW32182   2.337   1.494   8.035 -0.2726  0.0107 -0.2724
 6908SOL    HW132183   2.377   1.578   8.016 -0.5396 -0.2502 -1.9354
 6908SOL    HW232184   2.405   1.433   8.006  1.0460 -0.7729  4.3748
 6909SOL     OW32185   3.681   4.125   5.476 -0.1134  0.2934 -0.3519
 6909SOL    HW132186   3.763   4.132   5.427 -0.2222  0.4337 -0.5160
 6909SOL    HW232187   3.701   4.146   5.567 -1.4186 -1.1823  0.2820
 6910SOL     OW32188   0.774   1.861   1.617  0.2321 -0.1894 -0.0286
 6910SOL    HW132189   0.724   1.810   1.553 -1.0716 -0.6549  1.3790
 6910SOL    HW232190   0.718   1.845   1.692  1.5090 -1.1385  0.7279
 6911SOL     OW32191   4.087   3.930  16.081 -0.1471 -0.2149  0.0819
 6911SOL    HW132192   4.028   3.863  16.046  0.4386 -0.6245 -0.1197
 6911SOL    HW232193   4.077   4.008  16.027 -0.8543 -0.1982  0.2413
 6912SOL     OW32194   1.716   2.307   4.641 -0.2946 -0.8286 -0.6101
 6912SOL    HW132195   1.777   2.233   4.636  2.8097  1.4874  2.8295
 6912SOL    HW232196   1.662   2.276   4.714 -0.3324 -1.2240 -0.8066
 6913SOL     OW32197   0.386   2.587   2.429 -0.4402  0.2770 -0.3143
 6913SOL    HW132198   0.347   2.605   2.514  1.0517  2.5564 -0.1076
 6913SOL    HW232199   0.376   2.670   2.382  0.1465  0.2303 -0.5285
 6914SOL     OW32200   0.748   1.400   8.880 -0.2656 -0.3737  0.0304
 6914SOL    HW132201   0.653   1.402   8.864  0.5253  1.1438 -4.3157
 6914SOL    HW232202   0.769   1.493   8.886  2.2203 -0.9106 -0.4547
 6915SOL     OW32203   3.408   2.597   8.864  0.3799 -0.5600  0.7801
 6915SOL    HW132204   3.494   2.612   8.905  0.7689 -0.9789  0.1157
 6915SOL    HW232205   3.401   2.504   8.885  1.0258 -0.7712  0.0750
 6916SOL     OW32206   1.013   3.528  13.567  0.2158  0.4865 -0.0292
 6916SOL    HW132207   1.010   3.544  13.473  0.7522  1.4560  0.1247
 6916SOL    HW232208   1.106   3.514  13.585  0.4150  2.4602  0.4537
 6917SOL     OW32209   2.431   0.051   4.063 -1.0180  0.2481  0.5564
 6917SOL    HW132210   2.348   0.007   4.044 -0.3035 -0.4295 -1.0220
 6917SOL    HW232211   2.495   4.705   4.069 -0.7626  0.4948  0.7267
 6918SOL     OW32212   3.638   1.576  16.682  0.1818 -0.2733 -0.1229
 6918SOL    HW132213   3.652   1.633  16.758  0.3721 -1.3161  0.6270
 6918SOL    HW232214   3.569   1.624  16.637 -0.1587 -0.9356 -0.3082
 6919SOL     OW32215   1.135   2.690   0.530  0.3134 -0.2152 -0.2583
 6919SOL    HW132216   1.201   2.651   0.474  0.8997 -0.7270  0.7890
 6919SOL    HW232217   1.066   2.624   0.517  0.3193 -0.5125  1.1799
 6920SOL     OW32218   0.931   4.417   8.484  0.3451 -0.1228 -0.4910
 6920SOL    HW132219   0.855   4.416   8.543  0.7775  1.5759  0.0828
 6920SOL    HW232220   1.000   4.371   8.531  0.4048 -1.1719 -1.6046
 6921SOL     OW32221   1.745   2.735   7.511  0.6345  0.5519 -0.0346
 6921SOL    HW132222   1.719   2.644   7.526  1.0264  0.5308  0.5176
 6921SOL    HW232223   1.824   2.713   7.461  0.5379 -0.0803  0.0843
 6922SOL     OW32224   4.073   3.190   8.246  0.6376  0.1066 -0.0301
 6922SOL    HW132225   3.978   3.195   8.242  0.5786 -0.6196  0.4460
 6922SOL    HW232226   4.085   3.097   8.225  1.6594 -0.0958  1.4877
 6923SOL     OW32227   2.690   1.342   7.467 -0.4226 -0.1802 -0.1082
 6923SOL    HW132228   2.665   1.359   7.558 -1.1149 -0.3178 -0.2709
 6923SOL    HW232229   2.611   1.300   7.433 -0.3463  1.0510 -1.7858
 6924SOL     OW32230   1.411   1.973   9.526  0.0014  0.0864  0.9792
 6924SOL    HW132231   1.402   1.971   9.431  0.1940  4.6634  0.8918
 6924SOL    HW232232   1.493   2.021   9.528  0.1135 -0.0347 -0.4611
 6925SOL     OW32233   0.313   3.682  13.306  0.3489  0.2001 -0.1649
 6925SOL    HW132234   0.321   3.684  13.401 -0.5091  2.6790 -0.1487
 6925SOL    HW232235   0.360   3.758  13.272  1.2608  0.7414  2.3210
 6926SOL     OW32236   3.599   3.633   0.361 -0.1514  0.2527 -0.1931
 6926SOL    HW132237   3.572   3.557   0.309 -0.8270  1.8123 -2.1276
 6926SOL    HW232238   3.519   3.685   0.364  1.4179  2.6346 -0.0230
 6927SOL     OW32239   1.513   2.570   6.530  0.3124  0.1453  0.3159
 6927SOL    HW132240   1.429   2.614   6.549 -0.1201 -0.7863  0.5321
 6927SOL    HW232241   1.575   2.616   6.586 -0.1843  0.9295  0.2235
 6928SOL     OW32242   2.339   1.837   0.341  0.1246 -0.0540  0.1739
 6928SOL    HW132243   2.377   1.883   0.266  1.9897 -0.3702  0.9231
 6928SOL    HW232244   2.268   1.886   0.383  0.8401  0.4124  0.8268
 6929SOL     OW32245   3.995   3.097   7.823  0.2031 -0.3947  0.0483
 6929SOL    HW132246   4.050   3.082   7.746 -0.9579  0.3917 -0.9456
 6929SOL    HW232247   4.007   3.191   7.834 -3.2829 -0.1110  1.4586
 6930SOL     OW32248   3.826   1.269   8.195  0.4819 -0.1699  0.1740
 6930SOL    HW132249   3.826   1.228   8.108  0.5566  1.7006 -0.7169
 6930SOL    HW232250   3.828   1.193   8.253  2.2717  0.4530  0.9327
 6931SOL     OW32251   0.010   0.634  10.936 -0.5393 -0.0361 -0.2384
 6931SOL    HW132252   0.099   0.598  10.936 -0.1244  1.0041  0.5966
 6931SOL    HW232253   4.704   0.615  10.847 -1.2157  0.6473 -0.1532
 6932SOL     OW32254   3.721   0.862   4.923  0.0573  0.4191 -0.3307
 6932SOL    HW132255   3.695   0.781   4.879  0.4939 -0.0707  0.3191
 6932SOL    HW232256   3.754   0.821   5.002  0.4867 -2.0611 -1.7992
 6933SOL     OW32257   2.094   3.478   9.378  0.6991 -0.5486 -0.2722
 6933SOL    HW132258   2.157   3.427   9.428 -1.2674 -3.0751 -0.3594
 6933SOL    HW232259   2.071   3.547   9.440 -0.4960 -0.7504 -0.4850
 6934SOL     OW32260   1.166   2.820   3.936  0.2474  0.0084  0.2593
 6934SOL    HW132261   1.109   2.848   4.008  1.7548  2.0073  0.6818
 6934SOL    HW232262   1.243   2.875   3.950  0.7946 -1.0675  1.4596
 6935SOL     OW32263   1.904   0.031   2.846 -0.2498  0.0884 -1.1258
 6935SOL    HW132264   1.843   4.705   2.791  0.4144 -0.6888 -1.1420
 6935SOL    HW232265   1.840   0.099   2.871  1.0028  0.1834  1.8717
 6936SOL     OW32266   4.365   3.861   5.145  0.1453 -0.5567  0.2781
 6936SOL    HW132267   4.312   3.941   5.135  0.2809 -0.3953  0.8648
 6936SOL    HW232268   4.452   3.899   5.131 -0.5217  0.5573 -0.8633
 6937SOL     OW32269   4.003   2.477  13.486  0.7422  0.1929  0.0794
 6937SOL    HW132270   3.926   2.442  13.531  0.6116 -1.2749 -1.2976
 6937SOL    HW232271   3.977   2.476  13.394 -0.8484 -1.5198  0.5595
 6938SOL     OW32272   0.073   1.756   4.830  0.1837 -0.5640 -0.0255
 6938SOL    HW132273   0.012   1.772   4.902  1.4906 -0.2005  1.0170
 6938SOL    HW232274   0.130   1.833   4.834 -1.3296  0.4790  1.6078
 6939SOL     OW32275   4.410   0.952   7.342  0.1767 -0.2509 -0.1364
 6939SOL    HW132276   4.395   0.879   7.282 -0.7930  0.5124 -0.8100
 6939SOL    HW232277   4.473   0.997   7.286 -1.1766 -0.2343 -1.6228
 6940SOL     OW32278   3.657   4.049   8.304  0.0920 -0.6061  0.0499
 6940SOL    HW132279   3.616   3.983   8.249  0.0795 -0.8834  0.3911
 6940SOL    HW232280   3.748   4.023   8.291  0.8434  1.5227  0.9984
 6941SOL     OW32281   0.547   2.859   4.509  0.2833  0.3404 -0.5901
 6941SOL    HW132282   0.590   2.777   4.531 -0.7728  0.0840  0.5513
 6941SOL    HW232283   0.495   2.817   4.440 -1.4713 -0.0738  0.9921
 6942SOL     OW32284   0.575   2.608   3.913 -0.1793  0.5608 -0.7972
 6942SOL    HW132285   0.585   2.667   3.838 -1.4255 -0.5692 -1.8543
 6942SOL    HW232286   0.666   2.582   3.931 -0.4330  0.0462 -0.2644
 6943SOL     OW32287   2.328   0.682   6.662 -0.6214  0.1296 -0.2338
 6943SOL    HW132288   2.286   0.674   6.748  2.2610  1.0872  1.2881
 6943SOL    HW232289   2.326   0.777   6.649  0.3781  0.0289 -1.1229
 6944SOL     OW32290   2.276   3.622   8.465  0.1239 -0.2070 -0.3679
 6944SOL    HW132291   2.215   3.550   8.483 -1.5543  0.9433 -1.4914
 6944SOL    HW232292   2.358   3.572   8.471  0.2014 -0.2069 -1.4331
 6945SOL     OW32293   4.033   2.371  16.030  0.1133 -0.5588 -0.9105
 6945SOL    HW132294   3.977   2.335  15.961 -0.5320  1.5945 -1.5072
 6945SOL    HW232295   4.049   2.458  15.995  2.2949  0.0339  1.5229
 6946SOL     OW32296   2.932   3.864   5.201 -0.6077  0.8034  0.4677
 6946SOL    HW132297   2.847   3.842   5.162 -1.4443 -0.4507  2.9813
 6946SOL    HW232298   2.896   3.899   5.283 -0.8427  0.0370  0.6909
 6947SOL     OW32299   2.455   0.671   8.217  0.1785 -0.2516  0.2808
 6947SOL    HW132300   2.417   0.590   8.183 -1.0732  0.4059  0.1278
 6947SOL    HW232301   2.395   0.739   8.186  1.6110  0.8222 -0.1555
 6948SOL     OW32302   1.056   1.254   8.804  0.3254  0.6996  0.1192
 6948SOL    HW132303   1.076   1.234   8.895 -1.8376 -0.3208  0.3816
 6948SOL    HW232304   1.137   1.281   8.762 -0.5718 -1.2297 -2.9052
 6949SOL     OW32305   0.020   3.455   2.589  0.0487  0.0778 -0.1121
 6949SOL    HW132306   4.703   3.540   2.608  1.1759  1.1326 -2.3588
 6949SOL    HW232307   0.010   3.407   2.671 -1.8441  0.3562 -0.1756
 6950SOL     OW32308   1.196   3.925   8.640 -0.0508 -0.8625 -0.4349
 6950SOL    HW132309   1.230   3.972   8.716 -2.6161  0.2612  0.0271
 6950SOL    HW232310   1.265   3.941   8.576 -0.1949  2.3401  0.2087
 6951SOL     OW32311   2.494   4.614   1.849 -0.0881 -0.1116 -0.6768
 6951SOL    HW132312   2.465   4.687   1.904  0.0118 -0.9625  0.5096
 6951SOL    HW232313   2.578   4.587   1.887 -0.9573  0.4793  1.6599
 6952SOL     OW32314   3.597   0.790  11.954  0.0361  0.5557  0.3667
 6952SOL    HW132315   3.673   0.731  11.952  0.6033  1.3040 -0.4156
 6952SOL    HW232316   3.580   0.789  12.048 -2.6958 -0.6917 -0.1694
 6953SOL     OW32317   3.405   0.834  10.245  0.2070 -0.2206 -0.0283
 6953SOL    HW132318   3.354   0.828  10.326 -0.4284 -0.0829 -0.4173
 6953SOL    HW232319   3.367   0.910  10.201  0.9317  0.6749  0.9094
 6954SOL     OW32320   1.183   0.165   7.102  0.6628 -0.1034 -0.5906
 6954SOL    HW132321   1.095   0.161   7.140 -0.0329 -1.5525 -2.3197
 6954SOL    HW232322   1.168   0.128   7.015 -0.4409 -1.1767  0.0532
 6955SOL     OW32323   4.346   4.006   1.952 -0.4474  0.4347 -0.2257
 6955SOL    HW132324   4.354   3.980   1.861  1.6914 -1.9722  0.6691
 6955SOL    HW232325   4.418   4.068   1.963  0.7531 -1.0594  0.3022
 6956SOL     OW32326   0.720   3.125   5.581 -0.0008  0.3088  0.9222
 6956SOL    HW132327   0.676   3.131   5.666 -0.5414 -2.0491  0.8095
 6956SOL    HW232328   0.730   3.217   5.560  1.1312  0.0069  0.1100
 6957SOL     OW32329   2.388   2.386   5.386 -0.4198 -0.5263  0.3949
 6957SOL    HW132330   2.325   2.420   5.450 -0.0862  1.2962 -0.2390
 6957SOL    HW232331   2.321   2.326   5.352 -0.5470 -0.8794  1.2679
 6958SOL     OW32332   3.405   1.110   2.510  0.1214 -0.0641  0.2201
 6958SOL    HW132333   3.476   1.096   2.572  1.2795 -3.1916 -1.8100
 6958SOL    HW232334   3.412   1.027   2.462  0.0296  1.1181 -1.8687
 6959SOL     OW32335   4.557   3.650   3.224  0.1062 -0.1191 -0.0094
 6959SOL    HW132336   4.612   3.601   3.285 -0.1765 -1.6047 -0.9491
 6959SOL    HW232337   4.617   3.705   3.174  0.7461 -0.8884 -0.0840
 6960SOL     OW32338   2.685   3.341   3.246 -0.1603  0.2493  0.0828
 6960SOL    HW132339   2.682   3.426   3.291  0.1351  0.2181  0.1614
 6960SOL    HW232340   2.731   3.293   3.315  1.1173  0.7130 -0.4690
 6961SOL     OW32341   3.773   2.430   4.175  0.0705 -0.3609 -0.2703
 6961SOL    HW132342   3.793   2.510   4.127 -2.1240  1.1717  1.3467
 6961SOL    HW232343   3.836   2.417   4.246 -0.0854  0.6662  0.0556
 6962SOL     OW32344   2.733   0.466   6.079  0.0886 -0.1885  0.2214
 6962SOL    HW132345   2.744   0.381   6.122  0.0170 -0.3260 -0.0306
 6962SOL    HW232346   2.640   0.470   6.058  0.1382 -1.3265 -0.2009
 6963SOL     OW32347   4.720   4.086   2.347  0.4474 -0.7650 -0.4001
 6963SOL    HW132348   0.057   4.124   2.284 -0.4170  1.3403  0.0104
 6963SOL    HW232349   0.026   4.112   2.434  0.3351  0.0612 -0.6039
 6964SOL     OW32350   0.552   1.996  13.025  0.0731  0.1100  0.3691
 6964SOL    HW132351   0.470   2.027  12.988  0.0673  0.2116  0.4651
 6964SOL    HW232352   0.525   1.905  13.037 -1.4463  0.4481 -0.6113
 6965SOL     OW32353   1.534   0.045   6.932 -0.0216 -0.1496 -0.4850
 6965SOL    HW132354   1.624   0.069   6.911  0.8583 -0.6276  2.6460
 6965SOL    HW232355   1.486   0.031   6.851  1.1878 -0.0529 -1.2151
 6966SOL     OW32356   0.075   2.971   0.105  0.2572 -0.4787  0.3968
 6966SOL    HW132357   0.110   3.012   0.184  0.1305  0.5267 -0.0604
 6966SOL    HW232358   0.005   2.914   0.134 -0.4899  0.0887 -0.2747
 6967SOL     OW32359   3.502   3.109   5.115  0.4185 -0.7196  0.3950
 6967SOL    HW132360   3.429   3.051   5.095 -0.2412 -0.3394  1.6652
 6967SOL    HW232361   3.557   3.056   5.174 -0.6436 -1.5866  0.5938
 6968SOL     OW32362   1.794   3.991   4.406 -1.0826 -0.4313  0.1492
 6968SOL    HW132363   1.779   4.066   4.464  0.0806 -0.5102  0.5577
 6968SOL    HW232364   1.771   3.915   4.460  0.1398 -1.1337 -0.3136
 6969SOL     OW32365   1.095   1.635  14.720  0.4964  0.3896  0.2096
 6969SOL    HW132366   1.136   1.681  14.793 -1.0385 -0.6937  1.7510
 6969SOL    HW232367   1.163   1.651  14.655 -0.1534  1.3788 -0.2403
 6970SOL     OW32368   0.564   0.750   6.430 -0.1341  0.3615 -0.7305
 6970SOL    HW132369   0.488   0.804   6.453 -0.0532 -0.2726  0.9602
 6970SOL    HW232370   0.606   0.737   6.515 -0.1143  1.1587 -0.6135
 6971SOL     OW32371   0.228   3.642   2.020 -0.0721  0.1942  0.2462
 6971SOL    HW132372   0.291   3.569   2.017 -0.6576 -0.2816 -0.5431
 6971SOL    HW232373   0.141   3.603   2.009 -1.2679  2.7600  0.6778
 6972SOL     OW32374   1.358   2.902  10.541 -0.7242  0.3234 -0.1975
 6972SOL    HW132375   1.358   2.846  10.619  1.8777 -0.4452 -0.7452
 6972SOL    HW232376   1.441   2.948  10.558 -1.2258  1.2625 -0.3182
 6973SOL     OW32377   0.366   2.266  14.987 -0.1488  0.2096 -0.1976
 6973SOL    HW132378   0.391   2.355  14.963  1.7601  0.0891  1.3628
 6973SOL    HW232379   0.350   2.280  15.081 -1.8897  2.2739 -0.7882
 6974SOL     OW32380   3.302   3.469   3.057  0.4550 -0.2954 -0.1664
 6974SOL    HW132381   3.254   3.416   3.121  1.3674 -0.5041  0.3587
 6974SOL    HW232382   3.379   3.480   3.114  0.9359  0.2905 -0.9374
 6975SOL     OW32383   1.973   3.088   7.049 -0.2092  0.5553 -0.1833
 6975SOL    HW132384   2.001   3.162   7.103 -0.1415  0.5273 -0.1797
 6975SOL    HW232385   2.052   3.034   7.043 -0.5335  0.2204 -1.4596
 6976SOL     OW32386   1.244   0.181  13.404  0.8202 -0.0482 -0.3764
 6976SOL    HW132387   1.162   0.166  13.451  0.9736 -2.3220 -0.8235
 6976SOL    HW232388   1.211   0.168  13.315  1.0863  0.6914 -0.5803
 6977SOL     OW32389   2.879   2.341   7.661  0.1016 -0.7220 -0.0723
 6977SOL    HW132390   2.840   2.320   7.746  1.1761  3.0947  1.3614
 6977SOL    HW232391   2.968   2.319   7.687 -0.2362 -0.7959  1.0190
 6978SOL     OW32392   4.167   3.626  12.156 -0.1574  0.2017 -0.3045
 6978SOL    HW132393   4.127   3.562  12.097  2.4371 -0.6572 -1.1019
 6978SOL    HW232394   4.090   3.653  12.207  0.4206  1.5867 -0.1796
 6979SOL     OW32395   3.378   0.236   9.635  0.1319  0.1473 -0.3562
 6979SOL    HW132396   3.448   0.298   9.613 -0.2959  0.9867  0.6589
 6979SOL    HW232397   3.333   0.306   9.682  0.7480  1.4396 -1.6620
 6980SOL     OW32398   2.568   0.076  16.167  0.5726  0.0412  0.0023
 6980SOL    HW132399   2.541   0.167  16.180 -1.2211 -0.8465  2.5124
 6980SOL    HW232400   2.630   0.067  16.240  1.1344  1.0573 -0.3421
 6981SOL     OW32401   2.022   0.574   5.836  0.2887 -0.1890 -0.4919
 6981SOL    HW132402   2.076   0.653   5.842 -0.8118  0.6536 -1.8275
 6981SOL    HW232403   2.070   0.507   5.884 -2.0336 -0.5861  1.2714
 6982SOL     OW32404   3.953   2.745  10.094  0.1801  0.3702  0.2416
 6982SOL    HW132405   4.031   2.776  10.048  0.1927  1.2023  0.8440
 6982SOL    HW232406   3.947   2.802  10.170  1.6060  0.5085  0.2400
 6983SOL     OW32407   4.571   4.611   5.940 -0.0267  0.1914 -0.5525
 6983SOL    HW132408   4.562   4.607   5.845 -1.1342 -0.6399 -0.4147
 6983SOL    HW232409   4.479   4.606   5.964  0.8344 -2.0523  2.2597
 6984SOL     OW32410   0.633   3.616  13.611  0.0885  0.0725  0.4488
 6984SOL    HW132411   0.648   3.612  13.706  1.2797  1.2629  0.3059
 6984SOL    HW232412   0.537   3.617  13.615  0.1653  2.5374  1.5439
 6985SOL     OW32413   0.622   2.606   4.637 -0.1465  0.4993 -0.2371
 6985SOL    HW132414   0.663   2.522   4.616  0.4840  1.0136 -1.0390
 6985SOL    HW232415   0.545   2.574   4.684  1.6300 -2.2807  0.8192
 6986SOL     OW32416   1.986   1.385   4.047  0.3061 -0.0258 -0.0881
 6986SOL    HW132417   1.962   1.464   4.095 -4.6247 -1.6233 -0.0036
 6986SOL    HW232418   2.075   1.411   4.022  0.0308  1.0605  0.0373
 6987SOL     OW32419   1.664   4.675  17.272 -0.2331 -0.0260  0.0707
 6987SOL    HW132420   1.747   4.722  17.283  0.2319 -0.4661 -1.6330
 6987SOL    HW232421   1.603   0.012  17.313 -1.1495 -1.1613  0.4147
 6988SOL     OW32422   1.487   0.502   8.589 -0.3987 -0.1366 -0.3468
 6988SOL    HW132423   1.543   0.437   8.631  2.4562  2.6282  0.0989
 6988SOL    HW232424   1.494   0.470   8.499  2.9365 -2.4694  0.7415
 6989SOL     OW32425   1.523   0.202   8.793  0.3346 -0.1562  0.3812
 6989SOL    HW132426   1.540   0.176   8.883  0.2569  1.1823  0.7828
 6989SOL    HW232427   1.433   0.171   8.784  0.8379 -1.3579 -0.5006
 6990SOL     OW32428   3.780   1.382   2.956 -0.4896  0.3198  0.3635
 6990SOL    HW132429   3.709   1.352   2.900 -0.5001 -2.7471  2.0100
 6990SOL    HW232430   3.807   1.465   2.916 -1.4529  0.1494 -0.6456
 6991SOL     OW32431   0.889   3.493   5.248 -0.3999  0.0732  0.0320
 6991SOL    HW132432   0.926   3.554   5.184  0.5401  0.5752  1.0697
 6991SOL    HW232433   0.879   3.412   5.196 -2.8968  0.0035  0.6194
 6992SOL     OW32434   1.597   1.881   7.528 -0.3731  0.3316  0.4544
 6992SOL    HW132435   1.650   1.926   7.462  1.2141 -1.6479  0.3538
 6992SOL    HW232436   1.632   1.918   7.609 -0.8713 -0.0603  0.8548
 6993SOL     OW32437   3.439   4.106  14.427 -0.0824  0.5899 -0.1794
 6993SOL    HW132438   3.462   4.170  14.359  1.9165 -0.1103 -0.1705
 6993SOL    HW232439   3.358   4.141  14.462 -2.2170 -4.9688  0.4521
 6994SOL     OW32440   2.642   0.923   2.388  0.4666  0.0600  0.3729
 6994SOL    HW132441   2.676   0.877   2.465 -1.3444 -2.3289 -0.2468
 6994SOL    HW232442   2.711   0.982   2.358  1.6412 -0.4064  2.1430
 6995SOL     OW32443   1.715   1.351  14.909 -0.6253 -0.7728  0.2819
 6995SOL    HW132444   1.809   1.333  14.916 -0.9328 -2.1414  0.9322
 6995SOL    HW232445   1.699   1.300  14.830  2.1628 -0.4322 -0.5066
 6996SOL     OW32446   2.640   0.075  14.050  0.1658  0.2762 -0.1221
 6996SOL    HW132447   2.567   0.137  14.058  0.5537  0.5590  1.2582
 6996SOL    HW232448   2.599   4.721  14.013 -0.6948  0.9738 -0.6253
 6997SOL     OW32449   0.383   3.779   7.233 -0.0263  0.5057  0.2256
 6997SOL    HW132450   0.398   3.815   7.321  1.7053  0.1317  0.0742
 6997SOL    HW232451   0.423   3.695   7.254 -1.4814 -0.8294 -2.3531
 6998SOL     OW32452   0.003   0.333   5.078 -0.0674 -0.3202  0.2717
 6998SOL    HW132453   4.700   0.388   5.152 -0.4223 -1.7847  1.2371
 6998SOL    HW232454   4.657   0.269   5.080 -0.5505  0.2045 -0.0833
 6999SOL     OW32455   0.092   3.605   8.154  0.2976 -0.2412 -0.1196
 6999SOL    HW132456   0.041   3.525   8.160  0.9227 -0.6627 -0.4124
 6999SOL    HW232457   0.156   3.578   8.088 -0.9997 -1.9430 -0.6704
 7000SOL     OW32458   0.450   1.349   3.229  0.2532 -0.8575 -0.3840
 7000SOL    HW132459   0.464   1.256   3.207  2.7262 -0.3565 -0.9139
 7000SOL    HW232460   0.503   1.397   3.165 -2.4615  0.5192 -1.6180
 7001SOL     OW32461   0.270   1.928   5.223 -0.1370 -0.3379  0.0566
 7001SOL    HW132462   0.320   1.907   5.144 -0.4295 -1.2618  0.1104
 7001SOL    HW232463   0.237   2.017   5.207 -0.5116 -0.5233 -0.2119
 7002SOL     OW32464   3.176   2.805   0.154 -0.1065 -0.5748  0.4086
 7002SOL    HW132465   3.235   2.863   0.106 -0.7247  1.7479  2.4831
 7002SOL    HW232466   3.092   2.847   0.134 -0.8820 -0.5669  3.6920
 7003SOL     OW32467   2.159   3.014  16.421 -1.1107 -0.1930  0.6456
 7003SOL    HW132468   2.248   3.049  16.414 -0.7303 -1.7510 -2.0258
 7003SOL    HW232469   2.167   2.936  16.476  1.3509 -0.5709 -0.2721
 7004SOL     OW32470   1.788   4.192  15.066  0.2507 -0.1392  0.1053
 7004SOL    HW132471   1.757   4.194  14.975 -0.3791  1.1919  0.3530
 7004SOL    HW232472   1.882   4.175  15.061  0.2814 -0.1740  0.8153
 7005SOL     OW32473   3.032   3.374   6.690 -0.3038  0.0155  0.1832
 7005SOL    HW132474   3.080   3.443   6.736  0.4877  0.4913 -1.3526
 7005SOL    HW232475   3.053   3.406   6.602  1.1193  1.1420  0.9199
 7006SOL     OW32476   4.281   3.516   4.214  0.7730  0.0569  0.3845
 7006SOL    HW132477   4.258   3.609   4.214  0.3440 -0.0540  1.1626
 7006SOL    HW232478   4.218   3.480   4.276 -0.2601  0.0538 -0.6523
 7007SOL     OW32479   0.718   3.629   7.850 -0.2260 -0.0885  0.0079
 7007SOL    HW132480   0.783   3.608   7.784  0.6779  2.3773  0.1000
 7007SOL    HW232481   0.713   3.546   7.897 -0.9990 -0.1410 -0.1725
 7008SOL     OW32482   2.531   0.036   5.636 -0.2132 -0.3116  0.6023
 7008SOL    HW132483   2.475   0.081   5.574 -1.8011 -2.0915  0.7250
 7008SOL    HW232484   2.491   0.072   5.715 -3.2187 -1.2029 -0.4758
 7009SOL     OW32485   2.660   1.687   4.437  0.0173 -0.3197 -0.2842
 7009SOL    HW132486   2.690   1.671   4.526 -1.2313 -1.0684 -0.0076
 7009SOL    HW232487   2.741   1.655   4.395  0.0996  0.4460 -0.7052
 7010SOL     OW32488   0.131   0.602   8.169 -0.6389  0.0276 -0.2156
 7010SOL    HW132489   0.227   0.608   8.162 -0.6833 -1.9799 -2.5717
 7010SOL    HW232490   0.129   0.612   8.264  0.0334 -0.5107 -0.1407
 7011SOL     OW32491   2.569   2.592  15.123  0.2382  0.3136 -0.4608
 7011SOL    HW132492   2.583   2.498  15.116  0.7111  0.3092  0.6418
 7011SOL    HW232493   2.568   2.593  15.218 -1.1365  1.2913 -0.4935
 7012SOL     OW32494   1.922   2.274  13.320 -0.1946 -0.1472  0.4514
 7012SOL    HW132495   1.862   2.207  13.288 -0.5928 -1.3523  3.8003
 7012SOL    HW232496   1.873   2.320  13.387 -0.7665  1.3372 -0.9721
 7013SOL     OW32497   0.927   0.611  17.059 -0.7220  0.2699  0.3647
 7013SOL    HW132498   0.927   0.647  16.970  1.0461  0.0717  0.2804
 7013SOL    HW232499   0.859   0.546  17.040 -0.7966  0.6810 -0.7548
 7014SOL     OW32500   3.426   0.510   1.919  0.2383  0.1517 -0.7821
 7014SOL    HW132501   3.358   0.537   1.858 -0.8126 -1.5058 -0.3494
 7014SOL    HW232502   3.411   0.554   2.003 -0.2458  0.5986 -1.0990
 7015SOL     OW32503   3.385   0.265   7.123 -0.6209 -0.1057  0.0372
 7015SOL    HW132504   3.303   0.223   7.147 -0.1849 -0.5063  0.8286
 7015SOL    HW232505   3.386   0.360   7.135 -0.7955 -0.2687  1.3644
 7016SOL     OW32506   1.839   0.179  11.191 -0.6475 -0.1369 -0.2483
 7016SOL    HW132507   1.779   0.178  11.117 -0.8123 -2.6559 -0.0656
 7016SOL    HW232508   1.911   0.120  11.168  2.0271  1.9292  2.8857
 7017SOL     OW32509   1.429   1.575   3.834  0.1365 -1.0984  0.4503
 7017SOL    HW132510   1.394   1.542   3.751  1.7286  0.4411 -0.8212
 7017SOL    HW232511   1.520   1.575   3.805 -0.3532 -0.3490 -1.0967
 7018SOL     OW32512   1.150   1.610  11.128 -0.2566  0.5069  0.4134
 7018SOL    HW132513   1.192   1.661  11.058 -1.1574 -0.2428 -0.6781
 7018SOL    HW232514   1.225   1.551  11.142  0.4670  1.1328 -0.8133
 7019SOL     OW32515   4.090   2.269   1.357 -0.4808 -0.1386  0.1444
 7019SOL    HW132516   4.181   2.266   1.325 -0.9351  1.6921 -1.3187
 7019SOL    HW232517   4.087   2.362   1.380 -0.4213  0.2058 -1.2354
 7020SOL     OW32518   4.631   0.959   6.846  0.4184  0.4877  0.0908
 7020SOL    HW132519   4.618   0.926   6.757 -0.7373 -0.3288  0.5758
 7020SOL    HW232520   4.567   0.903   6.889  0.7279  0.7979  0.9539
 7021SOL     OW32521   0.864   1.540   6.766  0.1946  0.0209 -0.3333
 7021SOL    HW132522   0.817   1.509   6.843  0.5879 -0.8346 -0.4407
 7021SOL    HW232523   0.954   1.517   6.789 -0.0054 -2.1950 -1.7372
 7022SOL     OW32524   2.049   1.743  14.812  0.4636  0.3974 -0.0065
 7022SOL    HW132525   2.075   1.651  14.816  0.8996  0.4962 -0.5184
 7022SOL    HW232526   2.073   1.785  14.895  0.8822 -1.5352  0.8502
 7023SOL     OW32527   3.812   1.394   6.375 -0.5747  0.4354  0.1712
 7023SOL    HW132528   3.820   1.490   6.370  0.8164  0.2472 -1.0935
 7023SOL    HW232529   3.904   1.376   6.355  0.2145  2.5149  1.9363
 7024SOL     OW32530   3.208   1.206   4.837  0.0833  0.5548 -0.5849
 7024SOL    HW132531   3.268   1.148   4.883 -1.7003 -1.2740 -0.5451
 7024SOL    HW232532   3.281   1.257   4.801  0.6258  0.0341 -0.2107
 7025SOL     OW32533   0.519   1.190   1.767  0.2998 -0.9692 -0.2262
 7025SOL    HW132534   0.498   1.127   1.698 -2.9798 -1.4318  1.1841
 7025SOL    HW232535   0.467   1.151   1.837  0.9770  1.8327  1.8033
 7026SOL     OW32536   3.330   2.818   3.371  0.1206  0.1318 -0.0833
 7026SOL    HW132537   3.263   2.781   3.315  0.6259 -1.5492  0.4128
 7026SOL    HW232538   3.333   2.745   3.434  0.1040 -0.4891 -0.8042
 7027SOL     OW32539   1.674   4.555   6.598  0.1295 -0.8743  0.1512
 7027SOL    HW132540   1.727   4.589   6.525  0.2734  1.1684  1.2240
 7027SOL    HW232541   1.657   4.624   6.662  0.9569 -1.8628  1.4366
 7028SOL     OW32542   2.864   1.884   9.056 -0.4046 -0.0720  0.3327
 7028SOL    HW132543   2.885   1.923   8.971  0.5948  1.2045  1.1624
 7028SOL    HW232544   2.950   1.850   9.081  0.8339  3.5152  0.9704
 7029SOL     OW32545   1.711   3.214   7.063  0.2963 -0.1495  0.4325
 7029SOL    HW132546   1.777   3.147   7.080  1.2952  1.0634  1.3496
 7029SOL    HW232547   1.759   3.270   7.001 -1.4136  0.0511 -0.7009
 7030SOL     OW32548   3.637   0.368   1.781  0.5504  0.2088 -0.6865
 7030SOL    HW132549   3.593   0.438   1.830  1.2166  0.1593 -0.0227
 7030SOL    HW232550   3.564   0.320   1.742 -0.9428  1.4399  0.5441
 7031SOL     OW32551   1.882   2.195   2.482  0.0565  0.4688 -0.0977
 7031SOL    HW132552   1.943   2.122   2.491 -0.4935  0.0807  0.4661
 7031SOL    HW232553   1.941   2.268   2.466 -0.9635  1.2993 -0.1044
 7032SOL     OW32554   0.970   0.179   0.838 -0.0655  0.3693  0.4291
 7032SOL    HW132555   1.032   0.188   0.911  0.1218  1.6688  0.1151
 7032SOL    HW232556   0.924   0.098   0.859  0.0543 -0.8340 -4.0869
 7033SOL     OW32557   3.076   0.211   6.886  0.2750 -0.2599  0.0758
 7033SOL    HW132558   3.110   0.259   6.811 -0.0425 -1.2573 -0.7131
 7033SOL    HW232559   3.041   0.280   6.941 -1.0225 -1.6834  1.0448
 7034SOL     OW32560   2.375   2.112   4.265  0.1925  0.3897 -0.2101
 7034SOL    HW132561   2.384   2.023   4.299 -1.7033  0.8556  1.5004
 7034SOL    HW232562   2.427   2.166   4.324 -0.7379  0.0241  0.9487
 7035SOL     OW32563   3.551   2.658  15.854  0.0695  0.0122  0.1621
 7035SOL    HW132564   3.642   2.631  15.861  1.0942  2.9261 -1.9402
 7035SOL    HW232565   3.512   2.581  15.895  0.1905  0.6243  1.4169
 7036SOL     OW32566   0.979   2.352   7.335 -0.3462  0.6980 -0.8512
 7036SOL    HW132567   1.009   2.262   7.332 -2.6875 -0.1476  1.4520
 7036SOL    HW232568   1.058   2.403   7.355  0.7030 -1.7261  1.1663
 7037SOL     OW32569   2.535   2.310   2.009 -0.1628 -0.2572 -0.2501
 7037SOL    HW132570   2.618   2.346   2.038 -1.0320  1.9385 -0.5362
 7037SOL    HW232571   2.561   2.239   1.950  0.9131 -0.4764  0.4800
 7038SOL     OW32572   1.209   4.085  13.354  0.5254 -0.2022  0.5037
 7038SOL    HW132573   1.262   4.043  13.286  1.3665 -0.8164  1.5566
 7038SOL    HW232574   1.123   4.045  13.344 -0.5586  1.7249  2.0575
 7039SOL     OW32575   0.175   3.133   7.567 -0.3538 -0.1560  0.0919
 7039SOL    HW132576   0.184   3.042   7.539 -1.9937  0.2787 -1.8359
 7039SOL    HW232577   0.181   3.122   7.661  0.8793 -1.4924 -0.1448
 7040SOL     OW32578   2.711   4.442   5.845  0.1902 -0.4151 -0.8127
 7040SOL    HW132579   2.638   4.455   5.785  0.7035  2.7588 -0.7754
 7040SOL    HW232580   2.786   4.457   5.787  0.6679 -2.9598 -0.8364
 7041SOL     OW32581   3.849   4.452   1.029 -0.4474 -0.2201  0.0386
 7041SOL    HW132582   3.784   4.514   1.061 -2.7094 -2.4582 -0.1866
 7041SOL    HW232583   3.931   4.470   1.075 -0.0813  3.0493 -1.8715
 7042SOL     OW32584   2.545   4.158   1.490  0.1026  0.4840  0.1827
 7042SOL    HW132585   2.524   4.192   1.577 -0.3839  2.3782 -0.6832
 7042SOL    HW232586   2.456   4.164   1.457 -0.0744  0.4134  0.6441
 7043SOL     OW32587   4.346   2.839  16.047 -0.0661 -0.3169  0.0701
 7043SOL    HW132588   4.288   2.896  15.996 -2.0573 -1.7320  0.7698
 7043SOL    HW232589   4.382   2.789  15.974  3.9181 -1.6454  2.9764
 7044SOL     OW32590   4.500   4.714   8.899  0.2261 -0.1236 -0.4799
 7044SOL    HW132591   4.529   4.671   8.979  1.0414 -0.5549 -1.0014
 7044SOL    HW232592   4.457   0.067   8.936 -0.6203 -1.8633  2.1511
 7045SOL     OW32593   3.371   0.021   4.241  0.7261 -0.0844 -0.1403
 7045SOL    HW132594   3.287   0.008   4.286  0.0538  0.6963 -1.1705
 7045SOL    HW232595   3.427   0.059   4.309  0.1109 -0.9390  0.8543
 7046SOL     OW32596   0.902   2.863   0.001  0.4457 -0.0727 -0.3635
 7046SOL    HW132597   0.893   2.954  17.673  3.3683 -0.1458 -1.6334
 7046SOL    HW232598   0.989   2.836  17.670  1.2333 -0.9625  2.6881
 7047SOL     OW32599   1.267   3.191  13.454 -0.0045  0.1684  0.2110
 7047SOL    HW132600   1.191   3.141  13.484 -1.5696  1.6677 -1.2545
 7047SOL    HW232601   1.229   3.246  13.385 -0.8772 -0.8459 -0.1190
 7048SOL     OW32602   0.460   2.140   9.655  0.2909 -0.4897 -0.8688
 7048SOL    HW132603   0.427   2.216   9.704  1.8669  0.2744 -1.0094
 7048SOL    HW232604   0.538   2.111   9.702 -0.2994 -2.7300 -1.2341
 7049SOL     OW32605   2.652   4.644   4.354  0.0298 -0.1965  0.0884
 7049SOL    HW132606   2.661   4.551   4.373 -0.6889 -0.1833  0.4677
 7049SOL    HW232607   2.689   4.686   4.431  1.4911  0.8839 -1.1937
 7050SOL     OW32608   1.375   2.740  14.638 -0.3617 -0.0162 -0.4307
 7050SOL    HW132609   1.399   2.658  14.680  1.5097 -0.6830 -2.7914
 7050SOL    HW232610   1.339   2.711  14.554  1.8523  2.0534 -2.1038
 7051SOL     OW32611   3.029   3.318   3.617 -0.1978  0.6095 -0.6712
 7051SOL    HW132612   3.004   3.248   3.677  0.9161  1.1844  0.4655
 7051SOL    HW232613   3.123   3.299   3.610 -0.6829 -2.0940 -0.0615
 7052SOL     OW32614   4.184   0.858   7.819 -0.1619 -0.0206 -0.9539
 7052SOL    HW132615   4.229   0.902   7.747  1.8929 -0.6798 -0.0745
 7052SOL    HW232616   4.254   0.802   7.853  0.3280  1.3987  0.3694
 7053SOL     OW32617   3.804   3.736   2.927 -0.2122  0.3013  0.5657
 7053SOL    HW132618   3.803   3.681   2.849  2.3126 -0.3950  1.0195
 7053SOL    HW232619   3.752   3.810   2.896 -0.9511  0.7150  2.8233
 7054SOL     OW32620   1.448   0.428  15.542 -0.0335 -0.0230  0.0909
 7054SOL    HW132621   1.487   0.351  15.502  0.9668  0.7525 -0.4417
 7054SOL    HW232622   1.474   0.501  15.486 -1.4127 -0.1769 -0.7464
 7055SOL     OW32623   2.880   3.247  17.639  0.3688 -0.0837  0.0059
 7055SOL    HW132624   2.896   3.161  17.600 -1.1103 -0.8098  1.0256
 7055SOL    HW232625   2.797   3.230  17.684  0.1639 -0.1465 -0.4004
 7056SOL     OW32626   2.732   0.903   3.784  0.0528 -0.6840 -0.2422
 7056SOL    HW132627   2.817   0.947   3.775 -0.0425 -0.3975  0.2224
 7056SOL    HW232628   2.740   0.846   3.861 -0.7365  1.2459  1.2683
 7057SOL     OW32629   1.279   0.605   3.274 -0.1247 -0.3355 -0.3074
 7057SOL    HW132630   1.311   0.654   3.350 -1.1804  0.6005 -0.4619
 7057SOL    HW232631   1.222   0.656   3.216  1.5200  1.8930  0.0387
 7058SOL     OW32632   2.298   3.154  15.764 -0.1481 -0.2757  0.0036
 7058SOL    HW132633   2.320   3.165  15.671  3.1066 -1.5926  0.6162
 7058SOL    HW232634   2.250   3.071  15.757  0.7243 -0.6465 -1.6942
 7059SOL     OW32635   2.407   4.364   2.671  0.4209 -0.0426 -0.0235
 7059SOL    HW132636   2.483   4.307   2.654  0.7089  0.2545  0.2558
 7059SOL    HW232637   2.341   4.310   2.713  0.0400 -0.4968 -1.2122
 7060SOL     OW32638   3.189   2.057   8.762  0.6500 -0.7343  0.6706
 7060SOL    HW132639   3.229   2.055   8.849  2.6664  0.8038 -0.2354
 7060SOL    HW232640   3.254   2.116   8.724 -0.1560 -0.5633 -0.4242
 7061SOL     OW32641   2.318   0.924   5.847 -0.4300  0.3526  0.5924
 7061SOL    HW132642   2.347   0.990   5.910  1.3326  0.8742 -0.7580
 7061SOL    HW232643   2.341   0.978   5.772  0.5349 -1.3546 -0.3541
 7062SOL     OW32644   0.542   4.673   4.486 -0.4927 -0.3494  0.0732
 7062SOL    HW132645   0.555   0.005   4.410  3.1685 -2.7295 -1.0495
 7062SOL    HW232646   0.595   0.006   4.540  1.3277  0.3557 -2.4931
 7063SOL     OW32647   0.702   3.957   1.911  0.3154 -0.4520  0.3665
 7063SOL    HW132648   0.651   4.038   1.902 -2.0482 -2.0620 -0.8598
 7063SOL    HW232649   0.640   3.891   1.879 -1.0847 -0.1624  2.4933
 7064SOL     OW32650   0.681   2.206   3.900 -0.1176 -0.3072 -0.3705
 7064SOL    HW132651   0.678   2.298   3.873 -0.7065  0.1482  1.2285
 7064SOL    HW232652   0.607   2.184   3.956 -0.3210  0.3734 -0.3726
 7065SOL     OW32653   1.721   0.084  13.093  0.2795  0.2754 -0.2710
 7065SOL    HW132654   1.704   0.123  13.007 -0.1228 -0.1640 -0.3931
 7065SOL    HW232655   1.637   0.109  13.130  0.1626  1.1400 -1.1060
 7066SOL     OW32656   4.288   3.988  15.841  0.3051 -0.5810 -0.0694
 7066SOL    HW132657   4.234   3.971  15.764  0.8564 -1.8894 -0.1701
 7066SOL    HW232658   4.252   4.072  15.869 -1.1328 -0.6785 -1.5790
 7067SOL     OW32659   3.032   1.751   5.324 -0.3894  0.1381 -0.2793
 7067SOL    HW132660   3.021   1.834   5.279 -0.7585 -0.1721 -0.7625
 7067SOL    HW232661   3.125   1.747   5.347 -0.2685  0.7372 -0.6797
 7068SOL     OW32662   4.042   0.561  16.773 -0.3104  0.6587  0.5426
 7068SOL    HW132663   4.050   0.465  16.777  1.1617  0.7569 -0.1141
 7068SOL    HW232664   4.048   0.581  16.866  0.7189 -0.9732  0.8302
 7069SOL     OW32665   3.403   4.280  10.334  0.0965 -0.0503  0.1589
 7069SOL    HW132666   3.428   4.371  10.319  0.5086 -0.2038 -0.0953
 7069SOL    HW232667   3.309   4.285  10.317 -0.1925 -0.3804  1.7080
 7070SOL     OW32668   0.514   1.930  13.972 -0.4079 -0.0268  0.0649
 7070SOL    HW132669   0.487   1.983  13.897 -1.1462 -0.9909 -0.3565
 7070SOL    HW232670   0.605   1.955  13.988  0.0766 -1.3956 -0.5458
 7071SOL     OW32671   2.697   4.714   2.988 -0.1577  0.2921 -0.4227
 7071SOL    HW132672   2.664   0.004   2.900  0.0082  1.2743 -0.3234
 7071SOL    HW232673   2.723   4.622   2.983  1.6584  0.7451  0.6320
 7072SOL     OW32674   2.191   2.337   0.079  0.0856 -0.1372  0.0090
 7072SOL    HW132675   2.235   2.345   0.164  1.6509 -0.4716 -0.7841
 7072SOL    HW232676   2.119   2.399   0.095 -0.7310 -0.9099 -0.6619
 7073SOL     OW32677   0.413   3.815   5.248  0.0564 -0.3036 -0.2082
 7073SOL    HW132678   0.505   3.842   5.251 -0.8634  2.7142  1.1046
 7073SOL    HW232679   0.400   3.769   5.165  0.7596 -1.4505  0.2971
 7074SOL     OW32680   3.316   1.507   2.267  0.5264  0.2403  0.1357
 7074SOL    HW132681   3.332   1.489   2.175  2.4807  0.1040  0.5065
 7074SOL    HW232682   3.405   1.489   2.296  1.0065  0.7232 -1.0540
 7075SOL     OW32683   0.907   2.651   2.898 -0.6097  0.5012  0.7509
 7075SOL    HW132684   0.889   2.654   2.804  3.2425  1.6395  0.0618
 7075SOL    HW232685   0.818   2.642   2.934 -1.1200  1.7921 -0.2067
 7076SOL     OW32686   1.864   3.297  13.308  0.9498 -1.7200 -0.0978
 7076SOL    HW132687   1.890   3.364  13.245  0.4560 -1.2740  0.1794
 7076SOL    HW232688   1.805   3.355  13.356  0.7209 -1.0415 -1.1910
 7077SOL     OW32689   2.544   3.658  13.723  0.1700  0.0441  0.1089
 7077SOL    HW132690   2.540   3.695  13.811 -2.6242 -0.1055  0.0297
 7077SOL    HW232691   2.453   3.663  13.696  0.3377 -1.7663 -0.7512
 7078SOL     OW32692   2.292   1.135  11.317 -0.5405 -0.3800 -0.3354
 7078SOL    HW132693   2.383   1.130  11.288 -0.4583 -0.3308 -0.0902
 7078SOL    HW232694   2.299   1.153  11.411  0.8273  0.8616 -0.6836
 7079SOL     OW32695   0.341   3.687   4.004 -0.2196 -0.8044  0.8701
 7079SOL    HW132696   0.299   3.685   3.918  2.5113  1.0720 -0.5379
 7079SOL    HW232697   0.294   3.617   4.048 -1.3431 -1.1605 -0.8870
 7080SOL     OW32698   2.500   1.148   7.309 -0.6111  0.4070 -0.6214
 7080SOL    HW132699   2.467   1.166   7.221  1.8230 -0.7475 -1.7593
 7080SOL    HW232700   2.564   1.079   7.292  0.6634  1.4065  0.0839
 7081SOL     OW32701   3.586   3.565   7.442  0.1235 -0.2295 -0.5988
 7081SOL    HW132702   3.604   3.569   7.536  0.8912 -0.2641 -0.7434
 7081SOL    HW232703   3.634   3.491   7.405 -0.6857 -1.5347  0.9739
 7082SOL     OW32704   4.686   4.397  11.136  0.1831  0.5812  0.0573
 7082SOL    HW132705   4.628   4.406  11.212  0.4131  1.3447  0.1331
 7082SOL    HW232706   4.638   4.450  11.073  2.0778  3.2701  0.8670
 7083SOL     OW32707   0.130   0.340   2.736 -0.0196 -0.3365  0.2645
 7083SOL    HW132708   0.092   0.334   2.649 -0.3742  0.0885  0.3885
 7083SOL    HW232709   0.223   0.355   2.715  0.1411  0.8988  1.7934
 7084SOL     OW32710   3.940   4.469   5.728 -0.5705  0.5609 -0.5807
 7084SOL    HW132711   4.009   4.532   5.706 -0.1314 -0.5251 -2.3003
 7084SOL    HW232712   3.859   4.517   5.709  0.0100  1.3047 -1.1828
 7085SOL     OW32713   0.770   4.032  16.349  0.1140 -0.5229 -0.7979
 7085SOL    HW132714   0.676   4.037  16.334  0.5571 -0.4017 -3.4289
 7085SOL    HW232715   0.777   4.031  16.445 -0.4771  0.6946 -0.7383
 7086SOL     OW32716   2.738   4.188  15.301  0.2187 -0.1506  0.0524
 7086SOL    HW132717   2.745   4.131  15.225 -0.1841 -2.3703  1.6694
 7086SOL    HW232718   2.828   4.216  15.318  0.5412 -1.4350  0.4145
 7087SOL     OW32719   2.093   1.694   3.301  0.8558 -0.4381  0.3263
 7087SOL    HW132720   2.070   1.770   3.355  2.4718  1.5092 -1.7073
 7087SOL    HW232721   2.017   1.637   3.312 -0.7821  0.8491 -4.0741
 7088SOL     OW32722   4.469   2.354   0.290  0.1766  1.1298  0.1242
 7088SOL    HW132723   4.522   2.403   0.227  1.2389 -0.0786  0.0841
 7088SOL    HW232724   4.516   2.271   0.297  2.3176  2.3099  0.1101
 7089SOL     OW32725   2.735   1.755   3.489 -0.3087  0.3467  0.1357
 7089SOL    HW132726   2.680   1.743   3.412  2.4266 -2.8069 -1.3280
 7089SOL    HW232727   2.761   1.665   3.509 -0.7327  0.2218  0.1336
 7090SOL     OW32728   3.174   2.113   0.408  0.1911  0.3908 -0.1196
 7090SOL    HW132729   3.233   2.188   0.407  1.6662 -0.7566  0.6881
 7090SOL    HW232730   3.211   2.070   0.331 -0.2604 -0.0734 -0.0743
 7091SOL     OW32731   4.267   2.361   1.633  0.0492  0.3867 -0.1835
 7091SOL    HW132732   4.241   2.378   1.724 -2.1950 -1.2931 -0.5241
 7091SOL    HW232733   4.360   2.382   1.630  0.3042 -0.8519 -0.8794
 7092SOL     OW32734   2.767   3.541  13.613  0.2205  0.2402  0.1355
 7092SOL    HW132735   2.694   3.594  13.644  1.6864  1.6610  1.1856
 7092SOL    HW232736   2.721   3.458  13.599  0.4248  0.0959  0.3121
 7093SOL     OW32737   2.058   1.971   8.969  0.0608 -0.1665  0.9465
 7093SOL    HW132738   2.030   1.892   9.015  1.1907 -2.0872 -1.6379
 7093SOL    HW232739   1.981   2.028   8.970  0.1432  0.0258 -3.4092
 7094SOL     OW32740   2.295   2.526   9.506 -0.0092  0.6792  0.0983
 7094SOL    HW132741   2.202   2.504   9.504  0.1064  0.3325 -1.5377
 7094SOL    HW232742   2.329   2.469   9.574  0.5796 -0.6207 -1.2691
 7095SOL     OW32743   3.101   2.574   7.250 -0.4565 -0.0624 -0.3090
 7095SOL    HW132744   3.180   2.584   7.303 -1.8395 -0.5242  1.8023
 7095SOL    HW232745   3.091   2.659   7.209 -0.2380  0.2803  0.3504
 7096SOL     OW32746   2.309   0.874   5.334  0.1166  0.1493 -0.0084
 7096SOL    HW132747   2.318   0.813   5.261 -0.2731 -0.0529  0.1133
 7096SOL    HW232748   2.234   0.835   5.379 -0.6984  0.6845 -0.8951
 7097SOL     OW32749   1.629   4.246   6.933 -0.5861  0.3161 -0.2906
 7097SOL    HW132750   1.564   4.316   6.922 -0.3323  0.5603 -0.2298
 7097SOL    HW232751   1.572   4.179   6.969  1.3443 -0.8816  0.5028
 7098SOL     OW32752   2.919   0.983  14.477  0.2822  0.1902  0.0389
 7098SOL    HW132753   2.966   0.901  14.492  1.3443  0.6888 -0.5717
 7098SOL    HW232754   2.985   1.053  14.479  0.8224 -0.3425  1.1938
 7099SOL     OW32755   3.787   0.338   7.866  0.1536 -0.3437 -0.2224
 7099SOL    HW132756   3.695   0.361   7.877  0.2447  0.3054 -0.8663
 7099SOL    HW232757   3.816   0.427   7.849 -0.0074  0.4689  3.7358
 7100SOL     OW32758   3.515   2.452   5.405  0.0156 -0.2127 -0.2522
 7100SOL    HW132759   3.457   2.511   5.453 -0.8461  0.3615 -1.9975
 7100SOL    HW232760   3.527   2.390   5.477  1.2460  0.9251  0.5058
 7101SOL     OW32761   0.421   2.279   7.052  0.0180  0.0701  0.4424
 7101SOL    HW132762   0.449   2.253   6.964  3.1248  4.4572  0.1453
 7101SOL    HW232763   0.329   2.261   7.030 -0.4264  0.8476  1.6919
 7102SOL     OW32764   1.866   0.605   3.923 -0.4117 -0.2199 -0.2163
 7102SOL    HW132765   1.771   0.604   3.936 -0.3163  1.3526  0.5006
 7102SOL    HW232766   1.896   0.669   3.988 -1.6108  0.6878 -0.5759
 7103SOL     OW32767   2.966   1.506   2.998 -0.2828  0.0020 -0.4489
 7103SOL    HW132768   3.010   1.421   2.987  0.8140  0.7496 -1.8328
 7103SOL    HW232769   3.013   1.567   2.940  1.0363 -1.1648 -0.6287
 7104SOL     OW32770   2.561   0.794  16.016 -0.4764  0.1743  0.0596
 7104SOL    HW132771   2.533   0.884  16.000  1.8463  0.3591 -2.8898
 7104SOL    HW232772   2.629   0.805  16.082 -1.3259 -2.0187  1.3265
 7105SOL     OW32773   1.401   1.850   2.559 -0.3077  0.1504  0.3498
 7105SOL    HW132774   1.483   1.862   2.606 -0.8021 -0.2540  1.3392
 7105SOL    HW232775   1.421   1.883   2.472  1.8273 -2.1460 -0.0465
 7106SOL     OW32776   3.463   4.184   1.607  0.0071  0.4324  0.5528
 7106SOL    HW132777   3.539   4.243   1.615  0.3683 -0.1954  1.6843
 7106SOL    HW232778   3.472   4.110   1.667 -0.1127  1.0344  1.3180
 7107SOL     OW32779   1.791   3.052  13.266  0.3056 -0.5089 -0.4641
 7107SOL    HW132780   1.839   3.134  13.272  0.8454 -0.9088  0.6571
 7107SOL    HW232781   1.706   3.096  13.269  1.1555  1.0035  1.4301
 7108SOL     OW32782   0.907   3.617   7.660  0.0367  0.6781  0.7886
 7108SOL    HW132783   0.917   3.568   7.579 -1.1907  0.0072  1.0443
 7108SOL    HW232784   0.982   3.675   7.651 -0.6213  1.0763 -2.2271
 7109SOL     OW32785   1.099   2.094  17.600 -0.2769 -0.3684  0.4309
 7109SOL    HW132786   1.080   2.123  17.689  1.1629 -2.6366  1.4560
 7109SOL    HW232787   1.193   2.076  17.605 -0.4565 -1.3707  0.1262
 7110SOL     OW32788   3.998   3.269   2.853 -0.0181  0.1363 -0.2584
 7110SOL    HW132789   4.029   3.224   2.932 -1.4100  0.6721  0.5764
 7110SOL    HW232790   3.971   3.351   2.894 -0.1009 -0.6496  1.2696
 7111SOL     OW32791   3.330   1.376   6.232  0.0671 -0.6745 -0.5119
 7111SOL    HW132792   3.271   1.382   6.307  0.5029 -1.1322 -0.1345
 7111SOL    HW232793   3.287   1.417   6.157  0.3974  0.5887 -0.0024
 7112SOL     OW32794   4.328   1.574   4.972 -0.0193 -0.2737 -0.1102
 7112SOL    HW132795   4.233   1.590   4.977 -0.4046 -1.9416 -2.1570
 7112SOL    HW232796   4.362   1.661   4.993 -0.9780  0.2648 -0.8139
 7113SOL     OW32797   0.199   3.971   8.511  0.8322  0.3220  0.3126
 7113SOL    HW132798   0.185   3.890   8.462 -1.6996 -0.4544  2.2896
 7113SOL    HW232799   0.158   4.034   8.452  2.2891  0.2148 -0.8042
 7114SOL     OW32800   0.701   2.151  13.206 -0.5606  0.1233 -0.4439
 7114SOL    HW132801   0.654   2.084  13.157 -2.5133 -0.2109  1.9049
 7114SOL    HW232802   0.773   2.107  13.251 -0.7793  0.4700  0.2516
 7115SOL     OW32803   3.480   0.654   9.045 -0.1680 -0.5632  0.3684
 7115SOL    HW132804   3.433   0.659   9.129  0.4933  2.0495  0.5688
 7115SOL    HW232805   3.557   0.709   9.059 -1.9972  2.3083 -0.8776
 7116SOL     OW32806   2.856   0.633  14.320  0.7235 -0.6029  0.5892
 7116SOL    HW132807   2.807   0.573  14.376  1.7811 -1.6003  0.4471
 7116SOL    HW232808   2.910   0.675  14.387 -2.6889  1.9569  1.6691
 7117SOL     OW32809   2.319   2.951   1.561 -0.0991 -0.3728  0.6032
 7117SOL    HW132810   2.227   2.972   1.577  0.5405  2.3250  0.5871
 7117SOL    HW232811   2.332   2.880   1.498 -4.0394 -0.8905  0.3263
 7118SOL     OW32812   1.346   1.578   8.526  0.2764  0.2966 -0.0178
 7118SOL    HW132813   1.412   1.575   8.457  0.0050 -0.5904 -0.2444
 7118SOL    HW232814   1.293   1.656   8.511  2.8401  2.0871  0.3934
 7119SOL     OW32815   1.432   3.504   5.488 -0.4907  0.0851  0.0205
 7119SOL    HW132816   1.463   3.590   5.459  1.0804 -0.1776  0.9152
 7119SOL    HW232817   1.365   3.481   5.424 -1.7975  2.1266  0.6495
 7120SOL     OW32818   2.999   1.403   2.177  0.1330  0.0750  1.0233
 7120SOL    HW132819   2.914   1.411   2.135  1.5439  2.2218 -1.4381
 7120SOL    HW232820   3.033   1.317   2.153 -2.6460 -1.0613  1.2427
 7121SOL     OW32821   2.903   2.378   3.097  0.4557  0.0975  0.0371
 7121SOL    HW132822   2.906   2.472   3.081 -0.9932 -0.1753 -1.7441
 7121SOL    HW232823   2.888   2.349   3.007  2.0565  1.6602 -0.7315
 7122SOL     OW32824   2.876   4.346   7.297  0.1401 -0.2125  0.1038
 7122SOL    HW132825   2.793   4.348   7.249 -1.4232  0.4489  2.8295
 7122SOL    HW232826   2.928   4.409   7.246 -1.6767  0.6491 -0.6695
 7123SOL     OW32827   0.803   2.932   6.794  0.3510  0.5094 -0.6293
 7123SOL    HW132828   0.833   3.019   6.766  1.7922  0.2255  0.0523
 7123SOL    HW232829   0.860   2.876   6.741 -0.5583 -0.8785 -0.1284
 7124SOL     OW32830   4.616   2.376   4.495  0.3124 -0.0798  0.7258
 7124SOL    HW132831   4.705   2.403   4.520 -0.3990  2.8856  0.0385
 7124SOL    HW232832   4.599   2.459   4.449 -1.1511  0.3772  2.1252
 7125SOL     OW32833   3.122   4.197   8.141 -0.2588 -0.1183  0.1676
 7125SOL    HW132834   3.042   4.170   8.096 -0.2359 -2.8621  1.7890
 7125SOL    HW232835   3.192   4.142   8.105 -0.4227 -0.0126 -0.3081
 7126SOL     OW32836   0.914   0.322  15.192 -0.6989  0.5339 -0.4593
 7126SOL    HW132837   0.972   0.249  15.170  0.2017  0.8224  0.9387
 7126SOL    HW232838   0.872   0.288  15.271  2.2857  0.4052  1.0595
 7127SOL     OW32839   1.206   2.770   7.422 -0.1269 -0.1541  0.4730
 7127SOL    HW132840   1.285   2.789   7.371 -0.5518  1.7744  0.5075
 7127SOL    HW232841   1.233   2.823   7.497 -0.1093 -2.0280  1.7706
 7128SOL     OW32842   1.476   2.597   1.700 -0.5501 -0.4658 -0.3259
 7128SOL    HW132843   1.416   2.565   1.633 -1.0413 -0.9600  0.3545
 7128SOL    HW232844   1.547   2.540   1.668 -1.6551 -2.0859  0.1354
 7129SOL     OW32845   1.348   3.131   5.887 -0.0434  0.0882  0.2208
 7129SOL    HW132846   1.427   3.158   5.933  0.6144 -1.0174 -0.2892
 7129SOL    HW232847   1.357   3.181   5.806  0.4720  1.2225  0.9801
 7130SOL     OW32848   4.515   1.795   7.594 -0.1696 -0.3020 -0.1241
 7130SOL    HW132849   4.474   1.709   7.582  0.6883 -0.6552 -0.5213
 7130SOL    HW232850   4.581   1.797   7.524  0.3225  0.0821  0.3497
 7131SOL     OW32851   3.333   3.864  10.852  0.0804 -0.5679 -0.1137
 7131SOL    HW132852   3.415   3.830  10.814 -0.5949  1.6556 -3.5683
 7131SOL    HW232853   3.266   3.880  10.786 -1.4236 -0.8561  1.3589
 7132SOL     OW32854   0.523   3.742   8.011  0.5151 -0.3207  0.0417
 7132SOL    HW132855   0.553   3.693   7.935 -0.7866  1.9385 -1.9386
 7132SOL    HW232856   0.598   3.801   8.020 -2.4783  3.7050 -1.2598
 7133SOL     OW32857   1.211   2.928   8.855 -0.1559  0.1751 -0.0140
 7133SOL    HW132858   1.134   2.895   8.902 -0.9370 -3.2611 -3.6996
 7133SOL    HW232859   1.229   3.008   8.904 -1.3663  0.5851 -0.2328
 7134SOL     OW32860   2.420   1.432   5.526 -0.6525 -0.7699  0.2677
 7134SOL    HW132861   2.397   1.412   5.617  2.3049 -2.1533  0.7431
 7134SOL    HW232862   2.368   1.367   5.479  0.2192  1.8420 -4.2546
 7135SOL     OW32863   4.624   4.552  12.565 -0.4219 -0.7178  0.2778
 7135SOL    HW132864   4.561   4.504  12.512  0.5326 -1.4238 -0.2205
 7135SOL    HW232865   4.646   4.626  12.508 -1.1965 -0.5738  0.1675
 7136SOL     OW32866   3.108   0.361   1.481 -0.2606  0.0097 -0.4377
 7136SOL    HW132867   3.049   0.294   1.447  0.0378 -0.3071 -0.3389
 7136SOL    HW232868   3.113   0.409   1.399 -0.2102  1.8307  0.6289
 7137SOL     OW32869   0.765   1.356   3.785 -0.3393 -0.3054  0.0245
 7137SOL    HW132870   0.694   1.338   3.846 -0.1127 -0.2998  0.2917
 7137SOL    HW232871   0.741   1.432   3.731 -0.9702 -1.0599 -0.7517
 7138SOL     OW32872   1.752   0.295   7.816  0.4799  0.0949  0.3184
 7138SOL    HW132873   1.764   0.241   7.738  0.0447  1.5723 -0.7671
 7138SOL    HW232874   1.790   0.377   7.785 -2.2910  1.1729 -0.2683
 7139SOL     OW32875   1.745   4.266  16.653 -0.2215 -0.0568  0.1722
 7139SOL    HW132876   1.666   4.293  16.605  0.7142  1.3238 -0.5984
 7139SOL    HW232877   1.792   4.234  16.576 -2.5817 -0.2338 -1.1916
 7140SOL     OW32878   2.680   0.861   8.625  0.2508 -0.1304 -0.3324
 7140SOL    HW132879   2.632   0.806   8.563  0.6117 -1.6955  0.7830
 7140SOL    HW232880   2.685   0.946   8.580 -2.1102 -0.3628 -1.0372
 7141SOL     OW32881   0.677   1.486  17.084 -0.1854  0.2588 -1.2577
 7141SOL    HW132882   0.611   1.553  17.068  0.4383  0.9768 -0.7769
 7141SOL    HW232883   0.722   1.493  17.000  0.0711  1.2428 -1.0349
 7142SOL     OW32884   1.559   3.452   6.392  0.0136  0.3416 -0.1346
 7142SOL    HW132885   1.513   3.446   6.309 -0.5229  0.3967  0.1523
 7142SOL    HW232886   1.560   3.540   6.432  0.2313 -0.7113  2.2146
 7143SOL     OW32887   0.041   0.045   4.820  0.5290 -0.7045 -0.3001
 7143SOL    HW132888   0.044   4.703   4.889  1.7207 -0.5557 -0.2112
 7143SOL    HW232889   0.132   0.073   4.807  0.9902 -1.1605  1.8732
 7144SOL     OW32890   0.614   1.338   0.255 -0.6088 -0.0442 -0.0744
 7144SOL    HW132891   0.697   1.385   0.240 -0.5946  0.1139  0.4977
 7144SOL    HW232892   0.638   1.288   0.333 -0.3083  0.0641 -0.0953
 7145SOL     OW32893   2.351   1.433  13.042  0.7989 -0.3340  0.3082
 7145SOL    HW132894   2.387   1.356  13.086 -1.5831 -3.3337 -3.0597
 7145SOL    HW232895   2.258   1.434  13.064  0.8482 -0.7552  0.5326
 7146SOL     OW32896   0.543   2.205  16.759  0.1836 -0.0833  0.2444
 7146SOL    HW132897   0.621   2.215  16.704  0.6365  2.1401  1.2700
 7146SOL    HW232898   0.470   2.186  16.700 -0.4400  2.5532  0.1393
 7147SOL     OW32899   1.291   3.152   8.995  0.3283  0.6062  1.0640
 7147SOL    HW132900   1.246   3.125   9.075 -1.2556 -1.1363 -0.4082
 7147SOL    HW232901   1.247   3.236   8.983 -0.6485  0.3648  3.0335
 7148SOL     OW32902   1.922   4.722   3.238 -0.0897 -0.3445  0.0045
 7148SOL    HW132903   1.832   4.693   3.252 -0.4344 -0.5868 -2.8114
 7148SOL    HW232904   1.918   0.092   3.250  0.4868 -0.3321  0.1323
 7149SOL     OW32905   0.133   1.065   4.856 -0.0331 -0.5863  0.0579
 7149SOL    HW132906   0.209   1.109   4.818 -0.0919 -1.0932 -0.6597
 7149SOL    HW232907   0.105   1.013   4.780 -3.3757 -3.1796  3.0892
 7150SOL     OW32908   2.587   3.124   6.046  0.1384  0.7617 -0.2249
 7150SOL    HW132909   2.497   3.140   6.019 -0.6782 -1.5688  1.2073
 7150SOL    HW232910   2.574   3.040   6.090  0.8840 -1.0434 -3.4912
 7151SOL     OW32911   0.833   0.377   1.034  0.1456  0.6991 -0.0659
 7151SOL    HW132912   0.864   0.328   0.958  1.0269 -0.5947  1.1065
 7151SOL    HW232913   0.813   0.302   1.090 -0.8974  0.2343 -1.0723
 7152SOL     OW32914   4.399   3.521  11.131  0.5931  0.1338 -0.5617
 7152SOL    HW132915   4.356   3.445  11.171 -0.6399  1.5628  0.8507
 7152SOL    HW232916   4.442   3.564  11.205 -1.3809  4.2944 -1.7793
 7153SOL     OW32917   2.419   3.071   4.455  0.2268  0.1825  0.0867
 7153SOL    HW132918   2.330   3.102   4.467  0.4804  2.2474 -3.3069
 7153SOL    HW232919   2.445   3.092   4.545  1.5286 -1.8049  0.1779
 7154SOL     OW32920   3.845   0.649   2.977 -0.1220 -0.1680  0.1570
 7154SOL    HW132921   3.879   0.735   3.002 -0.8276 -0.7271  3.0346
 7154SOL    HW232922   3.861   0.653   2.883  0.5691  0.4241  0.3023
 7155SOL     OW32923   4.347   1.585  13.279  0.1200  0.4736  0.3266
 7155SOL    HW132924   4.328   1.554  13.368 -1.5577 -1.3992 -0.6694
 7155SOL    HW232925   4.318   1.514  13.221 -3.7284  1.9717  0.4255
 7156SOL     OW32926   4.576   2.466  12.572  0.3840 -0.0040 -0.4207
 7156SOL    HW132927   4.558   2.375  12.548  3.6021 -0.8216  0.2925
 7156SOL    HW232928   4.496   2.486  12.620  1.1603  2.5811 -0.1476
 7157SOL     OW32929   2.955   0.904  15.218 -0.2934 -0.3601  0.1879
 7157SOL    HW132930   2.928   0.845  15.147 -1.9345 -1.5060  1.7764
 7157SOL    HW232931   3.022   0.851  15.262  0.5946  0.4549 -0.2063
 7158SOL     OW32932   2.101   4.609   4.994 -0.1825 -0.5726  0.3790
 7158SOL    HW132933   2.153   4.529   4.996 -0.9509 -1.0161  2.4614
 7158SOL    HW232934   2.170   4.675   4.993  0.2769 -1.0938 -1.4808
 7159SOL     OW32935   3.394   1.996   7.944 -0.1746  0.3559 -0.2878
 7159SOL    HW132936   3.439   2.035   7.868  1.0674 -0.8878 -0.1882
 7159SOL    HW232937   3.477   1.973   7.985 -1.2882 -1.7428  0.7393
 7160SOL     OW32938   2.472   3.116   8.996  0.6521 -0.5789 -0.0734
 7160SOL    HW132939   2.438   3.187   8.942  0.7220 -0.7940 -0.3984
 7160SOL    HW232940   2.447   3.038   8.947  1.7779 -1.6304  1.0065
 7161SOL     OW32941   3.908   1.786   2.053  0.2436 -0.3222 -0.1148
 7161SOL    HW132942   3.915   1.693   2.032 -1.5925 -0.5249  0.2270
 7161SOL    HW232943   3.931   1.826   1.969  0.3086  0.2397  0.1764
 7162SOL     OW32944   2.726   4.348   8.872 -0.1041 -0.3358  0.5644
 7162SOL    HW132945   2.675   4.299   8.937  2.4779 -2.5690  0.9117
 7162SOL    HW232946   2.808   4.370   8.917 -0.3459  1.5259  0.1015
 7163SOL     OW32947   4.124   0.833  15.102 -0.4355  0.2698  0.1061
 7163SOL    HW132948   4.108   0.890  15.177  2.8568  1.7460 -0.3102
 7163SOL    HW232949   4.219   0.822  15.098 -0.2450  1.4883  1.2836
 7164SOL     OW32950   3.058   2.149   4.109  0.1604 -0.5362 -0.2260
 7164SOL    HW132951   3.114   2.166   4.033  1.2176 -0.5448  0.5568
 7164SOL    HW232952   3.123   2.115   4.170 -0.0755 -1.2266 -0.3528
 7165SOL     OW32953   1.413   2.981   7.397 -0.1912  0.1544 -0.6425
 7165SOL    HW132954   1.485   3.038   7.422 -1.3671  1.7279 -0.8311
 7165SOL    HW232955   1.349   3.053   7.398 -1.7360 -1.2021 -0.0172
 7166SOL     OW32956   2.484   3.406   1.556 -0.0608 -0.3327 -0.2155
 7166SOL    HW132957   2.532   3.449   1.627  0.2262  1.9441 -1.8061
 7166SOL    HW232958   2.424   3.349   1.606  2.1152 -0.5038  2.2027
 7167SOL     OW32959   3.750   0.109   1.685 -0.2829  0.2870 -0.1847
 7167SOL    HW132960   3.680   0.174   1.695 -0.0167  0.5352  0.0652
 7167SOL    HW232961   3.700   0.033   1.713  0.5959 -0.6268 -1.1163
 7168SOL     OW32962   3.380   1.827   2.655  0.3362  0.4456  0.0506
 7168SOL    HW132963   3.395   1.876   2.574  0.0704  1.4598  0.6159
 7168SOL    HW232964   3.340   1.746   2.623  0.5568  0.4522 -0.2459
 7169SOL     OW32965   3.069   3.353   2.743  0.1030 -0.2149 -0.3359
 7169SOL    HW132966   3.022   3.351   2.827 -3.9233  1.4860 -2.5666
 7169SOL    HW232967   3.109   3.440   2.745 -0.9339  0.2706 -0.3635
 7170SOL     OW32968   1.483   3.454  16.420  0.2484  0.1218  0.4180
 7170SOL    HW132969   1.509   3.543  16.396  0.9988  0.4832  2.5399
 7170SOL    HW232970   1.430   3.459  16.500  0.0811 -0.2122  0.3293
 7171SOL     OW32971   2.884   0.461   9.147  0.0824  0.0317  0.3305
 7171SOL    HW132972   2.879   0.549   9.185 -0.4185  0.1469  0.0060
 7171SOL    HW232973   2.963   0.462   9.093 -0.1338  1.3481  0.0202
 7172SOL     OW32974   1.254   1.777   1.018  0.3628  0.2892  0.2014
 7172SOL    HW132975   1.287   1.865   1.036 -2.5700  1.5666 -0.5755
 7172SOL    HW232976   1.193   1.798   0.948 -1.3146  3.8170  2.7265
 7173SOL     OW32977   4.358   0.164   1.826 -1.1306  0.0740 -0.1737
 7173SOL    HW132978   4.279   0.214   1.804  0.0383  1.0764 -2.0674
 7173SOL    HW232979   4.320   0.080   1.799 -0.6902  1.2135 -4.4197
 7174SOL     OW32980   2.374   0.788  10.816 -0.1644  0.8918 -0.2505
 7174SOL    HW132981   2.297   0.760  10.766  0.6098 -0.6353 -0.5895
 7174SOL    HW232982   2.442   0.749  10.761 -2.5668 -0.4815 -2.2662
 7175SOL     OW32983   1.202   1.855   4.631  0.7120 -0.2263  0.2474
 7175SOL    HW132984   1.119   1.891   4.602  0.8494  1.5346  2.0274
 7175SOL    HW232985   1.199   1.770   4.588  1.0803  0.1677 -0.5637
 7176SOL     OW32986   0.787   2.328  16.642  0.1761  0.3352 -0.2569
 7176SOL    HW132987   0.798   2.254  16.702 -0.2407 -0.7205 -1.4940
 7176SOL    HW232988   0.879   2.354  16.635  0.2143  0.4485  0.6907
 7177SOL     OW32989   1.839   1.709  14.090  0.5994  0.6348  0.4867
 7177SOL    HW132990   1.874   1.711  14.001 -1.3485 -1.8265 -0.3407
 7177SOL    HW232991   1.762   1.765  14.087 -1.4815 -2.1192  2.6137
 7178SOL     OW32992   1.115   4.531  10.111  0.0218 -0.1889  0.0101
 7178SOL    HW132993   1.146   4.476  10.182  0.1354 -1.6667 -1.1823
 7178SOL    HW232994   1.118   4.471  10.036  0.5199 -0.3569  0.1707
 7179SOL     OW32995   1.236   3.668  10.889 -0.0549  0.2114 -0.3475
 7179SOL    HW132996   1.229   3.759  10.917 -0.0621  0.1034 -0.0036
 7179SOL    HW232997   1.154   3.629  10.919 -0.8028  1.8810 -0.2504
 7180SOL     OW32998   0.861   2.626   4.016  0.0081  0.4022  0.0951
 7180SOL    HW132999   0.831   2.692   4.079  3.0651  1.0114  0.9073
 7180SOL    HW233000   0.903   2.566   4.079  1.6990  0.2985 -1.1292
 7181SOL     OW33001   3.647   1.534   6.084 -0.2993  0.4287  0.4636
 7181SOL    HW133002   3.654   1.533   6.179 -1.4140  1.6832  0.5646
 7181SOL    HW233003   3.681   1.620   6.059  0.6531 -0.1405 -0.1888
 7182SOL     OW33004   4.140   3.378  13.436  0.4451  0.4048  0.7825
 7182SOL    HW133005   4.164   3.373  13.343  0.9597 -1.3333  1.0088
 7182SOL    HW233006   4.072   3.445  13.440  0.1107  0.0498  0.9716
 7183SOL     OW33007   2.411   0.089   1.100  0.0864  0.5132  0.1098
 7183SOL    HW133008   2.467   0.165   1.086 -0.8700  0.5066 -3.7726
 7183SOL    HW233009   2.386   0.104   1.191 -2.7170 -1.7530 -0.2789
 7184SOL     OW33010   4.473   0.909   5.733 -0.0838  0.3051  0.2140
 7184SOL    HW133011   4.406   0.897   5.800 -0.6546 -2.1730 -0.8092
 7184SOL    HW233012   4.523   0.828   5.725 -0.9252 -0.0973 -1.0623
 7185SOL     OW33013   2.914   1.751   7.860  0.1347 -0.0332  1.4479
 7185SOL    HW133014   2.985   1.814   7.866  0.3149 -0.1687  0.7164
 7185SOL    HW233015   2.849   1.813   7.827  0.6624 -0.2690 -0.0463
 7186SOL     OW33016   4.658   2.618  15.794  0.1663 -0.5464 -0.3961
 7186SOL    HW133017   4.572   2.657  15.811  0.7925  0.8080 -0.2700
 7186SOL    HW233018   4.643   2.533  15.754  3.0351 -1.8434  1.3309
 7187SOL     OW33019   4.592   2.978  10.693 -0.1652  0.0127 -0.2968
 7187SOL    HW133020   4.566   2.903  10.745  0.5811  0.9347  1.4055
 7187SOL    HW233021   4.666   3.004  10.748 -0.8927  1.4624  0.0050
 7188SOL     OW33022   1.345   1.457   4.204 -0.5414 -0.1688 -0.0935
 7188SOL    HW133023   1.427   1.409   4.210  0.3657  1.2819 -0.6956
 7188SOL    HW233024   1.388   1.535   4.167  0.9961 -0.9178  0.1287
 7189SOL     OW33025   3.495   4.619   1.614 -0.7266 -0.0034  0.3285
 7189SOL    HW133026   3.456   4.623   1.527 -0.9151  3.3538  0.5712
 7189SOL    HW233027   3.508   4.713   1.622  2.3059 -0.3866 -0.1349
 7190SOL     OW33028   2.511   0.727   7.251 -0.3925  0.9207 -0.1190
 7190SOL    HW133029   2.577   0.791   7.277  0.0590  0.8268 -1.0210
 7190SOL    HW233030   2.504   0.682   7.334  0.7135  0.5926 -0.2022
 7191SOL     OW33031   4.278   0.602   6.345  0.2135  0.0033 -0.2426
 7191SOL    HW133032   4.332   0.528   6.316  0.1270  0.4819 -1.6059
 7191SOL    HW233033   4.342   0.672   6.333 -0.1701  0.7283  1.8836
 7192SOL     OW33034   0.534   0.873   3.495 -0.1649  0.4899  0.3421
 7192SOL    HW133035   0.530   0.935   3.569 -0.2130 -1.0918  1.6643
 7192SOL    HW233036   0.462   0.902   3.439  0.0112  1.2342  0.4890
 7193SOL     OW33037   0.200   1.172  13.281 -0.1255 -0.4193  0.0913
 7193SOL    HW133038   0.273   1.150  13.224 -0.7744  1.1155 -1.3173
 7193SOL    HW233039   0.131   1.116  13.247  1.0354 -0.2180 -2.5541
 7194SOL     OW33040   2.354   3.122   2.315  0.7668  0.3034 -0.5758
 7194SOL    HW133041   2.338   3.197   2.371  0.7448  0.0492 -0.2395
 7194SOL    HW233042   2.383   3.165   2.234  0.1968  1.7010 -0.0303
 7195SOL     OW33043   3.062   1.231   3.208  0.5355 -0.2389  0.0525
 7195SOL    HW133044   3.140   1.286   3.200  1.2569 -1.0878  1.3429
 7195SOL    HW233045   3.104   1.146   3.198 -0.2315 -0.4437 -1.4775
 7196SOL     OW33046   2.179   3.099  17.422 -0.5779 -0.4282  0.3621
 7196SOL    HW133047   2.138   3.048  17.352 -1.2231 -0.6240  0.8825
 7196SOL    HW233048   2.166   3.189  17.395  1.9392 -0.2284 -0.0932
 7197SOL     OW33049   2.669   2.569   5.272  0.2562  0.1679 -0.2456
 7197SOL    HW133050   2.628   2.501   5.218 -0.1326 -1.7114  2.4312
 7197SOL    HW233051   2.635   2.562   5.361 -0.0781 -0.0448 -0.3923
 7198SOL     OW33052   3.870   1.987   3.519  0.6671 -0.6173 -0.9375
 7198SOL    HW133053   3.834   1.928   3.585  0.6320  1.3781  0.8386
 7198SOL    HW233054   3.902   1.938   3.444 -0.9565 -1.9997 -0.7317
 7199SOL     OW33055   4.171   4.354  17.217 -0.3132  0.2031  0.1389
 7199SOL    HW133056   4.112   4.420  17.183  1.6769  2.3483  0.8505
 7199SOL    HW233057   4.243   4.403  17.257 -1.2590  1.7442 -0.0684
 7200SOL     OW33058   3.462   2.988   7.019  0.2830 -0.5859 -0.2272
 7200SOL    HW133059   3.407   3.000   6.942 -1.9606  0.8897  1.6011
 7200SOL    HW233060   3.544   2.993   6.972  0.5290 -1.1211  0.1316
 7201SOL     OW33061   2.187   3.148   2.565  0.1782  0.1081 -0.3661
 7201SOL    HW133062   2.251   3.106   2.624 -1.5479  1.6509  2.5788
 7201SOL    HW233063   2.214   3.239   2.569  0.2657  0.1229 -1.2950
 7202SOL     OW33064   3.259   0.206  12.896  0.5658 -0.0475 -0.3753
 7202SOL    HW133065   3.329   0.143  12.882 -0.2868 -0.3947 -3.0752
 7202SOL    HW233066   3.208   0.190  12.817 -0.5698 -1.3093  0.6071
 7203SOL     OW33067   2.431   2.620   8.955  0.0118  0.3142  0.1785
 7203SOL    HW133068   2.488   2.555   8.996  1.3076  2.4089  1.6918
 7203SOL    HW233069   2.429   2.574   8.871  0.3556 -0.0742  0.3795
 7204SOL     OW33070   1.841   4.362   9.441 -0.1177 -0.1625 -0.3112
 7204SOL    HW133071   1.798   4.298   9.384 -0.1353 -0.7352  0.3492
 7204SOL    HW233072   1.789   4.441   9.425  1.4178  0.8789 -0.1042
 7205SOL     OW33073   4.455   4.558   1.619  0.1411  0.5673 -0.2684
 7205SOL    HW133074   4.532   4.582   1.671  0.7632 -0.7549 -0.5486
 7205SOL    HW233075   4.453   4.635   1.562 -0.3398  0.9543  0.2730
 7206SOL     OW33076   1.193   2.001  12.784  0.4920  0.1633 -0.0445
 7206SOL    HW133077   1.274   2.023  12.738  1.5090 -0.4799  1.4061
 7206SOL    HW233078   1.168   1.918  12.743 -0.0795 -0.0614  0.7438
 7207SOL     OW33079   2.763   4.253  12.475 -0.4113 -0.5238 -0.1038
 7207SOL    HW133080   2.757   4.165  12.511 -0.1705 -1.7382 -2.9852
 7207SOL    HW233081   2.792   4.314  12.543  1.1187 -1.0080 -0.3077
 7208SOL     OW33082   0.583   1.075   5.369 -0.5058  0.4448  0.1116
 7208SOL    HW133083   0.659   1.042   5.320 -0.4754 -1.4394  1.4138
 7208SOL    HW233084   0.549   0.999   5.418 -0.1762  1.6158  2.1592
 7209SOL     OW33085   0.387   4.257  14.857  0.0579  0.1520  0.2645
 7209SOL    HW133086   0.305   4.227  14.818 -1.0330  2.5469  0.7280
 7209SOL    HW233087   0.453   4.205  14.812  0.0860 -0.3577  0.8920
 7210SOL     OW33088   4.449   1.817   6.496  0.2561  0.0274 -0.1915
 7210SOL    HW133089   4.474   1.846   6.584 -0.4562 -0.4508  0.1699
 7210SOL    HW233090   4.507   1.740   6.493 -0.8326 -0.7062 -2.1662
 7211SOL     OW33091   1.953   1.555   4.409 -1.3401  0.0356 -0.0056
 7211SOL    HW133092   1.979   1.463   4.421 -0.2721  0.2486 -0.6378
 7211SOL    HW233093   1.891   1.564   4.481 -2.0152  0.6748 -0.6767
 7212SOL     OW33094   2.932   0.125   1.758  0.8309  0.8033 -1.2876
 7212SOL    HW133095   2.912   0.034   1.737  2.1719  0.0247  0.8627
 7212SOL    HW233096   2.899   0.178   1.685 -1.3476  0.1471 -0.7783
 7213SOL     OW33097   2.501   3.956  14.171 -0.1295 -0.3442 -0.2266
 7213SOL    HW133098   2.466   4.024  14.114 -1.2309 -1.8484 -1.3419
 7213SOL    HW233099   2.585   3.928  14.132  0.2987  1.6236 -0.7047
 7214SOL     OW33100   0.467   3.457   7.611  0.0162 -0.1387  0.1487
 7214SOL    HW133101   0.557   3.450   7.579  0.0462 -0.0924  0.2234
 7214SOL    HW233102   0.412   3.426   7.539 -0.9762  0.0660  0.8187
 7215SOL     OW33103   4.375   0.809   1.095  0.1222 -0.1910  0.1422
 7215SOL    HW133104   4.377   0.772   1.007  1.7568  0.5029 -0.1063
 7215SOL    HW233105   4.297   0.772   1.135 -0.4509 -0.7453 -1.4971
 7216SOL     OW33106   2.669   1.918   5.914  0.6636  0.5037  0.6945
 7216SOL    HW133107   2.663   1.917   6.010  1.7782  1.4667  0.7701
 7216SOL    HW233108   2.691   2.009   5.896  0.8371  0.4224  0.5013
 7217SOL     OW33109   1.094   4.637   4.936 -0.4396  0.2234 -0.0454
 7217SOL    HW133110   1.120   4.570   4.999 -0.3104  0.8623  0.5789
 7217SOL    HW233111   1.139   4.615   4.854  2.4687  0.9981  1.3185
 7218SOL     OW33112   1.488   1.149   6.004 -0.0588  0.1497  0.3063
 7218SOL    HW133113   1.415   1.195   6.046  1.7594  0.8340  2.7407
 7218SOL    HW233114   1.562   1.164   6.062  0.5167  1.0215 -0.6448
 7219SOL     OW33115   2.599   2.879   5.348  0.1188  0.4023  0.1118
 7219SOL    HW133116   2.525   2.818   5.341  1.5474 -1.5105  1.5969
 7219SOL    HW233117   2.620   2.865   5.440 -2.9077  1.0554  0.8859
 7220SOL     OW33118   0.367   2.678   5.855 -0.2680  0.5429 -0.5956
 7220SOL    HW133119   0.426   2.751   5.876 -1.0607  1.1019 -0.3349
 7220SOL    HW233120   0.327   2.699   5.771 -1.0514 -0.4016 -0.4641
 7221SOL     OW33121   4.686   2.181   2.372 -0.2616  0.7545  0.1259
 7221SOL    HW133122   4.628   2.195   2.447 -1.0830 -0.7972 -0.2140
 7221SOL    HW233123   4.623   2.213   2.307  1.0536  2.7474 -0.1462
 7222SOL     OW33124   2.383   0.043   8.468  0.4107 -0.1198  0.1253
 7222SOL    HW133125   2.354   0.074   8.554  1.9116 -3.0267  1.6653
 7222SOL    HW233126   2.460   0.096   8.445  0.0514 -0.1834 -1.2162
 7223SOL     OW33127   2.765   3.184   6.600 -0.5892  0.6105 -0.3583
 7223SOL    HW133128   2.753   3.272   6.634 -2.0536 -0.5266  2.0769
 7223SOL    HW233129   2.750   3.206   6.508  0.1549 -0.4350 -0.7297
 7224SOL     OW33130   2.514   2.613   8.270 -0.0341  0.2081 -0.1916
 7224SOL    HW133131   2.588   2.664   8.236  1.1113 -0.0206  1.9063
 7224SOL    HW233132   2.536   2.520   8.259  0.1979 -0.0078  1.9606
 7225SOL     OW33133   1.711   1.384   5.790 -0.3695  0.2644  0.2589
 7225SOL    HW133134   1.626   1.421   5.813 -0.9392 -1.6751  1.2911
 7225SOL    HW233135   1.695   1.291   5.809  0.8917  0.4972  2.4321
 7226SOL     OW33136   3.428   3.531  11.527 -0.3961 -0.3095  0.3476
 7226SOL    HW133137   3.504   3.582  11.554  0.8350 -1.6921 -0.5162
 7226SOL    HW233138   3.399   3.584  11.452  3.5631  3.0441  1.1818
 7227SOL     OW33139   1.935   1.496   3.409 -0.2482 -0.1470 -0.3027
 7227SOL    HW133140   1.901   1.410   3.435 -2.0290  0.6920  0.2286
 7227SOL    HW233141   1.961   1.537   3.491 -0.2561 -0.4929 -0.1253
 7228SOL     OW33142   2.616   4.470  15.325  0.4941 -0.4672  0.2502
 7228SOL    HW133143   2.650   4.463  15.235  2.0691 -0.5032  0.8444
 7228SOL    HW233144   2.573   4.385  15.325  1.2574 -0.8617 -1.5736
 7229SOL     OW33145   1.483   3.731   2.785 -0.5787 -0.1977 -0.6259
 7229SOL    HW133146   1.545   3.769   2.846 -0.6716 -1.3783  0.2044
 7229SOL    HW233147   1.422   3.680   2.839 -0.1333 -2.5172 -2.3184
 7230SOL     OW33148   0.393   3.844   5.534  0.5264 -0.3747  0.6832
 7230SOL    HW133149   0.359   3.933   5.549 -1.4231 -1.0174  0.1035
 7230SOL    HW233150   0.405   3.836   5.440 -2.5239  0.7770  0.1827
 7231SOL     OW33151   0.067   0.900  13.454  0.7389  0.3439  0.1051
 7231SOL    HW133152   0.051   0.983  13.500  0.7905  0.6513 -0.4302
 7231SOL    HW233153   0.033   0.918  13.366 -1.3645 -2.2682  0.3833
 7232SOL     OW33154   2.961   0.974   5.537 -0.3207 -0.3398 -0.3950
 7232SOL    HW133155   2.920   0.935   5.615 -0.0699 -1.5717 -0.8658
 7232SOL    HW233156   3.056   0.961   5.547 -0.3893 -1.3441 -1.0124
 7233SOL     OW33157   2.735   2.733   2.145 -0.3960 -0.1258 -0.1853
 7233SOL    HW133158   2.742   2.692   2.231  1.1208  1.7089  0.5506
 7233SOL    HW233159   2.654   2.783   2.154  1.9571  3.1944  2.0623
 7234SOL     OW33160   1.917   2.995   1.150 -0.2772  0.0387 -0.5721
 7234SOL    HW133161   1.898   2.983   1.243 -1.5536  1.3245 -0.6674
 7234SOL    HW233162   1.990   3.056   1.158  0.0515 -0.2185 -1.5365
 7235SOL     OW33163   3.640   2.284  14.239  0.2244 -0.6070 -0.1313
 7235SOL    HW133164   3.712   2.226  14.264 -1.0551 -0.3897  4.0911
 7235SOL    HW233165   3.667   2.315  14.153 -1.1120 -0.4797 -0.5081
 7236SOL     OW33166   1.440   0.749   5.109 -0.3133  0.5801 -0.1639
 7236SOL    HW133167   1.391   0.689   5.165  1.7922 -0.5575  0.4403
 7236SOL    HW233168   1.390   0.826   5.138 -0.2512  1.3719 -2.1370
 7237SOL     OW33169   0.281   3.237   2.139 -0.2720  0.5494 -0.1567
 7237SOL    HW133170   0.359   3.224   2.192 -0.8439  1.9750  1.0336
 7237SOL    HW233171   0.302   3.326   2.108 -1.1701  1.0450  0.6735
 7238SOL     OW33172   1.472   2.845   9.035  0.3934  0.3866  0.0522
 7238SOL    HW133173   1.564   2.870   9.039  0.9219 -1.3855 -1.0473
 7238SOL    HW233174   1.433   2.930   9.016 -0.2012  0.3872  1.3133
 7239SOL     OW33175   0.574   0.329  10.207 -0.1587 -0.7904 -0.6056
 7239SOL    HW133176   0.573   0.241  10.171 -2.9355 -1.0113 -0.0372
 7239SOL    HW233177   0.556   0.378  10.127 -1.5704  1.3749  1.0224
 7240SOL     OW33178   1.550   0.407   1.415 -0.0540 -0.1128  0.5285
 7240SOL    HW133179   1.495   0.381   1.489 -1.0635  1.0522  0.1797
 7240SOL    HW233180   1.512   0.350   1.348 -0.6984  1.1200 -0.1569
 7241SOL     OW33181   3.158   2.003   2.473 -0.0431  1.2258 -0.2439
 7241SOL    HW133182   3.201   2.087   2.486  0.5891  0.6438  1.4248
 7241SOL    HW233183   3.176   1.975   2.383  0.7602  0.3810  0.1774
 7242SOL     OW33184   3.246   0.079   7.522 -0.1185 -0.2882 -0.3912
 7242SOL    HW133185   3.309   0.044   7.460 -0.1594  0.2973 -0.7659
 7242SOL    HW233186   3.191   0.004   7.545 -1.3945  0.6802 -0.2920
 7243SOL     OW33187   4.687   0.969   1.369  0.3868  0.2885  0.0234
 7243SOL    HW133188   0.035   0.958   1.307  0.0867 -2.0468  0.0529
 7243SOL    HW233189   4.675   1.064   1.371 -5.1410 -0.3293 -1.3451
 7244SOL     OW33190   3.028   2.279   7.408  0.1646  0.0859 -0.3891
 7244SOL    HW133191   2.948   2.303   7.456  0.8668  2.5577 -0.5014
 7244SOL    HW233192   3.067   2.210   7.462 -0.6537  0.9444  1.3106
 7245SOL     OW33193   2.942   1.378  16.049 -0.7639 -0.2213  0.6774
 7245SOL    HW133194   2.991   1.431  16.112 -2.0928  0.3247  1.2608
 7245SOL    HW233195   3.002   1.357  15.978 -0.9633  2.4238 -0.2506
 7246SOL     OW33196   4.333   0.169   4.566 -0.0365  0.6167  0.4211
 7246SOL    HW133197   4.405   0.169   4.503 -0.4131  0.5746 -0.0103
 7246SOL    HW233198   4.321   0.075   4.580  0.8443  0.8116  2.4501
 7247SOL     OW33199   2.685   0.477  15.125  0.8962  0.4087  0.0849
 7247SOL    HW133200   2.761   0.488  15.182  0.0660 -0.8738  1.4245
 7247SOL    HW233201   2.614   0.500  15.185  0.6905  2.3488 -0.9082
 7248SOL     OW33202   1.322   4.292  15.042  0.0136 -0.0129  0.1410
 7248SOL    HW133203   1.394   4.302  14.979  1.2476  2.6020  1.9889
 7248SOL    HW233204   1.256   4.267  14.977  0.6306  2.9180 -1.5962
 7249SOL     OW33205   4.522   3.943   8.410  0.0905  0.0854  0.3825
 7249SOL    HW133206   4.438   3.983   8.430 -0.0486 -0.4897  0.9416
 7249SOL    HW233207   4.526   3.907   8.322 -1.1577  1.9275 -0.4216
 7250SOL     OW33208   3.194   3.758   2.586 -0.3372 -0.7487  0.1457
 7250SOL    HW133209   3.187   3.714   2.670 -0.5576 -1.6121 -0.3230
 7250SOL    HW233210   3.276   3.723   2.552  0.1715 -0.3173  0.9511
 7251SOL     OW33211   2.299   0.943   0.372  0.4135  0.0096  0.2797
 7251SOL    HW133212   2.230   1.004   0.347 -0.1249 -1.8224 -2.6583
 7251SOL    HW233213   2.305   0.959   0.466  2.6135  0.5755  0.0603
 7252SOL     OW33214   4.072   2.717   4.698  0.4500  0.4676 -0.1224
 7252SOL    HW133215   4.134   2.680   4.635 -1.2046  0.8034 -1.9498
 7252SOL    HW233216   4.092   2.810   4.691 -1.7062  0.8241 -1.5679
 7253SOL     OW33217   1.321   0.427  13.501 -0.4816  0.5767 -0.3750
 7253SOL    HW133218   1.415   0.426  13.481  0.2726  0.4662  3.0643
 7253SOL    HW233219   1.290   0.340  13.477  1.5061 -0.1665 -0.2775
 7254SOL     OW33220   2.340   3.752   0.524  0.1966 -0.3512  0.1555
 7254SOL    HW133221   2.263   3.808   0.512  1.1196  0.8089 -0.3990
 7254SOL    HW233222   2.408   3.818   0.538  0.1825  0.3959 -3.2520
 7255SOL     OW33223   0.560   1.413   6.823 -0.1274  0.0495  0.1435
 7255SOL    HW133224   0.521   1.500   6.817  1.9029  1.1089  2.1741
 7255SOL    HW233225   0.520   1.377   6.744 -0.3780  0.6462  0.0016
 7256SOL     OW33226   2.928   0.472  13.796  0.0759  0.1570  0.4116
 7256SOL    HW133227   2.924   0.451  13.890  1.5307 -0.4439  0.3422
 7256SOL    HW233228   3.002   0.532  13.794 -0.7639  1.1057 -1.5298
 7257SOL     OW33229   4.305   1.989   4.854 -0.1929  0.6663 -0.2770
 7257SOL    HW133230   4.214   1.985   4.825 -0.1700  0.3513 -0.2971
 7257SOL    HW233231   4.318   2.075   4.813  0.1448  2.0768  2.8132
 7258SOL     OW33232   3.182   2.887   6.302 -0.4521 -0.1639  0.2301
 7258SOL    HW133233   3.088   2.895   6.287 -0.2539  1.5477 -0.0639
 7258SOL    HW233234   3.185   2.961   6.364 -1.8550 -1.3941  1.7807
 7259SOL     OW33235   1.103   4.269   4.298 -0.3266 -0.2620  0.3240
 7259SOL    HW133236   1.079   4.181   4.330 -0.9671 -1.3175 -3.1074
 7259SOL    HW233237   1.021   4.294   4.255 -0.4696 -2.4397 -0.7108
 7260SOL     OW33238   0.136   2.944  10.232  0.0341  0.0799 -0.0891
 7260SOL    HW133239   0.056   2.900  10.262 -0.0542  0.0479 -0.3681
 7260SOL    HW233240   0.196   2.948  10.306  1.8015 -0.6540 -1.4772
 7261SOL     OW33241   0.312   0.805  16.248  0.7156  0.3521  0.1919
 7261SOL    HW133242   0.381   0.738  16.253 -0.6029 -0.9714  0.8683
 7261SOL    HW233243   0.235   0.751  16.267  1.0448  0.1860  1.0251
 7262SOL     OW33244   1.118   2.880  13.275 -0.2145 -0.1690 -0.0019
 7262SOL    HW133245   1.123   2.884  13.371 -4.0477  0.7104  0.1822
 7262SOL    HW233246   1.042   2.822  13.276 -0.3580 -0.0060 -2.6446
 7263SOL     OW33247   0.560   1.212   5.854 -0.1710 -0.3941  0.1404
 7263SOL    HW133248   0.560   1.283   5.918  0.0026 -0.3131  0.0488
 7263SOL    HW233249   0.538   1.253   5.770 -0.9921 -2.9465 -0.8829
 7264SOL     OW33250   2.584   3.278   0.632 -0.1907 -0.0441 -0.1514
 7264SOL    HW133251   2.551   3.364   0.606  0.2389  0.1605 -0.0174
 7264SOL    HW233252   2.674   3.276   0.600 -0.0278 -0.8554  0.3689
 7265SOL     OW33253   2.712   4.403   6.157 -0.4977  0.2644  0.3823
 7265SOL    HW133254   2.801   4.430   6.179  0.7552 -1.2734 -2.8296
 7265SOL    HW233255   2.710   4.370   6.067 -2.8033  0.7644  0.2356
 7266SOL     OW33256   0.596   2.950   0.892 -0.1352  0.1211  0.4813
 7266SOL    HW133257   0.549   2.876   0.856 -0.5491  0.8959 -0.5513
 7266SOL    HW233258   0.681   2.932   0.852  0.2855  1.4997  0.7282
 7267SOL     OW33259   0.796   2.819   0.248  0.0046  0.5140 -0.6108
 7267SOL    HW133260   0.835   2.808   0.162  0.3697 -1.4413 -0.1860
 7267SOL    HW233261   0.844   2.891   0.291 -2.3665  1.0097  1.1755
 7268SOL     OW33262   2.093   3.230   3.803 -0.1889 -0.5975 -0.2621
 7268SOL    HW133263   2.069   3.265   3.717  0.3174 -0.2914 -0.2822
 7268SOL    HW233264   2.009   3.194   3.831 -2.0217  2.4194 -1.8550
 7269SOL     OW33265   1.585   2.605  11.339 -0.5230 -0.5619 -0.0582
 7269SOL    HW133266   1.658   2.580  11.283  0.3781 -0.3797  1.0274
 7269SOL    HW233267   1.631   2.597  11.423 -1.5023  1.5067  0.6809
 7270SOL     OW33268   4.637   1.988  17.593 -0.1438  0.1212  0.1306
 7270SOL    HW133269   4.588   2.055  17.544 -0.4046 -0.6077 -0.6150
 7270SOL    HW233270   4.695   1.971  17.519 -2.2553  1.6888 -1.9000
 7271SOL     OW33271   1.104   1.135   8.454  0.1291 -0.2870  0.0963
 7271SOL    HW133272   1.145   1.071   8.396  2.2954  0.2902  0.9931
 7271SOL    HW233273   1.175   1.151   8.517  1.0250 -0.7010 -0.8094
 7272SOL     OW33274   3.801   1.871  16.767  0.3341 -0.1725  0.5022
 7272SOL    HW133275   3.845   1.905  16.844 -0.7875 -1.2867  1.6339
 7272SOL    HW233276   3.765   1.792  16.807 -1.3541  0.4363  0.1941
 7273SOL     OW33277   1.235   2.984   7.151 -0.6198 -0.4007 -0.3030
 7273SOL    HW133278   1.238   3.044   7.077 -0.4673 -1.4403 -1.1513
 7273SOL    HW233279   1.329   2.965   7.155 -0.8109 -1.1055  1.1269
 7274SOL     OW33280   1.667   3.708   7.352  0.5496 -0.2812  0.2538
 7274SOL    HW133281   1.584   3.663   7.367 -1.0541  2.6073 -0.0352
 7274SOL    HW233282   1.702   3.649   7.285  0.8507  0.6775 -0.4410
 7275SOL     OW33283   3.390   0.375   1.559  0.8029  0.7580 -0.3262
 7275SOL    HW133284   3.384   0.470   1.550 -0.6357  1.0107  3.2645
 7275SOL    HW233285   3.298   0.354   1.539  0.7470 -0.1939  0.9201
 7276SOL     OW33286   3.061   3.567   6.069  0.3050  0.8807  0.1853
 7276SOL    HW133287   3.140   3.545   6.020  0.6076  0.0482  1.0385
 7276SOL    HW233288   3.032   3.482   6.103  1.2896 -0.2189 -1.7702
 7277SOL     OW33289   2.215   4.238   3.628 -0.4453 -0.0256 -0.2290
 7277SOL    HW133290   2.302   4.223   3.665 -0.9336 -0.4571  0.7348
 7277SOL    HW233291   2.162   4.175   3.677 -0.8126 -1.0380 -1.9407
 7278SOL     OW33292   3.147   2.885  15.478 -0.1921 -0.5555  0.4087
 7278SOL    HW133293   3.157   2.798  15.516  0.9958  0.3238  2.1019
 7278SOL    HW233294   3.066   2.871  15.430 -0.7387  1.8644  0.6582
 7279SOL     OW33295   3.757   0.033   8.530  0.1396 -0.2351  0.6745
 7279SOL    HW133296   3.687   0.040   8.465  0.1029 -0.6289  0.6738
 7279SOL    HW233297   3.716   4.702   8.596 -0.2634  0.7133  1.2275
 7280SOL     OW33298   0.655   4.238   2.461 -0.2271 -0.4334 -0.1838
 7280SOL    HW133299   0.737   4.192   2.478 -0.6599  0.3871  4.1476
 7280SOL    HW233300   0.669   4.262   2.369  0.2004  0.2808  0.0731
 7281SOL     OW33301   2.095   3.590   1.629 -0.0562  0.5223  0.7976
 7281SOL    HW133302   2.158   3.529   1.668 -0.2754 -0.9997 -1.2147
 7281SOL    HW233303   2.153   3.631   1.565  0.8238 -0.2980  1.0593
 7282SOL     OW33304   3.073   2.961   8.734 -0.7085  0.1509  0.4305
 7282SOL    HW133305   3.099   3.052   8.748 -0.7421 -0.1145  2.2117
 7282SOL    HW233306   3.132   2.922   8.799 -1.4727 -1.7117  0.0179
 7283SOL     OW33307   3.690   4.133  16.071 -0.1063  0.0411  0.6300
 7283SOL    HW133308   3.641   4.194  16.016 -0.4734  0.6973  1.6978
 7283SOL    HW233309   3.622   4.083  16.114  0.3318  0.0855  1.3742
 7284SOL     OW33310   1.900   2.130   4.465  0.2782 -0.3177  0.2892
 7284SOL    HW133311   1.859   2.055   4.422 -1.8955  0.6570  0.6266
 7284SOL    HW233312   1.932   2.081   4.540  0.0358  1.9220  1.8408
 7285SOL     OW33313   2.027   3.322  15.053 -0.2015 -0.2457 -0.3622
 7285SOL    HW133314   1.961   3.357  14.994 -0.2837  2.1627  1.1896
 7285SOL    HW233315   2.064   3.259  14.991 -0.3996 -1.1368  0.4260
 7286SOL     OW33316   1.983   1.036   3.586  0.0096  0.6291  0.5485
 7286SOL    HW133317   2.036   1.093   3.641 -0.0528 -1.4132  2.6814
 7286SOL    HW233318   1.937   0.980   3.648  1.2090 -1.4813 -0.4787
 7287SOL     OW33319   1.249   0.401   7.978 -0.4855  0.4922 -0.2324
 7287SOL    HW133320   1.222   0.316   7.943  1.2669 -0.5825  1.0300
 7287SOL    HW233321   1.226   0.402   8.071 -0.2790  1.8776 -0.1981
 7288SOL     OW33322   4.182   3.966   2.630  0.4739 -0.1670 -0.2813
 7288SOL    HW133323   4.269   3.939   2.659  0.1501 -0.7573  0.1449
 7288SOL    HW233324   4.185   4.061   2.615  2.9942 -0.4309 -1.5355
 7289SOL     OW33325   3.183   4.263   9.420  0.4343  0.3476 -0.1925
 7289SOL    HW133326   3.193   4.344   9.371 -3.5075  0.8777 -0.0912
 7289SOL    HW233327   3.267   4.232   9.455  1.7030  1.8857 -1.9003
 7290SOL     OW33328   4.589   1.375   8.065  0.5665  0.3872 -0.0849
 7290SOL    HW133329   4.636   1.452   8.096 -2.8209  2.9327 -1.1888
 7290SOL    HW233330   4.638   1.305   8.108  3.2936  2.0980 -0.4650
 7291SOL     OW33331   4.414   4.571   8.521 -0.4184  0.3128  0.3045
 7291SOL    HW133332   4.431   4.489   8.475 -5.3277 -0.8862  0.6434
 7291SOL    HW233333   4.407   4.539   8.610  0.0992  1.2217  0.6775
 7292SOL     OW33334   4.029   1.264   2.870  0.3647  0.5484 -0.1667
 7292SOL    HW133335   4.075   1.200   2.924  1.0753  3.4143  2.5657
 7292SOL    HW233336   3.952   1.275   2.926 -0.2749 -0.9120 -0.7453
 7293SOL     OW33337   1.471   3.016  16.170  0.0231  0.0756 -0.0008
 7293SOL    HW133338   1.478   3.018  16.074  1.8200  2.0769  0.1773
 7293SOL    HW233339   1.482   3.105  16.203  1.4180 -0.1203  0.0552
 7294SOL     OW33340   2.229   3.761  17.682  0.1603  0.3819  0.3094
 7294SOL    HW133341   2.138   3.782  17.662  0.4509  1.0541 -0.2950
 7294SOL    HW233342   2.238   3.677  17.636  1.1681  0.2928  0.6703
 7295SOL     OW33343   2.135   0.617   3.988 -0.3512 -0.7329  0.0167
 7295SOL    HW133344   2.051   0.616   3.941 -0.6117 -0.0022  0.4630
 7295SOL    HW233345   2.190   0.674   3.934  0.9984 -0.4341  1.7004
 7296SOL     OW33346   1.181   3.682   8.039  0.0093  0.3693 -0.2501
 7296SOL    HW133347   1.214   3.632   8.114 -0.3948 -0.5880 -0.7180
 7296SOL    HW233348   1.108   3.627   8.012  0.4115 -0.3793  0.1821
 7297SOL     OW33349   0.796   1.518   4.516 -0.1820  0.3729 -0.2759
 7297SOL    HW133350   0.795   1.610   4.491 -1.5094 -0.4975 -3.3725
 7297SOL    HW233351   0.864   1.480   4.461 -1.4704  1.5116 -2.6442
 7298SOL     OW33352   2.812   1.083   2.936 -0.0497 -0.7822  1.3008
 7298SOL    HW133353   2.807   1.135   2.855 -0.5928 -0.2156  1.6956
 7298SOL    HW233354   2.799   0.994   2.903  0.5378 -0.3306 -0.1627
 7299SOL     OW33355   2.439   2.654  13.153  0.5642 -0.9109  0.3629
 7299SOL    HW133356   2.472   2.729  13.104 -1.2728 -1.1429 -1.2262
 7299SOL    HW233357   2.440   2.686  13.244  0.9145  2.1164 -0.7092
 7300SOL     OW33358   0.086   4.055   1.931 -0.4734  0.0450  0.0211
 7300SOL    HW133359   0.106   3.967   1.963 -0.9415 -0.6930 -1.7204
 7300SOL    HW233360   0.138   4.110   1.990 -0.6707  0.4380 -0.1716
 7301SOL     OW33361   2.855   0.259   1.420  0.0043  0.1663 -0.4098
 7301SOL    HW133362   2.815   0.186   1.468  1.3507  0.3036  0.9083
 7301SOL    HW233363   2.848   0.232   1.329 -2.0489 -1.9102  0.3565
 7302SOL     OW33364   0.506   1.813   4.373 -0.2776 -0.4757 -0.2962
 7302SOL    HW133365   0.431   1.755   4.386  1.5623 -2.4435  1.4219
 7302SOL    HW233366   0.529   1.842   4.462  1.4507  0.1222 -0.9537
 7303SOL     OW33367   3.652   0.111   9.764  0.4112 -0.1740  0.3338
 7303SOL    HW133368   3.700   0.029   9.772  0.9883  0.1291  0.0629
 7303SOL    HW233369   3.577   0.093   9.707  1.9379  0.9597 -2.0834
 7304SOL     OW33370   4.663   0.797   7.141  0.2519 -0.2338  0.6462
 7304SOL    HW133371   0.016   0.841   7.107  1.0963 -2.6876 -0.6360
 7304SOL    HW233372   4.604   0.780   7.068  3.4313 -1.6865 -1.5560
 7305SOL     OW33373   2.325   0.238   1.651 -0.2117  0.8362 -0.3321
 7305SOL    HW133374   2.272   0.314   1.627  0.0995  0.7425 -1.2891
 7305SOL    HW233375   2.271   0.186   1.712 -1.8081  0.2748 -2.2096
 7306SOL     OW33376   3.834   3.274  10.361  0.0401  0.2442  0.4064
 7306SOL    HW133377   3.755   3.244  10.315  1.1712 -0.6137 -0.9817
 7306SOL    HW233378   3.787   3.308  10.437 -1.5641  0.6447 -0.7461
 7307SOL     OW33379   1.666   4.521   8.596  0.3287 -0.8884  0.2224
 7307SOL    HW133380   1.599   4.555   8.655 -0.9032  1.0044 -2.3039
 7307SOL    HW233381   1.727   4.496   8.666 -0.1205  0.6754  1.1607
 7308SOL     OW33382   2.625   0.129   8.952  0.7509  0.0145 -0.0067
 7308SOL    HW133383   2.686   0.091   8.890 -0.4877  0.5072 -1.5211
 7308SOL    HW233384   2.630   0.072   9.029 -1.0383 -1.8552 -1.3115
 7309SOL     OW33385   0.861   1.581   4.806  0.2781 -0.1836  0.0214
 7309SOL    HW133386   0.839   1.591   4.713 -0.6168 -0.8417  0.1667
 7309SOL    HW233387   0.880   1.487   4.806 -0.5974 -0.3709 -2.0160
 7310SOL     OW33388   0.679   1.922  10.065  0.1777  0.4439 -0.0911
 7310SOL    HW133389   0.743   1.887  10.004 -1.1801  1.4155 -2.0839
 7310SOL    HW233390   0.651   1.846  10.116  3.3021 -1.2396 -0.9134
 7311SOL     OW33391   3.981   0.876   5.950 -0.0747  0.1613  0.1344
 7311SOL    HW133392   4.037   0.898   5.876  0.4834  1.3135  0.8905
 7311SOL    HW233393   4.039   0.875   6.026  1.5294  0.0552 -1.0915
 7312SOL     OW33394   2.523   1.365   6.100 -0.6202 -0.2478  0.0956
 7312SOL    HW133395   2.557   1.444   6.057  0.0369 -0.4030  0.3312
 7312SOL    HW233396   2.596   1.344   6.158  0.7302  1.5780 -0.9482
 7313SOL     OW33397   3.296   3.041   8.439  0.2182  0.1735 -0.0556
 7313SOL    HW133398   3.303   2.973   8.506 -1.2045 -0.6615 -0.7652
 7313SOL    HW233399   3.280   2.977   8.370 -1.2234  0.1746  0.2856
 7314SOL     OW33400   3.307   4.124  12.845  0.3867 -0.1616  0.3395
 7314SOL    HW133401   3.258   4.139  12.926 -1.2543 -3.5297 -0.0525
 7314SOL    HW233402   3.389   4.170  12.863 -0.1206 -0.4534  3.4118
 7315SOL     OW33403   2.429   2.212   8.027 -0.3636  0.2893 -0.2616
 7315SOL    HW133404   2.485   2.137   8.049  2.1607  2.1652 -0.2731
 7315SOL    HW233405   2.466   2.226   7.939 -0.2302 -3.6349 -0.8323
 7316SOL     OW33406   1.310   1.012   1.829 -0.2037  0.0685 -0.7782
 7316SOL    HW133407   1.315   1.033   1.736 -0.5375  3.4697 -0.0273
 7316SOL    HW233408   1.224   1.042   1.860 -0.9372 -2.4090 -0.3708
 7317SOL     OW33409   3.450   0.857   2.408  0.2828  0.1480  0.0644
 7317SOL    HW133410   3.509   0.801   2.357 -0.9165 -0.7467 -0.3364
 7317SOL    HW233411   3.371   0.868   2.354  0.6080  1.5194 -0.1519
 7318SOL     OW33412   2.135   4.033   8.369 -0.4051  0.0874 -0.2922
 7318SOL    HW133413   2.086   4.071   8.442 -2.8677 -0.5880 -1.6133
 7318SOL    HW233414   2.220   4.034   8.413  0.2282 -1.5561 -1.4458
 7319SOL     OW33415   4.306   1.801   2.475  0.1595 -0.4461  0.2791
 7319SOL    HW133416   4.311   1.720   2.527 -1.0196 -0.4266  0.4132
 7319SOL    HW233417   4.375   1.853   2.516 -0.2151  0.2411  0.0219
 7320SOL     OW33418   3.407   2.263  11.096 -0.5672 -0.2120  0.1640
 7320SOL    HW133419   3.337   2.208  11.131 -0.9447  0.0617 -0.1688
 7320SOL    HW233420   3.439   2.210  11.023  0.4954  1.2407 -0.4369
 7321SOL     OW33421   4.229   2.942   2.996  0.2499  0.1600 -0.3538
 7321SOL    HW133422   4.154   3.002   3.000 -0.1161 -0.2527 -0.9318
 7321SOL    HW233423   4.213   2.901   2.911  0.8034  0.8803 -0.7968
 7322SOL     OW33424   0.279   2.147   8.671 -0.1173  0.2399  0.0090
 7322SOL    HW133425   0.250   2.159   8.761  0.7847 -2.9640  0.7287
 7322SOL    HW233426   0.261   2.233   8.632  0.5253  1.0286  1.4873
 7323SOL     OW33427   3.845   1.276   4.457  0.3554 -0.0012  0.3088
 7323SOL    HW133428   3.932   1.260   4.419 -0.0512  0.5220 -0.8261
 7323SOL    HW233429   3.796   1.220   4.397  0.7217  0.9154 -0.8424
 7324SOL     OW33430   1.327   2.599   3.861 -0.3839 -0.5821 -0.0445
 7324SOL    HW133431   1.251   2.622   3.914  2.8684  0.8458  3.9482
 7324SOL    HW233432   1.385   2.564   3.929  0.2827 -0.6472 -0.6419
 7325SOL     OW33433   0.885   1.683   7.658  0.3606 -0.2708  0.8961
 7325SOL    HW133434   0.943   1.679   7.734  0.5975 -0.2550  0.7167
 7325SOL    HW233435   0.866   1.590   7.647 -1.2519  0.1709  0.0717
 7326SOL     OW33436   3.174   4.404  14.812  0.0287 -0.0805 -0.1686
 7326SOL    HW133437   3.150   4.329  14.757 -2.1741 -0.4348  1.2937
 7326SOL    HW233438   3.263   4.379  14.835  0.6781  2.0568 -0.3177
 7327SOL     OW33439   1.557   2.520   4.014  0.0561  0.1158 -0.3932
 7327SOL    HW133440   1.616   2.567   4.073 -1.7806  2.6523 -0.5875
 7327SOL    HW233441   1.619   2.475   3.957  0.7901 -0.9312  1.2266
 7328SOL     OW33442   2.890   0.478   2.503  0.5009  0.8015 -0.3145
 7328SOL    HW133443   2.809   0.483   2.554  0.5846  1.4098 -0.2498
 7328SOL    HW233444   2.862   0.479   2.411 -0.3561  0.7439 -0.0593
 7329SOL     OW33445   0.264   3.827  17.131 -0.3079 -0.6302  0.7420
 7329SOL    HW133446   0.349   3.781  17.139  0.0988 -0.3504 -2.0026
 7329SOL    HW233447   0.259   3.870  17.217 -0.9750  1.0235 -0.1341
 7330SOL     OW33448   0.487   2.080  12.052  0.0122  0.2699 -0.0652
 7330SOL    HW133449   0.401   2.078  12.093 -0.7738  1.2115 -1.7120
 7330SOL    HW233450   0.465   2.061  11.961  0.3588  0.8661 -0.2712
 7331SOL     OW33451   3.010   4.469   6.258 -0.3515  0.5786 -0.3160
 7331SOL    HW133452   2.959   4.542   6.294  0.5095  0.8234  0.4295
 7331SOL    HW233453   3.055   4.437   6.336  2.9998 -2.6621 -3.6220
 7332SOL     OW33454   3.746   0.159  17.376 -0.1784  0.1914  0.2707
 7332SOL    HW133455   3.718   0.214  17.303  0.8608  1.4679  0.8315
 7332SOL    HW233456   3.767   0.223  17.445  1.1221  0.6653 -0.5668
 7333SOL     OW33457   1.835   3.804   9.168  0.2785  0.1804 -0.1981
 7333SOL    HW133458   1.741   3.821   9.154  0.5527  2.0180  0.2977
 7333SOL    HW233459   1.829   3.769   9.257 -0.5131  1.2655  0.1735
 7334SOL     OW33460   1.331   3.416   6.839 -0.2390 -0.2953  0.7417
 7334SOL    HW133461   1.417   3.452   6.858 -0.2800  0.1955 -0.0088
 7334SOL    HW233462   1.353   3.380   6.754  3.0951  2.4057  0.4580
 7335SOL     OW33463   4.180   0.795  16.225 -0.4444 -0.0311 -0.2159
 7335SOL    HW133464   4.115   0.865  16.232 -1.4492 -0.8766 -0.9953
 7335SOL    HW233465   4.140   0.745  16.154  0.1178 -1.1001  0.2178
 7336SOL     OW33466   2.368   4.162   5.194 -0.4770 -0.4033  0.0123
 7336SOL    HW133467   2.341   4.221   5.263  1.4893  0.5048  0.0058
 7336SOL    HW233468   2.385   4.077   5.236 -0.9612  0.4717  1.9517
 7337SOL     OW33469   0.664   4.229   7.305 -0.1821 -0.1989 -0.0694
 7337SOL    HW133470   0.695   4.307   7.259  0.3459 -2.1465 -2.9834
 7337SOL    HW233471   0.696   4.153   7.257 -2.8424 -1.0145 -0.5761
 7338SOL     OW33472   1.549   2.347   5.567  0.2385 -0.6867  0.6444
 7338SOL    HW133473   1.472   2.292   5.552 -1.9805  2.8331 -0.9008
 7338SOL    HW233474   1.577   2.378   5.481  0.8526 -1.4008  0.5879
 7339SOL     OW33475   3.168   2.679   2.697 -0.1366 -0.0031 -0.2546
 7339SOL    HW133476   3.125   2.598   2.724 -1.1330  0.9231  0.9421
 7339SOL    HW233477   3.256   2.655   2.725 -0.3580 -0.1255  0.3435
 7340SOL     OW33478   0.507   0.609  16.232 -0.3157  0.0530  0.6824
 7340SOL    HW133479   0.570   0.620  16.303 -0.0123  0.2578  0.3774
 7340SOL    HW233480   0.508   0.514  16.220  1.2214  0.3599 -1.6743
 7341SOL     OW33481   4.134   3.661  13.248  0.0988  0.1760 -0.4431
 7341SOL    HW133482   4.185   3.588  13.212  2.4066  0.3502  2.5420
 7341SOL    HW233483   4.201   3.722  13.278  0.1218 -0.7839  1.4702
 7342SOL     OW33484   3.497   4.296   6.714  0.2832  0.2695 -0.1239
 7342SOL    HW133485   3.571   4.351   6.739 -1.0121  0.3552  3.6237
 7342SOL    HW233486   3.435   4.322   6.783  2.2363 -0.0280  1.7406
 7343SOL     OW33487   3.065   1.533   9.981  0.0519 -0.2678 -0.0734
 7343SOL    HW133488   3.159   1.522   9.994  0.0855  0.6138  0.4443
 7343SOL    HW233489   3.034   1.444   9.998  1.1283 -0.6581 -0.1465
 7344SOL     OW33490   1.830   0.459   4.623  0.0728 -0.2955  0.0762
 7344SOL    HW133491   1.754   0.470   4.564 -0.2515 -0.5044  0.4553
 7344SOL    HW233492   1.889   0.415   4.562 -0.7103 -1.2462  0.0130
 7345SOL     OW33493   1.134   3.414   7.802 -0.3249  0.6353  0.5957
 7345SOL    HW133494   1.085   3.477   7.856  0.5576  0.3182  1.7788
 7345SOL    HW233495   1.064   3.370   7.753  0.2560  0.4521 -0.0604
 7346SOL     OW33496   2.104   3.014   7.380 -0.1413  0.2717 -0.4324
 7346SOL    HW133497   2.136   2.958   7.308  0.9210  1.3806 -0.8222
 7346SOL    HW233498   2.181   3.016   7.438 -1.3142 -2.3835  1.2299
 7347SOL     OW33499   2.547   2.686  14.872 -0.1097  0.0704  0.8406
 7347SOL    HW133500   2.642   2.674  14.879 -0.1600 -0.9702 -0.2819
 7347SOL    HW233501   2.516   2.660  14.959 -0.3422  0.0593  0.7533
 7348SOL     OW33502   2.112   1.289  11.197  0.0049 -0.2223  0.2594
 7348SOL    HW133503   2.158   1.235  11.261 -0.2980 -0.6176  0.1474
 7348SOL    HW233504   2.185   1.349  11.181 -0.2463 -0.3036 -1.1334
 7349SOL     OW33505   3.399   4.670  11.678  0.1408 -0.3966 -0.2790
 7349SOL    HW133506   3.345   4.683  11.600  0.4181 -0.2330 -0.4440
 7349SOL    HW233507   3.391   4.575  11.693 -1.2235 -0.0608  1.1046
 7350SOL     OW33508   3.875   3.643   9.758  0.6851  0.1496  0.4953
 7350SOL    HW133509   3.856   3.692   9.839  0.8925  1.1966 -0.0953
 7350SOL    HW233510   3.827   3.690   9.690 -0.2371 -2.2907 -0.5320
 7351SOL     OW33511   2.599   0.639   2.788  0.3367 -0.0909  0.3218
 7351SOL    HW133512   2.509   0.606   2.795 -0.0479  0.6197 -1.2779
 7351SOL    HW233513   2.615   0.670   2.878  0.2721  0.2084  0.2294
 7352SOL     OW33514   2.057   2.436   5.815  0.6258 -0.6362 -0.3293
 7352SOL    HW133515   1.971   2.407   5.782 -0.7788 -0.0801  2.8710
 7352SOL    HW233516   2.033   2.520   5.855  2.1245  0.2107 -1.2067
 7353SOL     OW33517   1.018   1.418   7.063 -0.1436  0.3191  0.7836
 7353SOL    HW133518   1.058   1.334   7.042 -0.4099  1.0370 -2.5600
 7353SOL    HW233519   0.928   1.407   7.032  0.2162  0.8261 -0.4389
 7354SOL     OW33520   3.417   4.207   9.568  0.6708 -0.1088  0.4458
 7354SOL    HW133521   3.379   4.155   9.639  0.3051 -0.7134 -0.2005
 7354SOL    HW233522   3.458   4.141   9.512  1.2703 -0.4029  1.2134
 7355SOL     OW33523   3.128   1.810  17.406  0.0758 -0.2677  0.2422
 7355SOL    HW133524   3.170   1.850  17.482 -0.4642 -0.1331  0.4673
 7355SOL    HW233525   3.048   1.862  17.400  0.3357  0.1222  0.1760
 7356SOL     OW33526   1.842   0.916   5.773 -0.2985 -0.1148  0.1497
 7356SOL    HW133527   1.776   0.971   5.815 -0.6745  0.6539 -1.4500
 7356SOL    HW233528   1.779   0.865   5.721  0.8823 -1.0313 -0.3803
 7357SOL     OW33529   4.593   1.111   6.114 -0.0476  0.3789  0.1711
 7357SOL    HW133530   4.593   1.115   6.210  1.8588 -1.2795  0.2465
 7357SOL    HW233531   4.500   1.105   6.094  0.1735 -1.4789 -0.3163
 7358SOL     OW33532   4.343   0.505   7.454 -0.4531  0.7241  0.0927
 7358SOL    HW133533   4.428   0.538   7.482 -0.2429  1.6956 -1.6310
 7358SOL    HW233534   4.324   0.562   7.379 -1.0696 -0.6529 -0.7897
 7359SOL     OW33535   1.513   0.635  15.359 -0.8289 -0.1388 -0.5380
 7359SOL    HW133536   1.436   0.691  15.358  2.1740  4.0779  3.6520
 7359SOL    HW233537   1.588   0.689  15.335  0.4705 -2.6617 -2.1748
 7360SOL     OW33538   1.015   0.861   8.739  0.1523  0.0574 -0.0714
 7360SOL    HW133539   1.014   0.767   8.756  3.4323  0.1688  0.7905
 7360SOL    HW233540   1.073   0.874   8.814  0.4616  0.1314 -0.3217
 7361SOL     OW33541   2.341   4.497   5.036  0.1105  0.1415 -0.4609
 7361SOL    HW133542   2.401   4.435   4.996  2.1979  1.6340  0.3412
 7361SOL    HW233543   2.395   4.576   5.035  0.2470  0.0531 -0.0482
 7362SOL     OW33544   4.222   0.686   5.860 -0.0236  0.0511 -0.2595
 7362SOL    HW133545   4.143   0.722   5.821  1.3142  1.0588 -2.0492
 7362SOL    HW233546   4.195   0.594   5.861  1.3077 -0.3192  1.0443
 7363SOL     OW33547   0.762   3.872   2.852  0.2346 -0.3388 -0.0178
 7363SOL    HW133548   0.669   3.883   2.868  0.3846 -0.5401  0.9909
 7363SOL    HW233549   0.790   3.956   2.817 -0.2373 -0.9591 -1.9088
 7364SOL     OW33550   1.173   3.615   8.799  0.2342 -0.0106  0.9629
 7364SOL    HW133551   1.148   3.647   8.886 -0.6055  1.6765  0.0865
 7364SOL    HW233552   1.199   3.525   8.821  2.5989  0.7569  1.3648
 7365SOL     OW33553   4.220   1.535   2.320 -0.1202  0.2873 -0.1163
 7365SOL    HW133554   4.307   1.498   2.331 -0.2886 -0.4025 -1.1796
 7365SOL    HW233555   4.230   1.622   2.281 -0.2754 -0.0496 -0.9070
 7366SOL     OW33556   3.828   1.391  16.784  0.1500 -0.1379  0.5769
 7366SOL    HW133557   3.922   1.410  16.780  0.2766 -1.2668 -2.1054
 7366SOL    HW233558   3.792   1.473  16.751  1.0316  0.1913  0.4171
 7367SOL     OW33559   1.769   0.466   4.205  0.9680 -0.0089 -0.3218
 7367SOL    HW133560   1.761   0.503   4.117  0.3607  0.4033 -0.0889
 7367SOL    HW233561   1.858   0.433   4.194  0.3712 -1.7294 -0.0052
 7368SOL     OW33562   2.671   4.204  16.716 -0.4003 -0.0456 -0.1443
 7368SOL    HW133563   2.615   4.157  16.778 -0.4889 -0.4867 -0.5626
 7368SOL    HW233564   2.609   4.219  16.644  0.8763  0.4692 -1.1309
 7369SOL     OW33565   2.956   1.543   6.231 -0.2223 -0.2378 -0.0493
 7369SOL    HW133566   2.999   1.540   6.146  0.7505 -1.6016  0.4790
 7369SOL    HW233567   3.024   1.571   6.293  0.8746  0.8196 -1.7508
 7370SOL     OW33568   3.134   1.358  10.217  0.4645 -0.3419  0.3034
 7370SOL    HW133569   3.116   1.335  10.309 -2.9069  1.1289  0.0184
 7370SOL    HW233570   3.141   1.453  10.228 -0.6828 -0.3631  1.2570
 7371SOL     OW33571   1.269   1.080   1.546  0.0258 -0.5873 -0.0047
 7371SOL    HW133572   1.327   1.028   1.490 -1.1833 -0.4144 -1.4186
 7371SOL    HW233573   1.231   1.144   1.486 -2.1285 -0.8755  1.0210
 7372SOL     OW33574   3.192   2.603   3.763  0.2543  0.1848 -0.3500
 7372SOL    HW133575   3.223   2.530   3.817 -0.6984 -0.4448 -0.6676
 7372SOL    HW233576   3.144   2.656   3.827 -1.6018 -1.0473 -0.7438
 7373SOL     OW33577   2.166   0.732   4.224 -0.6099  0.3251  0.0744
 7373SOL    HW133578   2.133   0.685   4.147 -0.7254  1.5745 -0.6418
 7373SOL    HW233579   2.212   0.803   4.179  0.2088  0.0353  0.4732
 7374SOL     OW33580   2.725   3.348   3.745  0.2669 -0.2538  0.5259
 7374SOL    HW133581   2.807   3.307   3.771  0.1668 -0.6830  0.1781
 7374SOL    HW233582   2.687   3.344   3.833  0.9652  1.1377  0.8723
 7375SOL     OW33583   2.459   3.902  17.599 -0.5627 -0.0382 -0.1624
 7375SOL    HW133584   2.508   3.843  17.543  1.6757  0.3478  1.4090
 7375SOL    HW233585   2.378   3.850  17.597 -0.9978  0.5894  1.0241
 7376SOL     OW33586   3.539   4.577   4.603  0.1033  0.9265  0.5291
 7376SOL    HW133587   3.601   4.521   4.651  1.8305 -1.0479 -4.0276
 7376SOL    HW233588   3.527   4.518   4.529  3.9143 -1.7998  2.0824
 7377SOL     OW33589   2.864   3.809   4.108  0.3271  0.5964 -0.3945
 7377SOL    HW133590   2.918   3.790   4.184 -0.0286 -1.7164 -0.7294
 7377SOL    HW233591   2.930   3.776   4.048 -1.4254 -0.3761 -1.7902
 7378SOL     OW33592   0.315   1.120  14.087  0.1072 -0.2108 -0.4540
 7378SOL    HW133593   0.244   1.172  14.124 -0.4195 -0.7820 -0.6628
 7378SOL    HW233594   0.396   1.169  14.106 -0.0508  0.2727 -1.0143
 7379SOL     OW33595   2.237   1.389  16.019  0.5055 -0.3628 -0.0206
 7379SOL    HW133596   2.248   1.321  16.085 -0.6226  0.2276  0.7644
 7379SOL    HW233597   2.167   1.438  16.062  0.7735 -0.4868  0.5504
 7380SOL     OW33598   1.342   0.459  16.570  0.1039 -0.4572 -0.4797
 7380SOL    HW133599   1.413   0.424  16.624 -0.8215 -2.3990 -0.5265
 7380SOL    HW233600   1.298   0.520  16.629  0.7299  0.1598 -0.6485
 7381SOL     OW33601   0.069   2.867   8.031  0.1613  0.0663  0.0880
 7381SOL    HW133602   0.053   2.813   8.108  1.2065  0.3751  0.5277
 7381SOL    HW233603   0.014   2.821   7.968  0.7660 -1.0616  0.3856
 7382SOL     OW33604   1.965   1.528  12.378 -1.1128 -0.1348 -0.4251
 7382SOL    HW133605   1.915   1.487  12.448 -0.3248 -1.1397 -0.4529
 7382SOL    HW233606   1.955   1.617  12.410  2.2113 -0.1637  0.7165
 7383SOL     OW33607   2.700   1.170   1.501 -0.3194  0.2826 -0.3236
 7383SOL    HW133608   2.724   1.252   1.458  1.8012  0.8613  1.9901
 7383SOL    HW233609   2.727   1.186   1.592  0.3703  1.2727 -0.7096
 7384SOL     OW33610   0.576   1.531   1.705 -0.0363  0.3890 -0.5726
 7384SOL    HW133611   0.546   1.617   1.676 -0.0136  1.0419  1.3193
 7384SOL    HW233612   0.518   1.518   1.780 -1.4638 -0.2613 -1.8058
 7385SOL     OW33613   4.340   2.190   7.779 -0.1020 -0.0546 -0.4550
 7385SOL    HW133614   4.342   2.258   7.847 -0.4284  2.0811 -2.5882
 7385SOL    HW233615   4.392   2.117   7.813 -1.5079 -0.4299  0.8886
 7386SOL     OW33616   3.396   1.150   6.716  0.1703  0.3753 -0.1229
 7386SOL    HW133617   3.375   1.057   6.712 -0.3446  0.4245  1.6674
 7386SOL    HW233618   3.310   1.190   6.701 -0.4928 -0.3094  1.9327
 7387SOL     OW33619   0.609   2.101  16.984 -0.1009 -0.2641 -0.2688
 7387SOL    HW133620   0.571   2.140  16.905  0.7730 -0.5317 -0.8183
 7387SOL    HW233621   0.687   2.067  16.940  0.2647 -0.1600  0.3109
 7388SOL     OW33622   3.262   0.355   7.520  0.7598  0.4855  0.2349
 7388SOL    HW133623   3.297   0.335   7.607  2.9840  3.3430  0.0116
 7388SOL    HW233624   3.255   0.263   7.498  0.5335  0.8337 -1.1396
 7389SOL     OW33625   3.095   0.552   1.286  0.0357 -0.7120  0.1896
 7389SOL    HW133626   3.125   0.580   1.200  0.3099  0.2771  0.6025
 7389SOL    HW233627   3.119   0.628   1.339 -0.7404  0.3330 -0.9883
 7390SOL     OW33628   0.149   1.386   8.121 -0.3343 -0.4299 -0.6641
 7390SOL    HW133629   0.212   1.358   8.187 -1.2035  0.0893  0.4004
 7390SOL    HW233630   0.113   1.303   8.092 -1.2907  0.1071 -1.0153
 7391SOL     OW33631   2.545   3.124  12.100 -0.2325  0.3104  0.4752
 7391SOL    HW133632   2.464   3.141  12.053  0.7290  0.9947 -0.9379
 7391SOL    HW233633   2.596   3.106  12.021 -1.3584  0.3568 -0.2632
 7392SOL     OW33634   0.337   1.120   1.951  0.2472 -0.2786 -0.2056
 7392SOL    HW133635   0.277   1.164   1.892  0.8972 -0.2021 -0.8128
 7392SOL    HW233636   0.306   1.030   1.959 -1.1340  0.1932 -0.3799
 7393SOL     OW33637   0.137   1.720  10.807  0.0146  0.5711 -0.0392
 7393SOL    HW133638   0.104   1.643  10.853 -1.7896  0.8502 -0.8538
 7393SOL    HW233639   0.059   1.764  10.774 -0.9501 -0.9885  0.2099
 7394SOL     OW33640   3.923   3.813  13.278  0.7630  0.3685 -0.7035
 7394SOL    HW133641   3.898   3.842  13.190  0.1802  1.2830 -0.2295
 7394SOL    HW233642   4.002   3.758  13.277 -0.3004 -1.1920  0.6442
 7395SOL     OW33643   4.402   4.079   0.290 -0.4562  0.1176  0.4041
 7395SOL    HW133644   4.462   4.111   0.223 -0.5706  0.5530  0.5089
 7395SOL    HW233645   4.358   4.003   0.253  0.4027  0.0416 -0.4474
 7396SOL     OW33646   2.753   0.409   3.915 -0.4597 -0.3192 -0.2601
 7396SOL    HW133647   2.847   0.412   3.930 -0.6535 -0.3873  1.0178
 7396SOL    HW233648   2.727   0.498   3.939 -1.8336 -0.4048 -1.4218
 7397SOL     OW33649   2.984   3.970   9.919 -0.2207  0.1008  0.2990
 7397SOL    HW133650   3.028   3.937   9.840 -3.0033  0.7884 -1.5381
 7397SOL    HW233651   2.973   3.893   9.974  0.8565 -0.4649 -0.2735
 7398SOL     OW33652   4.405   2.090   4.305  0.1450  0.1920  0.1686
 7398SOL    HW133653   4.385   1.997   4.316 -0.4723  0.4513  1.2547
 7398SOL    HW233654   4.500   2.092   4.307  0.1459 -0.2623  0.6317
 7399SOL     OW33655   0.527   0.362  12.326 -0.1816 -0.4961 -0.2720
 7399SOL    HW133656   0.434   0.363  12.351 -0.6387  1.9985 -2.0496
 7399SOL    HW233657   0.530   0.429  12.258  2.1025 -0.7270 -0.3805
 7400SOL     OW33658   0.171   1.953   9.410  0.4075 -0.1443  0.1929
 7400SOL    HW133659   0.202   2.024   9.467 -2.2879  1.9040 -0.8724
 7400SOL    HW233660   0.127   1.887   9.463 -0.2808  0.8804  0.8886
 7401SOL     OW33661   1.655   1.687   6.559 -0.3287  0.0281  0.1921
 7401SOL    HW133662   1.740   1.723   6.534  0.0099  0.7301  2.3385
 7401SOL    HW233663   1.593   1.724   6.496  0.9837  2.0510  0.0812
 7402SOL     OW33664   1.552   0.892   1.108 -0.1315 -0.2044  0.0712
 7402SOL    HW133665   1.532   0.941   1.028  0.1983  0.1869  0.2261
 7402SOL    HW233666   1.645   0.912   1.103 -0.0914 -0.5836 -0.6602
 7403SOL     OW33667   3.600   1.691   2.953 -0.1729  0.4320  0.6941
 7403SOL    HW133668   3.516   1.676   2.997 -0.4740  0.1482  0.0354
 7403SOL    HW233669   3.576   1.771   2.906 -1.4482 -0.8906 -0.9314
 7404SOL     OW33670   0.620   2.102   5.320  0.0265 -0.2162 -0.3328
 7404SOL    HW133671   0.571   2.022   5.298  1.5452 -1.2844  0.1442
 7404SOL    HW233672   0.581   2.154   5.249  0.3207  1.1660  0.5239
 7405SOL     OW33673   2.995   3.300   5.773  0.6682  0.1874 -0.2540
 7405SOL    HW133674   2.939   3.309   5.850  1.4140 -0.2145  0.3436
 7405SOL    HW233675   3.087   3.290   5.801  1.0488  3.1653 -0.4819
 7406SOL     OW33676   2.236   0.758   7.747 -0.0072 -0.1758 -0.9631
 7406SOL    HW133677   2.164   0.745   7.685 -0.0966  2.8652 -1.5126
 7406SOL    HW233678   2.182   0.761   7.826 -0.0653  0.1209 -1.0115
 7407SOL     OW33679   2.621   2.225  12.306  0.0547 -0.0740  0.3312
 7407SOL    HW133680   2.696   2.191  12.257  0.6154 -0.7011  1.6106
 7407SOL    HW233681   2.636   2.178  12.389  4.0968  1.3950  0.4407
 7408SOL     OW33682   2.191   1.172   5.115  0.2439 -0.4240 -0.4778
 7408SOL    HW133683   2.286   1.170   5.127  0.4745 -1.7003 -2.4673
 7408SOL    HW233684   2.178   1.081   5.087  2.3406 -1.2618  1.2890
 7409SOL     OW33685   0.866   4.613  13.640 -0.2777  0.2643  0.0006
 7409SOL    HW133686   0.896   4.685  13.695  0.3051  0.0192  0.0068
 7409SOL    HW233687   0.943   4.555  13.636 -0.9527 -0.8312  3.0299
 7410SOL     OW33688   1.624   3.048  10.607  0.4363 -0.2011  0.0618
 7410SOL    HW133689   1.591   3.029  10.695  3.4383  0.6222  1.3531
 7410SOL    HW233690   1.714   3.080  10.611  0.3640  0.0543 -0.3359
 7411SOL     OW33691   2.327   3.552   4.227  0.4443 -0.1911  0.0601
 7411SOL    HW133692   2.286   3.504   4.299 -0.0257  1.7501  1.0932
 7411SOL    HW233693   2.271   3.523   4.155  0.7621  2.8848 -1.4371
 7412SOL     OW33694   0.008   2.168  15.991  0.8534  0.3646 -1.0021
 7412SOL    HW133695   4.640   2.191  15.978  0.6843 -1.4636 -2.9836
 7412SOL    HW233696   0.035   2.177  15.899  1.3089  1.9218 -0.7165
 7413SOL     OW33697   2.024   1.353   0.041 -0.1801  0.2066  0.1758
 7413SOL    HW133698   2.006   1.276   0.095 -0.1608  0.5314  0.6543
 7413SOL    HW233699   2.042   1.409   0.117  1.0041 -0.3786  0.3182
 7414SOL     OW33700   1.766   4.020   9.440  0.2382 -0.0524  0.0059
 7414SOL    HW133701   1.689   4.070   9.469 -0.8874 -0.7454 -1.8253
 7414SOL    HW233702   1.794   4.065   9.361 -0.2711 -0.2959 -0.3111
 7415SOL     OW33703   1.623   1.000   7.557  0.3727 -0.2950  0.2010
 7415SOL    HW133704   1.563   0.926   7.559  0.6428 -0.5169  0.0361
 7415SOL    HW233705   1.670   0.985   7.639  1.1132  2.0376  0.2151
 7416SOL     OW33706   0.539   0.861   8.698  0.0359  0.3413 -0.1746
 7416SOL    HW133707   0.602   0.789   8.693  0.6352  0.7271  1.6517
 7416SOL    HW233708   0.520   0.871   8.792 -0.7622 -0.1828 -0.2782
 7417SOL     OW33709   1.771   2.501   9.293  0.3487  0.2439  0.3536
 7417SOL    HW133710   1.821   2.580   9.273  0.6945  0.7940  3.4078
 7417SOL    HW233711   1.757   2.512   9.387 -1.1153 -0.6156  0.2274
 7418SOL     OW33712   2.047   3.804   8.166  0.3281  0.3742  0.3148
 7418SOL    HW133713   1.991   3.765   8.233  1.1418 -0.1605  0.6937
 7418SOL    HW233714   2.061   3.885   8.215 -0.9086 -0.2968  1.7965
 7419SOL     OW33715   4.354   0.539   0.458  0.2845  0.1427 -0.1917
 7419SOL    HW133716   4.303   0.614   0.488 -0.0871  0.5435 -1.8267
 7419SOL    HW233717   4.363   0.559   0.365 -0.3303  0.3983 -0.1908
 7420SOL     OW33718   3.323   1.306   3.069  0.0426  0.2679 -0.3996
 7420SOL    HW133719   3.385   1.371   3.035  1.3959 -1.1761 -0.6583
 7420SOL    HW233720   3.243   1.321   3.018  0.0257 -0.8662 -0.7000
 7421SOL     OW33721   4.543   1.335   5.320  0.4987 -0.1596  0.3562
 7421SOL    HW133722   4.550   1.388   5.240  0.4406  2.6902  2.2361
 7421SOL    HW233723   4.547   1.248   5.280 -2.2489  0.0451 -0.3706
 7422SOL     OW33724   0.777   4.305   5.477 -0.2175 -0.3481  0.4639
 7422SOL    HW133725   0.793   4.284   5.569  2.5643 -1.4036 -0.2838
 7422SOL    HW233726   0.685   4.332   5.477 -0.4206 -1.0407 -1.2482
 7423SOL     OW33727   2.798   0.552   5.300 -0.1996  0.2455  0.1910
 7423SOL    HW133728   2.745   0.589   5.370  0.5068  0.1465  0.7742
 7423SOL    HW233729   2.781   0.458   5.309  0.8222  0.1096  0.6269
 7424SOL     OW33730   4.072   3.430   8.737  0.0206 -0.3484  0.0239
 7424SOL    HW133731   4.141   3.485   8.698  0.2930  0.3097  1.4207
 7424SOL    HW233732   4.122   3.414   8.817 -1.5628  1.1817  1.3402
 7425SOL     OW33733   2.853   1.439  10.316  0.2606  0.1222  0.0760
 7425SOL    HW133734   2.795   1.512  10.294 -0.0334 -0.5919 -1.4352
 7425SOL    HW233735   2.837   1.388  10.237 -0.1425  2.5379 -1.3934
 7426SOL     OW33736   2.685   1.666   2.400 -0.2718 -0.2550  0.4146
 7426SOL    HW133737   2.695   1.571   2.396 -2.3543 -0.5223  1.2947
 7426SOL    HW233738   2.764   1.702   2.359 -0.7438  0.0300 -0.2551
 7427SOL     OW33739   4.070   4.372   9.434 -0.1031  0.4322  0.0523
 7427SOL    HW133740   4.003   4.425   9.477 -0.3151 -0.1391  0.4217
 7427SOL    HW233741   4.067   4.283   9.469 -1.2488  0.2616 -0.4743
 7428SOL     OW33742   3.111   4.093   8.446 -0.7928  0.0329  0.5514
 7428SOL    HW133743   3.023   4.118   8.475 -1.0437 -1.0508  0.7179
 7428SOL    HW233744   3.121   4.158   8.376  0.4327  0.4557  1.1301
 7429SOL     OW33745   2.089   1.278   4.868  0.0561  0.1703  0.4615
 7429SOL    HW133746   2.111   1.195   4.911  0.2071 -0.4824 -0.8689
 7429SOL    HW233747   2.047   1.332   4.935  0.5707  1.7330 -0.4624
 7430SOL     OW33748   4.018   4.222  15.620  0.0620 -0.1559  0.6956
 7430SOL    HW133749   4.051   4.133  15.608  1.3725 -0.0098  3.0853
 7430SOL    HW233750   4.103   4.257  15.647 -0.3168  1.6363 -0.4521
 7431SOL     OW33751   4.427   1.126   4.490 -0.3629  0.1858 -0.5334
 7431SOL    HW133752   4.448   1.142   4.582 -1.4138 -1.6497  0.0313
 7431SOL    HW233753   4.488   1.054   4.472 -1.1741 -0.6158 -0.0525
 7432SOL     OW33754   1.924   1.329  17.478  0.5725 -0.3900  0.0091
 7432SOL    HW133755   1.966   1.357  17.558 -2.3924  1.3711  0.9475
 7432SOL    HW233756   1.866   1.254  17.492 -0.1320  0.3230  0.8386
 7433SOL     OW33757   3.741   4.523   4.374  0.4863 -0.7865 -0.3270
 7433SOL    HW133758   3.655   4.524   4.332 -0.6343  0.3211  2.0041
 7433SOL    HW233759   3.772   4.436   4.348 -0.1838 -0.8395 -0.9462
 7434SOL     OW33760   1.955   3.476   2.658  0.0918 -0.0241  0.2370
 7434SOL    HW133761   1.989   3.525   2.584 -1.1059 -0.7290 -0.7864
 7434SOL    HW233762   2.006   3.395   2.646  0.7042  0.7680 -2.5585
 7435SOL     OW33763   3.149   4.033   6.573 -0.1310 -0.2062  0.3675
 7435SOL    HW133764   3.221   4.095   6.567  0.9108 -1.4809 -0.3186
 7435SOL    HW233765   3.150   3.999   6.484 -1.6132 -0.3636  0.4088
 7436SOL     OW33766   4.168   2.641  15.190 -0.0071 -0.1843  0.3603
 7436SOL    HW133767   4.164   2.676  15.280  1.6645  1.9725 -0.4088
 7436SOL    HW233768   4.263   2.647  15.193 -0.0099 -0.2132  0.5704
 7437SOL     OW33769   0.171   1.300   1.265 -0.0341 -0.0130 -0.0688
 7437SOL    HW133770   0.197   1.284   1.355 -0.0381 -0.0849 -0.0811
 7437SOL    HW233771   0.245   1.261   1.219  0.0806  0.4231 -0.2530
 7438SOL     OW33772   1.362   1.825   7.965  0.1979 -0.2793 -0.0260
 7438SOL    HW133773   1.371   1.871   7.881 -0.7899  0.1990  0.1271
 7438SOL    HW233774   1.452   1.827   7.996  0.9555  1.0770 -2.2767
 7439SOL     OW33775   1.741   4.227   2.618 -0.2855  0.5382  0.1789
 7439SOL    HW133776   1.786   4.214   2.535 -0.6667  0.7317 -0.0555
 7439SOL    HW233777   1.666   4.168   2.610  0.3102 -0.2264  0.2676
 7440SOL     OW33778   1.965   4.688   7.745  0.1284 -0.1685  0.2024
 7440SOL    HW133779   2.008   4.615   7.789 -0.7302  1.3524  3.6237
 7440SOL    HW233780   1.874   4.657   7.746  0.2111 -0.3636  3.6568
 7441SOL     OW33781   2.341   4.088   5.664 -0.2645 -0.0048 -0.3886
 7441SOL    HW133782   2.281   4.132   5.723 -0.9176 -1.7908  0.2605
 7441SOL    HW233783   2.386   4.160   5.620 -0.6220  0.2730 -0.2934
 7442SOL     OW33784   2.554   2.036  11.646 -0.6389  0.3244  0.3645
 7442SOL    HW133785   2.488   1.967  11.640 -0.0679 -0.2874  1.0995
 7442SOL    HW233786   2.512   2.115  11.611 -1.4697 -1.9456 -3.7460
 7443SOL     OW33787   1.032   0.596   1.417  0.0292 -0.3330  0.2419
 7443SOL    HW133788   1.084   0.527   1.376 -0.7483 -0.8015  0.0547
 7443SOL    HW233789   0.952   0.600   1.365  0.1454  0.1801  0.0955
 7444SOL     OW33790   2.496   2.925  13.061  0.0518  0.1391 -0.1255
 7444SOL    HW133791   2.444   2.992  13.106  1.1468  0.1591  1.1112
 7444SOL    HW233792   2.574   2.980  13.059 -1.1254  1.8419  1.1723
 7445SOL     OW33793   1.027   4.580   8.820  0.0850  0.7773 -0.0655
 7445SOL    HW133794   1.007   4.651   8.759  2.0198 -0.0268 -1.6297
 7445SOL    HW233795   0.975   4.599   8.898 -1.6291  0.5874 -1.1613
 7446SOL     OW33796   2.543   2.269   4.406 -0.1318 -0.9341  0.4603
 7446SOL    HW133797   2.543   2.331   4.479 -0.4826 -1.4904  0.9362
 7446SOL    HW233798   2.570   2.323   4.332  0.1181 -2.7844 -0.7797
 7447SOL     OW33799   4.415   3.405   6.545  0.5329 -0.2182 -0.0185
 7447SOL    HW133800   4.442   3.313   6.545  0.3437 -0.2888 -2.1190
 7447SOL    HW233801   4.399   3.427   6.453 -0.9944 -0.4258  0.1968
 7448SOL     OW33802   4.208   2.964   2.507 -0.3654 -0.4042  0.8998
 7448SOL    HW133803   4.188   3.026   2.577 -0.8790  1.2776 -0.7416
 7448SOL    HW233804   4.274   3.010   2.455 -0.0173 -1.5142  0.3488
 7449SOL     OW33805   4.593   4.714  15.671 -0.0432  0.4359 -0.2638
 7449SOL    HW133806   4.606   0.081  15.645 -2.7676  1.0294  0.4792
 7449SOL    HW233807   4.650   4.711  15.748 -2.3509 -1.9139  1.3518
 7450SOL     OW33808   2.442   3.869  13.878  0.0240 -0.0849 -0.0367
 7450SOL    HW133809   2.450   3.952  13.925  0.8514 -0.2155  0.0529
 7450SOL    HW233810   2.356   3.842  13.912 -0.1701 -0.5694 -0.9298
 7451SOL     OW33811   3.479   1.418   8.908  0.3433 -0.1274  0.2130
 7451SOL    HW133812   3.500   1.457   8.823 -1.0763  0.1013 -0.0223
 7451SOL    HW233813   3.390   1.447   8.927  0.2005 -1.4963  1.6536
 7452SOL     OW33814   0.563   0.217   6.658  0.2069 -0.1514 -0.1746
 7452SOL    HW133815   0.495   0.252   6.715  0.7507 -0.2676  0.5453
 7452SOL    HW233816   0.508   0.195   6.582 -0.7652  2.2637 -0.1688
 7453SOL     OW33817   0.616   0.098   7.725 -0.1789  0.4395  0.5279
 7453SOL    HW133818   0.534   0.049   7.729  0.8115 -1.3160 -0.8737
 7453SOL    HW233819   0.587   0.163   7.661  0.2336  0.6734  0.5778
 7454SOL     OW33820   0.931   1.863   6.995  0.1278 -0.0372  0.8730
 7454SOL    HW133821   0.962   1.801   7.060 -0.3687 -1.4668 -0.2704
 7454SOL    HW233822   1.004   1.882   6.936  0.8689  0.3645  1.9396
 7455SOL     OW33823   4.669   2.831   8.710  0.4242 -0.2528  0.2310
 7455SOL    HW133824   0.032   2.869   8.714  1.0310 -1.6705  0.4428
 7455SOL    HW233825   4.621   2.911   8.730 -0.4894 -0.4335 -1.2641
 7456SOL     OW33826   3.451   0.255   9.340  0.3450  0.9353  0.1451
 7456SOL    HW133827   3.463   0.317   9.412 -0.0822 -0.7956  1.7147
 7456SOL    HW233828   3.506   0.296   9.274 -0.3264  0.7155 -0.5509
 7457SOL     OW33829   2.753   4.711   7.295 -0.3944  0.4117  0.3131
 7457SOL    HW133830   2.802   0.054   7.342  1.4099  0.1729 -1.2570
 7457SOL    HW233831   2.664   0.000   7.328 -0.3754  1.0924  0.0904
 7458SOL     OW33832   0.877   2.597   8.137  0.0744 -0.1800 -0.1224
 7458SOL    HW133833   0.863   2.680   8.182  0.2222 -1.5008  2.3527
 7458SOL    HW233834   0.863   2.524   8.197 -0.2530  0.0507  0.0789
 7459SOL     OW33835   2.311   0.086   7.021 -0.1242  0.1762 -0.3871
 7459SOL    HW133836   2.251   0.096   7.095  1.1134 -0.8392  0.7676
 7459SOL    HW233837   2.289   0.171   6.984 -0.7666  0.3117  0.2950
 7460SOL     OW33838   3.027   2.820   7.139 -0.5791  1.1379  0.3584
 7460SOL    HW133839   3.099   2.882   7.128  0.8268 -0.6643 -0.4189
 7460SOL    HW233840   2.963   2.868   7.192 -1.1469  0.5430  0.2014
 7461SOL     OW33841   3.219   3.908   8.156  0.2173 -0.0666 -0.3199
 7461SOL    HW133842   3.263   3.924   8.240  0.1753 -2.4552  0.1439
 7461SOL    HW233843   3.129   3.895   8.188  0.5517 -0.3063  0.5128
 7462SOL     OW33844   3.712   3.096   4.942 -0.2608  0.4805  0.0062
 7462SOL    HW133845   3.670   3.123   4.860  0.8901  1.6345 -0.2134
 7462SOL    HW233846   3.634   3.084   4.996 -0.1281  0.5378  0.2116
 7463SOL     OW33847   3.813   1.222   2.343  0.2566 -0.1524  0.4901
 7463SOL    HW133848   3.866   1.243   2.266 -1.8216  0.3774 -0.7940
 7463SOL    HW233849   3.811   1.299   2.399 -0.9532 -0.1686  0.4650
 7464SOL     OW33850   0.945   1.770  14.101 -0.9152 -0.3521 -0.4812
 7464SOL    HW133851   0.998   1.830  14.049 -2.1655  0.7720 -0.4753
 7464SOL    HW233852   0.948   1.700  14.036 -3.5598 -1.4512  0.5673
 7465SOL     OW33853   1.825   3.621   3.425  0.1130 -0.0932  0.3960
 7465SOL    HW133854   1.816   3.701   3.374  1.4165 -0.0532  0.2430
 7465SOL    HW233855   1.914   3.593   3.408 -0.8915 -3.0544 -0.0003
 7466SOL     OW33856   0.832   1.817  12.769 -0.5355  1.0461 -0.0889
 7466SOL    HW133857   0.878   1.786  12.847 -0.8886  0.4426 -0.1210
 7466SOL    HW233858   0.744   1.805  12.804 -1.0495  1.5059 -1.2316
 7467SOL     OW33859   0.950   3.587   3.821 -0.1939  0.8311 -0.3016
 7467SOL    HW133860   0.970   3.681   3.826 -1.7230  1.2184 -1.2774
 7467SOL    HW233861   0.873   3.585   3.879 -0.6151 -1.4024 -0.9592
 7468SOL     OW33862   0.915   2.567   6.373  0.2832  0.0196 -0.3081
 7468SOL    HW133863   0.840   2.614   6.409  0.9911 -1.1904  2.7259
 7468SOL    HW233864   0.958   2.635   6.320 -1.1199  2.4677  1.7081
 7469SOL     OW33865   3.070   3.767   7.025  0.3377 -0.3399 -0.4703
 7469SOL    HW133866   3.138   3.811   7.076  0.2399  0.5271 -1.0996
 7469SOL    HW233867   2.995   3.788   7.080 -0.7847 -0.2765 -2.0177
 7470SOL     OW33868   4.589   3.573  13.069  0.3149  0.2824  0.3914
 7470SOL    HW133869   4.617   3.487  13.099  0.8523  0.4232  0.3089
 7470SOL    HW233870   4.585   3.548  12.976  2.2239  1.3563  0.0049
 7471SOL     OW33871   3.180   1.824   3.227 -0.1123 -0.1932  0.1325
 7471SOL    HW133872   3.181   1.854   3.136 -0.8693  2.3669  0.9532
 7471SOL    HW233873   3.107   1.874   3.263 -0.8059 -1.5480  0.6041
 7472SOL     OW33874   0.322   1.585   3.247  0.2846  0.3450 -0.0550
 7472SOL    HW133875   0.232   1.581   3.281  0.5481  1.8601  0.8142
 7472SOL    HW233876   0.339   1.493   3.224 -0.1635  0.0394  0.8373
 7473SOL     OW33877   0.865   0.776   5.025  0.1071 -0.0054 -0.0608
 7473SOL    HW133878   0.958   0.790   5.010 -0.4953  2.7930 -1.2801
 7473SOL    HW233879   0.841   0.858   5.068  1.6535  0.4452 -0.0662
 7474SOL     OW33880   2.348   3.600   3.610  0.0827  0.2112  0.7083
 7474SOL    HW133881   2.417   3.665   3.623  0.0409  0.3428  0.2753
 7474SOL    HW233882   2.321   3.587   3.701 -2.1172  0.9093  0.1358
 7475SOL     OW33883   0.941   2.850   5.364 -0.2844  0.1609  0.3523
 7475SOL    HW133884   0.966   2.871   5.454  0.6837  0.1483  0.0848
 7475SOL    HW233885   1.026   2.859   5.322  0.2193  2.0158  1.7298
 7476SOL     OW33886   3.492   2.390   2.220  0.2111 -0.0102 -0.3694
 7476SOL    HW133887   3.489   2.464   2.281 -1.9305 -2.0084  1.9612
 7476SOL    HW233888   3.585   2.368   2.222 -0.0553 -0.8287  3.2543
 7477SOL     OW33889   4.242   2.719   5.165  0.1528  0.1127  0.5632
 7477SOL    HW133890   4.159   2.671   5.164  0.7717 -0.9738  0.5545
 7477SOL    HW233891   4.210   2.809   5.162  3.4686  1.2950  0.6914
 7478SOL     OW33892   3.546   3.348   6.141  0.4215  0.7816  0.0728
 7478SOL    HW133893   3.634   3.331   6.176  0.4969  0.3474 -0.3178
 7478SOL    HW233894   3.508   3.382   6.222  3.1023  2.2816  0.6955
 7479SOL     OW33895   0.089   3.074   8.315 -0.0932 -0.3257 -0.1549
 7479SOL    HW133896   0.002   3.048   8.287  0.8395 -1.4594 -1.9851
 7479SOL    HW233897   0.138   2.999   8.281 -0.5247 -0.8003  0.2646
 7480SOL     OW33898   3.358   2.760   1.419  0.2475 -0.5215  0.2830
 7480SOL    HW133899   3.279   2.757   1.364  0.5815  1.2637 -0.2944
 7480SOL    HW233900   3.416   2.802   1.355 -1.1505  1.1330  0.1105
 7481SOL     OW33901   1.919   2.582   3.922 -0.2966  0.5122 -0.3830
 7481SOL    HW133902   1.981   2.601   3.993 -1.2231  0.6939  0.3778
 7481SOL    HW233903   1.874   2.505   3.957  1.6864  0.5602  2.3310
 7482SOL     OW33904   3.101   0.456   7.307 -0.1456 -0.0560  0.0857
 7482SOL    HW133905   3.070   0.544   7.332 -1.8043 -1.5623  3.3445
 7482SOL    HW233906   3.147   0.435   7.388 -0.6073 -0.5809  0.2107
 7483SOL     OW33907   0.539   3.293   6.255 -0.1030 -0.4380  0.2422
 7483SOL    HW133908   0.453   3.270   6.291  0.7936 -1.5072  1.6719
 7483SOL    HW233909   0.506   3.326   6.171  3.6167 -0.8128 -1.3501
 7484SOL     OW33910   3.336   4.229   5.466  0.3833 -0.2743  0.6300
 7484SOL    HW133911   3.395   4.155   5.448 -2.2333 -1.3884 -3.4013
 7484SOL    HW233912   3.341   4.268   5.379 -3.6540  0.5318  0.7703
 7485SOL     OW33913   1.235   4.083   6.250 -0.1901  0.0805  1.3249
 7485SOL    HW133914   1.159   4.045   6.206  1.4994 -0.5391 -1.0119
 7485SOL    HW233915   1.254   4.154   6.188 -2.7032 -0.6014 -0.2199
 7486SOL     OW33916   2.254   1.553   2.907  0.1009  0.0663  0.0742
 7486SOL    HW133917   2.266   1.587   2.996 -0.2745 -1.1437  0.5753
 7486SOL    HW233918   2.300   1.469   2.909  0.3179  0.2225  1.3835
 7487SOL     OW33919   0.913   4.184   5.265  0.0516  0.3548 -0.3790
 7487SOL    HW133920   0.845   4.181   5.198  0.8261 -1.4719 -1.0628
 7487SOL    HW233921   0.868   4.209   5.346 -0.5521  1.2408 -0.9921
 7488SOL     OW33922   0.448   4.373  10.429 -0.6185  0.0309 -0.2294
 7488SOL    HW133923   0.501   4.311  10.480 -1.0404 -1.5541 -1.7389
 7488SOL    HW233924   0.521   4.419  10.389 -0.1580  1.6556  2.4944
 7489SOL     OW33925   1.474   3.575   4.012  0.6752  0.2317 -0.0123
 7489SOL    HW133926   1.542   3.640   3.997  0.6371 -0.0428 -1.4187
 7489SOL    HW233927   1.416   3.606   3.942  0.0609  2.1001  1.3267
 7490SOL     OW33928   1.193   2.787   3.198  0.2092 -0.2085  0.2595
 7490SOL    HW133929   1.262   2.848   3.171  0.1945 -0.5025 -0.4514
 7490SOL    HW233930   1.120   2.829   3.154  1.2530  1.1225 -0.2110
 7491SOL     OW33931   1.147   1.346  17.675  0.2558  0.1468  0.0289
 7491SOL    HW133932   1.090   1.290  17.622  0.9718 -0.5896  0.0183
 7491SOL    HW233933   1.207   1.285   0.019 -2.8987 -1.1738  2.5479
 7492SOL     OW33934   3.917   4.161   9.673  0.1888 -0.2924 -0.4777
 7492SOL    HW133935   3.930   4.108   9.595 -0.7390  0.5317 -1.1904
 7492SOL    HW233936   3.834   4.199   9.646 -0.3208 -1.7038 -0.8975
 7493SOL     OW33937   1.129   3.117   9.487  0.6234 -0.2077 -0.2457
 7493SOL    HW133938   1.134   3.073   9.572  2.6762 -0.2527 -0.3829
 7493SOL    HW233939   1.047   3.161   9.506  0.5460  0.0637 -1.1888
 7494SOL     OW33940   0.798   4.415   6.878  0.5607  0.0225 -0.2869
 7494SOL    HW133941   0.739   4.455   6.814  1.4626  1.0838 -0.4598
 7494SOL    HW233942   0.888   4.441   6.859  0.0023  1.5565 -0.8038
 7495SOL     OW33943   3.344   2.717  16.570  0.5755 -0.2509  0.2328
 7495SOL    HW133944   3.404   2.789  16.548  1.6338 -0.1350  3.5689
 7495SOL    HW233945   3.376   2.707  16.660  2.7976 -1.0709 -0.6369
 7496SOL     OW33946   1.018   0.918   6.451 -0.1590 -0.0702  0.1474
 7496SOL    HW133947   1.106   0.882   6.459  0.0211  1.3409  4.8888
 7496SOL    HW233948   0.971   0.835   6.458  1.7257 -1.1640 -0.2790
 7497SOL     OW33949   1.333   1.047   3.131  0.0556  0.5380 -0.3842
 7497SOL    HW133950   1.243   1.048   3.099 -0.8597 -1.5815  2.0777
 7497SOL    HW233951   1.350   1.139   3.150 -1.3444  0.8923 -0.8761
 7498SOL     OW33952   0.074   4.091   4.914 -0.3122  0.9109 -0.0963
 7498SOL    HW133953   0.137   4.034   4.869 -1.2142  0.1518 -0.4145
 7498SOL    HW233954   0.025   4.123   4.837  1.6608 -0.1089 -1.7800
 7499SOL     OW33955   1.338   0.469   5.996 -0.5139  0.8183  0.1065
 7499SOL    HW133956   1.379   0.452   6.081 -1.5865 -2.3989 -0.0291
 7499SOL    HW233957   1.245   0.455   6.013 -0.2684  1.7263  2.1263
 7500SOL     OW33958   0.089   2.085   3.959 -0.3538 -0.2141  0.1220
 7500SOL    HW133959   0.076   1.994   3.932  3.1325 -0.3476 -1.1321
 7500SOL    HW233960   0.068   2.135   3.880 -0.0394 -0.1590  0.0735
 7501SOL     OW33961   3.494   1.431  12.085 -0.3262 -0.2473  0.4256
 7501SOL    HW133962   3.554   1.505  12.083 -1.4967  0.6624 -0.5022
 7501SOL    HW233963   3.557   1.367  12.053 -0.9704 -0.7239  0.0995
 7502SOL     OW33964   3.585   4.121   7.092  0.2215  0.2029 -0.5280
 7502SOL    HW133965   3.639   4.045   7.072 -2.7814 -1.5528 -1.8913
 7502SOL    HW233966   3.522   4.135   7.022 -1.7564 -2.1428  0.7605
 7503SOL     OW33967   3.298   2.242   2.426  0.3564  0.1095 -0.8595
 7503SOL    HW133968   3.390   2.247   2.454  0.7347 -2.2730 -1.6340
 7503SOL    HW233969   3.316   2.230   2.333  1.4129 -2.1891 -0.3697
 7504SOL     OW33970   3.107   2.436  15.966  0.1850  1.1647 -0.0434
 7504SOL    HW133971   3.063   2.517  15.941  1.2125  1.6058 -0.3985
 7504SOL    HW233972   3.027   2.395  16.001  1.5846 -0.1729  1.5915
 7505SOL     OW33973   0.441   3.604   5.580 -0.9440 -0.0524  0.3230
 7505SOL    HW133974   0.397   3.573   5.501  0.0924 -1.9534  0.4821
 7505SOL    HW233975   0.447   3.698   5.567 -0.6585 -0.0509  0.4567
 7506SOL     OW33976   0.615   3.222   2.681  0.3236  0.0013 -0.4670
 7506SOL    HW133977   0.699   3.252   2.647  0.2343 -1.1884 -1.7685
 7506SOL    HW233978   0.644   3.212   2.771 -4.4725 -0.7939  1.0310
 7507SOL     OW33979   3.256   1.565   7.188 -0.1465  0.5303  0.2100
 7507SOL    HW133980   3.305   1.632   7.141 -0.7023  0.0728 -1.0119
 7507SOL    HW233981   3.199   1.529   7.121 -0.1104 -0.7117  0.8520
 7508SOL     OW33982   3.943   0.244   8.487 -0.1929  0.2513 -0.2355
 7508SOL    HW133983   3.876   0.177   8.501 -0.4404  0.4583 -0.4286
 7508SOL    HW233984   4.001   0.239   8.563 -0.2458  1.2033 -0.1300
 7509SOL     OW33985   2.509   1.618   6.750  0.5778  0.2031  0.7116
 7509SOL    HW133986   2.540   1.550   6.690  0.9657  0.6156  0.4468
 7509SOL    HW233987   2.462   1.680   6.694 -0.0975 -0.7546  0.2215
 7510SOL     OW33988   2.717   3.887   7.255 -0.0518 -0.4404  0.3720
 7510SOL    HW133989   2.748   3.933   7.332  0.3276 -1.2948  0.7338
 7510SOL    HW233990   2.768   3.809   7.278 -1.5598 -2.0284 -1.6285
 7511SOL     OW33991   3.995   3.818   2.541  0.1240  0.7869  0.5200
 7511SOL    HW133992   4.061   3.876   2.579  1.6434 -1.3980  1.1927
 7511SOL    HW233993   3.985   3.859   2.455 -0.8416 -1.5771 -0.4786
 7512SOL     OW33994   2.755   3.625  10.005  0.3165  0.1063  0.3913
 7512SOL    HW133995   2.820   3.687  10.038  0.0534  0.8611 -0.5114
 7512SOL    HW233996   2.682   3.670  10.048 -0.1675  0.1520 -0.4860
 7513SOL     OW33997   1.327   2.193  10.350 -0.0906 -0.3447  0.7512
 7513SOL    HW133998   1.369   2.278  10.362  2.0173 -1.3994  0.7624
 7513SOL    HW233999   1.323   2.179  10.255 -2.2648  1.3736  0.5730
 7514SOL     OW34000   2.578   1.206  16.619 -0.4364 -0.4427  0.1715
 7514SOL    HW134001   2.488   1.199  16.653 -0.5772 -1.3878 -0.3850
 7514SOL    HW234002   2.586   1.299  16.597 -1.9128  0.1248  2.0024
 7515SOL     OW34003   3.462   2.510   2.943 -0.1117 -0.2603 -0.5457
 7515SOL    HW134004   3.429   2.462   3.018 -1.7850  2.0764  0.2216
 7515SOL    HW234005   3.485   2.595   2.982 -3.1662  0.1014  0.5060
 7516SOL     OW34006   0.807   2.651  12.913  0.1944 -0.0858 -0.4760
 7516SOL    HW134007   0.819   2.689  13.000  1.1484  1.1905 -1.1719
 7516SOL    HW234008   0.887   2.599  12.907 -0.3141 -0.9092 -0.1745
 7517SOL     OW34009   3.646   4.130   3.191 -0.1796  0.1250 -0.0232
 7517SOL    HW134010   3.599   4.195   3.139 -0.0488  0.1972 -0.0489
 7517SOL    HW234011   3.603   4.047   3.168  1.0331  0.4632 -3.3779
 7518SOL     OW34012   0.360   1.672  14.725  0.0862  0.3177  0.2865
 7518SOL    HW134013   0.406   1.608  14.780  1.3884 -0.5788 -1.8482
 7518SOL    HW234014   0.289   1.700  14.783 -0.3393  0.6954 -0.4111
 7519SOL     OW34015   2.772   1.247  13.828 -0.0381  0.1350 -0.5258
 7519SOL    HW134016   2.681   1.278  13.836 -0.0333  0.0453 -0.0872
 7519SOL    HW234017   2.818   1.328  13.811 -0.1992  0.5875  1.1309
 7520SOL     OW34018   3.800   0.827   1.039 -0.3346 -0.3986 -0.7378
 7520SOL    HW134019   3.858   0.785   0.976 -1.9483 -1.3714 -1.5894
 7520SOL    HW234020   3.762   0.891   0.978  1.6074 -0.2375 -1.7784
 7521SOL     OW34021   1.368   3.857   4.125 -0.1767  0.5577 -0.4010
 7521SOL    HW134022   1.316   3.881   4.201 -0.6321 -0.3324 -0.4355
 7521SOL    HW234023   1.398   3.771   4.154 -0.8307  0.1412 -0.9828
 7522SOL     OW34024   3.621   1.656   5.693 -0.0429  0.0274 -0.8355
 7522SOL    HW134025   3.712   1.684   5.706 -0.3613  0.4200  0.6222
 7522SOL    HW234026   3.615   1.633   5.601 -0.7165  1.0701 -1.0547
 7523SOL     OW34027   4.549   1.975   5.377 -0.2355  0.1686  0.6659
 7523SOL    HW134028   4.483   1.937   5.436 -0.7059  0.6500  0.4421
 7523SOL    HW234029   4.626   1.919   5.374 -0.1864  0.2793 -0.0058
 7524SOL     OW34030   1.073   2.706   2.230  0.2037 -0.1686  0.0695
 7524SOL    HW134031   1.057   2.628   2.176 -0.8207  1.1127 -1.4746
 7524SOL    HW234032   1.019   2.766   2.179 -2.1894 -0.5973  2.1302
 7525SOL     OW34033   4.614   2.836   2.714 -0.3689 -0.3641 -0.6207
 7525SOL    HW134034   4.706   2.862   2.707 -0.5851  0.3489 -0.7483
 7525SOL    HW234035   4.615   2.812   2.807  1.0507  2.4939  0.1122
 7526SOL     OW34036   2.124   0.107   7.934 -0.0149 -0.2023  0.2427
 7526SOL    HW134037   2.211   0.067   7.929 -0.1519 -0.4004 -0.5270
 7526SOL    HW234038   2.071   0.057   7.872 -0.6612  0.4689  0.2486
 7527SOL     OW34039   2.134   4.337   3.056 -0.1558 -0.4998 -0.0833
 7527SOL    HW134040   2.076   4.316   3.129 -2.4013  5.5982 -0.1276
 7527SOL    HW234041   2.107   4.426   3.035 -0.4229  0.7023  5.2340
 7528SOL     OW34042   2.290   4.572   2.899 -0.2142  0.0071 -0.2335
 7528SOL    HW134043   2.230   4.574   2.825 -0.5959  0.3660  0.0879
 7528SOL    HW234044   2.234   4.609   2.967 -1.1047 -2.8170  0.5796
 7529SOL     OW34045   4.112   0.143   4.932  0.1003  0.2608 -0.6004
 7529SOL    HW134046   4.152   0.230   4.935  0.5289  0.1856 -4.1052
 7529SOL    HW234047   4.041   0.149   4.995 -0.0006  0.0748 -0.6951
 7530SOL     OW34048   2.311   2.612   0.618  0.3638  0.0719  0.4375
 7530SOL    HW134049   2.234   2.669   0.618 -0.0186 -0.4262 -1.5586
 7530SOL    HW234050   2.353   2.656   0.544  0.1036  2.1091  1.4897
 7531SOL     OW34051   3.333   2.284   4.422 -0.6442  0.1560  0.0335
 7531SOL    HW134052   3.297   2.211   4.371 -0.3389 -0.7010  1.0362
 7531SOL    HW234053   3.370   2.337   4.351  0.2745 -0.1403  0.3066
 7532SOL     OW34054   0.040   2.815  12.056  0.1628  0.6255 -0.1458
 7532SOL    HW134055   0.101   2.832  11.984  1.4295 -0.6116  0.6579
 7532SOL    HW234056   0.052   2.902  12.094  0.4075 -0.0737  1.3484
 7533SOL     OW34057   3.026   0.810   4.922 -0.4501 -0.2574 -0.5700
 7533SOL    HW134058   3.118   0.818   4.949 -0.2310  0.3027 -1.4732
 7533SOL    HW234059   2.983   0.755   4.987  0.4814  1.3541  1.4037
 7534SOL     OW34060   3.683   0.326   2.936 -0.1194  0.6424 -0.5386
 7534SOL    HW134061   3.634   0.249   2.907  2.6338 -1.3532  0.1963
 7534SOL    HW234062   3.762   0.292   2.978 -0.5254 -2.3343 -2.1837
 7535SOL     OW34063   2.368   0.979  17.062 -0.1950 -0.0809  0.2952
 7535SOL    HW134064   2.289   1.021  17.096  0.4149  0.8274  0.5710
 7535SOL    HW234065   2.440   0.977  17.124  1.3088 -0.0538 -1.4431
 7536SOL     OW34066   1.178   3.742  12.442 -0.0580 -0.1801 -0.1772
 7536SOL    HW134067   1.103   3.782  12.485  0.6344  1.1875 -0.2376
 7536SOL    HW234068   1.249   3.799  12.470 -0.1633 -0.4077  0.5568
 7537SOL     OW34069   2.601   2.300   1.122 -0.7270 -0.1523  0.3992
 7537SOL    HW134070   2.531   2.341   1.072 -2.2058 -0.6366  2.0807
 7537SOL    HW234071   2.677   2.333   1.074 -1.5354 -0.0391 -0.7947
 7538SOL     OW34072   1.032   2.108   4.292 -0.8503  0.1716  0.0358
 7538SOL    HW134073   0.960   2.122   4.231  1.0586 -0.0949 -2.2436
 7538SOL    HW234074   1.106   2.084   4.237  0.6852  1.6468  1.4411
 7539SOL     OW34075   4.132   4.024  17.320  0.0298  0.4057 -0.0640
 7539SOL    HW134076   4.037   4.010  17.328  0.1141 -1.2931 -1.9429
 7539SOL    HW234077   4.136   4.119  17.332 -0.7799  0.5616 -1.0084
 7540SOL     OW34078   1.417   2.207   7.345  0.0886 -0.0979  0.2491
 7540SOL    HW134079   1.503   2.171   7.365 -0.0348 -2.0842 -2.7566
 7540SOL    HW234080   1.408   2.186   7.251 -1.1417 -0.1724  0.3820
 7541SOL     OW34081   0.482   3.739  12.882  0.0622  0.5705 -0.1791
 7541SOL    HW134082   0.409   3.679  12.897  2.0175 -1.6930  0.3969
 7541SOL    HW234083   0.547   3.693  12.936 -0.7578  0.7576  0.9717
 7542SOL     OW34084   4.299   3.460   2.669 -0.0789 -0.3326 -0.0196
 7542SOL    HW134085   4.238   3.516   2.718 -3.1010 -3.8394  0.2749
 7542SOL    HW234086   4.258   3.463   2.583  0.8905  0.4828 -0.4391
 7543SOL     OW34087   0.549   2.803   6.965 -0.0461 -0.5229 -0.2942
 7543SOL    HW134088   0.605   2.852   7.025  0.9288  0.6853 -2.1879
 7543SOL    HW234089   0.465   2.806   7.010 -0.0547 -3.9083 -0.0843
 7544SOL     OW34090   0.374   3.209   5.981 -0.3222  0.0755  0.0848
 7544SOL    HW134091   0.343   3.127   6.020  1.4821 -0.7419 -0.1705
 7544SOL    HW234092   0.300   3.232   5.925 -1.3245 -1.0207  0.9514
 7545SOL     OW34093   3.615   1.709   6.943  0.3531  0.4214  0.5451
 7545SOL    HW134094   3.665   1.668   6.872 -2.8119 -0.4013 -1.1834
 7545SOL    HW234095   3.562   1.635   6.970 -0.4127  0.2838 -1.3329
 7546SOL     OW34096   3.449   2.372  10.632  0.0308 -0.5254  0.0163
 7546SOL    HW134097   3.410   2.306  10.575 -0.0107 -0.8144  0.3832
 7546SOL    HW234098   3.385   2.443  10.630  1.7138  0.9762 -0.6702
 7547SOL     OW34099   0.617   3.589   2.970 -1.1682  0.3092 -0.2270
 7547SOL    HW134100   0.671   3.650   3.020 -0.6094 -1.1762  0.9761
 7547SOL    HW234101   0.578   3.534   3.038 -1.8258  1.2548  0.1542
 7548SOL     OW34102   4.273   2.323   6.109  0.2204 -0.8235 -0.0818
 7548SOL    HW134103   4.274   2.266   6.032 -1.0957 -0.3945 -0.4241
 7548SOL    HW234104   4.179   2.323   6.128  0.8885  0.6476  3.2741
 7549SOL     OW34105   2.992   3.002   5.392 -0.1179  0.4989 -0.1135
 7549SOL    HW134106   2.990   3.095   5.368 -0.1222  0.6195  0.3369
 7549SOL    HW234107   3.005   3.000   5.487 -4.0480 -0.7635  0.3968
 7550SOL     OW34108   0.723   0.914  17.080  0.0476 -0.5309  0.8477
 7550SOL    HW134109   0.663   0.857  17.128 -0.4435 -0.8287 -0.1220
 7550SOL    HW234110   0.753   0.970  17.151 -0.7118  0.5694  0.2889
 7551SOL     OW34111   0.259   1.575   7.057 -0.7381 -0.5541  0.0983
 7551SOL    HW134112   0.320   1.530   7.115 -1.5095 -1.4226  0.2349
 7551SOL    HW234113   0.227   1.500   7.007 -1.1089 -0.4271  0.1446
 7552SOL     OW34114   0.398   0.596   1.961  0.4053  0.3164  0.3277
 7552SOL    HW134115   0.390   0.609   2.055 -0.8194 -0.5281  0.3376
 7552SOL    HW234116   0.493   0.588   1.952  0.3970  0.5030  0.0577
 7553SOL     OW34117   1.352   2.523   6.779 -0.1032  0.0127 -0.4282
 7553SOL    HW134118   1.441   2.509   6.814 -0.3640 -0.9793 -0.1466
 7553SOL    HW234119   1.323   2.606   6.817  1.8933 -0.3367  1.9179
 7554SOL     OW34120   0.315   3.507   2.319 -0.1053 -0.2814  0.1463
 7554SOL    HW134121   0.404   3.505   2.283  0.1168  0.9344  0.6233
 7554SOL    HW234122   0.326   3.477   2.409 -0.6200  0.3921  0.4405
 7555SOL     OW34123   1.142   3.024   1.296 -0.0041  0.0404  0.1166
 7555SOL    HW134124   1.196   3.066   1.363 -2.3276 -0.5922  2.3877
 7555SOL    HW234125   1.092   2.966   1.353  0.4461 -0.7361 -0.2810
 7556SOL     OW34126   3.704   0.834   6.172 -0.1955 -0.2863 -0.4491
 7556SOL    HW134127   3.633   0.881   6.215  0.8929  0.1016  0.9282
 7556SOL    HW234128   3.703   0.873   6.085  1.2901  0.0740 -0.3106
 7557SOL     OW34129   0.292   4.649   9.396  0.5044 -0.0480  0.0582
 7557SOL    HW134130   0.277   4.605   9.312  1.9204 -0.3003 -0.0633
 7557SOL    HW234131   0.230   4.608   9.455 -0.1066 -0.4313 -0.8512
 7558SOL     OW34132   4.472   2.846   7.071 -0.6112 -0.4778  0.3850
 7558SOL    HW134133   4.392   2.794   7.058 -0.8958 -0.1702  0.8966
 7558SOL    HW234134   4.491   2.835   7.164  2.0725 -1.7706 -0.3299
 7559SOL     OW34135   1.945   2.873   8.856  0.1097 -0.4177  0.3584
 7559SOL    HW134136   1.999   2.950   8.872 -0.2466 -0.2232  0.6078
 7559SOL    HW234137   2.002   2.812   8.809 -2.9384 -1.9432 -1.3749
 7560SOL     OW34138   3.208   0.836   3.822 -0.2516  0.7804 -0.2318
 7560SOL    HW134139   3.182   0.825   3.913  2.7127  0.6799  0.6067
 7560SOL    HW234140   3.213   0.932   3.815  1.1183  0.8022  0.9698
 7561SOL     OW34141   2.977   0.239  14.119  0.4845  0.6945  0.4667
 7561SOL    HW134142   2.947   0.328  14.134  2.7190  1.6161 -0.6628
 7561SOL    HW234143   3.042   0.251  14.050 -0.1622  1.7730  0.0482
 7562SOL     OW34144   3.039   1.327   8.273 -0.3901 -0.1815 -0.2969
 7562SOL    HW134145   3.025   1.378   8.352  0.9184  0.3256 -0.3769
 7562SOL    HW234146   2.967   1.264   8.268  1.8956 -2.9107  1.2968
 7563SOL     OW34147   2.308   3.803   8.255  0.3359  0.8816  0.0938
 7563SOL    HW134148   2.238   3.790   8.191  0.2758  1.6707 -0.0078
 7563SOL    HW234149   2.289   3.741   8.326  0.5223 -0.3718 -0.9605
 7564SOL     OW34150   3.562   4.125  13.350 -0.8703 -0.1129  0.0127
 7564SOL    HW134151   3.565   4.153  13.441 -0.5649  1.6429 -0.5422
 7564SOL    HW234152   3.649   4.087  13.343 -0.1965  1.3126  0.7551
 7565SOL     OW34153   0.543   1.479   2.997  0.2127  0.7262 -0.3906
 7565SOL    HW134154   0.502   1.449   2.916  1.6356  0.7811 -1.1255
 7565SOL    HW234155   0.617   1.419   3.007  0.2795  1.1408  1.6773
 7566SOL     OW34156   1.797   3.928  15.136 -0.2374 -0.4519  0.3140
 7566SOL    HW134157   1.790   4.024  15.134  0.0712 -0.4630 -1.5645
 7566SOL    HW234158   1.796   3.916  15.041 -1.1348  1.3735  0.0930
 7567SOL     OW34159   1.831   3.050   4.767 -0.6569  0.0728 -0.0975
 7567SOL    HW134160   1.872   3.135   4.751 -0.4608  0.1528  0.8504
 7567SOL    HW234161   1.842   3.008   4.682  0.5961  1.7962 -0.7985
 7568SOL     OW34162   4.544   2.482  10.018  0.3976 -0.5940  0.1165
 7568SOL    HW134163   4.613   2.446  10.074  0.6155  1.9614  1.5227
 7568SOL    HW234164   4.573   2.573  10.012 -1.6035  0.1238  1.3781
 7569SOL     OW34165   3.541   0.523   6.376  0.1311  0.1225  0.0526
 7569SOL    HW134166   3.620   0.571   6.349  0.3993 -0.1439  0.3700
 7569SOL    HW234167   3.476   0.593   6.385  0.3311  0.4202 -0.7713
 7570SOL     OW34168   0.881   0.306   2.056  0.3879 -0.1140 -0.0956
 7570SOL    HW134169   0.891   0.325   1.963  0.0084 -1.9280 -0.5014
 7570SOL    HW234170   0.788   0.290   2.044  0.6904 -1.8602 -0.1594
 7571SOL     OW34171   0.000   1.348   0.869  0.2139  0.1429  0.3515
 7571SOL    HW134172   4.694   1.432   0.904  1.7695  0.3366  1.2342
 7571SOL    HW234173   0.050   1.397   0.804 -0.3985  0.1135 -0.1371
 7572SOL     OW34174   0.166   3.992   7.214 -0.0154  0.4581 -0.1712
 7572SOL    HW134175   0.111   3.960   7.286  1.5308  0.6747  1.1208
 7572SOL    HW234176   0.160   3.923   7.148  0.0550  1.7396 -1.5229
 7573SOL     OW34177   1.704   3.884   5.765  0.1744  0.5171  0.2485
 7573SOL    HW134178   1.701   3.825   5.841  0.9406 -0.9373 -0.8453
 7573SOL    HW234179   1.612   3.906   5.755  0.1918 -0.5627 -2.2548
 7574SOL     OW34180   0.844   4.560   7.840 -0.1724 -0.1940  0.5480
 7574SOL    HW134181   0.909   4.553   7.910  0.1738  0.5906  0.2993
 7574SOL    HW234182   0.901   4.551   7.763 -2.1147 -1.2845 -0.7515
 7575SOL     OW34183   2.225   1.186  11.904  0.1052 -0.0779  0.2740
 7575SOL    HW134184   2.156   1.123  11.925  0.5146 -0.5033  0.3314
 7575SOL    HW234185   2.164   1.259  11.895  0.3684  0.2175  0.9426
 7576SOL     OW34186   1.431   4.564   5.732 -0.4622  0.1520  0.3556
 7576SOL    HW134187   1.399   4.483   5.692  2.4370 -1.0769  0.5173
 7576SOL    HW234188   1.443   4.540   5.824 -1.8868 -0.4283  0.3964
 7577SOL     OW34189   4.397   1.605   1.677  0.2983 -0.1783 -0.6775
 7577SOL    HW134190   4.440   1.535   1.726 -0.4318 -0.3400 -0.2706
 7577SOL    HW234191   4.409   1.580   1.585 -0.3223  0.2044 -0.8616
 7578SOL     OW34192   3.504   1.007   6.959 -0.2531 -0.1008 -0.0539
 7578SOL    HW134193   3.510   1.045   6.871  3.0252 -0.0096  0.2273
 7578SOL    HW234194   3.448   0.930   6.946 -0.0779 -0.3657  0.8050
 7579SOL     OW34195   3.117   0.747  13.190 -0.1142 -1.1777 -0.8603
 7579SOL    HW134196   3.154   0.809  13.128 -1.2528 -0.3447 -0.6959
 7579SOL    HW234197   3.197   0.717  13.235  0.3704  1.3967 -0.0064
 7580SOL     OW34198   3.712   3.133   1.213 -0.1160 -0.2109  0.2734
 7580SOL    HW134199   3.664   3.165   1.290 -1.0804 -0.3315 -0.2796
 7580SOL    HW234200   3.794   3.098   1.248  1.3273 -0.3217 -3.2168
 7581SOL     OW34201   0.374   0.462   7.677  0.3198 -0.0403  0.7975
 7581SOL    HW134202   0.400   0.445   7.767  3.5411 -0.2888 -0.1773
 7581SOL    HW234203   0.283   0.432   7.683  0.7652 -1.4168  0.8554
 7582SOL     OW34204   1.739   3.975  11.167  0.2765  0.3014  0.5542
 7582SOL    HW134205   1.820   3.968  11.218 -0.7085 -2.1307  1.8345
 7582SOL    HW234206   1.716   4.066  11.182 -1.7015 -0.1964  0.5008
 7583SOL     OW34207   3.750   2.214   0.969  0.3032  0.1016  0.1683
 7583SOL    HW134208   3.822   2.190   1.027  2.5447  1.1877 -2.1888
 7583SOL    HW234209   3.682   2.219   1.037  0.0694 -0.9299  0.0146
 7584SOL     OW34210   0.553   4.459  13.245 -0.4127  0.2682  0.8079
 7584SOL    HW134211   0.617   4.524  13.276  1.1498 -1.0232  0.2807
 7584SOL    HW234212   0.608   4.400  13.193 -1.9014 -1.7572  1.5414
 7585SOL     OW34213   3.114   4.385  13.994 -0.1904  0.0074 -0.4029
 7585SOL    HW134214   3.027   4.408  14.024  0.6350  2.0948  0.3531
 7585SOL    HW234215   3.158   4.437  14.061  1.1630  0.4363 -1.6326
 7586SOL     OW34216   2.002   3.927  11.948  0.0625  0.1596  0.7989
 7586SOL    HW134217   1.925   3.870  11.947  0.8077 -0.8642  2.4899
 7586SOL    HW234218   1.992   3.955  11.857 -0.7126  0.4428  0.9706
 7587SOL     OW34219   3.992   3.057   6.299  0.1611 -0.2481 -0.1500
 7587SOL    HW134220   4.072   3.030   6.255 -0.1803 -2.2648  0.4519
 7587SOL    HW234221   3.933   3.045   6.224 -0.5797 -0.6553  0.4933
 7588SOL     OW34222   3.342   3.554   4.235  0.0785 -0.3172  0.1331
 7588SOL    HW134223   3.432   3.535   4.261  0.5713  1.5159 -0.3117
 7588SOL    HW234224   3.355   3.570   4.142 -3.0831  2.2719  0.1487
 7589SOL     OW34225   2.880   2.810   7.737  0.1537  0.1616 -0.1031
 7589SOL    HW134226   2.811   2.871   7.711  0.9366  0.3749 -1.6935
 7589SOL    HW234227   2.882   2.758   7.656 -1.5370 -0.2882  0.1414
 7590SOL     OW34228   3.670   3.540   2.466 -0.9795  1.0164 -0.3542
 7590SOL    HW134229   3.697   3.588   2.388 -2.4319 -0.1136 -1.5592
 7590SOL    HW234230   3.676   3.447   2.441  1.0466  0.8668  0.7245
 7591SOL     OW34231   3.252   2.354  12.134 -0.0743 -0.7887  0.1138
 7591SOL    HW134232   3.162   2.336  12.160 -0.3659 -1.3181 -1.2511
 7591SOL    HW234233   3.267   2.443  12.167 -1.8254 -0.3488 -0.2708
 7592SOL     OW34234   1.245   3.082   7.900  0.0031 -0.2533 -0.3628
 7592SOL    HW134235   1.154   3.097   7.874  0.3219 -0.1033 -1.4037
 7592SOL    HW234236   1.251   3.113   7.991 -0.7346 -1.3537  0.0470
 7593SOL     OW34237   3.314   0.102  11.880  0.3848  0.5246 -0.1443
 7593SOL    HW134238   3.346   0.068  11.796 -1.1709 -0.5320 -0.3256
 7593SOL    HW234239   3.243   0.043  11.905 -0.5208  1.1018 -1.3505
 7594SOL     OW34240   2.809   1.953  11.660 -0.9557 -0.2322 -0.1735
 7594SOL    HW134241   2.859   2.027  11.694  0.4505 -0.6779 -1.2404
 7594SOL    HW234242   2.724   1.992  11.642 -0.8654  0.4084  0.8151
 7595SOL     OW34243   4.112   4.104  11.806  0.1755 -0.2015 -0.3066
 7595SOL    HW134244   4.078   4.172  11.865 -2.2587  0.8316 -2.9035
 7595SOL    HW234245   4.062   4.025  11.828 -0.0387 -0.3761 -1.4710
 7596SOL     OW34246   0.167   3.640   0.950 -0.4652  0.0832  0.1904
 7596SOL    HW134247   0.242   3.586   0.925  0.2339  0.9117  0.4879
 7596SOL    HW234248   0.191   3.647   1.043 -2.3910  0.6006  0.6486
 7597SOL     OW34249   0.056   2.086   4.566 -0.1715 -0.8739  0.3910
 7597SOL    HW134250   0.131   2.112   4.512 -1.8189 -0.7161 -1.7706
 7597SOL    HW234251   4.720   2.152   4.533  2.6671  1.6371  0.2024
 7598SOL     OW34252   1.333   1.238  15.539 -0.2466  0.0957  0.2352
 7598SOL    HW134253   1.239   1.220  15.529  0.2617 -1.2310 -2.0847
 7598SOL    HW234254   1.336   1.316  15.594 -0.5854 -0.2137  0.6935
 7599SOL     OW34255   4.420   3.579   9.059 -0.2252  0.1785 -0.2022
 7599SOL    HW134256   4.468   3.556   9.139  2.5572 -0.2452 -2.0023
 7599SOL    HW234257   4.462   3.656   9.021  0.1688 -0.4147 -0.9916
 7600SOL     OW34258   2.586   4.533   4.040 -0.0086 -0.0309 -0.2756
 7600SOL    HW134259   2.660   4.514   4.098 -0.1803  2.8649  0.9183
 7600SOL    HW234260   2.632   4.543   3.957  0.2753 -0.3136 -0.1540
 7601SOL     OW34261   1.143   4.058  11.604 -0.4567  0.4454 -0.2950
 7601SOL    HW134262   1.111   4.114  11.533  1.3474  0.1551 -1.3461
 7601SOL    HW234263   1.157   4.123  11.672  1.3610  1.0923 -1.2966
 7602SOL     OW34264   3.594   1.630  10.159 -0.6733  0.6688 -0.1191
 7602SOL    HW134265   3.616   1.558  10.101  1.7177  0.2157  1.3774
 7602SOL    HW234266   3.539   1.584  10.224 -0.8630 -0.9949 -1.4552
 7603SOL     OW34267   0.813   2.775   5.833 -0.0857  0.2437 -0.1869
 7603SOL    HW134268   0.887   2.752   5.888 -1.5412 -3.1017  0.3477
 7603SOL    HW234269   0.770   2.844   5.884  1.9486  0.2672  1.4808
 7604SOL     OW34270   4.319   0.091  16.877  0.0045  0.0460  1.5484
 7604SOL    HW134271   4.247   0.132  16.924  0.0752  0.9324  0.8884
 7604SOL    HW234272   4.343   0.025  16.942  0.0133 -0.5919  0.8895
 7605SOL     OW34273   1.316   2.073   4.201  0.7690 -0.1855 -0.1953
 7605SOL    HW134274   1.406   2.055   4.230 -0.1330 -0.9366  2.1512
 7605SOL    HW234275   1.332   2.154   4.153  2.8177  0.0239  0.8430
 7606SOL     OW34276   3.896   2.623   7.465 -0.1171  0.7416 -0.1452
 7606SOL    HW134277   3.815   2.660   7.500 -1.2381  0.1501 -2.0793
 7606SOL    HW234278   3.873   2.606   7.373  0.0822 -1.4278  0.2051
 7607SOL     OW34279   3.308   3.934   4.144  1.0685  0.1413 -0.4334
 7607SOL    HW134280   3.283   3.858   4.197 -1.8770  2.0271  0.8498
 7607SOL    HW234281   3.315   3.893   4.057  1.9005 -3.0542  1.1282
 7608SOL     OW34282   0.683   3.931   5.304  0.2976 -0.6727 -0.2147
 7608SOL    HW134283   0.641   4.017   5.303  0.5083 -0.5744 -0.5457
 7608SOL    HW234284   0.757   3.939   5.244 -1.1103 -1.0445 -1.9856
 7609SOL     OW34285   1.059   3.138   1.702 -0.2072  0.5827  0.6544
 7609SOL    HW134286   1.130   3.144   1.638  0.8423  1.7343  1.9380
 7609SOL    HW234287   1.013   3.057   1.680  3.8598 -1.1440 -1.6145
 7610SOL     OW34288   3.633   3.876   5.053 -0.0233 -0.1865  0.4986
 7610SOL    HW134289   3.635   3.780   5.057  0.6323 -0.0454  3.2077
 7610SOL    HW234290   3.590   3.895   5.136  0.8220  0.8488  0.7044
 7611SOL     OW34291   4.266   0.528   5.259 -0.5562  0.3283 -0.3012
 7611SOL    HW134292   4.189   0.576   5.290 -2.2675 -2.1477 -0.7708
 7611SOL    HW234293   4.254   0.544   5.165  2.1174 -0.0271 -0.7107
 7612SOL     OW34294   2.787   0.435   7.548  0.8639  0.2816  0.6131
 7612SOL    HW134295   2.860   0.423   7.609  0.8209 -2.1134  0.2045
 7612SOL    HW234296   2.718   0.419   7.611 -0.0537 -1.9462 -0.9746
 7613SOL     OW34297   1.890   0.610   0.609  0.0591 -0.5771  0.5987
 7613SOL    HW134298   1.859   0.691   0.569 -0.2624  0.1993  2.4605
 7613SOL    HW234299   1.913   0.562   0.529  0.8802  1.1761 -0.2289
 7614SOL     OW34300   1.640   4.214   1.841  0.6329  0.3740 -0.3095
 7614SOL    HW134301   1.600   4.300   1.856 -1.5009 -0.2850 -2.1843
 7614SOL    HW234302   1.608   4.186   1.756  1.3186  2.3807 -1.2363
 7615SOL     OW34303   1.086   1.409   0.248 -0.1662 -0.5364 -0.0377
 7615SOL    HW134304   0.996   1.394   0.277 -0.0238  0.2988  0.8258
 7615SOL    HW234305   1.084   1.414   0.152  0.1572 -1.3596 -0.0949
 7616SOL     OW34306   3.900   4.336  15.076 -0.4484 -0.3425  0.0689
 7616SOL    HW134307   3.837   4.407  15.064  0.5801  0.9755  2.4929
 7616SOL    HW234308   3.905   4.325  15.171 -0.5501 -0.7878  0.0231
 7617SOL     OW34309   3.381   4.267   6.482 -0.6857 -0.1000 -0.5455
 7617SOL    HW134310   3.454   4.318   6.448 -0.8773 -0.6993 -1.8504
 7617SOL    HW234311   3.409   4.272   6.573 -0.7993  3.2700 -0.7107
 7618SOL     OW34312   2.610   4.711   9.200  0.0508 -0.2095 -0.2942
 7618SOL    HW134313   2.544   0.045   9.238  1.5047  1.4023 -0.2559
 7618SOL    HW234314   2.680   4.714   9.266 -2.4275 -2.2530  2.3976
 7619SOL     OW34315   3.560   3.294  10.285 -0.2868  0.4185  0.0316
 7619SOL    HW134316   3.521   3.237  10.352  0.8219 -1.3905 -0.8778
 7619SOL    HW234317   3.549   3.247  10.203 -0.2172 -0.8702  0.7614
 7620SOL     OW34318   3.413   4.266  14.751  0.4878 -0.4035 -0.2075
 7620SOL    HW134319   3.489   4.282  14.807 -0.1961 -0.4596  0.7366
 7620SOL    HW234320   3.462   4.234  14.675  0.8803 -3.1615  1.2030
 7621SOL     OW34321   2.105   3.701   8.670  0.6388 -0.2990 -0.2844
 7621SOL    HW134322   2.167   3.692   8.599  0.1574 -0.3247 -0.7026
 7621SOL    HW234323   2.112   3.793   8.694  1.5109 -1.3726  3.6972
 7622SOL     OW34324   1.429   4.641   5.140 -0.7896 -0.3692  0.0133
 7622SOL    HW134325   1.466   4.720   5.180 -2.2903  0.0825  0.5198
 7622SOL    HW234326   1.343   4.650   5.181 -0.0543 -1.0175  1.6684
 7623SOL     OW34327   0.287   0.171   5.933 -0.3760  0.1818  0.3131
 7623SOL    HW134328   0.205   0.140   5.971 -0.6349  1.6152  0.9015
 7623SOL    HW234329   0.293   0.100   5.869  1.1027 -1.1223  1.9146
 7624SOL     OW34330   1.991   0.452   6.766  0.0760 -0.0178  0.0186
 7624SOL    HW134331   1.984   0.545   6.785 -0.6080 -0.0466 -0.0957
 7624SOL    HW234332   2.024   0.450   6.676 -1.4881  0.7321 -0.5596
 7625SOL     OW34333   4.221   3.903   1.588  0.0063  0.3265 -0.6497
 7625SOL    HW134334   4.294   3.867   1.638 -0.6065  0.9046  0.6453
 7625SOL    HW234335   4.272   3.951   1.523 -0.9360  4.8069  1.9391
 7626SOL     OW34336   3.212   1.053   5.945 -0.4092  0.1785 -0.2632
 7626SOL    HW134337   3.169   1.137   5.963 -0.7257 -0.2042  0.7806
 7626SOL    HW234338   3.300   1.081   5.920  0.1166 -1.7048 -0.4901
 7627SOL     OW34339   3.001   2.114  13.225  0.1908 -0.2258  0.0366
 7627SOL    HW134340   3.064   2.065  13.278 -0.1019  0.1035  0.6768
 7627SOL    HW234341   3.030   2.203  13.247 -1.4237 -0.0724  1.5083
 7628SOL     OW34342   4.618   4.483   0.014 -0.0731 -0.1558 -0.3218
 7628SOL    HW134343   4.549   4.540   0.046  0.1582 -0.4597  0.7255
 7628SOL    HW234344   4.682   4.535  17.664  1.2500 -2.4582 -1.1044
 7629SOL     OW34345   1.014   3.879   4.828  1.2384  0.3296  0.3325
 7629SOL    HW134346   0.985   3.794   4.795  2.1705  0.2856 -0.3511
 7629SOL    HW234347   1.084   3.848   4.886  0.1132 -2.4050  0.2612
 7630SOL     OW34348   2.435   1.374   8.430  0.0445 -0.0642  0.0062
 7630SOL    HW134349   2.364   1.435   8.452  0.1969 -0.4592  1.5683
 7630SOL    HW234350   2.405   1.291   8.467  2.5320 -0.2971  1.4436
 7631SOL     OW34351   0.759   1.964  10.478 -0.3788  0.3222  0.1015
 7631SOL    HW134352   0.738   1.877  10.444  0.8950  0.3752 -0.8420
 7631SOL    HW234353   0.832   1.945  10.536 -2.0585 -2.2181  1.3664
 7632SOL     OW34354   3.721   2.346  10.575 -0.2085  0.3761  0.1924
 7632SOL    HW134355   3.641   2.338  10.627  0.2744 -1.7710  0.6082
 7632SOL    HW234356   3.688   2.374  10.490  1.0691  0.6549 -0.2173
 7633SOL     OW34357   0.129   3.762   4.382 -0.2074 -0.1273  0.3203
 7633SOL    HW134358   0.131   3.844   4.332  3.5844 -2.2209 -2.9271
 7633SOL    HW234359   0.218   3.729   4.376  1.2616  3.6651  1.4331
 7634SOL     OW34360   2.821   1.837   6.434  0.6798 -0.9608 -0.7698
 7634SOL    HW134361   2.759   1.768   6.408 -1.3830  1.1849 -1.5021
 7634SOL    HW234362   2.790   1.861   6.522 -0.6023  1.2927 -1.8574
 7635SOL     OW34363   2.366   0.557   2.215 -0.4557 -0.0695  0.3600
 7635SOL    HW134364   2.339   0.466   2.230  0.6176 -0.4844 -0.2377
 7635SOL    HW234365   2.435   0.559   2.282  1.1276 -2.3665 -1.2177
 7636SOL     OW34366   2.147   3.256   6.489 -0.0585 -0.2620  0.0468
 7636SOL    HW134367   2.218   3.309   6.524  1.4404 -1.2236 -1.5022
 7636SOL    HW234368   2.200   3.205   6.428 -1.5225 -3.4633  1.4328
 7637SOL     OW34369   1.882   4.354   1.871  0.0642  0.2932 -0.1155
 7637SOL    HW134370   1.787   4.361   1.869  0.2060  1.9043 -1.5795
 7637SOL    HW234371   1.887   4.259   1.859 -2.6510  0.0935  0.5844
 7638SOL     OW34372   1.644   4.188   1.052  0.8283 -0.1888 -0.1617
 7638SOL    HW134373   1.565   4.242   1.053 -0.4713 -2.0898 -0.8076
 7638SOL    HW234374   1.618   4.129   0.981  2.5756 -3.8610  2.2668
 7639SOL     OW34375   4.198   3.424   2.423 -0.5374  0.4584  0.5102
 7639SOL    HW134376   4.166   3.488   2.360 -0.5050  1.5466  1.5969
 7639SOL    HW234377   4.133   3.355   2.409 -1.9506  1.7577  0.7619
 7640SOL     OW34378   4.306   4.347   5.327  0.2394  0.1131 -0.1946
 7640SOL    HW134379   4.269   4.341   5.415  1.2268 -1.1200  0.1214
 7640SOL    HW234380   4.354   4.430   5.318 -1.0668  0.9797  0.6893
 7641SOL     OW34381   1.965   2.868   6.403  0.0318 -0.2167 -0.2866
 7641SOL    HW134382   1.927   2.828   6.482  0.4395  0.4416  0.2501
 7641SOL    HW234383   1.958   2.960   6.426 -0.0243 -0.3212  0.1161
 7642SOL     OW34384   3.182   1.299   9.031  0.2714  0.2359 -0.3355
 7642SOL    HW134385   3.156   1.301   9.123 -1.1153 -1.2841 -0.6974
 7642SOL    HW234386   3.117   1.361   8.996 -0.4472  0.1586  0.8350
 7643SOL     OW34387   1.933   0.263   3.345  0.1610  0.3498  0.1840
 7643SOL    HW134388   2.021   0.235   3.371 -0.4446  0.4763  2.2993
 7643SOL    HW234389   1.950   0.356   3.332 -1.7530  0.5734 -0.7630
 7644SOL     OW34390   2.682   4.473   6.719  0.0653  0.6843 -0.4200
 7644SOL    HW134391   2.689   4.453   6.626 -0.2309 -1.2475 -0.0096
 7644SOL    HW234392   2.717   4.562   6.708  1.6370 -0.0536 -1.4011
 7645SOL     OW34393   2.693   0.861   2.661  0.3145  0.8796 -0.0625
 7645SOL    HW134394   2.641   0.792   2.700 -0.8518  0.5923 -2.1183
 7645SOL    HW234395   2.770   0.843   2.715 -0.1968 -1.1834 -0.0607
 7646SOL     OW34396   2.693   1.432  15.965 -0.0205 -0.3276 -0.4929
 7646SOL    HW134397   2.782   1.422  15.997 -0.5001 -0.2697  0.8277
 7646SOL    HW234398   2.651   1.380  16.033 -2.8892 -0.4604 -2.3520
 7647SOL     OW34399   3.473   4.046  16.245 -0.0667 -0.1344  0.1227
 7647SOL    HW134400   3.392   4.097  16.250  0.1689  0.3489 -1.1228
 7647SOL    HW234401   3.451   3.977  16.308  3.4063 -2.6563 -1.4157
 7648SOL     OW34402   0.008   0.086  15.965 -0.5467 -0.1814 -0.1009
 7648SOL    HW134403   4.712   0.158  16.025  2.5389  0.6061  0.0074
 7648SOL    HW234404   0.057   0.030  16.025 -0.4789  2.3593  2.2483
 7649SOL     OW34405   0.430   0.765   0.622 -0.4248 -0.4030  0.1529
 7649SOL    HW134406   0.395   0.676   0.619 -2.7721  0.5843 -1.2546
 7649SOL    HW234407   0.523   0.742   0.623 -0.4712 -0.5208  1.4876
 7650SOL     OW34408   3.434   3.808   1.474 -0.0008 -0.3839 -0.3289
 7650SOL    HW134409   3.366   3.875   1.486  0.7754  0.2953  0.3305
 7650SOL    HW234410   3.498   3.853   1.419 -1.9215  2.0442 -0.5864
 7651SOL     OW34411   0.270   3.948  17.382  0.1147 -0.3561  0.4682
 7651SOL    HW134412   0.231   3.886  17.445  0.2155 -1.3832 -0.4808
 7651SOL    HW234413   0.264   4.026  17.436  0.9538 -0.3292  0.5290
 7652SOL     OW34414   4.392   3.189   2.459  0.6156  0.1710 -0.3042
 7652SOL    HW134415   4.333   3.257   2.425 -0.3754 -0.2488  0.5844
 7652SOL    HW234416   4.477   3.214   2.423 -0.3120  3.5605 -0.1360
 7653SOL     OW34417   0.952   3.452  16.185  0.1086 -0.1687  0.4560
 7653SOL    HW134418   0.865   3.454  16.225  0.4648 -0.3369  1.2330
 7653SOL    HW234419   0.935   3.363  16.156 -0.0619  0.4841 -1.4416
 7654SOL     OW34420   0.149   1.348   6.921 -0.6696  0.4533 -0.5912
 7654SOL    HW134421   0.182   1.259   6.906  0.0350  0.3977  1.3702
 7654SOL    HW234422   0.059   1.328   6.945 -0.7106  0.9437 -0.3357
 7655SOL     OW34423   2.231   4.240  11.668 -0.3205  0.3139 -0.1793
 7655SOL    HW134424   2.232   4.296  11.746  0.1770  0.6994 -0.4702
 7655SOL    HW234425   2.299   4.283  11.617  0.1691  0.5575  0.6718
 7656SOL     OW34426   3.712   1.885   8.749  0.6969  0.3459 -0.3358
 7656SOL    HW134427   3.735   1.793   8.734 -0.4518  0.2579 -1.5619
 7656SOL    HW234428   3.714   1.893   8.845  1.7513 -0.6109 -0.2736
 7657SOL     OW34429   0.001   2.833   6.020  0.1574  0.8603 -0.1048
 7657SOL    HW134430   4.699   2.924   6.006 -1.1059  0.0219 -3.1028
 7657SOL    HW234431   4.717   2.818   6.115 -0.6256  0.5398 -0.2248
 7658SOL     OW34432   0.720   4.649  16.355 -0.3794 -1.1414 -0.9995
 7658SOL    HW134433   0.721   4.556  16.332  0.3944 -1.2861 -0.3784
 7658SOL    HW234434   0.628   4.677  16.348 -0.4763 -1.0973  0.3826
 7659SOL     OW34435   0.772   2.179  16.252 -0.0799 -0.7246  0.0523
 7659SOL    HW134436   0.846   2.238  16.259 -0.2483 -0.7642  2.2009
 7659SOL    HW234437   0.720   2.225  16.186  2.7185  1.3089 -0.6926
 7660SOL     OW34438   0.891   2.199   5.397 -0.0521 -0.1261 -0.3568
 7660SOL    HW134439   0.951   2.127   5.377  1.7692  0.6941  2.0929
 7660SOL    HW234440   0.805   2.164   5.421  0.1879  0.8951  1.9408
 7661SOL     OW34441   2.188   2.522   5.520  0.2059 -0.1336  0.7236
 7661SOL    HW134442   2.106   2.536   5.472  0.0191 -2.6867  0.3083
 7661SOL    HW234443   2.149   2.483   5.599  1.2869 -1.6636  0.4972
 7662SOL     OW34444   3.870   1.944   8.261  0.6370 -0.8820 -0.0933
 7662SOL    HW134445   3.907   1.941   8.350 -0.2360 -0.7197  0.2758
 7662SOL    HW234446   3.856   2.038   8.252  2.1581 -0.6766 -0.2882
 7663SOL     OW34447   1.819   4.645   8.385  0.1447 -0.0665 -0.1922
 7663SOL    HW134448   1.802   0.011   8.415  0.5925  0.1785 -0.6934
 7663SOL    HW234449   1.761   4.606   8.451 -0.6872  1.5670  0.0637
 7664SOL     OW34450   2.601   1.615  15.363 -0.8625  0.4865 -0.5102
 7664SOL    HW134451   2.531   1.677  15.383 -1.2841 -0.3667  0.5969
 7664SOL    HW234452   2.587   1.557  15.437  0.6986  1.9990  0.9792
 7665SOL     OW34453   4.614   1.775  14.740  0.3730 -0.4700 -0.3568
 7665SOL    HW134454   4.660   1.854  14.767  0.1465 -0.6530  0.5984
 7665SOL    HW234455   4.548   1.802  14.675 -1.8199 -1.2322  1.5435
 7666SOL     OW34456   4.073   3.773   5.843 -0.0892  1.0562  0.2930
 7666SOL    HW134457   4.040   3.861   5.829 -2.6187  0.2181  1.0919
 7666SOL    HW234458   4.121   3.802   5.921 -1.6515  2.3827  0.7560
 7667SOL     OW34459   3.112   2.224   6.029  0.0531 -0.7490 -0.4047
 7667SOL    HW134460   3.164   2.299   6.058  1.5906 -1.7273 -0.6350
 7667SOL    HW234461   3.022   2.249   6.050  0.4363  0.8327 -0.6597
 7668SOL     OW34462   1.826   1.518   3.731  0.2006  0.5111  0.1824
 7668SOL    HW134463   1.766   1.445   3.714  0.1172  0.9785 -1.5568
 7668SOL    HW234464   1.779   1.596   3.703 -0.1545  0.4657  0.6545
 7669SOL     OW34465   1.566   2.303   8.778  0.7318  0.2334 -0.2006
 7669SOL    HW134466   1.612   2.291   8.696 -1.2135  0.0145 -1.2593
 7669SOL    HW234467   1.637   2.350   8.822  1.4488 -0.1807 -0.9399
 7670SOL     OW34468   0.314   0.644  10.858 -0.0993  0.7802 -0.2938
 7670SOL    HW134469   0.379   0.680  10.919 -1.6524  1.2018  1.1352
 7670SOL    HW234470   0.371   0.630  10.783 -1.1582 -1.6240 -0.6257
 7671SOL     OW34471   0.608   1.167   4.280  0.0913 -0.2203 -0.3745
 7671SOL    HW134472   0.635   1.162   4.188  1.3034 -0.5366 -0.0058
 7671SOL    HW234473   0.640   1.080   4.306  2.1035  0.8666  0.7770
 7672SOL     OW34474   0.071   2.539   3.316 -0.6872 -0.2019 -0.0969
 7672SOL    HW134475   0.068   2.507   3.406  1.9843 -1.3022 -0.3995
 7672SOL    HW234476   0.043   2.629   3.330  0.5548  0.5767 -2.5828
 7673SOL     OW34477   2.498   1.024  16.325 -0.7738 -0.1341 -0.6861
 7673SOL    HW134478   2.457   0.955  16.273 -1.0836 -0.4229 -0.0584
 7673SOL    HW234479   2.503   0.982  16.411  0.8355 -2.6588 -2.0225
 7674SOL     OW34480   0.879   4.393  15.013 -0.6928 -0.0789  0.5830
 7674SOL    HW134481   0.821   4.381  14.937  0.3587 -0.0057 -0.2291
 7674SOL    HW234482   0.882   4.485  15.039  1.5549  0.2458 -0.8520
 7675SOL     OW34483   4.004   4.678   2.906 -0.3907 -0.2394 -0.1238
 7675SOL    HW134484   4.090   4.647   2.931 -1.0110 -1.9414 -0.1270
 7675SOL    HW234485   3.958   4.608   2.952 -0.7040 -0.7994 -1.2926
 7676SOL     OW34486   4.057   4.681   0.952 -0.4417  0.1018  0.3914
 7676SOL    HW134487   4.141   4.637   0.940 -0.1967  1.0227 -1.3727
 7676SOL    HW234488   4.008   4.605   0.982 -1.9637  0.2158 -1.8268
 7677SOL     OW34489   2.487   3.675   6.592  0.4219  0.1765  0.1039
 7677SOL    HW134490   2.396   3.702   6.607 -0.0468 -1.6128  0.4250
 7677SOL    HW234491   2.523   3.752   6.547 -0.5136  1.0266  0.7864
 7678SOL     OW34492   2.780   0.681   6.239 -0.2743 -0.2010 -0.1062
 7678SOL    HW134493   2.756   0.597   6.200 -1.4687 -0.1202  0.4727
 7678SOL    HW234494   2.802   0.654   6.328 -0.5320 -1.3431 -0.3868
 7679SOL     OW34495   2.244   2.889   0.345 -0.2882 -0.4327 -0.7629
 7679SOL    HW134496   2.297   2.936   0.410 -0.3046 -1.0710 -0.2841
 7679SOL    HW234497   2.156   2.925   0.349 -1.0730 -2.2855 -1.4761
 7680SOL     OW34498   3.763   4.351   3.884  0.5486  0.1060 -0.1444
 7680SOL    HW134499   3.808   4.434   3.902  0.5808  0.3652 -1.4747
 7680SOL    HW234500   3.818   4.328   3.810 -0.1830  0.5776 -0.8304
 7681SOL     OW34501   2.673   4.243   5.324 -0.0310  0.0247  0.1651
 7681SOL    HW134502   2.605   4.304   5.295  0.5293  0.1746 -0.8321
 7681SOL    HW234503   2.740   4.241   5.256 -0.5289  0.5879 -0.3390
 7682SOL     OW34504   0.559   4.255   7.940  0.7506  0.3581 -0.2415
 7682SOL    HW134505   0.542   4.349   7.945  0.4158  0.2781  0.1353
 7682SOL    HW234506   0.644   4.251   7.984  1.2257 -0.3267 -1.2205
 7683SOL     OW34507   0.839   3.042   4.885  0.2458 -0.1876 -0.4091
 7683SOL    HW134508   0.917   3.042   4.941 -1.3748 -1.0514  1.8555
 7683SOL    HW234509   0.786   2.978   4.933  1.4225 -0.8971 -0.0406
 7684SOL     OW34510   4.467   0.587   5.960 -0.4037  0.1827  0.8647
 7684SOL    HW134511   4.502   0.627   6.040  2.3927  0.9167 -0.7330
 7684SOL    HW234512   4.397   0.646   5.930  0.3045  0.4962 -0.1822
 7685SOL     OW34513   2.493   2.868   4.310 -0.2735 -0.5209 -0.0584
 7685SOL    HW134514   2.475   2.944   4.366 -1.9651 -0.9551 -0.0325
 7685SOL    HW234515   2.568   2.897   4.258 -1.7485  0.9676 -1.3723
 7686SOL     OW34516   4.601   1.522  13.520 -0.5704  0.5715 -0.0018
 7686SOL    HW134517   4.545   1.466  13.573  1.5469 -0.1483  1.4559
 7686SOL    HW234518   4.685   1.482  13.543 -0.1131  2.5937  1.8845
 7687SOL     OW34519   3.996   4.022  13.471 -0.2912  0.1521 -0.0585
 7687SOL    HW134520   3.988   3.954  13.404  1.4089 -0.1003 -0.0134
 7687SOL    HW234521   3.924   4.084  13.454 -0.8754 -0.3520  0.6152
 7688SOL     OW34522   1.175   2.815   8.088 -0.0832 -0.0845  1.2311
 7688SOL    HW134523   1.131   2.747   8.037  1.0804  1.2675 -1.5716
 7688SOL    HW234524   1.266   2.814   8.059 -0.0385  0.6146  1.3472
 7689SOL     OW34525   2.782   0.627   4.688 -0.0712 -0.6124  0.1140
 7689SOL    HW134526   2.765   0.714   4.725  0.4617  0.1607 -1.4569
 7689SOL    HW234527   2.875   0.608   4.696  0.0975  0.0451 -0.3016
 7690SOL     OW34528   3.936   2.631   8.896  0.0101  0.0596  0.6206
 7690SOL    HW134529   4.005   2.571   8.923  0.2559 -0.7961 -1.9220
 7690SOL    HW234530   3.981   2.664   8.818 -0.1809  0.6414  0.7581
 7691SOL     OW34531   1.551   3.661   4.867 -0.4072  0.0707  0.1233
 7691SOL    HW134532   1.585   3.637   4.953  0.8444 -3.2834 -1.2921
 7691SOL    HW234533   1.514   3.580   4.832  0.1843 -0.6661  1.2006
 7692SOL     OW34534   2.982   1.919   0.465  0.2456  0.0162 -0.1610
 7692SOL    HW134535   2.910   1.957   0.414  0.3693  0.1345 -0.2459
 7692SOL    HW234536   3.048   1.988   0.466  0.4782 -0.2149  0.5781
 7693SOL     OW34537   1.941   1.105   0.159  0.7066  0.1720  0.1871
 7693SOL    HW134538   1.915   1.017   0.187 -0.8848  1.0024  1.3546
 7693SOL    HW234539   1.854   1.136   0.132  0.8195 -1.5304 -2.1339
 7694SOL     OW34540   3.187   1.753   4.249 -0.1570  0.2623 -0.0079
 7694SOL    HW134541   3.266   1.746   4.195 -0.2771 -1.1292 -0.0199
 7694SOL    HW234542   3.123   1.791   4.189  1.3033 -1.4490 -2.6331
 7695SOL     OW34543   1.064   2.223   0.125 -0.0941  0.1845 -0.7007
 7695SOL    HW134544   1.095   2.314   0.133  2.7405 -1.0830  2.4567
 7695SOL    HW234545   0.990   2.229   0.185 -0.5934  0.9853 -1.3852
 7696SOL     OW34546   0.069   4.616   0.399 -0.0017 -0.4943 -0.4862
 7696SOL    HW134547   4.705   4.580   0.395 -0.2934  0.3193 -1.5136
 7696SOL    HW234548   0.113   4.568   0.469 -0.3606 -0.9728 -0.5950
 7697SOL     OW34549   1.408   0.921   6.190  0.5228 -0.2832  0.6275
 7697SOL    HW134550   1.447   0.978   6.123 -0.2199 -1.6451 -0.9671
 7697SOL    HW234551   1.482   0.860   6.199  0.8405 -0.0972 -0.6901
 7698SOL     OW34552   0.019   0.125   3.232 -0.2211  0.4553  0.0734
 7698SOL    HW134553   4.659   0.168   3.240 -0.4552  0.1755 -0.9044
 7698SOL    HW234554   4.712   0.044   3.191  2.0371  0.6660 -2.0355
 7699SOL     OW34555   3.316   1.658  16.292  0.0878 -0.1563 -0.2617
 7699SOL    HW134556   3.283   1.707  16.367  0.4192  1.3486 -1.0996
 7699SOL    HW234557   3.408   1.684  16.286  0.3097 -0.5073  1.5535
 7700SOL     OW34558   1.478   4.075   9.447  0.1005  0.3321 -0.4102
 7700SOL    HW134559   1.470   3.999   9.389 -0.2180 -0.4428  0.6363
 7700SOL    HW234560   1.436   4.042   9.527  1.7416  1.5421  0.9440
 7701SOL     OW34561   1.179   3.316  10.808 -0.9112 -0.6058  0.6754
 7701SOL    HW134562   1.199   3.409  10.810  0.0253 -0.8023  0.5138
 7701SOL    HW234563   1.266   3.275  10.805 -0.1988  0.9152  0.9006
 7702SOL     OW34564   1.299   2.429  16.292  0.2260 -0.4765 -0.2748
 7702SOL    HW134565   1.375   2.459  16.241  0.2846  0.9483  0.6345
 7702SOL    HW234566   1.250   2.505  16.323  0.6626  0.1108 -1.0077
 7703SOL     OW34567   0.191   0.170   3.593  0.2400  0.5337  0.5054
 7703SOL    HW134568   0.151   0.090   3.626  1.4513 -0.3598 -0.2103
 7703SOL    HW234569   0.199   0.217   3.676 -0.2628  2.8924 -0.7853
 7704SOL     OW34570   3.363   4.383   2.714  0.1065 -0.0701 -0.1838
 7704SOL    HW134571   3.384   4.345   2.799  0.5513  1.3506  0.3432
 7704SOL    HW234572   3.446   4.419   2.683 -1.6541  2.3465 -2.2164
 7705SOL     OW34573   1.265   1.643   2.702  0.5684 -0.1890  0.1835
 7705SOL    HW134574   1.201   1.673   2.767  1.3535  1.5630  0.1471
 7705SOL    HW234575   1.283   1.725   2.656  0.1338  0.3759  1.0117
 7706SOL     OW34576   4.088   4.144  13.710  0.0992  0.0949  0.0257
 7706SOL    HW134577   4.102   4.082  13.782 -0.5316  0.8154  0.7633
 7706SOL    HW234578   4.132   4.099  13.637 -0.9337 -0.5997 -0.1660
 7707SOL     OW34579   4.720   0.159   4.572 -0.0797 -0.6008  0.0133
 7707SOL    HW134580   0.005   0.068   4.543  2.3681 -0.6816  1.0402
 7707SOL    HW234581   4.722   0.137   4.665 -0.4259 -2.4404 -0.4219
 7708SOL     OW34582   0.901   3.982   5.639 -0.2507 -0.1831  0.1294
 7708SOL    HW134583   0.954   3.936   5.703 -0.3439  0.9654  1.0347
 7708SOL    HW234584   0.811   3.952   5.654 -0.6466  0.4252 -1.0388
 7709SOL     OW34585   1.721   2.762  16.943  0.0627  0.2587 -0.3636
 7709SOL    HW134586   1.786   2.752  16.874  1.4726  0.4818  0.9241
 7709SOL    HW234587   1.694   2.853  16.928  2.3603  0.5249 -2.7215
 7710SOL     OW34588   2.086   1.833  14.259  0.2951 -0.2417  0.1658
 7710SOL    HW134589   2.114   1.742  14.262 -1.9011 -0.8770  1.0818
 7710SOL    HW234590   2.061   1.860  14.170  1.5061 -1.6213 -0.5861
 7711SOL     OW34591   1.202   4.483   7.781  0.3203 -0.1617 -0.2238
 7711SOL    HW134592   1.259   4.522   7.848 -1.4607  0.5758  0.8672
 7711SOL    HW234593   1.210   4.388   7.794 -1.6110  0.0703  2.6744
 7712SOL     OW34594   2.491   3.375   0.277 -0.3894  0.2346 -0.6379
 7712SOL    HW134595   2.432   3.450   0.266 -1.8996 -0.8178  0.2546
 7712SOL    HW234596   2.458   3.335   0.357  0.3620  0.5756 -0.1638
 7713SOL     OW34597   4.361   1.245  13.894  0.0355 -0.0703 -0.5405
 7713SOL    HW134598   4.366   1.221  13.986  0.8060  0.1912 -0.5091
 7713SOL    HW234599   4.402   1.171  13.848 -0.5856 -1.0759  0.5219
 7714SOL     OW34600   1.789   3.283   4.495 -0.0975 -0.2524 -0.0736
 7714SOL    HW134601   1.714   3.341   4.483  0.0953 -0.0750 -0.4418
 7714SOL    HW234602   1.811   3.288   4.588 -0.8105  0.4674  0.0535
 7715SOL     OW34603   4.696   4.377   5.933  0.5894  0.5132 -0.0966
 7715SOL    HW134604   4.611   4.336   5.919  1.7937 -1.9626 -0.0949
 7715SOL    HW234605   4.666   4.465   5.957  4.1406  1.8715 -0.6424
 7716SOL     OW34606   3.429   3.664  14.212  0.3171 -0.0666 -0.3552
 7716SOL    HW134607   3.388   3.700  14.133 -1.1333  1.3943  1.0756
 7716SOL    HW234608   3.386   3.727  14.270 -2.1688 -0.6128 -1.5928
 7717SOL     OW34609   2.076   3.258   0.661  0.0412  0.3191  0.0198
 7717SOL    HW134610   2.005   3.264   0.598  1.9207  0.3861 -2.0905
 7717SOL    HW234611   2.154   3.250   0.607  1.0763  0.2267  1.5364
 7718SOL     OW34612   4.364   3.381   7.953  0.5441 -0.8581  0.0760
 7718SOL    HW134613   4.446   3.430   7.948  0.1995 -0.3298 -0.5103
 7718SOL    HW234614   4.394   3.293   7.976 -0.1806 -0.7322  1.5108
 7719SOL     OW34615   3.487   4.517  13.866  0.7739 -0.2135  0.0079
 7719SOL    HW134616   3.558   4.459  13.841  0.9222  1.0806 -2.5925
 7719SOL    HW234617   3.418   4.452  13.874  0.7173  0.1505  2.3470
 7720SOL     OW34618   2.796   0.298   5.374 -0.7108  0.5293 -0.4221
 7720SOL    HW134619   2.888   0.314   5.393 -1.2148  1.8317  0.8720
 7720SOL    HW234620   2.804   0.209   5.338 -0.1759  0.1250  0.7009
 7721SOL     OW34621   0.849   0.194   8.157  0.5703 -0.1128 -0.1907
 7721SOL    HW134622   0.786   0.266   8.160 -0.1303 -0.7781  0.6915
 7721SOL    HW234623   0.895   0.223   8.236 -0.5344 -0.3105  0.5112
 7722SOL     OW34624   1.081   0.087   6.870  0.0770  0.1573 -0.5023
 7722SOL    HW134625   1.088   0.151   6.799  2.0555 -1.3563 -1.6849
 7722SOL    HW234626   0.991   0.093   6.902  0.2491 -1.2952  0.2521
 7723SOL     OW34627   1.420   4.503   2.994  0.0695 -0.5085 -0.2695
 7723SOL    HW134628   1.393   4.470   3.079  1.1206  0.5124  0.4701
 7723SOL    HW234629   1.333   4.516   2.956 -0.5768 -1.8444  0.7561
 7724SOL     OW34630   3.640   1.203   3.895  0.3183 -0.1720 -0.2060
 7724SOL    HW134631   3.614   1.223   3.805 -1.5930  1.0312  0.6207
 7724SOL    HW234632   3.585   1.126   3.908 -0.1043 -0.0025 -0.9762
 7725SOL     OW34633   2.593   1.671  12.613 -0.3503  0.3606 -0.2808
 7725SOL    HW134634   2.555   1.584  12.603  0.0895 -0.1027  2.1881
 7725SOL    HW234635   2.594   1.675  12.709  0.2923  0.4047 -0.2859
 7726SOL     OW34636   0.635   0.214   1.959  0.0402  0.2332  0.9403
 7726SOL    HW134637   0.621   0.300   1.920  2.4753 -0.5904 -1.7583
 7726SOL    HW234638   0.549   0.178   1.937  0.0063  0.3764  0.8405
 7727SOL     OW34639   2.078   1.303  14.679 -0.0442 -0.1855 -0.0995
 7727SOL    HW134640   2.006   1.263  14.728  1.2586 -1.8040  0.5201
 7727SOL    HW234641   2.121   1.359  14.743 -2.4911  0.7030  0.7494
 7728SOL     OW34642   3.157   4.685   0.767  0.2586  0.1240  0.1878
 7728SOL    HW134643   3.172   0.051   0.797 -2.3429  1.0425 -1.3084
 7728SOL    HW234644   3.089   4.700   0.702 -0.0497 -1.1481  0.2285
 7729SOL     OW34645   4.004   0.635   3.961 -0.0472  0.0701  0.1250
 7729SOL    HW134646   4.015   0.575   4.034 -0.0314 -1.6650 -1.3060
 7729SOL    HW234647   3.971   0.575   3.895 -1.6579  1.3064 -0.1876
 7730SOL     OW34648   3.491   0.843   2.708 -0.0577 -0.1363  0.2690
 7730SOL    HW134649   3.460   0.848   2.618 -1.0203 -3.9937  0.3803
 7730SOL    HW234650   3.490   0.747   2.713  0.7800 -0.3411 -3.7281
 7731SOL     OW34651   2.831   1.254   9.269 -0.8009  0.0811  0.0873
 7731SOL    HW134652   2.858   1.199   9.343 -1.3819 -2.2763 -1.4325
 7731SOL    HW234653   2.779   1.326   9.303 -2.3248 -2.3305  2.8503
 7732SOL     OW34654   1.350   0.861   7.640  0.1993 -0.3600  0.5718
 7732SOL    HW134655   1.383   0.813   7.716  0.9651 -3.0122 -1.4422
 7732SOL    HW234656   1.371   0.954   7.652  0.1565 -0.0592 -1.5831
 7733SOL     OW34657   3.172   3.604   2.830 -0.2655 -0.4072 -0.2058
 7733SOL    HW134658   3.226   3.555   2.893 -0.5588 -1.0691 -0.4678
 7733SOL    HW234659   3.131   3.653   2.901  0.6410 -0.5968  0.4639
 7734SOL     OW34660   1.011   3.821   8.957  0.7621  0.4230  0.0080
 7734SOL    HW134661   0.930   3.802   9.004  1.4805 -3.7731 -0.4646
 7734SOL    HW234662   0.969   3.831   8.871  0.2859 -1.2638  0.0507
 7735SOL     OW34663   0.262   4.071   1.679  0.4766 -0.4741  0.0738
 7735SOL    HW134664   0.305   4.085   1.764 -1.3164 -2.3330  1.2874
 7735SOL    HW234665   0.169   4.088   1.692  0.7335  1.1713 -0.2076
 7736SOL     OW34666   0.458   0.014   1.809  0.0808  0.1205 -0.0908
 7736SOL    HW134667   0.547   0.025   1.775  0.8047 -0.3339  1.6519
 7736SOL    HW234668   0.422   4.691   1.735 -1.5642  1.0380  0.1273
 7737SOL     OW34669   4.645   1.354   7.458  0.9705  0.3722 -0.4931
 7737SOL    HW134670   4.686   1.356   7.544  0.7054  0.8295 -0.3771
 7737SOL    HW234671   4.704   1.308   7.399 -0.1039 -1.5480 -0.0533
 7738SOL     OW34672   2.830   2.326   2.824 -0.1050  0.0681  0.1172
 7738SOL    HW134673   2.865   2.415   2.813  1.1331 -0.5437 -0.9093
 7738SOL    HW234674   2.749   2.331   2.774  1.2488 -0.8526 -2.1747
 7739SOL     OW34675   2.131   0.075   6.256  0.0374  0.0479 -0.1419
 7739SOL    HW134676   2.058   0.109   6.204 -0.4569 -0.0751  0.4660
 7739SOL    HW234677   2.114   0.107   6.345  4.1004  1.8915 -0.0592
 7740SOL     OW34678   4.646   3.757   0.885  0.2952 -0.2838  0.4063
 7740SOL    HW134679   4.592   3.818   0.936  0.9396 -1.4424  2.4882
 7740SOL    HW234680   0.004   3.737   0.930 -0.2294 -2.1675  0.5429
 7741SOL     OW34681   2.829   2.351   1.010 -0.3238  0.0777 -0.1944
 7741SOL    HW134682   2.868   2.269   1.041 -0.3407 -0.1089 -0.6739
 7741SOL    HW234683   2.877   2.366   0.929  2.0719 -0.4923  1.0913
 7742SOL     OW34684   1.666   2.931   5.611  0.0328 -0.4343  0.2642
 7742SOL    HW134685   1.721   2.950   5.535 -1.4370 -0.1695 -0.7368
 7742SOL    HW234686   1.651   2.839   5.590  1.7842 -0.7326  0.2768
 7743SOL     OW34687   1.081   0.647   8.008  0.1682 -0.1695  0.4763
 7743SOL    HW134688   1.133   0.572   7.979  2.3858  0.9336  1.5545
 7743SOL    HW234689   1.107   0.658   8.099  0.2063  0.2009  0.4241
 7744SOL     OW34690   4.671   3.591   5.339  0.0562  0.0378  0.1131
 7744SOL    HW134691   4.708   3.653   5.276 -0.6076  0.5535  0.2267
 7744SOL    HW234692   0.017   3.527   5.348  2.6796  2.2920 -4.5884
 7745SOL     OW34693   4.377   4.502   8.774 -0.4463  0.4616  0.0059
 7745SOL    HW134694   4.372   4.575   8.835  3.0097 -0.4330  1.3914
 7745SOL    HW234695   4.451   4.451   8.806 -0.6054 -0.3273 -0.8772
 7746SOL     OW34696   2.707   1.942   7.826  0.0009 -0.0359  0.3306
 7746SOL    HW134697   2.632   1.884   7.809  0.6314 -0.1182 -2.1883
 7746SOL    HW234698   2.697   1.961   7.919  1.2749 -1.2787  0.7198
 7747SOL     OW34699   3.739   4.660   5.999  0.3425  0.1366  0.0392
 7747SOL    HW134700   3.708   4.638   5.911 -0.5895  0.6286  0.2415
 7747SOL    HW234701   3.738   0.031   6.005  1.3770  0.1944 -0.5728
 7748SOL     OW34702   4.460   3.966  12.985 -0.0475 -0.0005 -0.4523
 7748SOL    HW134703   4.533   3.994  12.929 -0.1826  0.1238 -0.5684
 7748SOL    HW234704   4.520   3.944  13.055 -0.2874 -1.1432 -0.6024
 7749SOL     OW34705   2.716   2.368   0.380  0.2874  0.1479 -0.1913
 7749SOL    HW134706   2.802   2.410   0.380  1.2039 -1.7515 -0.1403
 7749SOL    HW234707   2.659   2.438   0.413  1.0091  0.1310  1.0768
 7750SOL     OW34708   1.904   0.858   6.141  0.3661  0.4791 -0.2107
 7750SOL    HW134709   1.990   0.870   6.100  1.0956 -0.8305  0.9652
 7750SOL    HW234710   1.865   0.808   6.069 -0.0475  0.3298  0.1240
 7751SOL     OW34711   4.080   2.836   2.765  0.2547 -0.2212 -0.3603
 7751SOL    HW134712   4.098   2.895   2.692 -1.6362  0.4230 -0.2932
 7751SOL    HW234713   4.015   2.777   2.727 -1.8068  0.5738  1.9773
 7752SOL     OW34714   1.782   4.204   0.702 -0.2585 -0.0125 -0.2488
 7752SOL    HW134715   1.841   4.185   0.630 -2.2908  2.5190 -2.5559
 7752SOL    HW234716   1.769   4.123   0.751 -0.3439 -0.7061 -1.4478
 7753SOL     OW34717   0.301   0.425   6.435 -0.3113  0.1760  0.1459
 7753SOL    HW134718   0.343   0.339   6.430 -0.8319 -0.0898  0.3233
 7753SOL    HW234719   0.310   0.454   6.525 -2.4673 -0.7201  0.6656
 7754SOL     OW34720   3.296   4.616  12.545  0.1105 -0.3936 -0.4736
 7754SOL    HW134721   3.255   4.537  12.511  0.8656  0.7091 -3.9754
 7754SOL    HW234722   3.230   4.684  12.529 -0.4571 -0.4915  1.4517
 7755SOL     OW34723   1.052   3.959   2.690  1.0613  0.3753  0.2000
 7755SOL    HW134724   1.135   4.003   2.673  1.1118  0.2626  0.1546
 7755SOL    HW234725   1.073   3.906   2.767  0.6074  0.1682  0.1819
 7756SOL     OW34726   3.940   3.229   6.711  0.1711 -0.5435  0.3045
 7756SOL    HW134727   3.975   3.191   6.791  0.5211  0.2157  0.5092
 7756SOL    HW234728   4.016   3.283   6.692  0.1587  0.1231  2.1751
 7757SOL     OW34729   3.054   0.558   5.652 -0.3684 -0.9391 -0.4623
 7757SOL    HW134730   3.124   0.522   5.706  0.0715  1.4300  0.5660
 7757SOL    HW234731   2.983   0.565   5.715  1.5124 -1.0487  1.6839
 7758SOL     OW34732   2.796   2.686   8.234  0.2540 -0.1779  0.2627
 7758SOL    HW134733   2.802   2.625   8.307 -0.1101  0.6828  1.0048
 7758SOL    HW234734   2.828   2.631   8.163 -2.4419 -1.3872 -0.0123
 7759SOL     OW34735   1.705   4.266   7.328 -0.0605 -0.8290 -0.0326
 7759SOL    HW134736   1.734   4.348   7.287 -1.4036  0.1681  1.0371
 7759SOL    HW234737   1.776   4.254   7.391 -1.6987 -0.0881  1.9419
 7760SOL     OW34738   0.839   3.306   8.112  0.2711 -0.1587  0.1375
 7760SOL    HW134739   0.763   3.305   8.054  0.0473  1.5131  0.4264
 7760SOL    HW234740   0.786   3.306   8.192 -0.5435 -0.7313 -0.3963
 7761SOL     OW34741   3.477   0.591   0.292 -0.1361  0.7261  0.0910
 7761SOL    HW134742   3.452   0.670   0.339 -0.9611  0.2283  0.4957
 7761SOL    HW234743   3.425   0.588   0.212  0.7428 -0.9511 -0.4189
 7762SOL     OW34744   3.062   0.022   8.129  0.1524 -0.1056  0.4336
 7762SOL    HW134745   3.110   0.103   8.145  0.1237 -0.0177  0.0740
 7762SOL    HW234746   3.142   4.696   8.113  0.8669  0.6281  1.7613
 7763SOL     OW34747   3.954   0.528   7.316  0.3418 -0.4705 -0.2126
 7763SOL    HW134748   3.916   0.451   7.360  3.4350 -1.3040  0.9731
 7763SOL    HW234749   3.984   0.566   7.399 -0.3055 -1.1369  0.3333
 7764SOL     OW34750   1.759   3.328   6.154 -0.4647 -0.0376  0.0388
 7764SOL    HW134751   1.839   3.380   6.162  1.8353 -3.3238 -1.5266
 7764SOL    HW234752   1.732   3.347   6.244 -0.9104  1.2986 -0.3866
 7765SOL     OW34753   3.881   4.215   8.636 -0.0759 -0.8868  0.3338
 7765SOL    HW134754   3.952   4.156   8.613  0.2462 -0.4487  0.1881
 7765SOL    HW234755   3.805   4.158   8.636  0.1172 -1.1317  1.7717
 7766SOL     OW34756   3.251   4.470   3.133  0.1616  0.4335 -0.4087
 7766SOL    HW134757   3.175   4.514   3.096 -0.2308 -0.2825 -0.4564
 7766SOL    HW234758   3.278   4.536   3.197 -2.0272 -0.0812  1.0283
 7767SOL     OW34759   1.956   4.248  11.022  0.7135  0.3432 -0.6568
 7767SOL    HW134760   2.020   4.266  10.954  0.9779  1.3569 -0.1414
 7767SOL    HW234761   1.938   4.333  11.062  0.8348  0.8841 -1.7567
 7768SOL     OW34762   1.241   1.716  11.638  0.4544 -0.4369 -0.3277
 7768SOL    HW134763   1.270   1.627  11.655  0.7379 -0.1727  0.5683
 7768SOL    HW234764   1.210   1.705  11.548 -0.3884 -2.7090  0.2491
 7769SOL     OW34765   2.065   1.049  13.323 -0.6425 -0.5664  0.1285
 7769SOL    HW134766   2.080   1.064  13.416  0.4183  0.3841 -0.1821
 7769SOL    HW234767   2.155   1.029  13.295 -0.0067  0.9474  1.0783
 7770SOL     OW34768   1.356   1.921   3.101  0.3863 -0.1744  0.5997
 7770SOL    HW134769   1.447   1.939   3.079  0.3546 -0.8613 -0.1083
 7770SOL    HW234770   1.306   1.995   3.066 -0.0994  0.0810  1.8419
 7771SOL     OW34771   4.120   1.231  10.877 -0.2003 -0.1158  0.2837
 7771SOL    HW134772   4.071   1.156  10.912 -0.1426 -1.2809 -2.1213
 7771SOL    HW234773   4.179   1.187  10.817 -0.0294  0.7645 -0.1868
 7772SOL     OW34774   0.210   3.713   8.403 -0.3769  0.0393 -0.1561
 7772SOL    HW134775   0.206   3.645   8.470  0.6330 -1.4926 -1.6348
 7772SOL    HW234776   0.171   3.669   8.327 -0.3989  1.5654 -1.0321
 7773SOL     OW34777   4.688   1.872   4.423  0.4815 -0.0706 -0.0003
 7773SOL    HW134778   4.708   1.952   4.472 -1.2570  0.2392  0.1966
 7773SOL    HW234779   4.710   1.896   4.333 -0.8350 -2.1136 -0.8576
 7774SOL     OW34780   0.944   3.699  13.758 -0.3069 -0.1269  0.4065
 7774SOL    HW134781   1.002   3.660  13.824  0.9722  0.1433 -0.5582
 7774SOL    HW234782   0.959   3.638  13.686  0.8802 -1.1747  1.5293
 7775SOL     OW34783   4.685   0.562  15.562  0.0529 -0.0983 -0.0811
 7775SOL    HW134784   4.715   0.484  15.609 -0.9744 -1.2703 -1.3798
 7775SOL    HW234785   4.635   0.608  15.630  1.3965 -1.1838  1.6656
 7776SOL     OW34786   1.404   2.066   4.675 -0.1196  0.1620 -0.1561
 7776SOL    HW134787   1.338   1.999   4.656  0.4533 -0.6572  0.6887
 7776SOL    HW234788   1.485   2.043   4.629 -0.3111 -1.7464  0.4506
 7777SOL     OW34789   0.005   3.677  10.989 -0.0595 -0.0842  0.1493
 7777SOL    HW134790   0.034   3.697  11.078 -0.6494 -0.7504  0.4925
 7777SOL    HW234791   4.649   3.730  10.991 -0.8806 -1.3481  0.6435
 7778SOL     OW34792   2.615   0.290   8.166  0.3914  0.4876  0.7844
 7778SOL    HW134793   2.612   0.243   8.249  1.3908  2.4316  1.9102
 7778SOL    HW234794   2.707   0.317   8.154  1.3983 -4.1239 -2.2394
 7779SOL     OW34795   4.424   1.424   2.900 -0.2362 -0.6071 -0.4214
 7779SOL    HW134796   4.355   1.386   2.954  0.5684 -2.8606 -0.9731
 7779SOL    HW234797   4.413   1.517   2.921 -1.6461 -0.4564 -1.7808
 7780SOL     OW34798   1.869   3.330   4.766  0.2923 -0.0116  0.0243
 7780SOL    HW134799   1.895   3.316   4.858 -1.6338  1.4765  0.8025
 7780SOL    HW234800   1.893   3.420   4.749 -0.7152 -0.3368 -3.0404
 7781SOL     OW34801   2.525   4.100   4.393  0.2503 -0.0070  0.1459
 7781SOL    HW134802   2.526   4.086   4.488 -0.2552  1.5633  0.3673
 7781SOL    HW234803   2.598   4.042   4.369 -1.7898 -1.9722 -1.3346
 7782SOL     OW34804   2.766   2.407  12.003  0.1934  0.1511  0.2691
 7782SOL    HW134805   2.766   2.358  12.085  0.1305  0.8151  0.6639
 7782SOL    HW234806   2.846   2.373  11.964 -0.4158 -1.5584  0.5238
 7783SOL     OW34807   0.986   4.027   7.133  0.6996 -0.1473 -0.3241
 7783SOL    HW134808   1.020   3.947   7.093  0.0209 -0.7694  0.3343
 7783SOL    HW234809   0.928   4.066   7.066 -1.5103 -0.8286  1.1787
 7784SOL     OW34810   2.803   0.143  13.247 -0.1594 -0.0329 -0.8087
 7784SOL    HW134811   2.854   0.175  13.172  1.5656  2.5942  1.5154
 7784SOL    HW234812   2.872   0.134  13.313 -1.8853  0.4149  1.0441
 7785SOL     OW34813   0.186   2.947   8.703 -0.5841 -0.3892 -0.3885
 7785SOL    HW134814   0.267   2.944   8.754  0.2519  0.3948 -1.6875
 7785SOL    HW234815   0.197   3.023   8.646  2.6421  0.2561  1.0629
 7786SOL     OW34816   3.618   1.132   9.578 -0.3628 -0.0041  0.0946
 7786SOL    HW134817   3.566   1.121   9.499  1.3913  1.1789 -1.2597
 7786SOL    HW234818   3.615   1.228   9.574 -5.1851 -0.2617 -2.2622
 7787SOL     OW34819   1.993   0.787   3.161  0.0269 -0.0228  0.5378
 7787SOL    HW134820   1.928   0.770   3.093 -0.8187  2.1026  0.8303
 7787SOL    HW234821   1.992   0.882   3.150  1.7340 -0.0456  0.2001
 7788SOL     OW34822   3.538   3.870   8.102  0.4450  1.0158 -0.6095
 7788SOL    HW134823   3.535   3.903   8.012  1.7042  1.0106 -0.6446
 7788SOL    HW234824   3.445   3.873   8.123  0.2472  0.1126 -1.3239
 7789SOL     OW34825   3.720   4.301   7.859  0.4425 -0.2486 -0.3384
 7789SOL    HW134826   3.710   4.297   7.954 -1.2715 -0.4600 -0.5334
 7789SOL    HW234827   3.700   4.393   7.841  0.5149 -0.1615  0.0191
 7790SOL     OW34828   3.134   0.860  17.689 -0.1077 -1.0759 -0.6988
 7790SOL    HW134829   3.099   0.779   0.026 -1.1659 -0.4099 -0.2157
 7790SOL    HW234830   3.053   0.903  17.662  1.1327  2.9482  1.9530
 7791SOL     OW34831   1.263   0.273   6.520  0.0940  0.5101 -1.0383
 7791SOL    HW134832   1.353   0.305   6.533 -1.0476  2.1642  2.8033
 7791SOL    HW234833   1.277   0.179   6.514 -0.1138  0.3499  0.8892
 7792SOL     OW34834   2.608   0.352  12.767  0.0711  0.0944 -0.7512
 7792SOL    HW134835   2.537   0.306  12.724  0.0815 -1.1308  0.5423
 7792SOL    HW234836   2.567   0.385  12.848  1.6781 -1.6579  0.7857
 7793SOL     OW34837   4.557   3.413  11.972  0.1905  0.1276 -0.4047
 7793SOL    HW134838   4.611   3.334  11.983  1.8563  1.1734 -0.9489
 7793SOL    HW234839   4.516   3.426  12.057  0.5266  2.4891 -0.5910
 7794SOL     OW34840   0.224   0.820  14.797 -0.7064  0.1849 -0.2435
 7794SOL    HW134841   0.173   0.765  14.737 -1.6433 -1.3829  1.9442
 7794SOL    HW234842   0.293   0.845  14.736  0.1364 -0.2923  0.5128
 7795SOL     OW34843   2.492   0.894   7.036  0.2846  0.4756  0.6289
 7795SOL    HW134844   2.404   0.932   7.043 -0.8903 -1.4768 -3.6965
 7795SOL    HW234845   2.498   0.851   7.121 -0.4687 -0.9772 -0.0524
 7796SOL     OW34846   0.155   2.947   6.982 -0.2685  0.3507  0.4952
 7796SOL    HW134847   0.094   2.879   6.954  0.6670  0.2441 -1.2191
 7796SOL    HW234848   0.140   2.936   7.076 -0.7303  0.1609  0.4033
 7797SOL     OW34849   3.701   3.622   3.322  0.2841 -0.1438 -0.0445
 7797SOL    HW134850   3.643   3.644   3.395 -3.7155  1.8083 -3.8249
 7797SOL    HW234851   3.788   3.658   3.339  1.3278 -1.0717 -3.3351
 7798SOL     OW34852   4.463   1.506   6.829 -0.6426  0.2335  0.1528
 7798SOL    HW134853   4.421   1.586   6.798  0.5349  1.1924  1.0381
 7798SOL    HW234854   4.500   1.534   6.913 -1.5244 -1.0869  0.9885
 7799SOL     OW34855   2.978   3.906   1.790  0.3851  0.3868  0.2116
 7799SOL    HW134856   2.980   4.002   1.798  1.5553  0.4197 -0.4397
 7799SOL    HW234857   2.934   3.883   1.709  0.6181 -4.0434  1.3425
 7800SOL     OW34858   0.789   1.478   6.217 -0.2151  0.5349 -0.1330
 7800SOL    HW134859   0.806   1.497   6.125  0.7080  3.7099  0.6940
 7800SOL    HW234860   0.793   1.565   6.257 -1.8412 -0.4584  2.1566
 7801SOL     OW34861   0.823   1.639   5.973 -0.6890 -0.8207  0.0047
 7801SOL    HW134862   0.785   1.724   5.993 -3.4002 -1.9507 -0.3273
 7801SOL    HW234863   0.849   1.645   5.881  0.0772  0.4963  0.3093
 7802SOL     OW34864   2.387   2.817  16.186  0.1766 -0.1350 -0.1840
 7802SOL    HW134865   2.300   2.847  16.163 -0.0689 -0.3525  0.4554
 7802SOL    HW234866   2.384   2.729  16.149  0.7815 -0.8362  1.4024
 7803SOL     OW34867   2.302   2.536   8.464 -0.1172 -0.3589 -0.4657
 7803SOL    HW134868   2.289   2.542   8.370 -1.9530  0.4220 -0.1667
 7803SOL    HW234869   2.356   2.614   8.481  0.1850 -0.6387 -0.1485
 7804SOL     OW34870   1.310   0.852   9.540 -0.2043  0.6376  0.3801
 7804SOL    HW134871   1.401   0.859   9.567 -0.9194 -1.5158  3.4873
 7804SOL    HW234872   1.300   0.936   9.496  0.5586  1.8036  2.4063
 7805SOL     OW34873   2.273   3.830   6.483  0.3632  0.3495 -0.2543
 7805SOL    HW134874   2.253   3.919   6.514  0.0103 -0.6500  2.3691
 7805SOL    HW234875   2.279   3.835   6.388  1.1943 -1.1158 -0.2734
 7806SOL     OW34876   4.137   0.878   6.451  0.1077 -0.4224  0.0938
 7806SOL    HW134877   4.134   0.881   6.547  1.1530 -0.4370  0.1217
 7806SOL    HW234878   4.068   0.939   6.425  1.8508  1.5798  0.1239
 7807SOL     OW34879   0.957   1.976   4.520 -0.3098 -0.0804 -0.6296
 7807SOL    HW134880   0.999   2.013   4.442  0.9839 -0.0612  0.0844
 7807SOL    HW234881   0.948   1.886   4.489 -0.0551 -0.5896  0.7634
 7808SOL     OW34882   0.525   4.397   5.478 -0.3935  0.0422 -0.0257
 7808SOL    HW134883   0.514   4.348   5.396  0.5857 -1.2512  0.6068
 7808SOL    HW234884   0.561   4.478   5.444 -2.0894  0.3692 -1.0649
 7809SOL     OW34885   3.493   0.926   8.369  0.1112  0.1745 -0.5380
 7809SOL    HW134886   3.450   0.994   8.421  1.6097 -0.2151  1.2099
 7809SOL    HW234887   3.583   0.957   8.365 -0.6252  2.3015 -0.8973
 7810SOL     OW34888   0.183   1.349   2.532 -0.3759  0.3308 -0.3128
 7810SOL    HW134889   0.202   1.378   2.443 -2.7358  2.3481 -0.1577
 7810SOL    HW234890   0.211   1.430   2.575  0.5786 -0.8701  1.3030
 7811SOL     OW34891   0.185   4.720  17.220  0.1486 -0.5372  0.0851
 7811SOL    HW134892   0.211   4.636  17.259  1.5119 -0.6668 -1.0918
 7811SOL    HW234893   0.204   4.686  17.133  0.8032  1.6928 -0.6231
 7812SOL     OW34894   2.458   2.968   3.710 -0.2264  0.0565  0.3037
 7812SOL    HW134895   2.469   2.874   3.719  0.4824  0.1781  0.7506
 7812SOL    HW234896   2.368   2.987   3.736 -0.1788 -0.1857  0.6495
 7813SOL     OW34897   3.981   1.923   6.175  0.3477 -0.5167 -0.0040
 7813SOL    HW134898   4.076   1.934   6.166 -0.1026  2.4271 -1.1920
 7813SOL    HW234899   3.963   2.016   6.191  2.3009  0.1033 -1.4120
 7814SOL     OW34900   2.911   4.408   3.870 -0.8929 -0.5266  0.1921
 7814SOL    HW134901   2.987   4.466   3.876 -0.0092 -1.5308 -1.5676
 7814SOL    HW234902   2.849   4.468   3.828 -0.2509 -0.9229 -1.3098
 7815SOL     OW34903   3.958   4.211   5.432  0.1060 -0.2427  0.2513
 7815SOL    HW134904   3.929   4.278   5.371  1.4636 -0.9610 -1.1889
 7815SOL    HW234905   4.031   4.256   5.475 -0.0222 -1.7666  2.0764
 7816SOL     OW34906   1.304   3.643   9.357  0.1635 -0.9703  0.0370
 7816SOL    HW134907   1.290   3.563   9.306  1.2497  0.0413 -1.8268
 7816SOL    HW234908   1.210   3.664   9.354  0.8126  1.5119 -2.3847
 7817SOL     OW34909   2.980   2.815   1.813  0.3111 -0.2174  0.6078
 7817SOL    HW134910   2.979   2.801   1.718 -2.0682  1.1193  0.4275
 7817SOL    HW234911   2.900   2.768   1.836 -0.8127  0.1410 -2.5033
 7818SOL     OW34912   2.584   3.772   8.313  0.3493 -0.4231 -0.1768
 7818SOL    HW134913   2.492   3.785   8.290  0.4792  1.0402  0.1670
 7818SOL    HW234914   2.584   3.735   8.402 -0.2847  0.7360  0.3065
 7819SOL     OW34915   2.387   3.164  17.199 -0.2645 -0.4246 -0.5357
 7819SOL    HW134916   2.360   3.073  17.203  1.6561 -0.9303  1.0602
 7819SOL    HW234917   2.463   3.155  17.141  1.1985  0.5711  1.2298
 7820SOL     OW34918   1.446   0.481  14.835 -0.9610 -0.5206  0.3627
 7820SOL    HW134919   1.351   0.475  14.839 -0.9824 -0.6890 -0.3250
 7820SOL    HW234920   1.469   0.428  14.759  2.1789 -1.4587  1.9668
 7821SOL     OW34921   1.455   3.875  16.861  0.3536 -0.5978 -0.0582
 7821SOL    HW134922   1.531   3.933  16.865  1.4215 -1.7022 -5.0529
 7821SOL    HW234923   1.389   3.937  16.830 -0.1072 -0.9662  0.1798
 7822SOL     OW34924   1.661   3.637   5.112  0.4075 -0.1641 -0.3977
 7822SOL    HW134925   1.718   3.571   5.153 -0.7536  0.4881  2.2674
 7822SOL    HW234926   1.686   3.720   5.154  2.2324  0.1469 -2.1098
 7823SOL     OW34927   3.191   0.672  11.513 -0.1117 -0.2522  0.4298
 7823SOL    HW134928   3.230   0.641  11.432  2.0911  0.3803  1.2496
 7823SOL    HW234929   3.157   0.591  11.550 -3.6216  1.6214  1.3065
 7824SOL     OW34930   2.323   3.881   0.233 -0.3206 -0.2331 -0.6583
 7824SOL    HW134931   2.233   3.896   0.260 -0.0076 -0.9294  0.7481
 7824SOL    HW234932   2.294   3.841   0.151 -0.9941 -1.0592 -0.0251
 7825SOL     OW34933   3.423   3.093   3.793  0.7931  0.5259  0.1815
 7825SOL    HW134934   3.402   2.999   3.788 -0.6320  0.9876 -2.3094
 7825SOL    HW234935   3.512   3.101   3.760  0.5207 -1.0444 -0.9158
 7826SOL     OW34936   4.334   0.036   5.442 -0.2855  0.3926  0.1260
 7826SOL    HW134937   4.305   0.091   5.370 -0.9187  0.4422  0.4209
 7826SOL    HW234938   4.357   4.680   5.396  0.6851  0.9950 -0.4455
 7827SOL     OW34939   2.468   2.108   2.780 -0.4735 -0.0556 -0.1513
 7827SOL    HW134940   2.391   2.082   2.830 -0.7378  0.0338 -0.5155
 7827SOL    HW234941   2.437   2.061   2.703 -1.0823 -2.2491  1.4258
 7828SOL     OW34942   2.055   0.759   7.946  0.2494 -0.1934  0.0903
 7828SOL    HW134943   2.077   0.743   8.038 -1.1912  0.1806  0.4897
 7828SOL    HW234944   2.010   0.843   7.949 -0.1647 -0.4326  0.5402
 7829SOL     OW34945   1.767   0.256  10.874  0.7531  0.1967  0.1026
 7829SOL    HW134946   1.738   0.273  10.785  1.7191  0.3150 -0.1898
 7829SOL    HW234947   1.686   0.232  10.919  0.6421  0.0870 -0.1560
 7830SOL     OW34948   0.005   1.262   5.597  0.0235 -0.6172  0.4339
 7830SOL    HW134949   4.641   1.267   5.559 -0.1824 -0.4073  0.9332
 7830SOL    HW234950   4.700   1.227   5.681  0.2376  0.2954  0.8933
 7831SOL     OW34951   0.714   3.418   7.456 -0.0119  1.0357  0.1195
 7831SOL    HW134952   0.808   3.430   7.446  0.2184 -1.4714 -0.7377
 7831SOL    HW234953   0.684   3.445   7.369  2.0766  1.3155 -0.5154
 7832SOL     OW34954   4.617   1.224  10.610 -0.3766  0.5073  0.1819
 7832SOL    HW134955   4.598   1.252  10.520  1.6762  1.0512 -0.0847
 7832SOL    HW234956   4.703   1.263  10.619  0.5760 -1.0634 -2.2258
 7833SOL     OW34957   1.280   0.239   0.715 -0.5944 -0.4650 -0.0653
 7833SOL    HW134958   1.262   0.274   0.802  0.4750 -0.3955  0.1280
 7833SOL    HW234959   1.331   0.311   0.677  0.6701 -1.8163 -0.9290
 7834SOL     OW34960   3.205   4.363   4.118  0.7079 -0.1204 -0.0104
 7834SOL    HW134961   3.205   4.354   4.023  0.7123  0.1223 -0.0345
 7834SOL    HW234962   3.298   4.356   4.138  0.1746 -1.5792  1.9007
 7835SOL     OW34963   3.803   2.782   0.245  0.1981 -0.1671  0.0774
 7835SOL    HW134964   3.713   2.788   0.275  0.5324 -0.5738  1.1896
 7835SOL    HW234965   3.805   2.823   0.159  1.7165 -0.3359  0.0191
 7836SOL     OW34966   0.777   3.469   6.025  0.4580 -0.3402 -0.3831
 7836SOL    HW134967   0.682   3.472   6.031  0.6016  1.2120  1.1507
 7836SOL    HW234968   0.775   3.373   6.021 -2.9048 -0.3468  1.4905
 7837SOL     OW34969   4.445   0.025  10.730 -0.3033  0.3144 -0.2790
 7837SOL    HW134970   4.427   0.056  10.819 -0.4759  0.3587 -0.3288
 7837SOL    HW234971   4.530   0.065  10.713 -0.2737 -0.3872 -1.7925
 7838SOL     OW34972   2.462   0.452   5.996 -0.2240 -0.2693 -0.3115
 7838SOL    HW134973   2.415   0.526   5.958 -1.5518 -0.1390  1.5457
 7838SOL    HW234974   2.471   0.381   5.932 -2.5608 -1.2836  0.4628
 7839SOL     OW34975   2.487   1.267   7.926  0.5113  0.0012  0.1755
 7839SOL    HW134976   2.550   1.224   7.983 -2.7247 -1.9379  2.3413
 7839SOL    HW234977   2.548   1.298   7.860  0.9061  0.7072  0.8821
 7840SOL     OW34978   3.061   3.007   1.513 -0.1518 -0.2899  0.6326
 7840SOL    HW134979   3.147   3.015   1.555  0.7316  1.1560 -1.4634
 7840SOL    HW234980   3.054   2.912   1.507  0.1008 -0.2423 -0.2700
 7841SOL     OW34981   0.927   1.491   5.405 -0.2244  0.4366  0.3834
 7841SOL    HW134982   0.902   1.438   5.481 -1.1026  2.5783  1.5779
 7841SOL    HW234983   0.987   1.424   5.371 -0.3830  1.4123 -1.8036
 7842SOL     OW34984   2.267   3.308  15.996  0.3469  0.2372 -0.1746
 7842SOL    HW134985   2.359   3.337  15.994  1.4948 -3.4311 -0.6790
 7842SOL    HW234986   2.261   3.255  15.917 -0.6634 -1.5697  1.1076
 7843SOL     OW34987   0.567   3.869   3.145  0.0589  0.3172 -0.3382
 7843SOL    HW134988   0.626   3.937   3.177 -0.5212  0.8033 -0.2943
 7843SOL    HW234989   0.524   3.910   3.070 -0.7773  0.5235  0.2556
 7844SOL     OW34990   1.251   2.474  11.067 -0.5515  0.1387  0.3556
 7844SOL    HW134991   1.166   2.509  11.041 -1.3274 -1.1859  1.1401
 7844SOL    HW234992   1.226   2.404  11.127  0.5393 -0.6040 -0.0491
 7845SOL     OW34993   3.342   4.261  13.880 -0.1600  0.0623 -0.4897
 7845SOL    HW134994   3.258   4.293  13.915  0.8315 -0.6752  2.5327
 7845SOL    HW234995   3.316   4.246  13.789 -0.9508 -1.2144 -0.0462
 7846SOL     OW34996   1.431   2.937  13.680 -0.1690  0.1037 -0.3097
 7846SOL    HW134997   1.374   2.947  13.757 -0.0795 -1.1735 -0.0681
 7846SOL    HW234998   1.360   2.941  13.616 -0.4832 -0.5634 -0.0082
 7847SOL     OW34999   0.646   1.916   4.927  0.2803  0.4089  0.1260
 7847SOL    HW135000   0.625   2.004   4.958 -0.3489  0.8802 -1.6377
 7847SOL    HW235001   0.720   1.928   4.868 -0.0686 -0.3378 -0.4717
 7848SOL     OW35002   3.393   3.212   9.180 -0.1052 -0.1702 -0.5140
 7848SOL    HW135003   3.341   3.248   9.108  0.9527 -0.8506 -1.6288
 7848SOL    HW235004   3.476   3.257   9.163 -0.2049  1.2938  2.8377
 7849SOL     OW35005   0.013   0.740   5.086  0.2080  0.0564  0.2345
 7849SOL    HW135006   0.076   0.811   5.103 -0.2357  0.1232  1.6211
 7849SOL    HW235007   0.015   0.719   4.993  0.2980 -1.6304  0.6175
 7850SOL     OW35008   4.720   3.527   5.002  0.3593 -0.9143 -0.5411
 7850SOL    HW135009   4.697   3.438   5.027 -1.1898 -0.6517 -1.0400
 7850SOL    HW235010   0.012   3.525   4.908 -0.5747 -2.0207 -0.6661
 7851SOL     OW35011   2.230   0.723   1.398  0.2059  0.1275  0.0538
 7851SOL    HW135012   2.291   0.757   1.464 -0.1665 -0.1961  0.5647
 7851SOL    HW235013   2.288   0.707   1.323  2.0596 -2.0721  1.9700
 7852SOL     OW35014   4.615   2.994  13.805  0.5697  0.2131 -0.2013
 7852SOL    HW135015   4.533   2.994  13.757  0.4218 -2.2185  0.0398
 7852SOL    HW235016   4.587   3.068  13.859  1.6351 -0.0237  0.6766
 7853SOL     OW35017   4.245   2.083  13.105 -0.1588 -0.1636 -0.5046
 7853SOL    HW135018   4.318   2.092  13.166 -1.3483  1.3505  0.7004
 7853SOL    HW235019   4.259   1.990  13.092 -3.2759 -0.7686  0.3072
 7854SOL     OW35020   4.611   0.324   0.434  0.0073 -0.3460  0.0060
 7854SOL    HW135021   4.672   0.306   0.362 -0.7255  2.5801 -1.3535
 7854SOL    HW235022   4.526   0.291   0.406  0.0047 -1.5587  1.4455
 7855SOL     OW35023   0.090   3.206  16.347 -0.2951  0.4468 -0.0895
 7855SOL    HW135024   0.080   3.298  16.374 -0.8835  1.1392 -2.6240
 7855SOL    HW235025   0.064   3.154  16.423 -0.5613  2.0941  0.9608
 7856SOL     OW35026   1.047   3.776   9.243  0.4131  0.1812 -0.5867
 7856SOL    HW135027   1.056   3.865   9.280  0.3123 -0.4015  0.8492
 7856SOL    HW235028   1.049   3.802   9.151 -1.7802  0.9547 -0.3996
 7857SOL     OW35029   2.171   4.185   6.181 -0.9658  0.3387 -0.2312
 7857SOL    HW135030   2.170   4.265   6.234 -1.9348 -0.1860  0.5425
 7857SOL    HW235031   2.079   4.161   6.176 -0.5955 -1.5270  1.7895
 7858SOL     OW35032   3.778   0.668   2.476  0.3604 -0.3830  0.4240
 7858SOL    HW135033   3.752   0.635   2.562  2.3510 -2.0632  0.3729
 7858SOL    HW235034   3.783   0.761   2.497  0.5636 -0.2663 -0.1445
 7859SOL     OW35035   3.549   0.265   3.686 -0.4449  0.1523 -0.2182
 7859SOL    HW135036   3.517   0.307   3.606  1.3433 -0.4544 -1.2509
 7859SOL    HW235037   3.476   0.282   3.746  1.9178  0.9231  2.4567
 7860SOL     OW35038   2.124   1.449  11.867 -0.4098  0.3801 -0.1238
 7860SOL    HW135039   2.114   1.542  11.850 -1.2802  0.4091  0.5380
 7860SOL    HW235040   2.101   1.453  11.960 -1.1085 -2.6114 -0.1696
 7861SOL     OW35041   3.520   2.234   2.582  0.3480  0.1869 -0.1979
 7861SOL    HW135042   3.510   2.217   2.676 -1.7219 -2.0723 -0.8199
 7861SOL    HW235043   3.572   2.158   2.554  0.7830 -0.2848  1.8719
 7862SOL     OW35044   3.131   4.388  12.434  0.2306  0.7250 -0.5187
 7862SOL    HW135045   3.060   4.414  12.493 -1.6946  0.6078 -2.7943
 7862SOL    HW235046   3.180   4.322  12.482 -0.4080 -1.7201 -3.2000
 7863SOL     OW35047   3.001   2.402  12.229 -0.7071  0.1677  0.6207
 7863SOL    HW135048   2.932   2.429  12.289  1.2077  0.8725  2.5292
 7863SOL    HW235049   2.963   2.331  12.178  0.0619  0.0153  0.2559
 7864SOL     OW35050   4.619   2.758   9.996 -0.5481  0.7819  0.1405
 7864SOL    HW135051   4.690   2.818   9.973  0.0593 -1.0725 -2.7305
 7864SOL    HW235052   4.549   2.819   9.974 -0.9254  0.2700 -0.0753
 7865SOL     OW35053   1.912   3.932   2.432 -0.2176  0.1539  0.3106
 7865SOL    HW135054   2.002   3.936   2.464  0.8243  1.3849 -2.7713
 7865SOL    HW235055   1.929   3.868   2.362 -2.1793 -1.6361  1.5074
 7866SOL     OW35056   2.601   1.249   9.128  0.0277  0.6262 -0.4192
 7866SOL    HW135057   2.696   1.257   9.134 -0.0843  1.4520  0.1715
 7866SOL    HW235058   2.590   1.154   9.137  2.6591  0.5133  1.4817
 7867SOL     OW35059   3.716   2.491  13.783 -0.3180 -0.0795  0.1401
 7867SOL    HW135060   3.775   2.553  13.740  0.6580 -1.6254 -0.7651
 7867SOL    HW235061   3.689   2.544  13.857 -3.2438 -0.5157 -0.6288
 7868SOL     OW35062   3.636   1.435  10.830 -0.5303  0.1179  0.0786
 7868SOL    HW135063   3.731   1.420  10.834 -0.8532 -1.7255  1.1702
 7868SOL    HW235064   3.601   1.361  10.880 -0.1503  0.0913  0.3099
 7869SOL     OW35065   1.535   1.933   9.006  0.7826  0.2133 -0.1142
 7869SOL    HW135066   1.487   1.998   8.956 -0.7967  0.0064  1.1468
 7869SOL    HW235067   1.620   1.916   8.964  1.5598  2.1937  0.6740
 7870SOL     OW35068   1.629   1.176  14.688 -0.5222 -0.9026  0.1101
 7870SOL    HW135069   1.641   1.088  14.725 -1.9771 -0.2615  2.1320
 7870SOL    HW235070   1.680   1.163  14.608  0.3308 -1.3397  0.7324
 7871SOL     OW35071   1.061   1.501   6.113  0.5320  0.3313 -0.0384
 7871SOL    HW135072   1.008   1.552   6.051 -1.5872 -1.5420  0.2349
 7871SOL    HW235073   1.039   1.413   6.083  1.6358  0.2144 -0.5192
 7872SOL     OW35074   0.102   1.454   5.321  0.2765  0.2199  0.3995
 7872SOL    HW135075   0.086   1.548   5.320 -1.5877 -0.1044 -0.7826
 7872SOL    HW235076   0.016   1.424   5.348 -0.1847 -0.2629 -1.5828
 7873SOL     OW35077   0.651   0.972   2.713 -0.3208 -0.2477  0.4469
 7873SOL    HW135078   0.618   0.910   2.649  0.3959 -1.3643  1.1586
 7873SOL    HW235079   0.673   0.901   2.772 -0.6855  0.2629  1.1967
 7874SOL     OW35080   3.110   1.798   9.155 -0.2565  0.0007 -0.4182
 7874SOL    HW135081   3.190   1.745   9.149  1.2424  2.1134  1.1361
 7874SOL    HW235082   3.113   1.839   9.241 -2.0373  0.3439 -0.5292
 7875SOL     OW35083   3.358   0.666   9.303 -0.4936 -0.4461 -0.1735
 7875SOL    HW135084   3.293   0.735   9.317  1.3445  0.5070  3.5828
 7875SOL    HW235085   3.365   0.606   9.378  1.4818  0.5750  0.4596
 7876SOL     OW35086   3.065   0.759   8.776  0.6676 -0.0104 -0.1123
 7876SOL    HW135087   3.127   0.695   8.812 -3.1241 -3.7853 -0.3102
 7876SOL    HW235088   2.996   0.698   8.750 -0.5655  2.2991 -2.2364
 7877SOL     OW35089   3.434   4.193   0.966  0.1272  0.6296  0.4059
 7877SOL    HW135090   3.446   4.265   0.904 -1.3035  0.2593 -0.3178
 7877SOL    HW235091   3.445   4.244   1.046  0.4385  1.9051 -0.4535
 7878SOL     OW35092   4.378   1.876  16.081 -0.1247 -0.6546 -0.0746
 7878SOL    HW135093   4.386   1.942  16.150  2.0533 -2.1341  1.0725
 7878SOL    HW235094   4.348   1.925  16.004 -0.8659 -1.1592 -0.1006
 7879SOL     OW35095   2.068   0.564  17.655 -0.0548  0.0163 -0.4143
 7879SOL    HW135096   2.071   0.491  17.593 -1.7333 -0.0467 -0.4204
 7879SOL    HW235097   2.014   0.536   0.030 -0.6594  0.2389 -0.7766
 7880SOL     OW35098   4.275   2.623   6.887 -0.0411 -0.1547  0.0717
 7880SOL    HW135099   4.184   2.649   6.905 -0.5425 -1.0722 -1.1291
 7880SOL    HW235100   4.275   2.532   6.859 -1.3540 -1.0103  2.8023
 7881SOL     OW35101   0.745   4.398   8.944  0.2538 -0.4225 -0.5874
 7881SOL    HW135102   0.762   4.491   8.959  0.7858 -0.5749 -0.2558
 7881SOL    HW235103   0.650   4.396   8.956  0.1270 -0.9266 -1.6680
 7882SOL     OW35104   1.819   1.684   7.967  0.3462 -0.3415  0.8773
 7882SOL    HW135105   1.798   1.617   7.902  1.5060  1.4923 -1.3395
 7882SOL    HW235106   1.899   1.724   7.933  0.2276 -0.3704  0.5727
 7883SOL     OW35107   3.921   1.370   0.522  0.4846 -0.8766  0.1449
 7883SOL    HW135108   4.013   1.382   0.497 -0.5071  0.5480 -2.7323
 7883SOL    HW235109   3.888   1.425   0.451  0.8189  0.4828  1.0654
 7884SOL     OW35110   0.747   4.217   8.105  0.7214  0.1904 -0.1585
 7884SOL    HW135111   0.726   4.147   8.166  1.2128 -0.5875 -0.8959
 7884SOL    HW235112   0.742   4.291   8.165  0.3999  0.9135 -1.0663
 7885SOL     OW35113   2.632   4.245   0.905 -0.7543  0.4115  0.1202
 7885SOL    HW135114   2.708   4.302   0.921 -0.7620  0.3182  0.4883
 7885SOL    HW235115   2.598   4.239   0.994 -0.3404  1.1921  0.3284
 7886SOL     OW35116   0.650   2.362   8.144  0.0333 -0.2955  0.0850
 7886SOL    HW135117   0.737   2.368   8.182 -0.1134 -1.3542  0.6051
 7886SOL    HW235118   0.664   2.332   8.054 -0.9898 -1.2012  0.2200
 7887SOL     OW35119   0.982   3.770  10.650  0.0511 -0.5290 -0.6970
 7887SOL    HW135120   0.975   3.802  10.560 -1.7195 -0.7361 -0.6344
 7887SOL    HW235121   1.078   3.767  10.657  0.0563 -0.6668 -0.8393
 7888SOL     OW35122   2.560   1.488   4.872 -0.3698  0.0502  0.0322
 7888SOL    HW135123   2.527   1.402   4.897 -1.7775  0.9356  1.1877
 7888SOL    HW235124   2.634   1.496   4.933 -1.3772 -1.1540  1.4119
 7889SOL     OW35125   1.688   0.181   3.394  0.3690 -0.3921  0.2957
 7889SOL    HW135126   1.645   0.247   3.448  2.2786  1.2263 -0.1883
 7889SOL    HW235127   1.778   0.207   3.414 -0.4362  1.0717  2.0612
 7890SOL     OW35128   4.524   2.876   7.491 -0.7719 -0.1022 -0.5751
 7890SOL    HW135129   4.500   2.940   7.559  1.7684  0.7472 -0.4807
 7890SOL    HW235130   4.531   2.946   7.425  0.5717  1.7916  1.5650
 7891SOL     OW35131   3.869   1.720   5.731 -0.1501 -0.3874  0.0362
 7891SOL    HW135132   3.903   1.635   5.702  0.4064  0.0214 -0.5101
 7891SOL    HW235133   3.948   1.768   5.756 -0.3389 -0.3338  0.5269
 7892SOL     OW35134   0.408   0.388   2.733 -0.0776 -0.3181 -0.7669
 7892SOL    HW135135   0.445   0.301   2.745  1.4034  0.3998 -0.0828
 7892SOL    HW235136   0.485   0.443   2.716  0.6532 -0.9216  0.6481
 7893SOL     OW35137   3.301   0.067   5.204  0.1160 -0.0225 -0.1544
 7893SOL    HW135138   3.246   0.051   5.280  0.4260 -2.9177 -0.5601
 7893SOL    HW235139   3.368   0.129   5.234 -0.3433 -0.5114  1.8648
 7894SOL     OW35140   0.778   2.458   5.868  0.3828 -0.1076 -0.5959
 7894SOL    HW135141   0.853   2.467   5.926 -1.7405  1.2666  1.9590
 7894SOL    HW235142   0.793   2.530   5.806  0.4170  0.9835  0.6657
 7895SOL     OW35143   0.600   1.227   2.796 -0.5206 -0.2038 -0.3700
 7895SOL    HW135144   0.670   1.285   2.766  1.2988 -0.7491  2.7393
 7895SOL    HW235145   0.629   1.142   2.762  3.0822  0.9814 -0.3008
 7896SOL     OW35146   1.088   4.004   1.366  0.6922 -0.0140  1.2329
 7896SOL    HW135147   1.092   3.977   1.458 -1.6181  2.9000  2.1718
 7896SOL    HW235148   1.086   4.099   1.369 -0.3624  0.0267 -0.9002
 7897SOL     OW35149   3.954   2.223   8.555 -0.1063 -0.0529  0.1712
 7897SOL    HW135150   3.897   2.279   8.607  1.6375  2.0620 -0.1738
 7897SOL    HW235151   3.890   2.199   8.488  0.2970 -0.6901  0.0144
 7898SOL     OW35152   2.406   0.655   0.380  0.0819 -0.0461  0.3864
 7898SOL    HW135153   2.396   0.613   0.294 -2.0143 -0.1424  0.6649
 7898SOL    HW235154   2.336   0.721   0.384 -0.4058 -0.6001  0.8922
 7899SOL     OW35155   3.302   3.613   5.625  0.1209  0.2996 -0.5631
 7899SOL    HW135156   3.343   3.530   5.600  0.4065  0.0167  0.8444
 7899SOL    HW235157   3.383   3.661   5.641  0.2362 -0.3368  0.7866
 7900SOL     OW35158   3.149   2.333   3.256  0.2786 -0.5494  0.3814
 7900SOL    HW135159   3.064   2.356   3.219 -0.5343 -2.9285  0.8149
 7900SOL    HW235160   3.210   2.355   3.185  1.0233 -1.3429  0.7884
 7901SOL     OW35161   0.791   0.656   8.130 -0.1218 -0.1676  0.7734
 7901SOL    HW135162   0.732   0.731   8.137 -1.2668 -0.9648 -0.2129
 7901SOL    HW235163   0.793   0.662   8.034  1.4193  0.2620  0.8299
 7902SOL     OW35164   3.251   4.497  17.675  0.6288  0.2699 -0.0879
 7902SOL    HW135165   3.342   4.525  17.682  1.2238 -2.1771  1.9287
 7902SOL    HW235166   3.230   4.492   0.070  1.6961 -0.5771  0.1063
 7903SOL     OW35167   3.761   1.425   2.555 -0.3182 -0.5561 -0.0192
 7903SOL    HW135168   3.771   1.499   2.614 -1.3100 -1.6708  1.5265
 7903SOL    HW235169   3.671   1.404   2.579 -0.7237 -0.4280 -1.4066
 7904SOL     OW35170   1.153   0.254   2.171 -0.0321 -0.4451 -0.2093
 7904SOL    HW135171   1.146   0.228   2.262  0.8301 -1.9754 -0.5929
 7904SOL    HW235172   1.061   0.270   2.151  0.0219  0.8433  0.5431
 7905SOL     OW35173   2.980   3.598  13.421  0.7286  0.1674  0.0107
 7905SOL    HW135174   2.899   3.569  13.464 -0.5053  0.1748 -2.3394
 7905SOL    HW235175   2.968   3.693  13.425 -3.3414 -0.3528  0.1846
 7906SOL     OW35176   4.593   0.046   8.564  0.0942  0.1286 -0.5604
 7906SOL    HW135177   4.565   0.109   8.631  3.4500  0.8378  0.1589
 7906SOL    HW235178   4.519   4.709   8.564 -0.1525  0.4125  0.5614
 7907SOL     OW35179   3.357   2.613   5.585 -0.2648  0.8844  0.2302
 7907SOL    HW135180   3.280   2.646   5.539 -1.3174 -0.3583  1.1103
 7907SOL    HW235181   3.337   2.528   5.625  0.1168  1.3321  1.3672
 7908SOL     OW35182   3.748   4.555  14.996  0.7531  0.2716 -0.5027
 7908SOL    HW135183   3.722   4.601  15.076  2.4370 -0.4224  0.4445
 7908SOL    HW235184   3.759   4.631  14.939  0.1957  1.8158  1.4302
 7909SOL     OW35185   0.421   1.801   6.566 -0.4765 -0.1834 -0.4536
 7909SOL    HW135186   0.451   1.776   6.654  2.8117  0.8543 -1.2861
 7909SOL    HW235187   0.497   1.858   6.550 -1.1653  1.1387  0.9579
 7910SOL     OW35188   2.268   0.240   3.702 -0.0293 -0.1619  0.1528
 7910SOL    HW135189   2.190   0.251   3.757 -0.9494  1.5423 -1.4946
 7910SOL    HW235190   2.341   0.256   3.761  1.0511 -0.8186 -1.0080
 7911SOL     OW35191   2.818   2.469   3.822 -0.1309  0.3753 -0.1836
 7911SOL    HW135192   2.886   2.424   3.772 -1.2768 -0.3432 -1.0870
 7911SOL    HW235193   2.768   2.392   3.848  0.4705  0.8167  2.3058
 7912SOL     OW35194   3.657   2.106   4.166 -0.3678  0.1001  0.7146
 7912SOL    HW135195   3.713   2.131   4.093 -1.3828  0.2137 -0.0145
 7912SOL    HW235196   3.617   2.024   4.137 -1.4455  0.3771  1.4416
 7913SOL     OW35197   1.509   1.566   7.630 -0.1324 -0.4054 -0.3873
 7913SOL    HW135198   1.458   1.491   7.659  0.3345 -0.9232 -0.9085
 7913SOL    HW235199   1.468   1.584   7.544 -0.4207  0.2591 -0.1143
 7914SOL     OW35200   4.027   0.636   7.897  0.4542  0.1347  0.3679
 7914SOL    HW135201   4.054   0.715   7.850  1.9169  0.4170  1.6908
 7914SOL    HW235202   3.934   0.646   7.875  0.4514  0.6496  0.6063
 7915SOL     OW35203   1.573   3.760   4.409  0.5757  0.4454 -0.3207
 7915SOL    HW135204   1.523   3.693   4.361  1.9428 -0.8782  0.1204
 7915SOL    HW235205   1.503   3.825   4.409 -0.3199 -0.5100 -1.8275
 7916SOL     OW35206   1.601   2.555   5.016  1.0645  0.4274  0.0294
 7916SOL    HW135207   1.651   2.584   5.092  1.9231  0.4575 -0.5426
 7916SOL    HW235208   1.652   2.583   4.940  2.7827  0.4090  1.1685
 7917SOL     OW35209   4.400   2.994   6.333 -0.2147 -0.3559 -0.5358
 7917SOL    HW135210   4.368   3.012   6.244  2.2027  1.2748 -1.0760
 7917SOL    HW235211   4.345   3.052   6.384 -1.3327 -1.7064 -0.1928
 7918SOL     OW35212   4.513   3.065   4.025  0.3764 -0.0972 -0.4276
 7918SOL    HW135213   4.426   3.025   4.024  0.5240 -0.3570 -2.4377
 7918SOL    HW235214   4.485   3.142   4.074  2.0817 -0.5251  1.2109
 7919SOL     OW35215   1.018   4.411  10.876 -0.1399 -0.5132 -0.1689
 7919SOL    HW135216   1.082   4.340  10.877  1.1007  0.5976 -0.7258
 7919SOL    HW235217   0.963   4.398  10.799  0.0877 -1.5894 -0.1500
 7920SOL     OW35218   2.260   0.946   4.088 -0.3880 -0.3861 -0.1865
 7920SOL    HW135219   2.304   1.014   4.138  1.3291 -0.6925 -1.2535
 7920SOL    HW235220   2.185   0.992   4.050  2.3868 -0.3594 -5.6987
 7921SOL     OW35221   0.668   2.443  12.301 -0.3314 -0.1852  0.1579
 7921SOL    HW135222   0.625   2.502  12.363  0.6480  1.9848 -1.2244
 7921SOL    HW235223   0.602   2.408  12.241 -0.2032  1.0429 -0.6993
 7922SOL     OW35224   0.231   3.483  14.016 -0.0783 -0.2355 -0.1886
 7922SOL    HW135225   0.320   3.508  13.989 -0.7673  0.8795 -1.4007
 7922SOL    HW235226   0.180   3.478  13.935  1.1452  0.7718 -1.0132
 7923SOL     OW35227   1.069   1.512   7.390  0.1892  0.2393 -0.4245
 7923SOL    HW135228   1.113   1.569   7.452  1.0368 -0.0454 -0.7581
 7923SOL    HW235229   1.107   1.424   7.401 -0.8983 -0.6850 -3.9187
 7924SOL     OW35230   3.424   4.167  13.109 -0.5924 -0.0655 -0.2881
 7924SOL    HW135231   3.486   4.142  13.177 -2.6062 -0.5286  1.3754
 7924SOL    HW235232   3.346   4.121  13.140 -1.4188  0.6873 -1.2208
 7925SOL     OW35233   1.060   2.067  12.095  0.6263  0.1611 -0.3895
 7925SOL    HW135234   1.077   2.152  12.137  0.2738  0.2109 -0.3419
 7925SOL    HW235235   1.069   1.998  12.161  2.4334 -0.9657 -1.8263
 7926SOL     OW35236   2.622   3.947   1.772  0.2454 -0.7427  0.0226
 7926SOL    HW135237   2.633   3.852   1.783  3.9801 -0.4864 -1.2515
 7926SOL    HW235238   2.638   3.949   1.677 -1.1662 -0.4890 -0.2063
 7927SOL     OW35239   4.070   1.332   4.258  0.0430 -0.3331  0.5675
 7927SOL    HW135240   4.143   1.388   4.230 -1.2736  2.1766  2.1290
 7927SOL    HW235241   4.090   1.260   4.198 -0.1684  0.5751 -0.5884
 7928SOL     OW35242   1.289   4.459   9.039 -0.1150 -0.6000  0.1594
 7928SOL    HW135243   1.259   4.535   9.088  1.3130 -0.1682  0.3583
 7928SOL    HW235244   1.381   4.448   9.064 -0.5051 -1.2971  1.2967
 7929SOL     OW35245   1.071   2.981   8.626 -0.0779  0.4851 -0.3371
 7929SOL    HW135246   1.165   2.975   8.607  0.1927  1.3186  0.7314
 7929SOL    HW235247   1.065   2.991   8.721 -0.9142 -1.5793 -0.1624
 7930SOL     OW35248   2.021   2.953   1.597 -0.2862  0.1301 -0.0901
 7930SOL    HW135249   1.959   2.997   1.539  1.5559 -0.5698 -2.5744
 7930SOL    HW235250   2.042   3.033   1.646 -0.9786  0.7093 -0.7228
 7931SOL     OW35251   0.189   2.855  10.808 -0.0714 -0.2840 -0.1705
 7931SOL    HW135252   0.139   2.801  10.869  0.2939  2.2687  2.3499
 7931SOL    HW235253   0.132   2.931  10.816  1.3894  0.9424 -1.3008
 7932SOL     OW35254   2.100   3.698   4.997  0.1915  0.0489  0.4603
 7932SOL    HW135255   2.078   3.680   5.088  1.0815  2.5740  1.1762
 7932SOL    HW235256   2.180   3.647   4.984 -0.6760 -1.1031 -0.4299
 7933SOL     OW35257   4.010   0.306   6.596 -0.5152  0.0915 -0.2326
 7933SOL    HW135258   4.097   0.270   6.614 -0.2049  0.1461 -1.5733
 7933SOL    HW235259   4.006   0.392   6.639 -0.0829  0.2190 -0.4456
 7934SOL     OW35260   3.036   4.398  12.186 -0.1141 -0.3236 -0.3204
 7934SOL    HW135261   2.945   4.369  12.197 -0.6188  0.4765 -2.2809
 7934SOL    HW235262   3.065   4.415  12.275 -0.0203  0.1349 -0.4378
 7935SOL     OW35263   3.163   1.352  12.795 -0.8590  0.6374 -0.8841
 7935SOL    HW135264   3.213   1.271  12.796  1.9307  2.3659 -1.8603
 7935SOL    HW235265   3.165   1.380  12.703  1.0737 -2.9211 -1.9219
 7936SOL     OW35266   1.591   0.691   4.839 -0.2923  0.0898 -0.2759
 7936SOL    HW135267   1.566   0.753   4.907  1.1589  1.2709 -0.8119
 7936SOL    HW235268   1.521   0.683   4.774  0.3486 -1.1930 -0.7977
 7937SOL     OW35269   3.599   0.557   8.122  0.2318 -0.0586  0.0051
 7937SOL    HW135270   3.648   0.477   8.142  2.9793  1.7739  0.4529
 7937SOL    HW235271   3.654   0.632   8.141 -0.2586  0.4118 -0.4555
 7938SOL     OW35272   0.817   0.306   6.458  0.2178 -0.8716  0.8331
 7938SOL    HW135273   0.734   0.261   6.469 -0.9206  0.8314 -0.7046
 7938SOL    HW235274   0.786   0.388   6.420 -1.7077 -1.4798  1.1015
 7939SOL     OW35275   2.982   0.718  14.553  0.4222 -0.3980  0.3156
 7939SOL    HW135276   2.965   0.640  14.606  1.4258 -1.0895 -0.3791
 7939SOL    HW235277   2.988   0.780  14.626 -1.6221  2.2835 -1.8233
 7940SOL     OW35278   0.075   1.893   1.216  0.0461  0.1660 -0.1124
 7940SOL    HW135279   0.062   1.975   1.167  1.0784  1.5128  1.8770
 7940SOL    HW235280   0.168   1.902   1.233  0.6803 -2.8120 -1.9791
 7941SOL     OW35281   2.022   3.303   3.540  0.2324 -0.5852 -0.0802
 7941SOL    HW135282   2.063   3.382   3.504 -0.3301  0.2374  1.0919
 7941SOL    HW235283   1.930   3.319   3.521  0.2415 -2.2787 -1.5601
 7942SOL     OW35284   0.335   3.623  13.566  0.7424  0.3285 -0.6012
 7942SOL    HW135285   0.256   3.570  13.577  0.1902  1.5139  1.3605
 7942SOL    HW235286   0.320   3.682  13.640  0.1187 -1.2899  0.5652
 7943SOL     OW35287   2.121   1.890   8.712  0.2679 -0.3965 -0.3809
 7943SOL    HW135288   2.117   1.950   8.786  1.0766 -0.2475 -0.4647
 7943SOL    HW235289   2.206   1.847   8.719 -0.4785 -1.1305  3.8925
 7944SOL     OW35290   3.675   0.514  16.134  0.4919 -0.4652  0.6256
 7944SOL    HW135291   3.769   0.519  16.151  0.3218  0.6066  1.2297
 7944SOL    HW235292   3.654   0.426  16.165 -1.0206 -0.1282  0.5858
 7945SOL     OW35293   2.908   0.497  12.204  0.0004  0.4755  0.3878
 7945SOL    HW135294   2.897   0.546  12.286 -1.6914  1.7242 -0.5931
 7945SOL    HW235295   2.904   0.410  12.243 -0.1602 -1.9021 -4.9540
 7946SOL     OW35296   1.586   3.760   1.095  0.2453  0.1543  0.1513
 7946SOL    HW135297   1.633   3.686   1.133 -0.9961 -1.1628 -0.8780
 7946SOL    HW235298   1.522   3.725   1.033 -1.4309  0.9456  1.4231
 7947SOL     OW35299   0.364   1.907   4.971  0.0952 -0.3746 -0.1430
 7947SOL    HW135300   0.453   1.924   4.940  0.5233 -0.0685  1.2776
 7947SOL    HW235301   0.306   1.942   4.904 -1.2220  0.0397  1.2284
 7948SOL     OW35302   0.937   0.743  16.817 -0.4652 -0.1915  0.0995
 7948SOL    HW135303   0.850   0.770  16.787 -0.0884 -0.3817 -1.1503
 7948SOL    HW235304   0.953   0.806  16.888 -0.6878  2.1483 -1.9356
 7949SOL     OW35305   0.975   3.375   8.702  0.3295  0.6008 -0.1693
 7949SOL    HW135306   0.883   3.386   8.727 -0.3510 -0.5747 -2.2014
 7949SOL    HW235307   0.971   3.376   8.607 -0.8410 -1.8298 -0.1519
 7950SOL     OW35308   1.875   0.229   8.051 -0.3521 -0.0590  0.0986
 7950SOL    HW135309   1.830   0.268   7.976 -2.6923  0.3217  1.7028
 7950SOL    HW235310   1.951   0.186   8.012  0.1800  1.5876 -0.6777
 7951SOL     OW35311   0.547   4.585   5.905  0.1066  0.4300 -0.5164
 7951SOL    HW135312   0.457   4.554   5.896  0.5899 -1.4857  1.2197
 7951SOL    HW235313   0.547   4.649   5.834 -1.4943  0.0216 -0.8956
 7952SOL     OW35314   4.227   0.158   8.136  0.3830  0.1215 -0.2857
 7952SOL    HW135315   4.257   0.120   8.219  0.8883  1.8208  0.3039
 7952SOL    HW235316   4.291   0.228   8.124  0.5502 -0.0735 -0.5383
 7953SOL     OW35317   1.118   0.163   1.069 -0.3262 -0.7193  0.1742
 7953SOL    HW135318   1.163   0.135   1.148 -0.3893 -2.4113 -0.3934
 7953SOL    HW235319   1.063   0.085   1.063 -1.8175  0.3327 -0.0104
 7954SOL     OW35320   1.793   0.382   3.778 -0.3665 -0.0164  0.2226
 7954SOL    HW135321   1.778   0.450   3.843 -1.5492 -0.9527  0.9350
 7954SOL    HW235322   1.718   0.386   3.719 -0.6819 -1.7424  0.4873
 7955SOL     OW35323   2.265   1.201  16.224  0.3254 -0.1716  0.0624
 7955SOL    HW135324   2.175   1.190  16.253  0.7872  0.3578  1.7086
 7955SOL    HW235325   2.305   1.122  16.261 -0.9589 -0.8103  0.0838
 7956SOL     OW35326   3.081   1.390  15.790 -0.0882 -0.0762 -0.4568
 7956SOL    HW135327   3.086   1.463  15.728  0.5180  1.9542  1.9718
 7956SOL    HW235328   3.084   1.309  15.739 -0.2849  0.6023 -1.5341
 7957SOL     OW35329   1.447   0.434   7.803 -0.4046 -0.2417 -0.4870
 7957SOL    HW135330   1.368   0.425   7.856  1.0524  1.0102  1.8862
 7957SOL    HW235331   1.442   0.359   7.743  0.1326 -1.1554  0.6182
 7958SOL     OW35332   0.904   2.857   7.973  0.3178 -0.2399  0.5575
 7958SOL    HW135333   0.959   2.935   7.981  1.0847 -0.8556  1.2517
 7958SOL    HW235334   0.889   2.857   7.878 -1.7510  1.2888  0.8812
 7959SOL     OW35335   3.293   1.524   5.663  0.0191 -0.4777  0.1151
 7959SOL    HW135336   3.346   1.570   5.727 -0.7589  0.0298  0.3972
 7959SOL    HW235337   3.225   1.588   5.641  0.4374  0.7682  2.4711
 7960SOL     OW35338   1.331   0.753   2.585  0.0516 -0.4935 -0.4496
 7960SOL    HW135339   1.420   0.781   2.563  0.3804  0.0726  1.5474
 7960SOL    HW235340   1.328   0.786   2.675 -1.8850  2.7387 -1.6825
 7961SOL     OW35341   4.649   1.466   0.562 -0.0573 -0.2926  0.4721
 7961SOL    HW135342   0.002   1.496   0.610  0.3377 -0.1038 -0.2773
 7961SOL    HW235343   4.670   1.374   0.547 -0.1722 -0.5961  2.2210
 7962SOL     OW35344   0.314   2.542   8.025 -0.4110 -0.1713 -0.6242
 7962SOL    HW135345   0.283   2.606   7.961 -0.5874  0.2477 -0.1204
 7962SOL    HW235346   0.356   2.477   7.968 -0.2517 -0.6957  0.0807
 7963SOL     OW35347   3.345   0.707   0.070  0.4710  0.0892  0.1592
 7963SOL    HW135348   3.436   0.700   0.041  0.2139  2.5124 -1.2675
 7963SOL    HW235349   3.309   0.776   0.014  1.1610  0.3297  0.0058
 7964SOL     OW35350   2.557   2.861   3.216 -0.6838  0.6713 -0.1148
 7964SOL    HW135351   2.531   2.951   3.193 -1.3655  0.9014  1.5671
 7964SOL    HW235352   2.520   2.805   3.148  0.5481  0.2060 -0.4120
 7965SOL     OW35353   0.726   2.696   3.576  0.5584 -0.2530  1.0023
 7965SOL    HW135354   0.668   2.758   3.621  0.3767  0.1839  0.1619
 7965SOL    HW235355   0.792   2.756   3.542 -2.0583  0.0502 -3.5312
 7966SOL     OW35356   0.817   4.242  10.443 -0.3008  0.0977 -0.1841
 7966SOL    HW135357   0.812   4.287  10.527 -1.1362  1.5895 -1.0397
 7966SOL    HW235358   0.905   4.258  10.408 -0.6758  1.5360 -0.4578
 7967SOL     OW35359   2.435   0.117   4.433 -0.2028 -0.1067 -0.0501
 7967SOL    HW135360   2.495   0.078   4.369  0.2976  0.2276  0.2155
 7967SOL    HW235361   2.385   0.174   4.375 -0.1451  1.8093  1.8169
 7968SOL     OW35362   1.148   1.580  15.481 -0.0744  0.1885  0.1515
 7968SOL    HW135363   1.119   1.661  15.439  2.5484  2.1103  1.9943
 7968SOL    HW235364   1.065   1.532  15.486  0.8295 -1.4586 -0.9340
 7969SOL     OW35365   2.721   1.154   9.915  0.5590 -0.1576  0.0996
 7969SOL    HW135366   2.727   1.157   9.820 -0.5411 -1.8071 -0.0290
 7969SOL    HW235367   2.676   1.071   9.930 -2.1637  1.2252 -0.3929
 7970SOL     OW35368   0.095   0.471   9.489  0.1834  0.4985 -0.0790
 7970SOL    HW135369   0.141   0.488   9.407 -1.0466  1.4855 -0.5502
 7970SOL    HW235370   0.142   0.542   9.534 -0.5956  1.9802 -1.6173
 7971SOL     OW35371   4.551   1.818   9.993  0.3364  0.0857  0.2790
 7971SOL    HW135372   4.543   1.790  10.085 -3.6597  0.1844 -0.0409
 7971SOL    HW235373   4.592   1.740   9.956  0.6487  0.4700 -0.1966
 7972SOL     OW35374   1.631   1.993   7.785  0.2724  0.0585  0.3634
 7972SOL    HW135375   1.543   2.018   7.814  0.4145  0.8859  0.0868
 7972SOL    HW235376   1.694   2.031   7.846 -0.5234 -0.7098  1.6764
 7973SOL     OW35377   2.430   3.886   5.823  0.2418  0.0745 -0.3428
 7973SOL    HW135378   2.408   3.967   5.778 -0.2632  0.3377  0.3698
 7973SOL    HW235379   2.478   3.922   5.898  0.3049 -1.2643  0.2642
 7974SOL     OW35380   0.691   1.833  16.525 -0.4456  0.0300 -0.4857
 7974SOL    HW135381   0.696   1.858  16.432  0.8446  0.6441 -0.2608
 7974SOL    HW235382   0.754   1.760  16.530  0.3341  0.6277 -1.4446
 7975SOL     OW35383   0.924   0.952   7.019 -0.1448  0.2043  0.5089
 7975SOL    HW135384   0.978   0.944   7.098 -0.6655 -1.9602  0.6404
 7975SOL    HW235385   0.874   0.872   7.031  0.0879 -0.0087  0.0204
 7976SOL     OW35386   2.048   0.918  16.096  0.4079 -0.0513  0.5495
 7976SOL    HW135387   2.063   0.919  16.001  1.7177  0.0217  0.7561
 7976SOL    HW235388   1.958   0.947  16.110  1.0591  0.3123  4.0168
 7977SOL     OW35389   3.527   0.141   7.997  0.0447  0.2879 -0.1949
 7977SOL    HW135390   3.574   0.203   8.053 -0.4436  0.7316 -0.2790
 7977SOL    HW235391   3.526   0.055   8.040 -1.1062  0.9322  1.0686
 7978SOL     OW35392   1.643   4.123   8.877 -0.3284  0.3735 -0.1302
 7978SOL    HW135393   1.557   4.146   8.841 -0.7886  0.7503  1.2097
 7978SOL    HW235394   1.614   4.106   8.967 -0.9863 -2.3412 -0.8696
 7979SOL     OW35395   3.254   4.189   1.997 -0.3161 -0.1672 -0.0079
 7979SOL    HW135396   3.165   4.219   2.013 -0.0774  0.6171 -0.1264
 7979SOL    HW235397   3.288   4.269   1.957 -0.2282 -0.2303 -0.0607
 7980SOL     OW35398   4.643   2.825   6.293 -0.1974  0.7539 -0.2090
 7980SOL    HW135399   4.591   2.905   6.304  0.5657  1.1966  0.1606
 7980SOL    HW235400   4.595   2.754   6.335  1.4173  0.0606  0.4782
 7981SOL     OW35401   1.211   2.441   7.728  0.9760  0.4259 -0.2153
 7981SOL    HW135402   1.247   2.392   7.802 -0.3678  0.3218  0.3596
 7981SOL    HW235403   1.272   2.513   7.713 -0.3857  1.7864  0.8183
 7982SOL     OW35404   0.929   3.628   4.732 -0.4358 -0.4936 -0.0698
 7982SOL    HW135405   0.912   3.613   4.639 -1.6852 -1.1411  0.2620
 7982SOL    HW235406   0.887   3.554   4.774  1.0713 -0.0790  2.1678
 7983SOL     OW35407   1.150   1.255   7.442 -0.0876  0.3521 -0.4672
 7983SOL    HW135408   1.214   1.229   7.376  1.8130  1.2657  0.9985
 7983SOL    HW235409   1.114   1.178   7.486  1.1902 -2.0421 -3.6228
 7984SOL     OW35410   3.164   2.200   3.495  0.1383  0.0134 -0.1855
 7984SOL    HW135411   3.159   2.246   3.411 -1.4118 -1.2665 -0.8043
 7984SOL    HW235412   3.250   2.225   3.527  0.4593  1.0801 -1.8832
 7985SOL     OW35413   3.957   3.028   2.227 -0.0305  0.1649  0.5384
 7985SOL    HW135414   4.028   2.970   2.254 -0.2805  0.0297  0.9001
 7985SOL    HW235415   3.904   2.961   2.185  0.8340  1.5299 -2.7100
 7986SOL     OW35416   4.183   2.242  12.865  0.2403  0.3176  0.1711
 7986SOL    HW135417   4.205   2.334  12.880 -2.3852  1.2881 -1.9038
 7986SOL    HW235418   4.213   2.214  12.952 -0.7754 -0.6894  0.1920
 7987SOL     OW35419   2.937   4.187   6.270 -0.4050  0.1205  0.5476
 7987SOL    HW135420   2.989   4.170   6.191  1.7816  1.9909  1.5520
 7987SOL    HW235421   2.973   4.274   6.289 -0.9897  0.3165  0.7617
 7988SOL     OW35422   0.220   2.888   3.286 -0.2520 -0.3184  0.4534
 7988SOL    HW135423   0.213   2.979   3.315 -0.4865 -0.8247  1.9310
 7988SOL    HW235424   0.183   2.849   3.364 -0.6667 -2.5098 -0.8491
 7989SOL     OW35425   0.671   3.882   4.793  0.1908 -0.1108 -0.1120
 7989SOL    HW135426   0.605   3.923   4.737  0.1120  1.5010  1.1267
 7989SOL    HW235427   0.743   3.855   4.736  1.5431  2.5343  0.3235
 7990SOL     OW35428   2.325   2.286   6.362  0.3346 -0.0065  0.5976
 7990SOL    HW135429   2.253   2.232   6.331 -1.3885  2.4553  0.3524
 7990SOL    HW235430   2.309   2.289   6.456  0.5860  1.1347  0.6042
 7991SOL     OW35431   2.347   1.284  17.169  0.0538  0.1568 -0.5918
 7991SOL    HW135432   2.371   1.283  17.261 -2.1483  2.2615  0.0174
 7991SOL    HW235433   2.262   1.240  17.176 -0.7847  1.9448  0.6415
 7992SOL     OW35434   0.466   4.571   2.343  0.4013  0.1385 -0.1548
 7992SOL    HW135435   0.385   4.618   2.363  1.7595  2.0162  0.9757
 7992SOL    HW235436   0.502   4.637   2.284  0.0382  0.4076 -0.0762
 7993SOL     OW35437   1.215   1.288   3.026 -0.1355  0.3470 -0.2103
 7993SOL    HW135438   1.168   1.331   2.955 -0.6192  1.3775  0.7481
 7993SOL    HW235439   1.278   1.358   3.043 -0.0938  0.6034 -1.3812
 7994SOL     OW35440   0.464   1.861   7.331  0.1318  0.3765 -0.0792
 7994SOL    HW135441   0.550   1.822   7.319 -0.7762 -1.1311 -1.7090
 7994SOL    HW235442   0.482   1.952   7.353  1.4612  0.1463 -0.2407
 7995SOL     OW35443   1.751   3.621   7.896 -0.4957 -0.4413  0.0612
 7995SOL    HW135444   1.821   3.584   7.842 -0.1339  0.9304 -0.4113
 7995SOL    HW235445   1.739   3.713   7.874 -0.7338 -0.3343  0.6346
 7996SOL     OW35446   3.072   4.645   4.696  0.2334 -0.5642 -0.0516
 7996SOL    HW135447   3.076   4.721   4.753  0.7353  0.2092 -1.1380
 7996SOL    HW235448   3.118   4.578   4.747  1.5940  0.9050  0.6342
 7997SOL     OW35449   4.234   3.723   2.388 -0.7591  0.1945 -0.2566
 7997SOL    HW135450   4.154   3.704   2.438 -0.4083 -1.0077 -0.1582
 7997SOL    HW235451   4.225   3.817   2.378 -0.9655  0.1149 -0.8096
 7998SOL     OW35452   0.342   1.210   5.294  0.0275  0.0270  0.0299
 7998SOL    HW135453   0.425   1.166   5.310  0.0580 -0.1027 -0.4870
 7998SOL    HW235454   0.356   1.305   5.296 -2.1331  0.4367 -4.9637
 7999SOL     OW35455   1.061   1.209  15.556 -0.0441  0.4913 -0.7774
 7999SOL    HW135456   0.992   1.151  15.588 -0.5106  1.5358  0.0940
 7999SOL    HW235457   1.016   1.240  15.477 -0.3608 -0.0084 -0.7996
 8000SOL     OW35458   1.924   3.423  10.028 -0.0337  0.0039  0.4657
 8000SOL    HW135459   1.947   3.330  10.025  3.8771  1.0066 -0.7755
 8000SOL    HW235460   2.001   3.454   9.980  0.8298 -1.3858  0.9519
 8001SOL     OW35461   2.071   0.178   2.673 -0.6324 -0.3560  0.6773
 8001SOL    HW135462   2.056   0.263   2.715 -0.2252  0.1964 -0.2710
 8001SOL    HW235463   2.027   0.115   2.729  0.0641 -0.9469  0.5580
 8002SOL     OW35464   1.459   2.197   1.935  0.2939 -0.1949 -0.0896
 8002SOL    HW135465   1.488   2.106   1.925  1.0373 -0.0245  0.5315
 8002SOL    HW235466   1.488   2.210   2.025  0.8514  1.5703 -0.5371
 8003SOL     OW35467   0.393   3.055   1.854  0.2290  0.0172 -0.6794
 8003SOL    HW135468   0.304   3.040   1.885  0.5885  1.1738  0.9412
 8003SOL    HW235469   0.399   3.148   1.875  0.4238 -0.1498  0.0077
 8004SOL     OW35470   1.563   0.906  11.846 -0.3012  0.4433 -0.6557
 8004SOL    HW135471   1.625   0.975  11.822  1.1591 -1.1716 -1.5375
 8004SOL    HW235472   1.481   0.956  11.853  1.1737  2.5553  1.5835
 8005SOL     OW35473   3.496   2.234  16.767 -0.2665 -0.5972  0.0232
 8005SOL    HW135474   3.471   2.149  16.805  0.5742 -1.2434 -0.8545
 8005SOL    HW235475   3.429   2.234  16.698 -1.3933 -0.0022  1.1186
 8006SOL     OW35476   1.823   3.045  15.634  0.1931 -0.2219 -0.4017
 8006SOL    HW135477   1.905   3.045  15.584 -0.6006 -0.2875 -1.6949
 8006SOL    HW235478   1.824   3.141  15.640  0.7495 -0.2220 -0.4629
 8007SOL     OW35479   3.783   0.687   5.138  0.2133  0.2540 -0.1383
 8007SOL    HW135480   3.859   0.628   5.139  0.5079  0.5854 -2.2615
 8007SOL    HW235481   3.816   0.743   5.208 -0.3193  0.9009 -0.4128
 8008SOL     OW35482   1.515   2.500   5.301  0.1333  0.9240  0.5117
 8008SOL    HW135483   1.432   2.545   5.315 -0.7004 -0.1666 -0.9363
 8008SOL    HW235484   1.493   2.433   5.236  1.0444  0.8109  0.3095
 8009SOL     OW35485   1.025   2.150   7.546  0.5213 -0.7595  0.2815
 8009SOL    HW135486   0.996   2.068   7.586 -2.2558 -0.8776 -1.9366
 8009SOL    HW235487   1.010   2.208   7.620 -0.4373  1.1341 -1.3732
 8010SOL     OW35488   2.717   0.408   4.552  0.1458 -0.1984  0.2744
 8010SOL    HW135489   2.800   0.363   4.568 -0.0643 -1.1250 -1.2517
 8010SOL    HW235490   2.712   0.474   4.622 -0.5285 -0.8192  0.8095
 8011SOL     OW35491   4.451   3.946   2.761  0.4528  0.1285  0.0597
 8011SOL    HW135492   4.480   4.038   2.759 -1.4307  0.7129 -0.3147
 8011SOL    HW235493   4.478   3.913   2.675  1.4384 -0.0003  0.4177
 8012SOL     OW35494   4.351   0.259   5.647  0.3383  0.0839 -0.5400
 8012SOL    HW135495   4.359   0.171   5.610  1.0616 -0.0792 -0.0100
 8012SOL    HW235496   4.434   0.266   5.695 -0.6704  1.3877  1.0130
 8013SOL     OW35497   3.525   3.065   2.628  0.0672 -0.5021 -0.0563
 8013SOL    HW135498   3.588   3.007   2.669  1.1075  1.4091  1.0853
 8013SOL    HW235499   3.503   3.014   2.550  1.0319  0.7674 -1.1685
 8014SOL     OW35500   1.055   0.919   7.258  0.1541 -0.2350 -0.5003
 8014SOL    HW135501   1.051   0.863   7.335 -1.6722 -0.6187 -0.8712
 8014SOL    HW235502   1.124   0.979   7.285 -1.0954  1.2289 -0.5495
 8015SOL     OW35503   0.899   3.899  17.554 -0.3826 -0.6725 -0.1797
 8015SOL    HW135504   0.836   3.929  17.620 -0.9779 -0.1300 -0.9981
 8015SOL    HW235505   0.859   3.813  17.541  0.8359 -1.3402  0.5216
 8016SOL     OW35506   2.145   0.939   6.055 -0.4598 -0.1196  0.2065
 8016SOL    HW135507   2.134   1.034   6.064  2.2779  0.3416 -1.2078
 8016SOL    HW235508   2.174   0.933   5.964 -2.0417 -1.7921 -0.1677
 8017SOL     OW35509   3.584   2.946   2.165 -0.5202  1.0513  0.1885
 8017SOL    HW135510   3.565   2.886   2.092  2.3065  2.2892 -1.5506
 8017SOL    HW235511   3.668   2.912   2.195  0.2626  2.4642 -0.4075
 8018SOL     OW35512   0.243   4.451   1.569 -0.0365 -0.1879  0.3632
 8018SOL    HW135513   0.210   4.401   1.644 -0.7677 -1.8839 -1.1064
 8018SOL    HW235514   0.254   4.539   1.604  0.6764  0.6024 -1.8562
 8019SOL     OW35515   2.805   0.210   3.713 -0.0910 -0.0126 -0.4884
 8019SOL    HW135516   2.739   0.186   3.649  0.8251 -0.9391 -1.0705
 8019SOL    HW235517   2.766   0.286   3.756  1.6739  0.1061  0.9102
 8020SOL     OW35518   2.376   3.510   1.325  0.5290  0.4257  0.1096
 8020SOL    HW135519   2.362   3.598   1.360  0.5634  0.5905 -0.2955
 8020SOL    HW235520   2.402   3.454   1.399 -1.2700  1.5657  1.6007
 8021SOL     OW35521   3.502   0.099   4.476  0.0222 -0.0504  0.3499
 8021SOL    HW135522   3.523   0.007   4.494  1.1804  0.3073  0.8322
 8021SOL    HW235523   3.460   0.125   4.559  1.1268  1.8484  0.3085
 8022SOL     OW35524   1.171   3.062   5.511 -0.1815 -0.2105  0.3195
 8022SOL    HW135525   1.207   2.985   5.556  3.4330  0.9986 -0.5330
 8022SOL    HW235526   1.085   3.051   5.552 -0.6077  0.8028 -0.3233
 8023SOL     OW35527   2.042   0.506   1.286 -0.0358 -0.0919  0.0378
 8023SOL    HW135528   2.093   0.536   1.362 -1.6258  2.8868 -0.0596
 8023SOL    HW235529   2.057   0.412   1.284 -2.1363 -0.4273  0.5617
 8024SOL     OW35530   2.248   2.134   4.550  0.3771 -0.6387 -0.1532
 8024SOL    HW135531   2.220   2.225   4.547  1.0813 -0.4022  0.6203
 8024SOL    HW235532   2.305   2.128   4.473 -0.1052 -1.0257 -0.4869
 8025SOL     OW35533   2.383   0.433   8.044  0.1868 -0.2713 -0.1004
 8025SOL    HW135534   2.297   0.409   8.078  0.1593 -0.4389 -0.2862
 8025SOL    HW235535   2.443   0.363   8.069  0.7769  0.1094 -0.4240
 8026SOL     OW35536   3.330   0.913  15.644 -0.5715 -0.4109  0.2232
 8026SOL    HW135537   3.329   0.824  15.678  2.5345 -0.3490  0.4705
 8026SOL    HW235538   3.406   0.912  15.586 -1.2586  0.6337 -0.7094
 8027SOL     OW35539   3.237   1.267   1.271  0.7662  0.4796 -0.1219
 8027SOL    HW135540   3.286   1.334   1.319 -0.6126  0.5228  1.2123
 8027SOL    HW235541   3.152   1.283   1.311  0.6089 -2.1206  0.6225
 8028SOL     OW35542   0.224   1.621   6.594 -0.5732 -0.4284 -0.4505
 8028SOL    HW135543   0.279   1.549   6.626 -1.6581 -0.4654  1.3112
 8028SOL    HW235544   0.278   1.700   6.596 -1.1610 -0.0747  2.0756
 8029SOL     OW35545   2.158   3.282   7.838  0.1314  0.1455  0.2755
 8029SOL    HW135546   2.091   3.312   7.899 -0.8188  0.2760 -0.8357
 8029SOL    HW235547   2.197   3.210   7.886  0.0231  0.1357  0.3478
 8030SOL     OW35548   2.823   1.432   5.664  0.2442  0.6164  0.1675
 8030SOL    HW135549   2.909   1.398   5.686  0.0306 -0.5133 -0.7294
 8030SOL    HW235550   2.823   1.435   5.569 -0.6904  3.8964  0.2778
 8031SOL     OW35551   3.451   3.509   5.276  0.4643 -0.2930 -0.3946
 8031SOL    HW135552   3.411   3.462   5.349 -0.3718  0.3446 -0.4423
 8031SOL    HW235553   3.519   3.555   5.326 -0.0530  2.6278 -2.3625
 8032SOL     OW35554   1.684   2.135   7.400 -0.3413  0.1339  0.2420
 8032SOL    HW135555   1.735   2.054   7.399  0.0767  0.3833  1.8086
 8032SOL    HW235556   1.707   2.166   7.487  0.6496 -1.3459  0.5029
 8033SOL     OW35557   2.258   3.930   6.872  0.1062 -0.3283  0.2554
 8033SOL    HW135558   2.231   3.927   6.963 -1.2896 -0.5833 -0.1579
 8033SOL    HW235559   2.296   3.845   6.852 -1.4640 -1.3648  1.8002
 8034SOL     OW35560   1.519   2.306   8.034 -0.1910 -0.1313 -0.6083
 8034SOL    HW135561   1.517   2.274   7.944 -1.2407  1.8107 -1.2784
 8034SOL    HW235562   1.494   2.231   8.087  0.9819 -1.3397 -1.7706
 8035SOL     OW35563   2.611   0.456  15.936  0.1829  0.2635 -0.0754
 8035SOL    HW135564   2.585   0.522  15.871  0.4437  0.1950 -0.2508
 8035SOL    HW235565   2.606   0.514  16.012  0.9889  0.1375  0.0710
 8036SOL     OW35566   3.295   0.511   2.219 -0.2221  0.1894  0.0667
 8036SOL    HW135567   3.286   0.416   2.215 -0.1517  0.2554 -1.4323
 8036SOL    HW235568   3.374   0.520   2.272 -0.4365 -0.8978  0.5671
 8037SOL     OW35569   2.698   4.555   7.767 -0.2131 -0.0221 -0.5180
 8037SOL    HW135570   2.779   4.580   7.811  0.1526 -0.3383 -1.0001
 8037SOL    HW235571   2.712   4.561   7.672 -0.2001  2.9477 -0.3206
 8038SOL     OW35572   4.428   1.366   0.950 -0.5243 -0.2692  0.5800
 8038SOL    HW135573   4.466   1.376   1.037  0.7145  0.9956 -0.1048
 8038SOL    HW235574   4.482   1.294   0.917  1.1834  1.4944 -0.4377
 8039SOL     OW35575   1.890   0.868   2.699  0.0663  0.3680 -0.5146
 8039SOL    HW135576   1.953   0.924   2.745  0.0657  0.7005 -0.9204
 8039SOL    HW235577   1.849   0.931   2.640 -1.2138  0.4760  0.4916
 8040SOL     OW35578   4.617   3.246   6.850  0.5529  0.0921 -0.1754
 8040SOL    HW135579   4.550   3.197   6.897 -0.3706 -0.8036 -2.4199
 8040SOL    HW235580   4.581   3.334   6.857 -0.7156 -0.2416 -2.4728
 8041SOL     OW35581   2.118   2.235  10.290 -0.4854 -0.1707 -0.0106
 8041SOL    HW135582   2.069   2.316  10.275 -0.3264 -0.0784 -0.0317
 8041SOL    HW235583   2.189   2.246  10.226  1.1550  0.6368  1.9309
 8042SOL     OW35584   2.771   2.215   5.761  0.2408  0.1958 -0.7335
 8042SOL    HW135585   2.826   2.165   5.700  0.1831 -0.7223 -0.0199
 8042SOL    HW235586   2.707   2.252   5.699 -1.8931 -1.2278  0.6217
 8043SOL     OW35587   1.092   4.321  16.811 -0.2181  0.1601  1.0362
 8043SOL    HW135588   1.169   4.313  16.866  1.1847  0.0875 -0.9403
 8043SOL    HW235589   1.080   4.416  16.807 -0.3106  0.1693  1.5374
 8044SOL     OW35590   0.099   0.486   5.582 -0.7139  0.2526 -0.1617
 8044SOL    HW135591   0.150   0.439   5.647  0.6240  2.6521  0.5186
 8044SOL    HW235592   0.096   0.415   5.518 -4.4097  1.0349 -0.8904
 8045SOL     OW35593   0.486   3.214   2.326 -0.3404 -0.2636  0.2395
 8045SOL    HW135594   0.496   3.304   2.356  1.5653  0.0867 -1.4204
 8045SOL    HW235595   0.470   3.172   2.410  1.4986  0.6409  1.0318
 8046SOL     OW35596   0.099   0.570  16.905  0.3498  0.3197 -0.0091
 8046SOL    HW135597   0.135   0.527  16.983 -0.5521  1.1744  0.8892
 8046SOL    HW235598   0.039   0.632  16.946  0.8284 -0.5577  2.0537
 8047SOL     OW35599   2.864   0.527  11.657 -0.5739  0.5661  0.0735
 8047SOL    HW135600   2.861   0.576  11.575 -1.2259  1.6395  0.7430
 8047SOL    HW235601   2.818   0.448  11.627  0.2142  0.3507 -0.5513
 8048SOL     OW35602   2.789   4.698   5.537  0.1489 -0.0224 -0.3352
 8048SOL    HW135603   2.745   4.652   5.465 -0.7555  0.0340  0.1767
 8048SOL    HW235604   2.714   4.723   5.591 -0.7643 -0.3721 -1.4456
 8049SOL     OW35605   4.296   4.474   4.895  0.5945 -0.3308  0.1443
 8049SOL    HW135606   4.295   4.569   4.899  2.8009 -0.2583 -0.7790
 8049SOL    HW235607   4.221   4.461   4.952 -1.0905 -1.7803 -2.3940
 8050SOL     OW35608   1.561   0.468   4.986 -0.1588 -0.4886 -0.2249
 8050SOL    HW135609   1.493   0.472   5.053  1.5448  1.1229  1.3809
 8050SOL    HW235610   1.564   0.559   4.957 -2.3816 -0.1783  0.5388
 8051SOL     OW35611   3.961   0.440   0.210 -0.0553 -0.2576  0.2839
 8051SOL    HW135612   4.041   0.426   0.160  0.0193 -2.4499  1.0130
 8051SOL    HW235613   3.935   0.348   0.219 -0.5174 -0.0325  1.2178
 8052SOL     OW35614   1.595   1.084   4.794 -0.3946 -1.6704 -0.1651
 8052SOL    HW135615   1.628   1.034   4.869 -0.5668  0.8575  1.5848
 8052SOL    HW235616   1.679   1.108   4.754 -2.0131  2.3487 -1.1709
 8053SOL     OW35617   2.194   1.955  13.231  0.5697  0.0127 -0.0200
 8053SOL    HW135618   2.247   2.001  13.295  0.2938  0.8081 -0.3660
 8053SOL    HW235619   2.203   2.010  13.153 -1.1671 -1.5296 -1.3184
 8054SOL     OW35620   1.877   2.768   4.564  0.3225 -0.4279  0.0306
 8054SOL    HW135621   1.847   2.752   4.653 -0.5542 -0.0251 -0.1939
 8054SOL    HW235622   1.835   2.700   4.511 -0.8137 -1.3109  2.0545
 8055SOL     OW35623   2.669   3.461   6.586  0.0948 -0.3554  0.3377
 8055SOL    HW135624   2.641   3.547   6.619  0.1194 -0.0080 -0.5210
 8055SOL    HW235625   2.724   3.495   6.515  2.4903  1.2056  2.9633
 8056SOL     OW35626   2.878   4.492   4.574 -0.2771 -0.4301  0.3505
 8056SOL    HW135627   2.949   4.553   4.555 -0.0696 -0.6861  0.3250
 8056SOL    HW235628   2.907   4.409   4.538  2.4786  1.6288 -2.1615
 8057SOL     OW35629   3.106   0.277   8.246  0.0283  0.1166 -0.1567
 8057SOL    HW135630   3.190   0.306   8.210 -0.2280  0.2747 -0.6316
 8057SOL    HW235631   3.120   0.276   8.341  0.5688 -2.2361 -0.2520
 8058SOL     OW35632   3.555   2.931   8.147 -0.6730  0.8658  0.5333
 8058SOL    HW135633   3.490   2.876   8.191  1.1783 -1.8004 -0.0185
 8058SOL    HW235634   3.513   2.934   8.062 -2.0781  1.3746  1.2385
 8059SOL     OW35635   0.574   3.839   7.723  0.7490 -0.6178  0.5974
 8059SOL    HW135636   0.597   3.915   7.775  0.9154 -0.4661  0.3056
 8059SOL    HW235637   0.642   3.776   7.748  1.8713  0.8165  1.1825
 8060SOL     OW35638   3.567   3.634   5.720  0.1001  0.5452 -0.3733
 8060SOL    HW135639   3.640   3.593   5.766 -2.0417 -0.2781  2.2722
 8060SOL    HW235640   3.491   3.608   5.772  1.0795  1.1150  1.3428
 8061SOL     OW35641   1.011   3.308   6.313 -0.0976 -0.1184 -0.1435
 8061SOL    HW135642   1.099   3.330   6.284  0.3409  0.2907  1.4832
 8061SOL    HW235643   0.984   3.394   6.345  1.2743  0.1334  0.3463
 8062SOL     OW35644   1.931   3.098   2.475  0.3396 -0.6274 -0.2102
 8062SOL    HW135645   2.001   3.103   2.540 -0.6244 -1.7524  0.9050
 8062SOL    HW235646   1.979   3.134   2.401  2.0154 -1.7009  0.3569
 8063SOL     OW35647   3.450   4.306   7.646 -0.1271  0.0040  0.2175
 8063SOL    HW135648   3.447   4.386   7.698 -1.6458  1.2428 -1.7476
 8063SOL    HW235649   3.424   4.241   7.711  0.1233 -0.2550  0.0547
 8064SOL     OW35650   1.537   0.504   5.702  0.5109  0.0175 -0.4116
 8064SOL    HW135651   1.629   0.524   5.718  0.0171  0.3744  2.0057
 8064SOL    HW235652   1.517   0.567   5.633  0.3036  0.1640 -0.2179
 8065SOL     OW35653   1.766   3.741  10.792  0.1008  0.4868 -0.2198
 8065SOL    HW135654   1.802   3.799  10.859 -1.6223  1.0879  0.1751
 8065SOL    HW235655   1.845   3.690  10.777 -0.7996 -0.7932 -0.6168
 8066SOL     OW35656   3.805   0.127   6.750  0.0636  0.5281 -0.1335
 8066SOL    HW135657   3.736   0.182   6.712  0.8056  0.9299 -0.9065
 8066SOL    HW235658   3.879   0.174   6.711  1.0955 -1.0156 -0.0528
 8067SOL     OW35659   3.639   2.254   7.481 -0.4480  0.4045 -0.3960
 8067SOL    HW135660   3.694   2.176   7.496  1.2309  1.3156 -1.8055
 8067SOL    HW235661   3.638   2.250   7.385  1.0989 -0.4177 -0.3913
 8068SOL     OW35662   1.649   4.623   2.242 -0.0623 -0.0258 -0.6063
 8068SOL    HW135663   1.566   4.600   2.284 -0.0598 -1.3588 -1.3465
 8068SOL    HW235664   1.712   4.590   2.305  1.0201  2.5757 -0.3108
 8069SOL     OW35665   2.508   2.589   0.398 -0.1287  0.0421 -0.1485
 8069SOL    HW135666   2.441   2.610   0.333 -1.2332  1.3660  1.3991
 8069SOL    HW235667   2.576   2.653   0.378  1.3171 -1.6143 -0.5062
 8070SOL     OW35668   0.405   3.799   0.842  1.0042 -0.0047  0.2479
 8070SOL    HW135669   0.329   3.769   0.892  1.7872  0.8554  1.9674
 8070SOL    HW235670   0.436   3.873   0.894  2.9705 -0.0851 -0.7858
 8071SOL     OW35671   2.697   4.372   1.163  0.4436 -0.2425  0.0847
 8071SOL    HW135672   2.706   4.465   1.145 -1.2473  0.0743  0.9648
 8071SOL    HW235673   2.602   4.375   1.163  0.4587  0.0398  3.5008
 8072SOL     OW35674   2.699   1.983   7.025 -0.6023  0.2485 -0.1920
 8072SOL    HW135675   2.773   1.998   6.967 -3.0941  0.7703 -3.2565
 8072SOL    HW235676   2.735   1.920   7.088 -1.4407  0.4498  0.4884
 8073SOL     OW35677   2.056   3.026  13.945 -0.1400 -0.3018 -0.0819
 8073SOL    HW135678   2.060   3.110  13.990 -1.0955  0.7341 -1.9030
 8073SOL    HW235679   1.971   3.042  13.904  0.5332 -0.7818 -1.6745
 8074SOL     OW35680   1.934   0.726   2.386 -0.7011  0.2944 -0.4688
 8074SOL    HW135681   1.870   0.779   2.338  0.4798  0.6930 -1.5917
 8074SOL    HW235682   1.929   0.768   2.472  0.5874 -1.1045  0.2892
 8075SOL     OW35683   1.232   2.618   8.279 -0.0479 -0.0066 -0.3212
 8075SOL    HW135684   1.286   2.658   8.346 -1.1462  1.0429 -0.0696
 8075SOL    HW235685   1.200   2.692   8.227  0.9971  0.5315 -0.1855
 8076SOL     OW35686   2.495   3.912   3.875 -0.2099 -0.0621 -0.0527
 8076SOL    HW135687   2.472   3.863   3.954 -0.5135 -0.2815 -0.2779
 8076SOL    HW235688   2.485   3.851   3.802 -1.1018  0.8870 -0.7346
 8077SOL     OW35689   3.078   4.024  11.330 -0.4233  0.2765  0.7776
 8077SOL    HW135690   3.040   4.099  11.284  0.5653  1.5262  2.0332
 8077SOL    HW235691   3.092   3.965  11.255  0.1560  0.6164  0.6243
 8078SOL     OW35692   0.161   1.400   5.818 -0.4903  0.1361  0.6437
 8078SOL    HW135693   0.132   1.372   5.732  1.7014 -0.8983  0.2307
 8078SOL    HW235694   0.233   1.458   5.794 -0.0942 -1.9221 -3.0615
 8079SOL     OW35695   3.612   3.749   8.641 -0.4882  0.2998 -0.6417
 8079SOL    HW135696   3.676   3.697   8.691 -0.5568  0.4954 -0.3478
 8079SOL    HW235697   3.588   3.696   8.565  0.6574 -1.4005  0.1645
 8080SOL     OW35698   1.779   3.245   2.163 -0.0189  0.2937 -0.0087
 8080SOL    HW135699   1.870   3.249   2.191  0.2045  0.8674 -0.8230
 8080SOL    HW235700   1.784   3.169   2.105  0.4187 -0.3560  0.8898
 8081SOL     OW35701   2.817   0.690   7.686 -1.0136 -0.0113  0.5427
 8081SOL    HW135702   2.856   0.603   7.684 -1.6520 -0.2590 -1.2784
 8081SOL    HW235703   2.779   0.692   7.774 -2.7117  1.4310 -0.2125
 8082SOL     OW35704   4.309   4.018   4.326 -0.0692 -0.1355  0.2708
 8082SOL    HW135705   4.345   4.098   4.363 -2.1496  0.5322  0.8317
 8082SOL    HW235706   4.381   3.954   4.331  0.8984  0.8886 -0.5469
 8083SOL     OW35707   2.809   0.237   0.917  0.4653  1.0354  0.0979
 8083SOL    HW135708   2.823   0.252   1.010  1.7047 -1.5011  0.3347
 8083SOL    HW235709   2.779   0.317   0.875 -0.2769  0.8428  0.2736
 8084SOL     OW35710   0.445   2.578   2.101  0.3303 -0.0198 -0.1930
 8084SOL    HW135711   0.400   2.506   2.146  3.2369 -2.3116 -0.9593
 8084SOL    HW235712   0.375   2.614   2.048 -1.0512  0.4835  1.9961
 8085SOL     OW35713   4.316   0.071  17.669 -0.4648 -0.2695  0.0585
 8085SOL    HW135714   4.368   0.026  17.603  0.9626  0.4961  0.6816
 8085SOL    HW235715   4.229   0.094  17.637 -0.1625  1.6384  0.5861
 8086SOL     OW35716   2.366   3.375   3.076  0.2721  0.0415 -0.8267
 8086SOL    HW135717   2.371   3.437   3.149  0.5799  1.0535 -1.7046
 8086SOL    HW235718   2.361   3.292   3.122 -0.2671  1.6695  2.0487
 8087SOL     OW35719   3.463   3.868   4.778 -0.1974  0.1604 -0.3138
 8087SOL    HW135720   3.368   3.875   4.770 -0.2269  0.5229  0.3291
 8087SOL    HW235721   3.477   3.856   4.872  2.4384 -2.0572 -1.0055
 8088SOL     OW35722   2.961   0.042   5.917  0.2810 -0.6133  0.1916
 8088SOL    HW135723   3.007   0.066   5.837 -0.4945 -0.8245 -0.3180
 8088SOL    HW235724   2.995   0.099   5.986 -1.9776  2.0171 -0.8895
 8089SOL     OW35725   0.081   2.282   3.761  0.5473  0.2009  0.0980
 8089SOL    HW135726   4.718   2.313   3.735  0.6205 -2.0066 -2.8385
 8089SOL    HW235727   0.114   2.355   3.813 -1.5746  2.0947 -1.2001
 8090SOL     OW35728   4.461   1.642   3.891 -0.4274 -0.4210  0.3178
 8090SOL    HW135729   4.489   1.638   3.983 -1.5343  1.7158  0.7445
 8090SOL    HW235730   4.386   1.699   3.908  0.3804  0.6332  0.3833
 8091SOL     OW35731   2.985   0.881   9.595  0.5488  0.2580 -0.5013
 8091SOL    HW135732   3.042   0.906   9.668 -0.7543 -1.7597  1.2089
 8091SOL    HW235733   3.013   0.790   9.590  1.1373  0.3862  0.5146
 8092SOL     OW35734   2.438   2.083  10.748  0.4271  0.6289  0.3486
 8092SOL    HW135735   2.523   2.092  10.790  1.0643  1.3680 -1.0926
 8092SOL    HW235736   2.421   1.989  10.749 -0.0607  0.7106 -0.2058
 8093SOL     OW35737   2.647   4.186   1.887 -0.3437 -0.6894 -0.1192
 8093SOL    HW135738   2.617   4.101   1.855  1.0896 -1.0144 -0.5847
 8093SOL    HW235739   2.644   4.256   1.822  1.3669  0.1877  0.7720
 8094SOL     OW35740   0.534   2.303   4.137  0.2399  0.2602 -0.2712
 8094SOL    HW135741   0.516   2.351   4.218  1.8631  1.0935 -0.4065
 8094SOL    HW235742   0.588   2.230   4.166 -1.8434 -0.9099  0.6830
 8095SOL     OW35743   4.445   2.032   6.272  0.6525 -0.3025 -0.2002
 8095SOL    HW135744   4.406   1.992   6.349 -0.2909  0.1772 -0.4326
 8095SOL    HW235745   4.505   2.099   6.304 -2.6392  0.5928  3.9308
 8096SOL     OW35746   0.873   0.785   4.126  0.1518  0.4544  0.0938
 8096SOL    HW135747   0.930   0.837   4.183  1.3390 -0.5467 -0.1753
 8096SOL    HW235748   0.849   0.848   4.058  0.1742  1.6880  1.2242
 8097SOL     OW35749   2.049   3.287   6.186 -0.4140  0.3480  0.4451
 8097SOL    HW135750   2.085   3.229   6.253  0.6435  2.1693  1.4650
 8097SOL    HW235751   2.016   3.233   6.115  0.4132  0.1566  0.2047
 8098SOL     OW35752   4.073   0.302   5.619  0.2594 -0.2008  1.0299
 8098SOL    HW135753   4.167   0.312   5.628  0.3546 -0.8822  0.7878
 8098SOL    HW235754   4.055   0.210   5.641 -0.4580 -1.4721 -4.7726
 8099SOL     OW35755   1.392   3.132   2.039 -0.1500 -0.6196  0.0583
 8099SOL    HW135756   1.322   3.173   2.091  2.6639  1.5789  2.0799
 8099SOL    HW235757   1.428   3.066   2.098  2.0060  0.4879 -0.0383
 8100SOL     OW35758   2.604   3.276   8.112 -0.4765  0.1105 -0.0211
 8100SOL    HW135759   2.576   3.367   8.111  0.6806  0.4594 -0.8319
 8100SOL    HW235760   2.525   3.238   8.149 -1.0361  1.0072 -0.2937
 8101SOL     OW35761   2.884   3.756   5.892 -0.2275  0.1271  0.4617
 8101SOL    HW135762   2.941   3.707   5.952 -1.1622 -1.6436 -0.1041
 8101SOL    HW235763   2.938   3.829   5.862  0.4216 -0.7861 -0.6067
 8102SOL     OW35764   3.717   1.934  12.287 -0.0032  0.2487 -0.2218
 8102SOL    HW135765   3.678   1.846  12.288  1.6465 -0.4723  3.0153
 8102SOL    HW235766   3.683   1.955  12.201 -0.9868  1.1177  0.3796
 8103SOL     OW35767   1.452   1.112   3.690  0.4598  0.1825 -0.0929
 8103SOL    HW135768   1.429   1.142   3.602 -0.2831  1.0284  0.3790
 8103SOL    HW235769   1.502   1.032   3.677 -0.1835 -0.4708  1.4267
 8104SOL     OW35770   2.685   0.738   3.593 -0.0894 -0.3427  0.6645
 8104SOL    HW135771   2.769   0.694   3.583 -1.6738 -3.1096 -0.4843
 8104SOL    HW235772   2.704   0.803   3.661  0.5255 -2.7254  2.7659
 8105SOL     OW35773   4.171   3.924  13.856 -0.3829 -0.1826 -0.5233
 8105SOL    HW135774   4.239   3.869  13.816 -1.4675 -0.0133 -2.6183
 8105SOL    HW235775   4.096   3.866  13.864  0.1379 -1.1196 -2.2135
 8106SOL     OW35776   2.059   2.078   5.596  0.1183 -0.6881  0.2341
 8106SOL    HW135777   2.109   2.142   5.545 -2.0149  0.1665 -0.7839
 8106SOL    HW235778   1.968   2.101   5.577  0.0179 -1.8579 -0.6678
 8107SOL     OW35779   2.936   4.571   4.970  0.6604  0.6663  0.3688
 8107SOL    HW135780   2.952   4.631   5.043 -1.1375 -0.3741  1.6430
 8107SOL    HW235781   2.995   4.498   4.985 -2.4743 -2.1533 -0.9444
 8108SOL     OW35782   4.090   4.556   6.124 -0.3472 -0.4264  0.3981
 8108SOL    HW135783   4.110   4.559   6.217  1.2439  2.3804 -0.0586
 8108SOL    HW235784   4.061   4.644   6.099  2.3508  0.4969  0.5255
 8109SOL     OW35785   2.169   3.878   3.410  0.1572  0.0059 -0.4591
 8109SOL    HW135786   2.247   3.923   3.444 -0.2732  1.8782 -1.9660
 8109SOL    HW235787   2.150   3.819   3.483 -1.5870 -0.3813 -1.2363
 8110SOL     OW35788   0.865   1.687  12.052 -0.4643  0.8847 -0.1941
 8110SOL    HW135789   0.960   1.694  12.058 -0.3480 -0.0727 -0.9550
 8110SOL    HW235790   0.841   1.735  12.132  0.9277  0.6310  0.3636
 8111SOL     OW35791   4.471   0.320   6.016 -0.5553 -0.0505 -0.2208
 8111SOL    HW135792   4.459   0.398   5.963  0.0126  0.7564  0.8495
 8111SOL    HW235793   4.499   0.262   5.945  0.1641 -0.9189  0.7708
 8112SOL     OW35794   1.688   3.006  10.883  0.0781  0.5549  0.7459
 8112SOL    HW135795   1.686   3.099  10.906  1.2615  0.2706  1.9495
 8112SOL    HW235796   1.659   2.972  10.967  1.1414  0.9653  1.2759
 8113SOL     OW35797   3.844   1.149   4.727  0.5152  0.2591 -0.1095
 8113SOL    HW135798   3.908   1.081   4.748 -0.6528 -1.2988 -1.6565
 8113SOL    HW235799   3.886   1.217   4.674  0.1182 -1.5534 -2.7529
 8114SOL     OW35800   4.296   1.974   2.804  0.2303 -0.1195  0.5114
 8114SOL    HW135801   4.335   1.896   2.764 -0.9717 -0.8984  0.8408
 8114SOL    HW235802   4.285   2.038   2.734 -1.5423  1.1710  1.9796
 8115SOL     OW35803   3.144   4.597   3.893  0.6417  0.3450 -0.0403
 8115SOL    HW135804   3.136   4.669   3.829 -0.9716  1.2454  1.1610
 8115SOL    HW235805   3.220   4.625   3.944  1.3531 -1.5330 -0.0683
 8116SOL     OW35806   4.150   0.640   1.191  0.6013 -0.1707  0.1349
 8116SOL    HW135807   4.160   0.546   1.204  2.6932  0.0179 -0.1018
 8116SOL    HW235808   4.148   0.679   1.278  1.6120 -2.4950  1.2116
 8117SOL     OW35809   3.547   1.108   8.039 -0.3664  0.6023 -0.1136
 8117SOL    HW135810   3.628   1.059   8.052 -0.7340  0.0260 -0.0029
 8117SOL    HW235811   3.535   1.108   7.944  1.0723  1.8254 -0.2852
 8118SOL     OW35812   1.505   4.163   5.481 -0.0955 -0.5318 -0.3531
 8118SOL    HW135813   1.484   4.088   5.536 -0.7113 -0.1837 -0.1114
 8118SOL    HW235814   1.454   4.237   5.514 -1.2138 -0.7131 -1.6708
 8119SOL     OW35815   1.646   0.297  10.626 -0.2758  0.8315 -0.1506
 8119SOL    HW135816   1.668   0.341  10.544 -0.7157  0.0505 -0.6830
 8119SOL    HW235817   1.550   0.289  10.631 -0.3409  1.0082 -1.1104
 8120SOL     OW35818   0.929   3.302   9.507  0.1069  0.4044  0.1404
 8120SOL    HW135819   0.967   3.389   9.499  1.2627 -0.0683  0.5317
 8120SOL    HW235820   0.850   3.302   9.453 -1.0170  0.4798  1.7902
 8121SOL     OW35821   0.420   1.836  14.459 -0.0335 -0.5709 -0.1163
 8121SOL    HW135822   0.373   1.826  14.542 -0.0018  0.2881 -0.0034
 8121SOL    HW235823   0.364   1.822  14.383  0.3668  0.0771 -0.5276
 8122SOL     OW35824   3.421   0.248   7.735  0.2189 -0.0928  0.0888
 8122SOL    HW135825   3.427   0.171   7.791 -2.0734  0.4631  1.0969
 8122SOL    HW235826   3.427   0.323   7.795  2.4864  0.1202 -0.4058
 8123SOL     OW35827   2.307   2.753   4.161  1.0911  0.0861 -0.0518
 8123SOL    HW135828   2.374   2.804   4.208 -0.1731  0.6586  1.1304
 8123SOL    HW235829   2.303   2.683   4.227 -1.8111 -0.4800 -0.8428
 8124SOL     OW35830   2.565   4.692   2.153  0.1511  0.0924 -0.6195
 8124SOL    HW135831   2.595   0.054   2.180 -2.1863  1.1164 -1.3863
 8124SOL    HW235832   2.473   4.705   2.132 -0.1525  0.8360  1.2153
 8125SOL     OW35833   3.282   2.382   3.922  0.4505 -0.0235  0.8147
 8125SOL    HW135834   3.358   2.405   3.868  0.7511  0.3281  1.3843
 8125SOL    HW235835   3.243   2.310   3.872  4.2656 -0.7124 -1.2315
 8126SOL     OW35836   0.317   0.978   7.680  0.2779  0.0039 -0.0469
 8126SOL    HW135837   0.243   1.024   7.722 -0.5822 -1.6292  0.2431
 8126SOL    HW235838   0.316   0.904   7.741 -0.0673  1.2369  1.4379
 8127SOL     OW35839   1.897   3.698   2.866 -0.3148  0.6204 -0.1943
 8127SOL    HW135840   1.961   3.628   2.874  0.2052  0.9296 -1.6190
 8127SOL    HW235841   1.855   3.684   2.781  0.6098 -1.2075 -0.3400
 8128SOL     OW35842   1.858   3.936   0.799  0.3886 -0.4196  0.1479
 8128SOL    HW135843   1.849   3.851   0.842 -0.1047  0.4229  1.7287
 8128SOL    HW235844   1.945   3.963   0.830 -0.4492  2.4529  0.0616
 8129SOL     OW35845   1.606   1.359   3.667  0.2108  0.6087 -0.1608
 8129SOL    HW135846   1.617   1.274   3.709 -2.5487  0.7304  0.7915
 8129SOL    HW235847   1.534   1.353   3.605 -1.7141  0.2416  2.1174
 8130SOL     OW35848   1.891   3.916  11.682 -0.3138  0.4261 -0.1557
 8130SOL    HW135849   1.796   3.931  11.679 -0.3709  0.3838  1.3844
 8130SOL    HW235850   1.907   3.821  11.684 -0.8662  0.2975 -1.8469
 8131SOL     OW35851   1.908   4.572   4.200  0.1313  0.3067 -0.0323
 8131SOL    HW135852   1.887   4.489   4.242 -2.1715  1.2519  0.6132
 8131SOL    HW235853   1.954   4.526   4.129  0.1562 -0.2781  0.3675
 8132SOL     OW35854   1.368   2.837   5.057 -0.2850  0.5975 -0.7922
 8132SOL    HW135855   1.429   2.907   5.078 -0.1335 -0.2172  1.4758
 8132SOL    HW235856   1.397   2.819   4.968 -0.2378  0.1930 -0.6975
 8133SOL     OW35857   0.855   2.679   2.637 -0.2063  0.8377  0.1153
 8133SOL    HW135858   0.790   2.690   2.568 -0.4781  0.2030  0.2715
 8133SOL    HW235859   0.936   2.703   2.592  0.5877 -0.4803  0.8307
 8134SOL     OW35860   2.234   3.254   8.416  0.7628  0.2395 -0.2020
 8134SOL    HW135861   2.144   3.248   8.383  0.5433 -0.8203  0.5768
 8134SOL    HW235862   2.217   3.292   8.502  0.4317 -0.9245  0.2421
 8135SOL     OW35863   3.495   2.601   2.392  0.3783 -0.2075  0.3602
 8135SOL    HW135864   3.543   2.656   2.454 -1.1540  0.9715  0.4973
 8135SOL    HW235865   3.418   2.588   2.446  0.5369  1.9106  1.1202
 8136SOL     OW35866   0.795   1.028  13.869  0.0422  0.0983 -0.6402
 8136SOL    HW135867   0.736   0.968  13.914 -0.7813 -0.1467 -2.0434
 8136SOL    HW235868   0.800   1.106  13.925  0.7187 -0.0838 -0.4408
 8137SOL     OW35869   1.195   2.269   2.720 -0.3412 -0.1615  0.0194
 8137SOL    HW135870   1.213   2.200   2.655 -0.9718  0.0091 -0.3412
 8137SOL    HW235871   1.109   2.294   2.685  0.1554  1.8687  0.3043
 8138SOL     OW35872   3.167   4.611   2.435 -0.1508  0.5691  0.2902
 8138SOL    HW135873   3.192   4.592   2.345  1.2423  2.2656  0.3330
 8138SOL    HW235874   3.178   4.525   2.477  0.6177  0.8393  0.6436
 8139SOL     OW35875   1.300   3.029  12.535  0.2529 -0.1609  0.1936
 8139SOL    HW135876   1.343   3.113  12.549 -2.3698  0.7924  2.6950
 8139SOL    HW235877   1.349   2.989  12.463  2.8173  1.8234  0.8564
 8140SOL     OW35878   1.504   3.641   3.249  0.7764 -0.2803  0.4885
 8140SOL    HW135879   1.493   3.631   3.344 -2.8320  1.0729  0.1914
 8140SOL    HW235880   1.589   3.685   3.250  0.8623 -0.4542  1.1849
 8141SOL     OW35881   4.339   0.615  12.197 -0.1306 -0.2512  0.3349
 8141SOL    HW135882   4.295   0.697  12.218  0.1874  0.2072 -0.7810
 8141SOL    HW235883   4.287   0.597  12.119 -0.2137  0.9125  0.1154
 8142SOL     OW35884   3.257   4.431   3.678  0.0107  0.1762  0.0105
 8142SOL    HW135885   3.343   4.403   3.708 -0.4450 -0.9000  0.3297
 8142SOL    HW235886   3.257   4.514   3.726  1.0825 -0.7840  1.6543
 8143SOL     OW35887   0.762   2.586   7.892 -0.2804  0.0975  0.4377
 8143SOL    HW135888   0.793   2.615   7.978  1.7374  1.3242 -0.6938
 8143SOL    HW235889   0.765   2.491   7.900 -1.1733  0.0608  0.3073
 8144SOL     OW35890   3.160   0.716   2.097 -0.1852 -0.3411  0.1395
 8144SOL    HW135891   3.238   0.771   2.101  0.4797 -1.3960  2.0414
 8144SOL    HW235892   3.204   0.641   2.138  2.3776  1.1940  0.1923
 8145SOL     OW35893   0.373   2.420   8.299  0.3841 -0.1019  0.5653
 8145SOL    HW135894   0.349   2.512   8.311  0.6928  0.2365 -1.3629
 8145SOL    HW235895   0.442   2.431   8.233 -1.3298 -1.1394 -1.4036
 8146SOL     OW35896   0.248   1.434  13.832 -0.0306  0.2146 -0.3923
 8146SOL    HW135897   0.297   1.516  13.825 -0.5824  0.5156 -0.7366
 8146SOL    HW235898   0.308   1.371  13.871  1.0781  1.0268 -0.7754
 8147SOL     OW35899   3.194   0.682   2.687 -0.1963  0.4426 -0.1280
 8147SOL    HW135900   3.199   0.772   2.654  4.8181  1.3215  2.9570
 8147SOL    HW235901   3.220   0.707   2.776  0.9987  0.1689 -0.3940
 8148SOL     OW35902   3.488   2.937   1.250  0.3270  0.0477 -0.3833
 8148SOL    HW135903   3.451   2.961   1.165 -3.9141 -1.1437  1.1294
 8148SOL    HW235904   3.565   2.992   1.260 -0.1174  0.4828  0.6010
 8149SOL     OW35905   0.427   3.054   2.554  0.8579  0.2104  0.7372
 8149SOL    HW135906   0.395   3.000   2.627 -0.1449  1.6137  1.3345
 8149SOL    HW235907   0.498   3.097   2.601  0.6644  0.4739  0.7898
 8150SOL     OW35908   0.079   4.658   4.363  0.5052  0.3481  0.0884
 8150SOL    HW135909   0.153   4.685   4.308 -0.2003  1.4660 -0.3149
 8150SOL    HW235910   0.122   4.599   4.424  1.6497  1.6695  0.5695
 8151SOL     OW35911   0.282   1.557   4.828  0.0886 -0.2259 -0.6163
 8151SOL    HW135912   0.213   1.621   4.844  2.0716  1.7334  0.1436
 8151SOL    HW235913   0.234   1.500   4.768  0.2898 -1.8856  0.7818
 8152SOL     OW35914   2.359   3.841   8.939  0.0128 -0.2899 -0.2384
 8152SOL    HW135915   2.423   3.897   8.984  0.9305 -1.2472 -0.3524
 8152SOL    HW235916   2.317   3.812   9.021  0.7113 -1.4228 -0.2779
 8153SOL     OW35917   0.305   4.303   5.244  0.1418  0.3544 -0.1321
 8153SOL    HW135918   0.293   4.398   5.242  0.6089  0.4343  1.6575
 8153SOL    HW235919   0.225   4.279   5.197  0.0716  0.1131  0.1139
 8154SOL     OW35920   1.332   3.779   6.559 -0.2679 -0.2714  0.0725
 8154SOL    HW135921   1.288   3.695   6.573  1.2791 -0.2450  4.9030
 8154SOL    HW235922   1.364   3.763   6.470 -0.9424  2.2780 -0.6017
 8155SOL     OW35923   1.455   2.312   2.915 -0.3089  0.6568  0.3765
 8155SOL    HW135924   1.423   2.386   2.863 -0.3222  0.0588 -0.4724
 8155SOL    HW235925   1.489   2.251   2.849 -2.2112  0.2461 -0.2419
 8156SOL     OW35926   4.406   1.858  11.431  0.3718  0.0034  0.3542
 8156SOL    HW135927   4.325   1.874  11.480  1.0861  3.0908  0.5684
 8156SOL    HW235928   4.457   1.823  11.503 -1.2370 -0.7386  1.1330
 8157SOL     OW35929   2.789   0.151   4.263 -0.1734  0.0512  0.2343
 8157SOL    HW135930   2.799   0.144   4.358 -0.4343  0.9781  0.3334
 8157SOL    HW235931   2.764   0.061   4.240 -0.9761  0.5080 -0.6743
 8158SOL     OW35932   0.008   4.333   5.661  0.2799 -0.1235  0.1251
 8158SOL    HW135933   0.010   4.325   5.757 -1.2244 -1.2775  0.0538
 8158SOL    HW235934   4.713   4.244   5.634 -1.1088 -0.1422  1.1547
 8159SOL     OW35935   0.223   4.213   4.147 -0.5946 -0.7064 -0.4803
 8159SOL    HW135936   0.274   4.139   4.114  1.2294 -0.1046  0.9619
 8159SOL    HW235937   0.282   4.288   4.155 -1.8332  0.2921 -0.7810
 8160SOL     OW35938   0.239   0.637   1.374  0.1953  0.2976 -0.7986
 8160SOL    HW135939   0.326   0.601   1.360  0.3543 -0.1512  1.2434
 8160SOL    HW235940   0.184   0.580   1.428 -3.7699  3.8746 -1.0323
 8161SOL     OW35941   1.872   1.257  13.836 -0.0303 -0.3089  0.0065
 8161SOL    HW135942   1.891   1.292  13.923 -0.3430  0.9030 -0.4090
 8161SOL    HW235943   1.954   1.209  13.830  0.2228  0.1547 -0.2766
 8162SOL     OW35944   3.186   0.456  16.886  0.3847 -0.0792  0.1085
 8162SOL    HW135945   3.107   0.418  16.922 -0.1396  1.3698  0.4758
 8162SOL    HW235946   3.189   0.421  16.796 -0.3992  1.0548 -0.3617
 8163SOL     OW35947   3.269   4.511   4.866 -0.1367  0.4453  0.0671
 8163SOL    HW135948   3.224   4.453   4.927 -2.5816 -0.3754 -2.4951
 8163SOL    HW235949   3.341   4.461   4.828 -0.3622 -0.8042  1.3102
 8164SOL     OW35950   4.622   1.380  17.453 -0.0609 -0.0348  0.1340
 8164SOL    HW135951   4.709   1.354  17.482  0.9337  2.2210 -0.8501
 8164SOL    HW235952   4.628   1.472  17.478  0.9954 -0.6641  2.1384
 8165SOL     OW35953   1.774   2.317   5.713  0.2223  0.0874  0.7244
 8165SOL    HW135954   1.794   2.261   5.638 -0.1415  0.2572  0.5018
 8165SOL    HW235955   1.700   2.366   5.678  0.3186  1.3840  2.3296
 8166SOL     OW35956   3.131   4.368   5.048 -0.4157  0.1588  0.3617
 8166SOL    HW135957   3.097   4.387   5.135 -2.3186 -1.0694 -0.1033
 8166SOL    HW235958   3.160   4.279   5.068 -2.8811 -1.1619 -1.9766
 8167SOL     OW35959   3.049   3.005  13.758  0.0583  0.3010  0.2551
 8167SOL    HW135960   3.029   2.913  13.778  0.8906 -0.0528 -0.5418
 8167SOL    HW235961   2.963   3.048  13.760  0.4871  1.1290  0.8207
 8168SOL     OW35962   1.680   1.611   2.734  0.1112 -0.1583  0.3983
 8168SOL    HW135963   1.735   1.537   2.759 -0.6847 -0.3416  1.6358
 8168SOL    HW235964   1.704   1.624   2.643  0.0438 -0.5024  0.3287
 8169SOL     OW35965   2.769   0.926   2.055  0.2950  0.1362  0.3228
 8169SOL    HW135966   2.703   0.968   2.001  0.0571 -0.6390  0.0228
 8169SOL    HW235967   2.752   0.972   2.138 -1.9380  0.7275 -0.4829
 8170SOL     OW35968   0.007   3.253   0.099 -0.3985  0.2452  0.3139
 8170SOL    HW135969   0.036   3.162   0.096 -0.8159  0.0976  0.6628
 8170SOL    HW235970   0.086   3.306   0.096 -0.4499  0.3582  0.9103
 8171SOL     OW35971   0.262   2.872   7.536  0.4107 -0.5916 -0.7244
 8171SOL    HW135972   0.289   2.818   7.610 -0.2479  1.2959  0.9090
 8171SOL    HW235973   0.257   2.798   7.475  0.0364 -0.8758 -0.3491
 8172SOL     OW35974   3.883   2.246   2.426 -0.0810  0.1837 -0.0100
 8172SOL    HW135975   3.859   2.307   2.496  1.1363 -0.7083  1.1784
 8172SOL    HW235976   3.882   2.168   2.483  0.1226 -0.8869 -1.4900
 8173SOL     OW35977   1.103   0.589  16.658 -0.2785 -0.0086  0.4191
 8173SOL    HW135978   1.088   0.629  16.573 -0.3043 -1.9936 -0.4874
 8173SOL    HW235979   1.041   0.636  16.714 -1.6211 -0.5297 -0.6611
 8174SOL     OW35980   1.767   4.399   8.813  0.0301  0.1933  0.0692
 8174SOL    HW135981   1.782   4.429   8.903 -1.7120  0.3340  0.3030
 8174SOL    HW235982   1.746   4.308   8.833  1.7940 -0.1991  0.1644
 8175SOL     OW35983   0.481   3.255   6.615  0.5056 -0.2909 -0.0768
 8175SOL    HW135984   0.500   3.162   6.627 -0.4012 -0.5935 -1.0024
 8175SOL    HW235985   0.561   3.288   6.574  0.7502 -0.0665  0.5756
 8176SOL     OW35986   3.375   4.272  14.157  0.3463  0.1195  0.2420
 8176SOL    HW135987   3.399   4.249  14.067 -1.5703 -0.6618 -0.0730
 8176SOL    HW235988   3.365   4.367  14.155 -0.1619  0.0993  1.6492
 8177SOL     OW35989   1.672   2.652   8.475  0.1405  0.2675 -0.7273
 8177SOL    HW135990   1.726   2.722   8.511  1.5029 -1.5004  0.6615
 8177SOL    HW235991   1.722   2.576   8.504 -1.1498 -0.9321 -1.6264
 8178SOL     OW35992   2.710   2.870   6.161  0.3728  0.6637 -0.3641
 8178SOL    HW135993   2.753   2.814   6.226  0.6466  1.4914  0.1624
 8178SOL    HW235994   2.782   2.922   6.125  0.8594  0.1168 -0.1804
 8179SOL     OW35995   3.112   3.920   2.913 -0.2835 -0.4630 -0.4233
 8179SOL    HW135996   3.119   4.001   2.863  0.3268 -0.0316  0.3700
 8179SOL    HW235997   3.182   3.936   2.977 -0.8993 -1.4969  0.5136
 8180SOL     OW35998   3.466   1.045   3.055 -0.7642 -0.1126  0.1815
 8180SOL    HW135999   3.415   1.126   3.066 -0.3681 -0.0044  1.2114
 8180SOL    HW236000   3.449   1.012   3.143  1.0125  2.7495  1.6204
 8181SOL     OW36001   4.592   1.348   2.631  0.2183 -0.3975  0.0982
 8181SOL    HW136002   4.685   1.338   2.610  0.4962  2.6140 -0.1223
 8181SOL    HW236003   4.597   1.359   2.726  0.8208 -0.0586  0.0300
 8182SOL     OW36004   1.247   2.525   7.129 -1.0431 -0.5704 -0.1106
 8182SOL    HW136005   1.168   2.537   7.077 -1.8226 -2.3360  0.6793
 8182SOL    HW236006   1.260   2.430   7.136 -3.2511 -0.8404  0.2557
 8183SOL     OW36007   3.064   2.642  12.983  0.3167 -0.0245 -0.5155
 8183SOL    HW136008   3.093   2.648  13.074  1.9241  0.6633 -1.0739
 8183SOL    HW236009   2.971   2.643  13.004  0.7254 -2.0767  1.3629
 8184SOL     OW36010   2.529   1.753   7.410 -0.4786  0.2347  0.2401
 8184SOL    HW136011   2.496   1.701   7.337  0.4664  2.4411 -1.7860
 8184SOL    HW236012   2.619   1.749   7.377 -1.1189  0.0039 -1.4552
 8185SOL     OW36013   2.140   2.521   6.401  0.4794  0.2237  0.1930
 8185SOL    HW136014   2.062   2.537   6.455  0.9766 -3.0709  1.8615
 8185SOL    HW236015   2.149   2.426   6.406  1.1132  0.3092  0.7436
 8186SOL     OW36016   3.997   3.320  16.081  0.2066  0.0022 -0.3021
 8186SOL    HW136017   3.944   3.241  16.085  2.6725 -1.6010  1.4288
 8186SOL    HW236018   4.011   3.339  16.174 -1.4116 -0.7906  0.0943
 8187SOL     OW36019   2.711   0.521   0.762 -0.3398 -0.0328 -0.3204
 8187SOL    HW136020   2.633   0.508   0.816 -1.2315  1.5234 -1.2287
 8187SOL    HW236021   2.679   0.554   0.678  0.1518  1.0099 -0.1002
 8188SOL     OW36022   3.126   4.228  15.836  0.2485  0.1612  0.2273
 8188SOL    HW136023   3.172   4.144  15.833 -0.0748  0.0054 -0.5360
 8188SOL    HW236024   3.108   4.247  15.928  0.4671  3.5961 -0.4489
 8189SOL     OW36025   3.055   2.326   7.154  0.5577 -0.0254  0.4176
 8189SOL    HW136026   3.069   2.409   7.200  1.6557 -1.1529  2.1289
 8189SOL    HW236027   3.027   2.279   7.233 -0.4962 -1.2019 -0.6447
 8190SOL     OW36028   1.779   2.179   6.311  0.4463 -0.5916  0.1484
 8190SOL    HW136029   1.874   2.181   6.320  0.2959  1.6616  1.2467
 8190SOL    HW236030   1.761   2.273   6.322  3.0936  0.2646 -2.8287
 8191SOL     OW36031   1.297   0.102   2.939 -0.2743 -0.3252 -0.6440
 8191SOL    HW136032   1.270   0.118   3.030 -1.2212 -0.1006 -0.9608
 8191SOL    HW236033   1.211   0.073   2.908 -1.2165 -0.6908  2.2617
 8192SOL     OW36034   2.209   2.153   2.139  0.6621  0.2217  0.2393
 8192SOL    HW136035   2.119   2.122   2.135  1.7238 -2.9130  0.4830
 8192SOL    HW236036   2.206   2.212   2.063  0.8379 -0.0722  0.0028
 8193SOL     OW36037   2.829   3.482   9.145 -0.3291  0.0294 -0.1127
 8193SOL    HW136038   2.769   3.511   9.213  2.6857  0.2879  2.4317
 8193SOL    HW236039   2.850   3.572   9.123 -0.3374 -0.1478 -0.8434
 8194SOL     OW36040   0.607   4.531  15.169 -0.5187  0.2297  0.1680
 8194SOL    HW136041   0.662   4.598  15.128 -0.4203  0.7290  1.1083
 8194SOL    HW236042   0.543   4.519  15.100  0.0440 -3.0096  0.1987
 8195SOL     OW36043   0.916   1.354   9.098  0.4869  0.2490 -0.3603
 8195SOL    HW136044   0.864   1.369   9.020 -0.1929 -2.4455 -0.4254
 8195SOL    HW236045   1.007   1.364   9.068  0.3933 -1.6161 -1.2431
 8196SOL     OW36046   0.574   4.072   3.393 -0.4366  0.1122  0.2684
 8196SOL    HW136047   0.615   4.153   3.425  0.2338 -0.1171 -0.0283
 8196SOL    HW236048   0.580   4.100   3.302  1.0668  0.6354  0.5262
 8197SOL     OW36049   2.459   1.085  10.546  0.0265  0.0492 -0.2052
 8197SOL    HW136050   2.388   1.067  10.484  0.2515 -1.1268 -0.1172
 8197SOL    HW236051   2.431   1.176  10.553 -3.7885 -1.2999  2.1813
 8198SOL     OW36052   1.113   0.728   3.069 -0.0665 -0.3924 -0.4080
 8198SOL    HW136053   1.072   0.668   3.006  1.6923 -1.4407 -0.5387
 8198SOL    HW236054   1.051   0.720   3.142  0.8465  2.1180  0.6677
 8199SOL     OW36055   4.591   4.019   3.937 -0.3763 -0.3240  0.4032
 8199SOL    HW136056   4.573   3.939   3.887 -0.9334 -0.6737  1.1695
 8199SOL    HW236057   4.509   4.026   3.985 -0.0469  2.1740  0.5903
 8200SOL     OW36058   0.826   3.337   3.173 -0.6733 -0.2630  0.3662
 8200SOL    HW136059   0.916   3.368   3.167 -1.1896  1.2614  0.3900
 8200SOL    HW236060   0.816   3.304   3.262 -2.1434  0.0797  0.3314
 8201SOL     OW36061   3.392   1.426   4.705 -0.8989 -0.3194 -0.0913
 8201SOL    HW136062   3.475   1.380   4.713 -1.6302 -1.5400  0.5058
 8201SOL    HW236063   3.430   1.514   4.710 -2.1348  0.3788 -2.6678
 8202SOL     OW36064   2.531   3.855   1.393 -0.0256  0.2304 -0.2614
 8202SOL    HW136065   2.562   3.941   1.422  1.1821 -0.5017  0.6279
 8202SOL    HW236066   2.571   3.859   1.307  0.8334  0.3391  0.1409
 8203SOL     OW36067   0.309   1.400  17.317 -0.0034 -0.4189 -0.5132
 8203SOL    HW136068   0.251   1.332  17.351 -0.8975  1.4207  1.5800
 8203SOL    HW236069   0.262   1.445  17.247 -1.9226 -0.3746  0.8188
 8204SOL     OW36070   4.149   2.888   3.766 -0.5636 -0.5627 -0.3136
 8204SOL    HW136071   4.100   2.808   3.749 -0.2929 -0.8046  0.0571
 8204SOL    HW236072   4.204   2.878   3.688 -0.0070  0.3733 -0.0364
 8205SOL     OW36073   0.869   4.284  13.222 -0.2165 -0.1100 -0.7900
 8205SOL    HW136074   0.886   4.198  13.261  2.1902  0.4429 -0.6207
 8205SOL    HW236075   0.953   4.320  13.250 -1.0779  1.1569  0.2191
 8206SOL     OW36076   2.885   3.518  17.252 -0.2848  0.1780  0.0410
 8206SOL    HW136077   2.799   3.478  17.234 -0.5397  0.2237  1.1680
 8206SOL    HW236078   2.858   3.579  17.320  0.8129  1.4181 -0.6453
 8207SOL     OW36079   1.147   3.578   6.194 -0.5122 -0.5666  0.1077
 8207SOL    HW136080   1.069   3.602   6.244  0.3037  2.8847 -0.2742
 8207SOL    HW236081   1.110   3.581   6.106 -2.0952  0.3116  0.7889
 8208SOL     OW36082   3.632   0.623  17.692  0.2836 -0.4951  0.2156
 8208SOL    HW136083   3.713   0.670  17.672  0.8981 -0.3032  3.2373
 8208SOL    HW236084   3.661   0.575   0.070  0.8440  0.2090  0.4396
 8209SOL     OW36085   3.610   1.190   1.827 -0.4688 -0.3798  0.8550
 8209SOL    HW136086   3.544   1.165   1.762 -0.1565  0.7274  0.1271
 8209SOL    HW236087   3.625   1.278   1.795  1.2428 -1.0905 -0.3062
 8210SOL     OW36088   1.399   3.389   5.744 -0.2428  0.0776  0.3609
 8210SOL    HW136089   1.422   3.448   5.672  3.0748 -0.5780  0.8590
 8210SOL    HW236090   1.439   3.418   5.826  0.2385  0.7827 -0.1267
 8211SOL     OW36091   2.970   4.410  16.971 -0.3585 -0.3142 -0.3759
 8211SOL    HW136092   2.958   4.447  16.883 -0.8689  1.4222  0.4057
 8211SOL    HW236093   3.043   4.466  16.999 -0.8542  1.0722 -1.8670
 8212SOL     OW36094   1.347   0.345   1.566  0.2673  0.2483 -0.6516
 8212SOL    HW136095   1.318   0.257   1.586 -0.2378  0.9831  1.8425
 8212SOL    HW236096   1.283   0.381   1.505 -0.9885  0.4173  0.7564
 8213SOL     OW36097   3.251   2.057   1.726  0.3683 -0.4516  0.8089
 8213SOL    HW136098   3.211   2.141   1.703  0.8259 -0.9628 -1.8478
 8213SOL    HW236099   3.177   1.997   1.714 -0.0278  0.0211  0.8645
 8214SOL     OW36100   2.366   0.251   4.222 -0.1351  0.8007  0.4262
 8214SOL    HW136101   2.289   0.268   4.169 -0.6294  0.6908  1.1140
 8214SOL    HW236102   2.396   0.175   4.172  0.9663  0.6370  1.3417
 8215SOL     OW36103   1.641   4.022   2.077  0.1866  0.6100 -0.4363
 8215SOL    HW136104   1.637   4.084   2.004  0.5351  0.2827 -0.7287
 8215SOL    HW236105   1.718   3.965   2.069  0.1401  0.4729  0.0709
 8216SOL     OW36106   2.071   1.737   2.074 -0.5036 -0.0227 -0.2607
 8216SOL    HW136107   2.001   1.737   2.009  0.4427  0.5746 -1.2795
 8216SOL    HW236108   2.027   1.725   2.158  0.3232 -0.9741  0.0352
 8217SOL     OW36109   1.521   1.620   6.166  0.2656 -0.6139 -0.1994
 8217SOL    HW136110   1.505   1.680   6.238  1.4226  0.8428 -1.1581
 8217SOL    HW236111   1.615   1.606   6.164  0.4697  1.0273 -3.3892
 8218SOL     OW36112   3.274   3.906   1.874  0.2554  0.2404  0.4922
 8218SOL    HW136113   3.253   3.993   1.908  1.7239  0.8747 -0.1998
 8218SOL    HW236114   3.190   3.864   1.888  0.3325 -0.2913 -0.6850
 8219SOL     OW36115   4.609   4.400   0.337 -0.0358  0.0728  0.3026
 8219SOL    HW136116   4.596   4.366   0.425  2.3492 -1.9250 -0.1143
 8219SOL    HW236117   4.595   4.324   0.280  4.3860 -0.4444 -0.1064
 8220SOL     OW36118   2.482   2.898  15.864  0.1482  0.2130  0.4696
 8220SOL    HW136119   2.548   2.899  15.933  0.0728  1.1779  0.5360
 8220SOL    HW236120   2.412   2.955  15.897 -0.7525 -2.1401  2.5939
 8221SOL     OW36121   1.541   4.406   2.578  0.0644 -0.0894 -0.1689
 8221SOL    HW136122   1.522   4.454   2.497  1.9128 -1.8440 -1.6399
 8221SOL    HW236123   1.608   4.344   2.551 -1.0633 -1.5765  0.4908
 8222SOL     OW36124   1.718   0.536   0.811  0.2478  0.1336  0.3737
 8222SOL    HW136125   1.730   0.607   0.874  0.1581 -0.9115  1.5625
 8222SOL    HW236126   1.794   0.548   0.755  0.7699 -2.5352  0.5050
 8223SOL     OW36127   4.583   2.325  15.329  0.2765  0.2866 -0.4474
 8223SOL    HW136128   4.547   2.380  15.261  1.9959 -0.8537 -2.2715
 8223SOL    HW236129   4.561   2.237  15.298 -1.6440  1.0069 -1.1025
 8224SOL     OW36130   2.085   2.470   2.981  0.1126  0.5538  0.3702
 8224SOL    HW136131   2.125   2.494   3.065  0.1083 -1.8361  1.0463
 8224SOL    HW236132   2.165   2.457   2.930  0.3802  0.7696  0.7272
 8225SOL     OW36133   4.181   3.650   6.203  0.1791  0.4084  0.2495
 8225SOL    HW136134   4.269   3.626   6.234  0.5956  2.9077  1.0263
 8225SOL    HW236135   4.135   3.569   6.226 -1.4966  1.3150  0.0378
 8226SOL     OW36136   1.569   3.953   6.265 -0.2080 -0.3281  0.0616
 8226SOL    HW136137   1.534   4.014   6.329 -0.4049  2.1875 -2.4328
 8226SOL    HW236138   1.503   3.885   6.253 -1.2722  0.8543 -0.7341
 8227SOL     OW36139   1.568   0.463  15.136 -0.4601  0.5134  0.7928
 8227SOL    HW136140   1.484   0.421  15.115 -0.5513  0.9614  0.2448
 8227SOL    HW236141   1.536   0.525  15.202  0.5094  2.1631 -0.2805
 8228SOL     OW36142   3.890   3.142   2.648 -0.5735 -0.0657  0.3948
 8228SOL    HW136143   3.936   3.186   2.720 -0.1370  0.6791 -0.3419
 8228SOL    HW236144   3.822   3.100   2.700  1.4817 -3.8652  0.0418
 8229SOL     OW36145   1.081   0.198   7.689 -0.5691 -0.2875  0.1377
 8229SOL    HW136146   1.075   0.179   7.782  1.8003 -2.4174 -0.1403
 8229SOL    HW236147   1.008   0.259   7.679 -0.4173  0.4297  3.7013
 8230SOL     OW36148   2.354   4.663   4.606 -0.2867  0.0482 -0.0029
 8230SOL    HW136149   2.377   0.009   4.544  0.9150 -1.8794 -1.7746
 8230SOL    HW236150   2.315   4.601   4.544 -2.6667 -0.4782  2.0299
 8231SOL     OW36151   1.184   1.866   6.806  0.3578 -0.0682 -0.2542
 8231SOL    HW136152   1.208   1.900   6.720 -2.5191  2.6653  0.0136
 8231SOL    HW236153   1.262   1.890   6.856 -0.4676  1.6861  0.1985
 8232SOL     OW36154   2.927   3.737   2.918  0.4612  0.1377  0.0572
 8232SOL    HW136155   2.991   3.808   2.921 -1.2357  1.5838  2.1223
 8232SOL    HW236156   2.886   3.743   3.005 -0.7711 -1.1098 -0.4331
 8233SOL     OW36157   1.189   4.475   2.826  0.7196 -0.1399  0.1362
 8233SOL    HW136158   1.198   4.382   2.806  0.4331  0.5472 -3.1878
 8233SOL    HW236159   1.215   4.515   2.743  0.3357  0.7019  0.4203
 8234SOL     OW36160   0.536   4.708   7.398  0.0150 -0.1779 -0.2019
 8234SOL    HW136161   0.576   0.070   7.390 -1.2271  0.5232  1.0337
 8234SOL    HW236162   0.590   4.667   7.331 -1.3720  0.0222 -1.4369
 8235SOL     OW36163   0.280   0.444  17.134 -0.9992 -0.4425  0.3401
 8235SOL    HW136164   0.323   0.360  17.152  1.2035 -0.2408 -4.1853
 8235SOL    HW236165   0.321   0.512  17.188 -0.2717  0.6093 -1.5393
 8236SOL     OW36166   2.600   3.855   6.423  0.3666 -0.2763 -0.1489
 8236SOL    HW136167   2.655   3.907   6.481 -0.0152  1.0311 -0.9692
 8236SOL    HW236168   2.531   3.912   6.389  0.0197 -1.3548 -1.2652
 8237SOL     OW36169   3.548   2.776   0.393  0.2065  0.4298 -0.1356
 8237SOL    HW136170   3.572   2.704   0.452 -0.5945  0.9358  0.8029
 8237SOL    HW236171   3.458   2.800   0.414 -0.6554 -1.1176 -2.0469
 8238SOL     OW36172   3.652   4.092   4.852  0.5098  0.0227  0.3101
 8238SOL    HW136173   3.636   4.015   4.907 -0.2518 -0.1605 -0.1671
 8238SOL    HW236174   3.599   4.057   4.780  0.7804 -0.3746  0.3021
 8239SOL     OW36175   0.963   2.565   5.687  0.1647  0.9614 -0.1568
 8239SOL    HW136176   0.941   2.548   5.595  1.9198  0.3675 -0.4636
 8239SOL    HW236177   0.917   2.647   5.704  0.2869  1.3582 -1.7071
 8240SOL     OW36178   4.668   1.324  11.479  0.6114  0.2419 -0.0382
 8240SOL    HW136179   0.025   1.374  11.469  1.0622 -0.4507  0.2462
 8240SOL    HW236180   4.658   1.284  11.392  0.3906 -1.0212  0.5743
 8241SOL     OW36181   3.588   0.436   6.629 -0.1008 -0.2921  0.5719
 8241SOL    HW136182   3.670   0.472   6.663  0.6219 -1.8581  0.5195
 8241SOL    HW236183   3.588   0.450   6.534 -1.5016  0.1632  0.6430
 8242SOL     OW36184   3.239   2.299   5.732  0.2122 -0.4025 -0.0975
 8242SOL    HW136185   3.225   2.339   5.818  2.2038 -0.3011  0.1846
 8242SOL    HW236186   3.326   2.264   5.749  0.9583  1.2268 -0.5697
 8243SOL     OW36187   1.907   1.232   4.447 -0.7837 -0.1991  0.5595
 8243SOL    HW136188   1.854   1.160   4.482 -1.0408  0.2219  1.0368
 8243SOL    HW236189   1.877   1.234   4.356  2.9553  0.1956 -0.6697
 8244SOL     OW36190   4.643   1.659   1.994  0.0815 -0.2945  0.3759
 8244SOL    HW136191   4.717   1.717   2.008  0.4531 -0.5643 -0.4300
 8244SOL    HW236192   4.589   1.725   1.950  3.5280  2.4920  0.3277
 8245SOL     OW36193   3.278   3.392   2.382 -0.0813 -0.3459 -1.0435
 8245SOL    HW136194   3.287   3.325   2.450  0.2187  0.7086 -0.0543
 8245SOL    HW236195   3.317   3.463   2.433 -1.1556 -1.6139  1.5518
 8246SOL     OW36196   0.127   1.164  15.028  0.2570 -0.1537  0.4485
 8246SOL    HW136197   0.125   1.143  14.935 -0.8217  3.9482 -0.4475
 8246SOL    HW236198   0.161   1.253  15.018  0.3033  0.0142  2.0896
 8247SOL     OW36199   1.774   1.753  11.966 -0.5307 -0.4434 -0.3355
 8247SOL    HW136200   1.834   1.827  11.974 -0.5654 -0.9123  4.6355
 8247SOL    HW236201   1.800   1.711  11.884 -0.4111  0.9250 -0.9938
 8248SOL     OW36202   0.947   2.191   2.317 -0.2108  0.4729  0.1153
 8248SOL    HW136203   0.985   2.105   2.336  0.6599  0.9029  0.3091
 8248SOL    HW236204   1.026   2.226   2.275 -0.0028  1.8961  1.6804
 8249SOL     OW36205   2.389   1.537  17.132  0.4000  0.6103  0.3154
 8249SOL    HW136206   2.309   1.575  17.169  1.2146  1.3399  1.3325
 8249SOL    HW236207   2.357   1.447  17.134  0.4563  0.5744 -1.1205
 8250SOL     OW36208   1.815   3.669   4.224  0.3456 -0.0414  0.7496
 8250SOL    HW136209   1.886   3.661   4.287  0.4034 -0.0870  0.6786
 8250SOL    HW236210   1.737   3.689   4.277 -1.8245 -1.9728 -1.6954
 8251SOL     OW36211   4.034   3.638  11.698 -0.3873  0.4059  0.1487
 8251SOL    HW136212   4.101   3.607  11.637  0.1582  0.3998  0.7489
 8251SOL    HW236213   3.956   3.642  11.643 -0.2040 -1.7860 -0.2782
 8252SOL     OW36214   0.785   1.088   0.849  0.0078 -0.3900 -0.8002
 8252SOL    HW136215   0.697   1.073   0.815  0.2729 -3.7505  0.0351
 8252SOL    HW236216   0.806   0.995   0.849 -0.9593 -0.5979  0.5961
 8253SOL     OW36217   1.006   1.897   5.643  0.1010 -0.0752 -0.0952
 8253SOL    HW136218   1.058   1.826   5.607  0.7409  1.0644 -1.4135
 8253SOL    HW236219   1.041   1.978   5.606  0.1927  0.3134  0.8270
 8254SOL     OW36220   2.340   3.878   4.418  0.9623  0.1093  0.1782
 8254SOL    HW136221   2.359   3.939   4.489 -2.8100  0.5538  0.8178
 8254SOL    HW236222   2.348   3.800   4.473 -0.3602 -1.3695 -1.7228
 8255SOL     OW36223   0.919   4.035  16.133 -0.1102  0.6121 -0.1334
 8255SOL    HW136224   0.878   4.021  16.218 -0.7563 -0.9684 -0.7070
 8255SOL    HW236225   0.923   4.131  16.137 -2.2392  0.6903  0.2892
 8256SOL     OW36226   2.811   2.017   5.308  0.7059 -0.5351 -0.2358
 8256SOL    HW136227   2.765   1.948   5.356  2.0211 -2.1525 -1.2980
 8256SOL    HW236228   2.767   2.091   5.349 -1.2863 -2.0005  0.2928
 8257SOL     OW36229   3.421   4.044   5.728  0.3289  0.1528  0.4764
 8257SOL    HW136230   3.360   4.024   5.799 -0.6130  0.8535 -0.1282
 8257SOL    HW236231   3.420   4.140   5.726  0.4893  0.1080 -1.7959
 8258SOL     OW36232   1.529   2.375  12.386  0.0190 -0.1080  0.5509
 8258SOL    HW136233   1.573   2.419  12.459 -0.7529 -0.0009  0.9548
 8258SOL    HW236234   1.435   2.389  12.402  0.0342  0.4176  0.1711
 8259SOL     OW36235   3.694   3.703   0.611  0.4369  0.1415 -0.0262
 8259SOL    HW136236   3.711   3.614   0.644 -2.1517 -0.7255 -1.0125
 8259SOL    HW236237   3.661   3.695   0.522  1.7305 -2.3826 -0.2960
 8260SOL     OW36238   1.827   0.624   8.194  0.1141  0.3676  0.7894
 8260SOL    HW136239   1.913   0.665   8.185 -0.2191  1.2210  1.6009
 8260SOL    HW236240   1.814   0.586   8.107 -0.5232 -0.1315  1.1008
 8261SOL     OW36241   0.509   2.532  14.608  0.9260  0.3148 -0.0676
 8261SOL    HW136242   0.460   2.607  14.574  0.6021  0.0503 -0.1795
 8261SOL    HW236243   0.452   2.455  14.611  1.5109 -0.1534 -1.0136
 8262SOL     OW36244   1.895   2.198   8.814 -0.6222  0.1301  0.5935
 8262SOL    HW136245   1.853   2.283   8.826  0.8182  0.6788  1.6750
 8262SOL    HW236246   1.963   2.222   8.751 -1.6170  0.6193 -0.3100
 8263SOL     OW36247   0.359   4.142   7.085  0.3943  0.5074  0.5064
 8263SOL    HW136248   0.314   4.078   7.141 -0.5154 -0.7902 -1.6928
 8263SOL    HW236249   0.450   4.113   7.084 -0.4000 -1.9993  0.0801
 8264SOL     OW36250   4.664   0.367   3.727 -0.0710 -0.5659  0.0127
 8264SOL    HW136251   0.011   0.348   3.788 -2.3142 -3.7556  1.6442
 8264SOL    HW236252   4.616   0.427   3.784  1.0001  0.7927 -0.5088
 8265SOL     OW36253   3.616   3.745   2.047  0.3574  0.5675  0.1722
 8265SOL    HW136254   3.554   3.810   2.014 -1.4866 -0.9235  0.7146
 8265SOL    HW236255   3.645   3.720   1.959  1.0624  1.1255  0.2444
 8266SOL     OW36256   3.444   1.368   2.569 -0.4038 -0.3283 -0.5082
 8266SOL    HW136257   3.475   1.378   2.479 -0.8808 -1.3520 -0.7952
 8266SOL    HW236258   3.407   1.280   2.558 -1.3827  0.0479 -0.1555
 8267SOL     OW36259   2.263   0.396  15.989  0.2845  0.2906  0.2310
 8267SOL    HW136260   2.295   0.485  15.977 -1.0347  0.5438 -1.4860
 8267SOL    HW236261   2.214   0.377  15.909 -0.1495 -1.4035  0.8916
 8268SOL     OW36262   4.288   1.819  13.094 -0.4279  0.4384 -0.2440
 8268SOL    HW136263   4.298   1.766  13.173 -1.5807  1.2086  0.4165
 8268SOL    HW236264   4.316   1.763  13.022 -0.3839  2.1449 -1.5508
 8269SOL     OW36265   1.350   1.125   9.503 -0.4281  0.0564 -0.5818
 8269SOL    HW136266   1.259   1.142   9.526 -0.6711 -2.3058  0.2286
 8269SOL    HW236267   1.391   1.131   9.589  1.5124  1.2078 -1.5886
 8270SOL     OW36268   0.152   2.967   2.555 -0.1882 -0.0271 -0.0231
 8270SOL    HW136269   0.197   3.010   2.482 -0.2826 -0.8906 -0.5964
 8270SOL    HW236270   0.074   3.020   2.573  0.4242  0.2974  1.6411
 8271SOL     OW36271   0.258   3.068  11.105  0.1107  0.0858 -0.2853
 8271SOL    HW136272   0.322   2.999  11.088  1.5000  1.3611 -0.1862
 8271SOL    HW236273   0.202   3.034  11.175  0.4393  0.6027  0.2285
 8272SOL     OW36274   3.674   2.564  10.309  0.4657  0.3392 -0.1607
 8272SOL    HW136275   3.717   2.634  10.259 -0.3497 -0.2760 -1.7003
 8272SOL    HW236276   3.582   2.576  10.287 -0.1061 -3.0946  0.3204
 8273SOL     OW36277   4.541   4.701  14.465 -0.6766  0.4107 -0.4618
 8273SOL    HW136278   4.611   4.680  14.404 -0.1783 -0.2643  0.3421
 8273SOL    HW236279   4.486   0.011  14.395  0.6639  1.8341 -0.8010
 8274SOL     OW36280   2.321   3.109  15.487 -0.3264  0.5055 -0.2692
 8274SOL    HW136281   2.316   3.173  15.416  1.3709  0.2183 -0.6442
 8274SOL    HW236282   2.377   3.037  15.457 -1.6469  0.2107 -2.0393
 8275SOL     OW36283   4.545   2.088   7.474  0.8439  0.0433 -0.4028
 8275SOL    HW136284   4.503   2.008   7.506  1.2318 -0.8131 -2.0095
 8275SOL    HW236285   4.533   2.155   7.541  1.6202  0.2619 -0.4769
 8276SOL     OW36286   0.496   3.457   6.025  0.4844 -0.2424 -0.5675
 8276SOL    HW136287   0.425   3.510   5.989  0.8985 -0.2260 -1.3551
 8276SOL    HW236288   0.474   3.373   5.986  0.3019  0.1967 -1.4023
 8277SOL     OW36289   0.637   4.001  10.653  0.0485  0.1833 -0.3465
 8277SOL    HW136290   0.560   4.024  10.601 -1.2795  2.6227  2.6761
 8277SOL    HW236291   0.676   4.088  10.659  1.3420 -0.4319  0.1647
 8278SOL     OW36292   2.887   2.020   6.863 -0.0907 -0.5166  0.3275
 8278SOL    HW136293   2.922   2.108   6.873 -1.1344 -0.0250 -0.4363
 8278SOL    HW236294   2.963   1.964   6.877  0.5713 -0.2834 -2.3509
 8279SOL     OW36295   2.896   4.660   7.906 -0.6719  0.0679 -0.3009
 8279SOL    HW136296   2.891   4.673   8.000 -0.7356  1.3108 -0.4831
 8279SOL    HW236297   2.990   4.648   7.891 -0.2527  3.0438  0.0329
 8280SOL     OW36298   3.574   4.612   4.118  0.4528  0.2666  0.2420
 8280SOL    HW136299   3.503   4.665   4.152 -0.3187 -0.7289  0.1972
 8280SOL    HW236300   3.553   4.610   4.025 -1.1808  0.1977  0.6246
 8281SOL     OW36301   4.262   3.479   5.388  0.0441  0.3389 -0.5336
 8281SOL    HW136302   4.249   3.568   5.357  0.9565  0.3141 -0.9890
 8281SOL    HW236303   4.338   3.497   5.443 -0.6086  0.6094  0.2822
 8282SOL     OW36304   4.043   1.327   8.514 -0.3709  0.1508 -0.4536
 8282SOL    HW136305   4.052   1.361   8.425  2.1039  1.2723  0.2374
 8282SOL    HW236306   4.042   1.403   8.572 -2.2237  0.1977 -0.5456
 8283SOL     OW36307   0.633   0.960  14.817  0.0350 -0.3664  0.4145
 8283SOL    HW136308   0.665   1.050  14.808 -0.1716 -0.4200 -0.7430
 8283SOL    HW236309   0.556   0.951  14.761 -0.7486  0.7492  1.2895
 8284SOL     OW36310   1.984   4.356   3.635 -0.1025  0.1322 -0.4337
 8284SOL    HW136311   1.990   4.444   3.598  1.4771  0.5728  0.8441
 8284SOL    HW236312   2.072   4.319   3.625  0.1698  0.9710 -1.1541
 8285SOL     OW36313   0.056   2.447   8.179 -0.3091 -0.1604 -1.0566
 8285SOL    HW136314   0.056   2.541   8.198  4.8237 -0.0051 -1.8694
 8285SOL    HW236315   0.147   2.434   8.153 -0.7103 -2.2130 -1.4554
 8286SOL     OW36316   2.346   4.049  17.377 -0.3147  0.2929  0.2706
 8286SOL    HW136317   2.379   4.008  17.457  1.2200 -0.1592 -0.5907
 8286SOL    HW236318   2.300   4.124  17.415  0.0637  0.1429  1.0291
 8287SOL     OW36319   3.289   4.040   2.619  0.0389  0.2382  0.2782
 8287SOL    HW136320   3.223   4.086   2.671  0.2723  1.5591 -0.5972
 8287SOL    HW236321   3.243   3.961   2.590  1.7262 -0.4384 -0.5235
 8288SOL     OW36322   1.369   1.573   6.650  0.3357  0.5378 -0.4432
 8288SOL    HW136323   1.378   1.485   6.614  0.5496  0.4281 -0.1245
 8288SOL    HW236324   1.407   1.619   6.575 -0.6321  0.2154 -1.1242
 8289SOL     OW36325   1.209   0.538   8.547  0.3089 -0.2043 -0.4607
 8289SOL    HW136326   1.300   0.549   8.572  0.3876  2.4867 -1.9203
 8289SOL    HW236327   1.206   0.446   8.522  0.7895  0.4277 -2.8367
 8290SOL     OW36328   3.376   4.165   4.989  0.3740  0.4943 -0.9215
 8290SOL    HW136329   3.314   4.110   4.942 -0.1707 -1.6106  2.2295
 8290SOL    HW236330   3.406   4.215   4.913  1.0674  2.5528  0.6954
 8291SOL     OW36331   0.724   2.764   2.388  0.3287 -0.0181 -0.6672
 8291SOL    HW136332   0.725   2.859   2.395  1.9703  0.0753 -2.2086
 8291SOL    HW236333   0.718   2.759   2.293 -1.8655  3.0156 -0.7004
 8292SOL     OW36334   0.965   0.387   0.645  0.2278 -0.0118 -0.5032
 8292SOL    HW136335   0.906   0.312   0.653  0.6753 -0.1171  1.7563
 8292SOL    HW236336   1.019   0.380   0.724 -0.8102 -0.5950  0.1484
 8293SOL     OW36337   2.621   0.556  17.293 -0.3494  0.5433 -0.2894
 8293SOL    HW136338   2.711   0.533  17.269 -0.5463 -1.2480  0.6900
 8293SOL    HW236339   2.587   0.577  17.207 -1.2518 -0.9147 -0.2807
 8294SOL     OW36340   3.651   2.957   6.236 -0.8474  0.5156 -0.7213
 8294SOL    HW136341   3.701   3.038   6.250  2.5184 -1.4090 -1.4802
 8294SOL    HW236342   3.687   2.930   6.151 -0.7855  0.1941 -0.5938
 8295SOL     OW36343   0.279   2.528   3.146  0.4326  0.1821  0.2833
 8295SOL    HW136344   0.196   2.540   3.192 -0.0793  0.2508 -0.6475
 8295SOL    HW236345   0.333   2.481   3.210  0.0312  0.4873  0.8453
 8296SOL     OW36346   1.897   1.920   4.265 -0.6179 -0.4473 -0.1091
 8296SOL    HW136347   1.889   1.826   4.249  0.2672 -0.5989  0.2865
 8296SOL    HW236348   1.992   1.930   4.256 -0.5303 -0.5112  0.6862
 8297SOL     OW36349   2.115   0.914   5.071 -0.0470 -0.1544  0.2340
 8297SOL    HW136350   2.035   0.937   5.118 -0.0015  1.0571 -0.2856
 8297SOL    HW236351   2.085   0.858   5.000  1.3311 -0.5398 -0.0313
 8298SOL     OW36352   1.828   2.549   0.392 -0.5844 -0.1391 -0.4319
 8298SOL    HW136353   1.817   2.628   0.444  2.4386  0.2325 -0.3545
 8298SOL    HW236354   1.734   2.553   0.375 -0.5756  1.1272 -0.1787
 8299SOL     OW36355   1.133   4.138   6.793 -0.0838  0.5368  0.1566
 8299SOL    HW136356   1.158   4.222   6.831  1.4693 -0.2805  0.9337
 8299SOL    HW236357   1.180   4.130   6.710 -0.6537  1.4750 -0.2583
 8300SOL     OW36358   2.428   1.019   2.270  0.7538 -0.6076 -0.1540
 8300SOL    HW136359   2.386   1.056   2.348  0.1935  0.0937 -0.7823
 8300SOL    HW236360   2.515   1.004   2.307  0.5655  0.8973  0.9393
 8301SOL     OW36361   3.430   3.536   3.990 -0.4205 -0.1128 -0.6178
 8301SOL    HW136362   3.407   3.443   3.997 -1.1449  0.0407 -0.8950
 8301SOL    HW236363   3.511   3.529   3.940 -0.1747 -1.7428 -0.0164
 8302SOL     OW36364   4.641   0.682   6.156  0.1673  0.5789 -0.6346
 8302SOL    HW136365   4.701   0.753   6.132 -0.3704  1.0597 -0.5454
 8302SOL    HW236366   4.704   0.618   6.188 -1.8231 -0.5534  1.0278
 8303SOL     OW36367   3.385   2.937   4.891  0.2690 -0.3587  0.2782
 8303SOL    HW136368   3.429   3.004   4.838 -1.6651  1.1521  0.5753
 8303SOL    HW236369   3.388   2.856   4.840 -3.3173  0.4802 -1.2158
 8304SOL     OW36370   4.123   1.373  17.423 -0.3353 -0.1012  0.3241
 8304SOL    HW136371   4.213   1.363  17.454 -0.2717  0.1148  0.2098
 8304SOL    HW236372   4.134   1.411  17.335 -1.9186 -1.6920 -0.5812
 8305SOL     OW36373   2.050   4.611   3.038 -0.4729 -0.3217  0.5366
 8305SOL    HW136374   1.996   4.636   3.112 -1.7811 -0.8210 -0.2319
 8305SOL    HW236375   2.004   4.656   2.967  0.2578  0.5214  0.5964
 8306SOL     OW36376   4.454   0.765   4.080 -0.0799 -0.1429  0.0569
 8306SOL    HW136377   4.371   0.810   4.064 -0.9597 -1.4142  1.0146
 8306SOL    HW236378   4.519   0.834   4.087  2.3747 -2.1229 -3.2973
 8307SOL     OW36379   0.718   3.421   3.903  0.4332 -0.2414 -0.1165
 8307SOL    HW136380   0.631   3.410   3.865  0.7002  2.1261 -1.4252
 8307SOL    HW236381   0.773   3.421   3.825  0.6620  0.9776  0.0491
 8308SOL     OW36382   3.247   1.662   6.388 -0.3572 -0.3972 -0.3397
 8308SOL    HW136383   3.231   1.712   6.309  0.3762  1.1345  0.4968
 8308SOL    HW236384   3.188   1.704   6.451  2.0610  3.1592 -0.4762
 8309SOL     OW36385   0.497   0.526   1.344 -0.2036  0.2586  0.1074
 8309SOL    HW136386   0.579   0.520   1.295 -0.0132 -2.2383  0.7278
 8309SOL    HW236387   0.452   0.446   1.316  1.3681 -0.7738  0.5047
 8310SOL     OW36388   3.835   3.049   2.977  0.8115 -0.4572 -0.2381
 8310SOL    HW136389   3.846   3.136   3.017  0.5601 -0.0445 -1.0717
 8310SOL    HW236390   3.740   3.050   2.987  0.9792  1.1015  1.3150
 8311SOL     OW36391   4.486   1.996   9.791 -0.6865 -0.1125  0.1130
 8311SOL    HW136392   4.501   1.931   9.861 -1.0301 -0.3134  0.0003
 8311SOL    HW236393   4.533   2.074   9.822 -1.6137  0.2482  0.6021
 8312SOL     OW36394   3.807   2.494   7.799  0.2815 -0.6156 -0.1187
 8312SOL    HW136395   3.885   2.439   7.791 -0.8512 -2.2078 -0.2767
 8312SOL    HW236396   3.818   2.571   7.743 -1.8615 -0.9305 -0.9801
 8313SOL     OW36397   2.243   3.985   1.761 -0.0766 -0.0139  0.1664
 8313SOL    HW136398   2.292   3.975   1.679  0.2537  0.1739  0.3382
 8313SOL    HW236399   2.164   3.933   1.753  0.9197 -1.0733 -2.7560
 8314SOL     OW36400   1.591   1.209   4.061 -0.2610  0.3120 -0.5031
 8314SOL    HW136401   1.515   1.253   4.024 -0.3360 -0.4127 -1.2127
 8314SOL    HW236402   1.610   1.146   3.991 -0.6159  0.0395 -0.3544
 8315SOL     OW36403   2.222   0.475   1.558 -0.1925  0.0067  0.1499
 8315SOL    HW136404   2.229   0.570   1.543 -0.7873  0.2031  1.1220
 8315SOL    HW236405   2.126   0.473   1.561 -0.1599 -0.9258  0.6071
 8316SOL     OW36406   3.807   0.120  13.074  0.0423  0.3474 -0.4093
 8316SOL    HW136407   3.742   0.121  13.004  1.0163 -1.2232 -1.3379
 8316SOL    HW236408   3.822   0.214  13.076  2.4824 -0.0277 -1.5900
 8317SOL     OW36409   3.524   3.466   7.007 -0.7077 -0.0122 -0.0108
 8317SOL    HW136410   3.542   3.393   6.949  2.5608 -0.1859  1.2509
 8317SOL    HW236411   3.568   3.540   6.966  1.5308 -1.1480  0.3552
 8318SOL     OW36412   3.120   1.231   5.201 -0.0914 -0.3517 -0.2721
 8318SOL    HW136413   3.132   1.307   5.145  0.6420 -0.8484 -0.7996
 8318SOL    HW236414   3.065   1.179   5.143 -0.5860  0.5003 -0.5618
 8319SOL     OW36415   3.578   0.704   4.701 -0.0117  0.7265 -0.5128
 8319SOL    HW136416   3.566   0.722   4.608 -0.0081  0.9344 -0.4729
 8319SOL    HW236417   3.489   0.679   4.727  1.5664  0.2814  4.4938
 8320SOL     OW36418   4.551   2.329   3.677  0.2217 -0.0177  0.5852
 8320SOL    HW136419   4.547   2.285   3.592  1.8264 -1.8764  1.4562
 8320SOL    HW236420   4.592   2.409   3.645 -2.0398  0.3278 -1.3633
 8321SOL     OW36421   1.943   1.915   6.304  0.7355  0.0414  0.4364
 8321SOL    HW136422   1.971   1.884   6.217  1.6741 -1.6941  1.3629
 8321SOL    HW236423   1.851   1.891   6.309  0.6919  0.1361  0.1211
 8322SOL     OW36424   0.448   0.571   3.213  0.3112 -0.2383  0.4112
 8322SOL    HW136425   0.373   0.604   3.263  0.7085  0.6317  0.4259
 8322SOL    HW236426   0.398   0.522   3.148  0.6523  1.6224 -1.2432
 8323SOL     OW36427   2.370   4.148   7.778  0.1956  0.5717  0.2025
 8323SOL    HW136428   2.431   4.217   7.753 -1.8556  1.7251 -1.6265
 8323SOL    HW236429   2.348   4.182   7.865  1.6936  0.8692  0.4542
 8324SOL     OW36430   1.901   2.413   6.095 -0.1177 -0.2777 -0.0764
 8324SOL    HW136431   1.947   2.488   6.131 -0.1221  0.1582 -0.9686
 8324SOL    HW236432   1.813   2.445   6.075  0.0417  0.9658  1.2442
 8325SOL     OW36433   3.783   0.213   8.932 -0.5607  0.2726 -0.1256
 8325SOL    HW136434   3.876   0.236   8.941 -0.3683 -0.2282 -0.7598
 8325SOL    HW236435   3.745   0.298   8.952  0.2180  0.3652  0.9276
 8326SOL     OW36436   0.097   1.624  16.298 -0.2828 -0.1761 -0.0981
 8326SOL    HW136437   0.175   1.569  16.296 -0.0250  0.2392 -1.5875
 8326SOL    HW236438   0.063   1.597  16.213  0.4149 -0.4385 -0.3003
 8327SOL     OW36439   1.504   0.494   2.510  0.6654  0.0809 -0.4278
 8327SOL    HW136440   1.551   0.575   2.530  2.2205 -0.3239 -2.4398
 8327SOL    HW236441   1.574   0.436   2.480  0.4085 -1.0571  1.1911
 8328SOL     OW36442   1.711   0.358   8.711  0.3982  0.2402 -0.0837
 8328SOL    HW136443   1.628   0.314   8.730  0.6902 -0.9404 -1.5427
 8328SOL    HW236444   1.754   0.322   8.788 -1.1038 -1.5704 -0.0804
 8329SOL     OW36445   4.001   2.965   4.497 -0.1699 -1.0146  0.4696
 8329SOL    HW136446   3.947   2.888   4.477 -2.0969  0.3714  0.4138
 8329SOL    HW236447   4.027   2.989   4.408 -0.2814 -0.0995  0.6832
 8330SOL     OW36448   4.239   1.737   1.837 -0.5512  0.5281 -0.0494
 8330SOL    HW136449   4.226   1.825   1.801 -0.0324 -0.6275 -3.0359
 8330SOL    HW236450   4.265   1.689   1.758 -1.3265 -0.8055  0.5067
 8331SOL     OW36451   3.638   1.227   8.718 -0.0085  0.2666  0.0264
 8331SOL    HW136452   3.585   1.247   8.796  0.6107 -0.4274  0.6236
 8331SOL    HW236453   3.609   1.304   8.669 -1.5897 -1.6871 -2.0864
 8332SOL     OW36454   3.308   1.947   5.076 -0.0167  0.4172  0.1313
 8332SOL    HW136455   3.224   1.966   5.120 -0.0127  1.2774 -0.2363
 8332SOL    HW236456   3.288   1.885   5.007 -1.3562  0.1324  0.7537
 8333SOL     OW36457   3.335   1.585   9.928  0.4291  0.1447  0.1000
 8333SOL    HW136458   3.416   1.557   9.885  1.3818 -1.4658  2.9122
 8333SOL    HW236459   3.283   1.604   9.850  1.3933 -0.4658 -0.7060
 8334SOL     OW36460   4.095   1.540   5.654  0.0738  0.1164 -0.5768
 8334SOL    HW136461   4.175   1.571   5.697 -0.5890  2.1269 -0.8217
 8334SOL    HW236462   4.114   1.446   5.661  1.5978  0.3295 -1.8188
 8335SOL     OW36463   3.987   2.652   5.151  0.5191 -0.0666 -0.2821
 8335SOL    HW136464   3.932   2.637   5.228 -0.9142  0.1690 -1.2614
 8335SOL    HW236465   3.968   2.576   5.096  1.0397 -0.7221  0.4377
 8336SOL     OW36466   1.703   0.980   3.949 -0.0935 -0.1350  0.0519
 8336SOL    HW136467   1.774   0.943   3.897  1.2735  3.4345 -0.6122
 8336SOL    HW236468   1.624   0.955   3.901  0.6306 -0.4926 -0.9488
 8337SOL     OW36469   1.704   1.062  12.049  0.0059  0.4052 -0.1592
 8337SOL    HW136470   1.717   1.142  12.100 -3.9335  1.4965 -0.8772
 8337SOL    HW236471   1.682   1.103  11.966 -2.0872  0.1693  0.2694
 8338SOL     OW36472   2.930   3.409  14.798  0.5093 -0.6682  0.3223
 8338SOL    HW136473   2.852   3.404  14.742  2.6416  1.1966 -2.7975
 8338SOL    HW236474   2.983   3.338  14.762  0.2737  0.4663 -2.2374
 8339SOL     OW36475   1.712   3.710   8.726  0.1612  0.6267  0.0044
 8339SOL    HW136476   1.766   3.754   8.790  0.7843  1.3762 -1.0351
 8339SOL    HW236477   1.683   3.630   8.771  2.5978  0.4526  1.2269
 8340SOL     OW36478   1.122   2.650   2.522  0.4016 -0.2667 -0.1313
 8340SOL    HW136479   1.106   2.679   2.433  0.0335 -0.2584 -0.0623
 8340SOL    HW236480   1.176   2.573   2.503  1.9346  1.2346 -1.8036
 8341SOL     OW36481   4.465   0.589   4.698 -0.1052 -0.2276  0.3270
 8341SOL    HW136482   4.414   0.616   4.621 -1.8755 -1.3127  1.1107
 8341SOL    HW236483   4.546   0.616   4.656 -0.4548 -1.1568 -0.9390
 8342SOL     OW36484   0.491   1.716   6.845 -0.4881 -0.4005  0.5561
 8342SOL    HW136485   0.439   1.727   6.924 -0.7403  0.3525  0.2792
 8342SOL    HW236486   0.573   1.756   6.874 -1.9319  1.5728  1.8947
 8343SOL     OW36487   4.034   3.726   3.794  0.8721 -0.2720  0.1857
 8343SOL    HW136488   4.097   3.783   3.837  0.7885  0.1430 -0.2418
 8343SOL    HW236489   3.996   3.786   3.730  1.6811 -0.1611 -0.1958
 8344SOL     OW36490   3.242   0.346  16.644  0.4398 -1.0275  0.4617
 8344SOL    HW136491   3.204   0.364  16.558 -0.8283  0.2381  1.2842
 8344SOL    HW236492   3.330   0.383  16.634 -0.0647 -0.4195 -1.8336
 8345SOL     OW36493   1.492   0.161   5.229  0.1111  0.4103 -0.0468
 8345SOL    HW136494   1.414   0.201   5.189  0.7611  2.3551  0.6316
 8345SOL    HW236495   1.537   0.239   5.263 -1.2024  1.7525 -1.4012
 8346SOL     OW36496   1.800   0.134   4.846 -0.2289 -0.5192 -0.5226
 8346SOL    HW136497   1.810   0.046   4.882 -3.5562 -1.7475 -2.6023
 8346SOL    HW236498   1.872   0.137   4.783  1.7024  1.7035  1.7768
 8347SOL     OW36499   3.485   2.357  14.943  0.9056  0.2488  0.0575
 8347SOL    HW136500   3.417   2.348  15.010  2.1980 -0.8733  1.2170
 8347SOL    HW236501   3.467   2.279  14.890 -2.4279  0.6205  0.6947
 8348SOL     OW36502   2.876   0.027   3.381 -0.3756  0.6013  0.0472
 8348SOL    HW136503   2.836   0.097   3.329 -0.2626  0.6788  0.0657
 8348SOL    HW236504   2.964   0.029   3.345  0.5311 -0.2280  2.2090
 8349SOL     OW36505   2.811   4.274   2.333 -0.4125 -0.0055 -0.6442
 8349SOL    HW136506   2.752   4.349   2.332 -1.2903 -0.6709  1.8843
 8349SOL    HW236507   2.748   4.203   2.341 -0.0881 -0.2019  0.1712
 8350SOL     OW36508   1.232   2.609   9.161  0.0390 -0.1415 -0.1687
 8350SOL    HW136509   1.322   2.619   9.192  0.4737  1.5849 -1.9565
 8350SOL    HW236510   1.252   2.534   9.106  0.2667 -0.1017 -0.1375
 8351SOL     OW36511   1.795   0.231  11.659  0.7886 -0.0388  0.3706
 8351SOL    HW136512   1.759   0.238  11.570  1.6313  0.6932  0.0868
 8351SOL    HW236513   1.710   0.234  11.704 -0.0279  2.8963 -1.3914
 8352SOL     OW36514   4.339   3.757   2.901  0.4158 -0.2874  0.1302
 8352SOL    HW136515   4.382   3.830   2.857 -1.1813  0.2028 -0.6299
 8352SOL    HW236516   4.257   3.746   2.852 -0.1668  1.3225  0.7203
 8353SOL     OW36517   2.095   0.155   6.521  0.5657 -0.4892 -0.0447
 8353SOL    HW136518   2.158   0.191   6.584  0.4192  2.2827 -1.4806
 8353SOL    HW236519   2.060   0.097   6.588  0.5370  1.0414  1.2493
 8354SOL     OW36520   4.245   1.567   9.091  0.0979 -0.1821 -0.0767
 8354SOL    HW136521   4.278   1.490   9.045 -1.1435  0.4990 -2.1024
 8354SOL    HW236522   4.209   1.537   9.174  3.1441 -0.9936  0.9507
 8355SOL     OW36523   4.375   4.162  11.687 -0.0689 -0.4968  0.2791
 8355SOL    HW136524   4.389   4.072  11.714 -1.0483 -1.2144 -1.5832
 8355SOL    HW236525   4.285   4.175  11.717 -0.0703 -0.5899  0.3145
 8356SOL     OW36526   4.513   1.106  13.541  0.3144  0.3862 -0.0350
 8356SOL    HW136527   4.489   1.048  13.614 -1.5779  1.2076 -0.0140
 8356SOL    HW236528   4.462   1.184  13.562  0.8123  0.9555 -0.9148
 8357SOL     OW36529   4.048   1.658   4.982 -0.1814 -0.3804 -0.1021
 8357SOL    HW136530   3.997   1.577   4.986 -1.0806  0.0966 -1.5302
 8357SOL    HW236531   3.979   1.724   4.990 -0.1907 -0.4890  0.6429
 8358SOL     OW36532   2.201   1.105   3.417  0.6998  0.4303  0.2554
 8358SOL    HW136533   2.129   1.080   3.476  1.2223 -0.8288  0.3610
 8358SOL    HW236534   2.273   1.121   3.478 -1.5337  0.9844  2.7534
 8359SOL     OW36535   4.362   0.060   7.037  0.1136  0.4473  0.1995
 8359SOL    HW136536   4.447   0.019   7.056 -0.7669 -1.6932 -0.4641
 8359SOL    HW236537   4.304   4.717   7.071  0.5039 -0.5057 -1.0018
 8360SOL     OW36538   4.160   0.965   3.612 -0.5188 -0.8307 -0.0243
 8360SOL    HW136539   4.080   0.913   3.618  0.3032 -2.0843  0.0400
 8360SOL    HW236540   4.228   0.899   3.626 -1.5581 -1.4523  2.0032
 8361SOL     OW36541   3.553   1.000  12.779 -0.6804  0.3174 -0.4266
 8361SOL    HW136542   3.627   1.024  12.722 -0.3058 -0.6966 -0.3771
 8361SOL    HW236543   3.560   0.905  12.785  0.0936  0.4358  0.5495
 8362SOL     OW36544   0.978   0.877  17.521 -0.2453  0.0646  0.6077
 8362SOL    HW136545   0.962   0.865  17.427  1.2664 -0.6866  0.4416
 8362SOL    HW236546   1.059   0.826  17.531 -0.7906 -0.0955  4.0560
 8363SOL     OW36547   2.294   2.723   3.845 -0.0392 -0.0280 -0.3178
 8363SOL    HW136548   2.329   2.717   3.934 -0.7860  0.8077  0.0293
 8363SOL    HW236549   2.266   2.814   3.836  0.8538  0.0376 -2.4321
 8364SOL     OW36550   4.692   0.497   0.961  0.2034 -0.0433 -0.6708
 8364SOL    HW136551   4.622   0.438   0.987  0.8035 -0.7355 -0.6446
 8364SOL    HW236552   4.702   0.485   0.866  0.3475 -1.4530 -0.4768
 8365SOL     OW36553   0.237   2.688   2.633 -0.2692  0.3099 -0.0179
 8365SOL    HW136554   0.228   2.724   2.721 -2.5592  0.9361 -0.5071
 8365SOL    HW236555   0.249   2.768   2.582 -0.4964 -0.0630 -0.6594
 8366SOL     OW36556   2.681   1.694  16.520  0.6091  0.5454  0.3726
 8366SOL    HW136557   2.634   1.778  16.526 -0.2282  0.0909  0.1411
 8366SOL    HW236558   2.685   1.672  16.613 -0.8107  1.3853  0.6371
 8367SOL     OW36559   4.550   1.086   5.174 -0.7809  0.7628  0.1142
 8367SOL    HW136560   4.553   1.016   5.239  0.2056 -0.4400 -1.2161
 8367SOL    HW236561   4.635   1.128   5.164 -1.4166  2.1067  0.2897
 8368SOL     OW36562   4.443   3.115   7.006 -0.1276  0.0780  0.3999
 8368SOL    HW136563   4.465   3.030   7.045 -1.2256 -0.4536 -0.1146
 8368SOL    HW236564   4.376   3.139   7.070  0.3308 -1.9154  1.6481
 8369SOL     OW36565   3.315   2.862   0.447  0.3881 -0.2267  0.4744
 8369SOL    HW136566   3.304   2.945   0.401  3.6067  0.0892  0.2604
 8369SOL    HW236567   3.259   2.878   0.523  0.6502  0.0442  0.6146
 8370SOL     OW36568   4.115   2.489   4.451  0.3256  0.3660 -0.1796
 8370SOL    HW136569   4.077   2.455   4.370 -0.8085 -0.3167  0.6323
 8370SOL    HW236570   4.090   2.416   4.507 -0.5874  1.0724  0.3269
 8371SOL     OW36571   0.431   1.367   4.429  0.2791 -0.4408 -0.0632
 8371SOL    HW136572   0.440   1.315   4.349 -0.2568 -0.3917 -0.1535
 8371SOL    HW236573   0.478   1.324   4.501  0.2277 -2.0104 -0.9724
 8372SOL     OW36574   1.706   3.479   8.497 -0.5202 -0.2773  0.2527
 8372SOL    HW136575   1.709   3.557   8.552 -2.5753 -0.3582  0.4706
 8372SOL    HW236576   1.641   3.426   8.543 -1.7430  1.3155  0.3476
 8373SOL     OW36577   1.519   2.617   2.328  0.0332  0.0798 -0.4537
 8373SOL    HW136578   1.585   2.568   2.279 -2.7430 -0.9989 -3.0646
 8373SOL    HW236579   1.481   2.553   2.388  1.5171 -0.2491  0.1563
 8374SOL     OW36580   0.188   3.548   6.931 -0.0536  0.8269  0.1337
 8374SOL    HW136581   0.093   3.540   6.940  0.0713 -0.3280  0.3755
 8374SOL    HW236582   0.207   3.479   6.868  1.0913  1.4275 -0.1774
 8375SOL     OW36583   3.668   2.023   2.510  0.2168  0.0848  0.4103
 8375SOL    HW136584   3.696   2.009   2.601  0.9698  2.1337  0.4849
 8375SOL    HW236585   3.736   1.981   2.457 -1.5232 -1.0125 -0.9497
 8376SOL     OW36586   1.191   3.098   4.601  0.5331  0.5803 -0.3993
 8376SOL    HW136587   1.153   3.162   4.661  0.6786  1.8462 -1.6558
 8376SOL    HW236588   1.122   3.036   4.573 -0.8536  2.6259 -1.4920
 8377SOL     OW36589   1.322   1.855   1.279  0.2361 -0.2959 -0.4524
 8377SOL    HW136590   1.301   1.923   1.215 -1.0329 -1.0560 -0.8470
 8377SOL    HW236591   1.254   1.792   1.255 -1.2828  0.5905  1.4242
 8378SOL     OW36592   2.279   1.134  11.646 -0.1675  0.0965 -0.2984
 8378SOL    HW136593   2.287   1.161  11.737 -1.3785  0.1123 -0.2000
 8378SOL    HW236594   2.371   1.119  11.623  0.3353  1.6206  0.7033
 8379SOL     OW36595   1.444   0.740   7.846  0.4758  0.3758  0.0834
 8379SOL    HW136596   1.436   0.772   7.936  0.5087  1.5274 -0.3125
 8379SOL    HW236597   1.469   0.648   7.855 -0.6037  0.2349  1.6084
 8380SOL     OW36598   3.224   3.111  12.809  0.0483  0.5361  0.8193
 8380SOL    HW136599   3.189   3.111  12.720 -0.7777  0.2457  1.1436
 8380SOL    HW236600   3.228   3.016  12.821  0.7362  0.8580  3.2309
 8381SOL     OW36601   1.732   2.457   6.358  0.1469  0.0889  0.4014
 8381SOL    HW136602   1.661   2.489   6.413  1.1892 -0.3051  2.0020
 8381SOL    HW236603   1.776   2.536   6.328 -0.0132 -0.1195 -0.3733
 8382SOL     OW36604   4.287   4.294   3.747  0.1559  0.3851  0.5238
 8382SOL    HW136605   4.382   4.287   3.759 -0.1835 -1.2192  2.2642
 8382SOL    HW236606   4.283   4.377   3.700  0.3457 -0.2928 -0.6952
 8383SOL     OW36607   1.858   4.702  12.816 -0.1731 -0.4969 -0.3117
 8383SOL    HW136608   1.826   4.702  12.906  0.7323 -1.8419  0.0141
 8383SOL    HW236609   1.779   4.703  12.762  0.5467 -1.2215 -1.3583
 8384SOL     OW36610   0.306   1.020   8.416 -0.4091 -0.0522 -0.4720
 8384SOL    HW136611   0.304   1.038   8.510  0.8004  0.4965 -0.5464
 8384SOL    HW236612   0.395   0.991   8.395  0.3736  0.8315  1.6381
 8385SOL     OW36613   1.833   4.136   3.666  0.1881 -0.0961 -0.1258
 8385SOL    HW136614   1.890   4.211   3.652 -0.0710  0.2128  0.4870
 8385SOL    HW236615   1.898   4.066   3.679  0.4745  0.3477  0.8532
 8386SOL     OW36616   3.696   4.125   1.164  0.4925  0.4920  0.4425
 8386SOL    HW136617   3.668   4.072   1.090  0.3379  0.3170  0.6279
 8386SOL    HW236618   3.638   4.201   1.159 -0.4375 -0.3252 -0.7929
 8387SOL     OW36619   3.241   1.571  14.152 -0.6023  0.0326  0.4661
 8387SOL    HW136620   3.250   1.553  14.245  0.3326  0.6403  0.4990
 8387SOL    HW236621   3.335   1.568  14.133 -0.8570  2.3261 -1.2616
 8388SOL     OW36622   0.117   2.994   3.042  0.1011  0.1462 -0.5862
 8388SOL    HW136623   0.168   2.960   3.115  0.1879  1.7923  0.1371
 8388SOL    HW236624   0.083   3.078   3.073 -0.3566 -0.8688  1.6324
 8389SOL     OW36625   3.034   3.615  12.666 -1.2254  0.6877  0.3249
 8389SOL    HW136626   3.119   3.655  12.686 -0.6210 -0.6818  0.4520
 8389SOL    HW236627   2.993   3.634  12.751 -3.2752 -1.3388 -0.2254
 8390SOL     OW36628   1.212   2.728   0.020  0.2292  1.0183  0.0185
 8390SOL    HW136629   1.306   2.742   0.009  0.3216 -0.4081 -0.9552
 8390SOL    HW236630   1.201   2.642  17.679 -1.9318  0.9401  0.7653
 8391SOL     OW36631   3.492   3.180   4.737  0.1564  0.1249  0.4931
 8391SOL    HW136632   3.513   3.141   4.652 -0.3684  1.1605 -0.1215
 8391SOL    HW236633   3.445   3.262   4.718 -0.4738 -0.2913  0.2451
 8392SOL     OW36634   4.053   2.294   5.210  0.4292 -0.5494 -0.4227
 8392SOL    HW136635   4.112   2.244   5.267  0.6315 -1.4436 -1.4194
 8392SOL    HW236636   4.124   2.347   5.172  1.8049 -1.0502  1.4603
 8393SOL     OW36637   0.758   3.587  14.210 -0.1880  0.3211  0.3498
 8393SOL    HW136638   0.734   3.501  14.243 -0.9833  0.7452  0.8719
 8393SOL    HW236639   0.757   3.571  14.116  1.6122  1.8416  0.0751
 8394SOL     OW36640   2.821   1.366   2.549  0.5352  0.4509  0.4115
 8394SOL    HW136641   2.772   1.364   2.466 -0.6823  0.7556  1.1309
 8394SOL    HW236642   2.757   1.411   2.603 -0.0548  1.0537 -0.7958
 8395SOL     OW36643   1.843   2.659   5.154  0.7619 -0.3814  0.0757
 8395SOL    HW136644   1.810   2.741   5.118 -0.3652 -0.9050 -0.0833
 8395SOL    HW236645   1.891   2.641   5.073 -0.7952  1.2337 -1.2003
 8396SOL     OW36646   3.422   3.364  14.354  0.6537  0.3501  0.1772
 8396SOL    HW136647   3.355   3.343  14.289 -1.2110 -0.5958  2.4111
 8396SOL    HW236648   3.374   3.408  14.424 -0.8922  0.1687 -0.7684
 8397SOL     OW36649   4.188   2.417   2.148 -0.6009  0.6262 -0.3058
 8397SOL    HW136650   4.263   2.405   2.089 -1.1104 -4.5678  0.1137
 8397SOL    HW236651   4.156   2.328   2.162  1.3430 -0.0053  0.0337
 8398SOL     OW36652   3.120   4.315   2.379 -0.5288 -0.2771 -0.0163
 8398SOL    HW136653   3.130   4.220   2.385 -1.9348 -0.4847 -0.9689
 8398SOL    HW236654   3.025   4.331   2.379 -0.4245  0.3562  0.4101
 8399SOL     OW36655   3.919   1.123  16.879 -1.0036  0.1740 -0.4353
 8399SOL    HW136656   3.854   1.089  16.939  1.2311  1.8339  2.9170
 8399SOL    HW236657   3.888   1.213  16.868 -0.5228  0.2969 -0.7913
 8400SOL     OW36658   1.472   3.302   2.622 -0.0509  0.7361  0.0036
 8400SOL    HW136659   1.524   3.325   2.699  0.1899  0.0180  0.0530
 8400SOL    HW236660   1.541   3.275   2.562 -0.5820  0.0551 -0.2931
 8401SOL     OW36661   1.875   1.952   3.178  0.4264  0.2512  0.3036
 8401SOL    HW136662   1.886   1.891   3.251 -2.2323 -0.9875 -0.3540
 8401SOL    HW236663   1.915   2.037   3.197  0.6247  0.0285  0.8671
 8402SOL     OW36664   2.976   2.321   2.208 -0.1202 -0.4070 -0.9725
 8402SOL    HW136665   3.069   2.319   2.187  0.4904  1.1621  1.5625
 8402SOL    HW236666   2.956   2.229   2.189  0.7871 -0.7349 -0.2863
 8403SOL     OW36667   1.101   2.983   2.349  0.0314  0.1895  0.0222
 8403SOL    HW136668   1.134   3.000   2.261  0.9411  0.4325  0.4052
 8403SOL    HW236669   1.037   2.916   2.328 -0.8259  0.7684  0.7869
 8404SOL     OW36670   3.416   1.959   0.899 -0.2152  0.1791  0.5437
 8404SOL    HW136671   3.340   2.002   0.938 -1.1573  0.3087 -1.4453
 8404SOL    HW236672   3.431   2.011   0.819  1.1882 -0.2987  0.4942
 8405SOL     OW36673   0.739   1.396   6.549 -0.0369 -0.5591  0.2867
 8405SOL    HW136674   0.736   1.453   6.472 -0.8755 -0.4410  0.4136
 8405SOL    HW236675   0.776   1.452   6.617  0.3709  0.5393 -0.8273
 8406SOL     OW36676   0.528   3.170   8.758 -0.1242 -0.4867 -0.0146
 8406SOL    HW136677   0.513   3.079   8.786  0.2863  0.2199  2.4667
 8406SOL    HW236678   0.490   3.179   8.671  0.4979 -1.1872 -0.3541
 8407SOL     OW36679   0.620   0.354  16.210  0.0914  0.6119  0.1352
 8407SOL    HW136680   0.688   0.317  16.267 -1.5113 -0.6298  1.2529
 8407SOL    HW236681   0.598   0.277  16.158 -0.0925  0.5234  0.3434
 8408SOL     OW36682   3.539   1.311   2.820 -0.2970  0.1685 -0.0148
 8408SOL    HW136683   3.542   1.217   2.802 -0.5881  0.6070 -2.3712
 8408SOL    HW236684   3.508   1.345   2.736  2.0089 -1.7413 -1.6484
 8409SOL     OW36685   1.306   3.154   1.510 -0.0376  0.3394  0.0759
 8409SOL    HW136686   1.372   3.168   1.443 -1.6796  3.0689 -0.9923
 8409SOL    HW236687   1.349   3.172   1.593 -2.4843 -1.5496  1.7852
 8410SOL     OW36688   4.176   1.273   5.682  0.3784 -0.4545  0.3048
 8410SOL    HW136689   4.269   1.269   5.662  0.4925  3.2767  0.0583
 8410SOL    HW236690   4.175   1.277   5.778 -0.7140  0.4528  0.2537
 8411SOL     OW36691   1.261   3.887   4.387 -0.2384 -0.0583  0.3906
 8411SOL    HW136692   1.275   3.967   4.436 -1.2919 -0.2674  1.0280
 8411SOL    HW236693   1.165   3.885   4.385 -0.2503 -0.2330  1.2829
 8412SOL     OW36694   4.028   1.433   3.153 -0.0514  0.2709  0.2090
 8412SOL    HW136695   4.029   1.461   3.245 -0.3955 -0.9486  0.5911
 8412SOL    HW236696   3.951   1.480   3.122 -0.6191 -0.4297  0.5501
 8413SOL     OW36697   2.958   3.958  14.880 -0.1911  0.0263  0.0395
 8413SOL    HW136698   2.944   3.865  14.862  1.6668 -0.6655  2.1182
 8413SOL    HW236699   3.043   3.943  14.922  0.4644  1.7778 -0.6624
 8414SOL     OW36700   1.711   1.720   7.072 -0.1642  0.5506  0.0896
 8414SOL    HW136701   1.684   1.741   6.982  2.2704 -0.8094 -0.9692
 8414SOL    HW236702   1.670   1.634   7.076  3.3709 -1.1411 -0.0808
 8415SOL     OW36703   3.413   4.211   9.141  0.7611  0.2253  0.5146
 8415SOL    HW136704   3.503   4.237   9.159  1.2568 -2.3630  1.7868
 8415SOL    HW236705   3.365   4.289   9.115  1.9681  0.2518 -1.6745
 8416SOL     OW36706   2.620   0.738  10.682 -0.1408  0.2040  0.0033
 8416SOL    HW136707   2.688   0.720  10.747  0.0027 -0.1627 -0.2459
 8416SOL    HW236708   2.639   0.656  10.635  3.2282  0.6026  0.6793
 8417SOL     OW36709   1.885   2.845  11.576 -0.4685  0.2937  0.6115
 8417SOL    HW136710   1.922   2.764  11.542  2.9560  2.3090 -0.4994
 8417SOL    HW236711   1.812   2.862  11.515  0.1506  1.6016  0.2417
 8418SOL     OW36712   0.548   3.387   8.343 -0.0983 -0.2039 -0.1568
 8418SOL    HW136713   0.579   3.477   8.345  0.9871 -0.6096  0.8548
 8418SOL    HW236714   0.622   3.338   8.377 -0.7713 -1.3813 -0.3683
 8419SOL     OW36715   2.271   3.111   1.958  0.1969  0.0201  0.0995
 8419SOL    HW136716   2.330   3.165   2.012 -0.7793  1.3635 -0.1797
 8419SOL    HW236717   2.338   3.050   1.927  1.3030  1.8797 -1.1898
 8420SOL     OW36718   4.569   3.732   6.301  0.6883  0.0566 -0.2188
 8420SOL    HW136719   4.542   3.785   6.375  1.1106 -1.2476  0.8805
 8420SOL    HW236720   4.662   3.725   6.324  0.8217  0.7668 -0.5383
 8421SOL     OW36721   1.354   3.059   0.321  0.4018 -0.2337 -0.2973
 8421SOL    HW136722   1.347   3.000   0.396  0.5605 -0.7835 -0.7173
 8421SOL    HW236723   1.429   3.113   0.347 -0.4911  0.7876  0.1643
 8422SOL     OW36724   3.236   0.948   5.626 -0.1953  0.2421 -0.4299
 8422SOL    HW136725   3.268   0.989   5.707 -2.1322 -0.4295  0.6801
 8422SOL    HW236726   3.257   1.022   5.569 -0.2191  0.4826 -0.1310
 8423SOL     OW36727   2.425   3.521   1.941 -0.3095 -0.3563 -0.3195
 8423SOL    HW136728   2.408   3.615   1.930 -1.6124 -0.5249  0.2216
 8423SOL    HW236729   2.515   3.523   1.909 -0.6349 -0.7866 -1.2605
 8424SOL     OW36730   2.698   0.789  11.685  0.6304 -0.3890  0.2644
 8424SOL    HW136731   2.757   0.714  11.687 -0.9060 -1.5891  1.3771
 8424SOL    HW236732   2.762   0.846  11.642 -0.2979  0.6435  0.2649
 8425SOL     OW36733   1.016   3.125   5.844  0.4594  0.3581 -0.2163
 8425SOL    HW136734   0.975   3.166   5.919  0.9292  0.0169  0.2250
 8425SOL    HW236735   1.103   3.112   5.881  0.0130  1.4605  1.2018
 8426SOL     OW36736   2.117   2.948   4.658  0.0609 -0.3947  0.0947
 8426SOL    HW136737   2.200   2.904   4.674  0.7928  1.3686  1.2248
 8426SOL    HW236738   2.079   2.923   4.743  0.8945 -0.7703  0.3511
 8427SOL     OW36739   4.675   0.240   9.458 -0.2616 -0.2852 -0.3363
 8427SOL    HW136740   4.703   0.330   9.472 -0.9647 -0.2762  0.9548
 8427SOL    HW236741   4.605   0.232   9.523  0.6633  0.7795  0.8031
 8428SOL     OW36742   0.731   3.598  13.336  0.8631 -0.0126  0.1716
 8428SOL    HW136743   0.714   3.619  13.427  3.0246 -2.8499  1.2288
 8428SOL    HW236744   0.681   3.517  13.333 -0.2380  0.7061 -1.3056
 8429SOL     OW36745   2.497   3.214   4.218  0.4951  0.0045  0.6029
 8429SOL    HW136746   2.401   3.208   4.216  0.5605 -0.8049 -0.2934
 8429SOL    HW236747   2.509   3.194   4.311  0.3814  0.0629  0.6299
 8430SOL     OW36748   3.468   4.166   7.365 -0.4051  0.0256 -0.2718
 8430SOL    HW136749   3.491   4.104   7.295 -1.4466  0.1996 -0.7585
 8430SOL    HW236750   3.542   4.226   7.361 -1.9425  1.9096  0.0053
 8431SOL     OW36751   3.583   3.264  15.809  0.3749  0.5837  0.5954
 8431SOL    HW136752   3.669   3.307  15.802  0.7238 -0.4513 -1.4663
 8431SOL    HW236753   3.523   3.330  15.775  0.7503  0.0841 -1.0439
 8432SOL     OW36754   0.697   4.634   8.241  0.9561  0.1047 -0.4553
 8432SOL    HW136755   0.752   4.692   8.293  0.7481  1.5994 -1.9113
 8432SOL    HW236756   0.684   4.686   8.162  0.3695  0.9693  0.2062
 8433SOL     OW36757   4.542   0.822   8.999 -0.5097 -0.9065 -0.3845
 8433SOL    HW136758   4.577   0.734   9.012 -1.3445 -1.4250 -1.6599
 8433SOL    HW236759   4.599   0.865   9.062 -1.5940 -0.7645  0.4977
 8434SOL     OW36760   0.004   0.420   6.141  0.0512 -0.1456  0.1012
 8434SOL    HW136761   4.708   0.341   6.190  0.8293  0.2326  1.0226
 8434SOL    HW236762   4.641   0.429   6.102  0.2026 -0.7681 -0.3798
 8435SOL     OW36763   1.422   3.759   8.840 -0.3313  0.2772 -0.2838
 8435SOL    HW136764   1.436   3.664   8.842  0.9116  0.4976  1.8646
 8435SOL    HW236765   1.421   3.770   8.745  0.5509 -0.8287 -0.4274
 8436SOL     OW36766   4.502   0.217   3.303  0.1683  0.0055 -0.5246
 8436SOL    HW136767   4.535   0.181   3.385 -2.4254 -1.6617 -0.2036
 8436SOL    HW236768   4.416   0.240   3.339  1.0326  0.0930  1.4833
 8437SOL     OW36769   4.090   1.294   7.405 -0.1891  0.4455  0.0099
 8437SOL    HW136770   4.051   1.362   7.461  0.6683  2.2501 -1.5644
 8437SOL    HW236771   4.048   1.309   7.320 -2.7702 -2.3413  0.8025
 8438SOL     OW36772   4.458   1.044  14.908  0.0620  0.1306  0.4431
 8438SOL    HW136773   4.493   1.104  14.973 -1.5884  0.5835  0.9178
 8438SOL    HW236774   4.421   0.975  14.963  1.2348  0.3270  1.4749
 8439SOL     OW36775   0.839   4.709   3.880 -0.1083 -0.0625 -1.0136
 8439SOL    HW136776   0.848   4.619   3.850 -0.4667 -0.5590  0.3717
 8439SOL    HW236777   0.754   0.006   3.841 -1.8378 -0.5277  2.4631
 8440SOL     OW36778   0.407   2.254   4.596 -0.0916  0.7076 -0.2796
 8440SOL    HW136779   0.391   2.165   4.563 -3.8462  1.3942 -0.2925
 8440SOL    HW236780   0.483   2.273   4.542  1.3841  0.7222  1.8012
 8441SOL     OW36781   3.867   4.004   9.173  0.4744 -0.5834 -0.0449
 8441SOL    HW136782   3.787   3.973   9.130 -1.6630  0.7488  3.0431
 8441SOL    HW236783   3.912   4.045   9.098 -0.3229  1.2706  0.4782
 8442SOL     OW36784   2.489   0.335   7.197 -0.0230  0.1352  0.1233
 8442SOL    HW136785   2.460   0.385   7.121  2.5168  2.3085  0.5974
 8442SOL    HW236786   2.561   0.389   7.228  1.5816 -1.5816 -0.6458
 8443SOL     OW36787   1.817   3.425   6.925  0.0548  0.2675 -0.2467
 8443SOL    HW136788   1.797   3.465   6.840  2.2140  1.7503 -0.0430
 8443SOL    HW236789   1.912   3.430   6.935  0.0351  1.3387 -0.6531
 8444SOL     OW36790   0.875   3.784  14.348 -0.3947  0.4133  0.2012
 8444SOL    HW136791   0.813   3.746  14.285  1.3879  0.7271 -1.7738
 8444SOL    HW236792   0.925   3.709  14.382  0.0092  0.4130 -0.3883
 8445SOL     OW36793   2.605   3.920  10.033 -0.5478 -0.6839 -0.5725
 8445SOL    HW136794   2.635   3.985  10.096  0.8609 -0.5678 -1.3710
 8445SOL    HW236795   2.580   3.847  10.090 -0.9687  0.0438  0.1786
 8446SOL     OW36796   2.850   0.561   1.013  0.3264 -0.1449 -0.6560
 8446SOL    HW136797   2.829   0.572   0.920 -1.0434 -0.2478 -0.3479
 8446SOL    HW236798   2.785   0.625   1.042  1.6565  0.6185  0.6505
 8447SOL     OW36799   0.472   1.486  15.223  0.1151  0.2528  0.1312
 8447SOL    HW136800   0.403   1.427  15.250  0.5028 -1.1189 -1.8603
 8447SOL    HW236801   0.544   1.470  15.283 -0.6648 -3.1437  0.1411
 8448SOL     OW36802   0.286   0.824   1.844 -0.2907  0.2910 -0.0190
 8448SOL    HW136803   0.286   0.737   1.884 -0.3491 -0.2054 -1.0956
 8448SOL    HW236804   0.238   0.807   1.764 -0.0937 -0.5075  0.0300
 8449SOL     OW36805   1.996   1.090   2.836  0.1674  0.3660  0.0291
 8449SOL    HW136806   2.075   1.144   2.833  0.4405 -0.0588 -0.5403
 8449SOL    HW236807   1.999   1.055   2.925  1.2228 -1.1915 -0.6181
 8450SOL     OW36808   2.252   2.913  17.146  0.0931  0.3486 -0.0067
 8450SOL    HW136809   2.201   2.861  17.084  0.8056 -0.0964 -0.2218
 8450SOL    HW236810   2.225   2.865  17.224  0.5643 -1.8903 -1.2064
 8451SOL     OW36811   3.999   2.317   6.181  0.1060 -0.5381  0.2976
 8451SOL    HW136812   3.959   2.372   6.247 -2.0922  1.4232 -2.6594
 8451SOL    HW236813   3.920   2.293   6.132 -1.2579  1.3523  1.6181
 8452SOL     OW36814   0.971   2.536  10.951  0.0008  0.0657  0.1817
 8452SOL    HW136815   0.932   2.580  11.027  3.2591  1.5852  0.9363
 8452SOL    HW236816   0.920   2.455  10.944  1.3645 -0.9433  1.9818
 8453SOL     OW36817   1.548   3.183   4.177 -0.4168  0.2026  0.4366
 8453SOL    HW136818   1.612   3.112   4.177 -0.4096  0.2047  0.9795
 8453SOL    HW236819   1.508   3.164   4.262  1.1138 -2.6066  0.5277
 8454SOL     OW36820   4.715   4.643   1.703  0.3276 -0.0941 -0.1161
 8454SOL    HW136821   0.000   4.609   1.614 -1.4360 -0.1926 -0.2754
 8454SOL    HW236822   0.031   4.570   1.749  0.9451 -1.4815 -2.9008
 8455SOL     OW36823   0.747   2.338   7.475  0.4051 -0.3188  0.6411
 8455SOL    HW136824   0.819   2.372   7.423  1.3213 -0.7253  1.6470
 8455SOL    HW236825   0.784   2.257   7.511  0.1016 -0.7982 -0.1025
 8456SOL     OW36826   2.495   3.056  17.515 -0.6453 -0.0127  0.3900
 8456SOL    HW136827   2.498   3.123  17.582  0.6552 -0.8742  1.1974
 8456SOL    HW236828   2.408   3.067  17.477 -1.2387  0.4330  1.8902
 8457SOL     OW36829   1.211   2.773   6.886  0.4566  0.0279  0.1734
 8457SOL    HW136830   1.139   2.736   6.936  1.7572  0.8122  2.6311
 8457SOL    HW236831   1.178   2.862   6.896 -0.3676 -0.1196 -1.3449
 8458SOL     OW36832   3.440   3.268   6.787 -0.0619  0.1114 -0.8521
 8458SOL    HW136833   3.460   3.344   6.733 -1.3617  0.4751 -0.8135
 8458SOL    HW236834   3.474   3.204   6.724  0.2780 -0.0572 -0.4939
 8459SOL     OW36835   1.842   2.832  12.493  0.1569 -0.2613  0.3135
 8459SOL    HW136836   1.903   2.770  12.533  2.7764  1.4777 -0.9807
 8459SOL    HW236837   1.813   2.778  12.420 -1.6440  0.8330  0.2335
 8460SOL     OW36838   0.401   2.363   3.864 -0.4550 -0.5178  0.6118
 8460SOL    HW136839   0.475   2.424   3.870 -1.0151  0.2282 -0.0700
 8460SOL    HW236840   0.379   2.349   3.956 -1.3063 -1.5955  0.2402
 8461SOL     OW36841   0.911   1.788   6.658 -0.4752 -0.4331  0.1589
 8461SOL    HW136842   0.864   1.842   6.722  1.7229 -0.3770  1.7424
 8461SOL    HW236843   0.900   1.701   6.695 -1.2132 -0.7127 -0.7262
 8462SOL     OW36844   4.217   4.407  13.703 -0.4097 -1.0722  0.2840
 8462SOL    HW136845   4.199   4.314  13.690 -0.1397 -1.4095  2.2319
 8462SOL    HW236846   4.128   4.442  13.699  0.0914  0.1706 -0.1734
 8463SOL     OW36847   1.337   3.967   2.734 -0.0326 -0.2860  0.2298
 8463SOL    HW136848   1.403   4.009   2.790  0.7509 -1.0297 -0.1286
 8463SOL    HW236849   1.377   3.883   2.712  0.3793 -0.4364  1.5677
 8464SOL     OW36850   1.603   0.495   7.556  0.0177  0.3506 -0.2564
 8464SOL    HW136851   1.554   0.495   7.638 -0.7290  0.7017 -0.7106
 8464SOL    HW236852   1.534   0.525   7.497 -1.7513 -1.9782  0.5956
 8465SOL     OW36853   1.403   0.963  12.807 -0.5730 -0.5350  0.7052
 8465SOL    HW136854   1.459   1.037  12.830 -1.8183  0.2743  1.0748
 8465SOL    HW236855   1.468   0.895  12.789  0.4099  0.0779  1.9315
 8466SOL     OW36856   3.890   0.410   1.691  0.5974  0.1552  0.4644
 8466SOL    HW136857   3.938   0.393   1.773 -0.1323 -0.3383  0.7861
 8466SOL    HW236858   3.800   0.398   1.719 -0.2656  1.0705 -1.9510
 8467SOL     OW36859   2.205   0.618   4.738 -0.1127 -0.3512  0.4173
 8467SOL    HW136860   2.215   0.681   4.667  0.7337 -1.4213 -0.4310
 8467SOL    HW236861   2.179   0.532   4.703 -1.7863  0.1469  0.4708
 8468SOL     OW36862   0.805   1.860   9.838  0.2442  0.1171 -0.6462
 8468SOL    HW136863   0.777   1.948   9.811  1.2875  0.5609 -0.3120
 8468SOL    HW236864   0.778   1.811   9.760  0.7250  0.6840 -1.1748
 8469SOL     OW36865   0.339   0.514   0.602 -0.6560  0.0911 -0.2404
 8469SOL    HW136866   0.406   0.451   0.627 -0.4527  0.4729  0.1787
 8469SOL    HW236867   0.324   0.495   0.510  1.1439  0.0614 -0.5190
 8470SOL     OW36868   1.462   2.064   5.221 -0.0785  0.3117 -0.4118
 8470SOL    HW136869   1.547   2.026   5.198  0.6497  0.5029  2.0131
 8470SOL    HW236870   1.421   2.048   5.136  2.2757  0.3934 -1.5832
 8471SOL     OW36871   4.477   0.010   7.758 -0.1251 -0.0332  0.2149
 8471SOL    HW136872   4.477   0.052   7.844 -0.2228 -0.9254  0.6464
 8471SOL    HW236873   4.387   4.704   7.751 -0.3612  0.8453 -0.5941
 8472SOL     OW36874   3.136   2.960   1.059 -0.1103  0.2402 -0.6542
 8472SOL    HW136875   3.228   2.967   1.033  0.5298 -1.1884  1.2031
 8472SOL    HW236876   3.131   2.869   1.089  0.3606  1.2594  2.4736
 8473SOL     OW36877   0.190   3.697   1.650 -0.5813 -0.0885  0.4853
 8473SOL    HW136878   0.261   3.665   1.705  0.0304 -0.6348 -0.6089
 8473SOL    HW236879   0.122   3.639   1.684 -3.2684  2.2701 -0.8627
 8474SOL     OW36880   3.699   2.390   2.854  0.1152 -0.2970  0.3266
 8474SOL    HW136881   3.604   2.399   2.863 -0.0980 -1.8038 -0.3708
 8474SOL    HW236882   3.727   2.409   2.943  3.7559  1.4236 -1.2214
 8475SOL     OW36883   3.720   4.220   0.797  0.2512 -0.3835 -0.9036
 8475SOL    HW136884   3.710   4.314   0.778 -1.4007 -0.5190 -0.7124
 8475SOL    HW236885   3.814   4.217   0.810 -0.2174  1.1929  3.0874
 8476SOL     OW36886   3.092   3.588   2.278  0.1535  0.4178 -0.2717
 8476SOL    HW136887   3.163   3.553   2.332 -1.5528 -1.9171  0.4272
 8476SOL    HW236888   3.142   3.576   2.198 -0.3298 -0.7553 -0.3854
 8477SOL     OW36889   4.109   3.314   5.702  0.4459 -0.5697  0.4286
 8477SOL    HW136890   4.119   3.408   5.688  1.1018 -0.6833  0.1105
 8477SOL    HW236891   4.200   3.294   5.722 -0.4695 -3.0027  2.1906
 8478SOL     OW36892   0.197   1.524   7.795  0.0011  0.4546  0.3722
 8478SOL    HW136893   0.158   1.566   7.719 -0.3064 -1.1153 -0.3332
 8478SOL    HW236894   0.130   1.459   7.819  1.8840 -2.0284 -1.0994
 8479SOL     OW36895   2.637   1.941   4.189 -1.0482  0.1438 -0.0499
 8479SOL    HW136896   2.581   1.939   4.111  0.2421 -0.3558 -0.9764
 8479SOL    HW236897   2.717   1.971   4.146 -2.2313  1.7410 -1.1026
 8480SOL     OW36898   4.625   0.633  17.423 -0.0108 -0.2120 -0.0480
 8480SOL    HW136899   4.607   0.571  17.494 -0.0750  1.1945  1.1542
 8480SOL    HW236900   4.547   0.630  17.368 -1.1750 -1.1216  1.6378
 8481SOL     OW36901   1.105   1.608   8.868  0.1099 -0.2568 -0.1927
 8481SOL    HW136902   1.136   1.563   8.790  2.9587 -0.9158  1.3450
 8481SOL    HW236903   1.178   1.669   8.881 -0.9686  1.1079 -0.4732
 8482SOL     OW36904   2.595   3.659   8.548 -0.1778  0.0772 -0.2841
 8482SOL    HW136905   2.673   3.645   8.603  0.5854  1.1407 -1.0956
 8482SOL    HW236906   2.550   3.579   8.576 -0.9430  0.4915 -0.3474
 8483SOL     OW36907   0.262   3.329  10.321 -0.1101  0.1157 -0.5369
 8483SOL    HW136908   0.198   3.370  10.379 -1.1677 -1.4796 -0.5583
 8483SOL    HW236909   0.235   3.237  10.325  0.0038 -0.0091 -2.9187
 8484SOL     OW36910   4.206   3.793   8.981 -0.3226  0.0998 -0.1271
 8484SOL    HW136911   4.290   3.750   8.994  0.2224  1.9999  2.6103
 8484SOL    HW236912   4.212   3.868   9.041  0.9323 -0.1388  0.0496
 8485SOL     OW36913   4.261   0.505   3.843  0.2209  0.1201  0.1930
 8485SOL    HW136914   4.284   0.567   3.773 -0.9353  0.4409  0.0918
 8485SOL    HW236915   4.201   0.449   3.795  0.4218 -0.2096  0.3267
 8486SOL     OW36916   4.104   1.106   3.083 -0.3128 -0.3125 -0.2172
 8486SOL    HW136917   4.167   1.168   3.120 -2.7694  2.1184 -0.2018
 8486SOL    HW236918   4.054   1.104   3.164  0.4301 -2.9482  0.1772
 8487SOL     OW36919   0.778   1.131  17.309  0.2676 -0.0282 -0.2820
 8487SOL    HW136920   0.710   1.195  17.289  0.6204  1.2547  2.6468
 8487SOL    HW236921   0.736   1.089  17.384  0.5095 -2.1665 -1.3318
 8488SOL     OW36922   0.821   2.803  13.168  0.5197  0.3866 -0.4872
 8488SOL    HW136923   0.852   2.739  13.232  0.7971  1.3585  0.3530
 8488SOL    HW236924   0.781   2.859  13.234  0.9100  0.2777 -0.1557
 8489SOL     OW36925   1.324   2.935   4.232 -0.0674  0.4876 -0.4499
 8489SOL    HW136926   1.235   2.942   4.199 -1.3121 -2.1172  2.3552
 8489SOL    HW236927   1.327   2.842   4.254 -1.7933  0.1082 -1.8855
 8490SOL     OW36928   1.835   4.208   1.564  0.3961  0.3989 -0.7403
 8490SOL    HW136929   1.751   4.173   1.593 -0.3450 -0.1668 -3.5785
 8490SOL    HW236930   1.828   4.197   1.469 -0.4361  1.5108 -0.8053
 8491SOL     OW36931   1.588   3.749   8.303 -0.1180 -0.7700  0.2557
 8491SOL    HW136932   1.669   3.720   8.345 -0.1615 -2.3076 -0.7058
 8491SOL    HW236933   1.605   3.835   8.265 -0.3882 -1.4938 -1.5131
 8492SOL     OW36934   0.546   0.987   0.737  0.0865  0.0717 -0.1706
 8492SOL    HW136935   0.486   1.028   0.800  1.2034  1.2790  0.1020
 8492SOL    HW236936   0.501   0.903   0.733  1.9607 -0.9219 -0.5692
 8493SOL     OW36937   3.331   0.564  11.306 -0.2154  0.0307 -0.0071
 8493SOL    HW136938   3.414   0.531  11.272  0.3676  0.4134  1.0327
 8493SOL    HW236939   3.281   0.488  11.276  2.7724 -1.6244 -0.8084
 8494SOL     OW36940   3.704   3.736   6.819 -0.1278  0.7818 -0.2521
 8494SOL    HW136941   3.653   3.781   6.752  0.3475 -0.6059 -1.5414
 8494SOL    HW236942   3.693   3.795   6.894 -1.1958  0.4134 -0.1165
 8495SOL     OW36943   3.875   1.922   4.505  0.3298 -0.4995  0.0601
 8495SOL    HW136944   3.863   1.862   4.431 -0.2164 -0.1925 -0.0971
 8495SOL    HW236945   3.824   1.999   4.481  0.1677 -0.0812  1.7466
 8496SOL     OW36946   1.311   2.885   9.680 -0.1485  0.7201 -0.4354
 8496SOL    HW136947   1.379   2.875   9.614  2.1155  0.1652  2.0129
 8496SOL    HW236948   1.318   2.806   9.733  2.9298  1.5641  0.4024
 8497SOL     OW36949   4.065   3.602  13.612  0.2637 -0.1340 -0.1196
 8497SOL    HW136950   4.067   3.624  13.705 -0.3998 -1.6929  0.2622
 8497SOL    HW236951   4.128   3.530  13.614 -0.0718 -0.4703 -1.4724
 8498SOL     OW36952   2.267   1.000  15.070 -0.3001  0.1394  0.5162
 8498SOL    HW136953   2.282   0.986  14.976 -0.5834  0.9826  0.3495
 8498SOL    HW236954   2.176   1.028  15.062 -0.5817 -0.4186  1.7110
 8499SOL     OW36955   3.840   1.285  17.410 -0.7192  0.2813 -0.2567
 8499SOL    HW136956   3.841   1.268  17.504  0.0279 -0.6143 -0.4227
 8499SOL    HW236957   3.933   1.291  17.387 -0.9582  1.2061 -0.9963
 8500SOL     OW36958   3.535   0.096  16.997 -0.2867  0.5647 -0.3890
 8500SOL    HW136959   3.469   0.123  16.932  0.2505  0.9527 -0.7724
 8500SOL    HW236960   3.501   0.014  17.032 -0.0953  0.3372 -0.7400
 8501SOL     OW36961   2.247   3.398   1.746  0.0768  0.3041 -0.1616
 8501SOL    HW136962   2.298   3.418   1.824  2.4224  0.9705 -1.8792
 8501SOL    HW236963   2.203   3.315   1.762 -0.4904  0.4292 -1.0624
 8502SOL     OW36964   0.430   3.685   8.733 -0.6486  0.2517 -0.3225
 8502SOL    HW136965   0.399   3.668   8.644  1.5001 -1.0280 -0.8309
 8502SOL    HW236966   0.524   3.695   8.718 -0.8379  2.0099 -0.3426
 8503SOL     OW36967   2.587   2.175   4.841 -0.1938 -0.1976  0.2766
 8503SOL    HW136968   2.659   2.211   4.789  0.9999 -2.0907  0.6374
 8503SOL    HW236969   2.650   2.136   4.902  0.9100  2.6582  1.0172
 8504SOL     OW36970   0.660   0.494   0.840  0.1594  0.1616 -0.7274
 8504SOL    HW136971   0.659   0.588   0.862  2.3867 -0.3829  1.7655
 8504SOL    HW236972   0.716   0.467   0.913 -1.2186  0.7542  0.5511
 8505SOL     OW36973   1.034   3.852   5.449 -0.0928  0.8479  0.2931
 8505SOL    HW136974   1.004   3.761   5.455  0.7988  0.6674  1.8413
 8505SOL    HW236975   0.979   3.891   5.517  0.8129  0.2804  1.3442
 8506SOL     OW36976   1.383   1.495  17.688 -0.0505 -0.4135  0.2878
 8506SOL    HW136977   1.298   1.453  17.678 -0.9484  1.2888  0.8540
 8506SOL    HW236978   1.374   1.491   0.084 -1.9427  0.4471  0.1386
 8507SOL     OW36979   4.191   0.245   3.176  0.0664 -0.1368  0.0677
 8507SOL    HW136980   4.219   0.216   3.089 -2.2088  0.1902 -0.7647
 8507SOL    HW236981   4.113   0.292   3.148  1.0402  1.7188  0.4819
 8508SOL     OW36982   4.412   3.502   6.284  0.4084  0.0889 -0.0070
 8508SOL    HW136983   4.484   3.562   6.304  0.5388 -0.2391  0.5162
 8508SOL    HW236984   4.450   3.483   6.198  2.0664 -0.6529  0.8815
 8509SOL     OW36985   1.192   1.468   7.986 -0.7021  0.2680  0.1926
 8509SOL    HW136986   1.163   1.378   7.995  0.0257 -0.1080 -1.1958
 8509SOL    HW236987   1.266   1.469   7.926  1.9951 -0.8231  3.5565
 8510SOL     OW36988   0.690   1.727   4.000  0.2204  0.0763  0.1804
 8510SOL    HW136989   0.771   1.679   3.982  0.8383  0.9356  0.6574
 8510SOL    HW236990   0.657   1.773   3.923  0.5411  2.4340  1.4672
 8511SOL     OW36991   3.001   2.201   6.567  0.3703  0.3366  0.3245
 8511SOL    HW136992   3.055   2.270   6.605  1.7645  0.0014 -1.0700
 8511SOL    HW236993   3.056   2.124   6.582  0.2656  0.7421  2.6640
 8512SOL     OW36994   0.625   1.835   3.761 -0.0937  0.7643  0.6074
 8512SOL    HW136995   0.662   1.909   3.714  1.1075  0.4924  1.1172
 8512SOL    HW236996   0.533   1.859   3.750 -0.1725  0.7787  1.2681
 8513SOL     OW36997   2.353   1.144   8.538 -0.3147  0.5951 -0.0229
 8513SOL    HW136998   2.368   1.102   8.623 -0.3986 -0.7495 -0.6803
 8513SOL    HW236999   2.287   1.085   8.501  0.6568 -0.6623  0.2673
 8514SOL     OW37000   4.569   2.663   4.774  0.3087 -0.2222 -0.2946
 8514SOL    HW137001   4.482   2.687   4.808  0.0669 -1.7793  0.1959
 8514SOL    HW237002   4.593   2.743   4.728 -3.2638  0.1207 -1.5656
 8515SOL     OW37003   4.426   3.131   3.277 -0.0408  0.3778 -0.3855
 8515SOL    HW137004   4.342   3.157   3.316  0.7415  0.9485  0.9139
 8515SOL    HW237005   4.411   3.159   3.187  0.9482  5.7040  1.0889
 8516SOL     OW37006   3.714   2.693   2.979  0.0446 -0.0200  0.1652
 8516SOL    HW137007   3.763   2.754   3.035  1.8858  1.3697 -2.9723
 8516SOL    HW237008   3.757   2.609   2.996  2.2677  1.0364 -0.1720
 8517SOL     OW37009   4.397   0.072   6.484  0.5007  0.3064  0.3003
 8517SOL    HW137010   4.392   0.021   6.565  2.3825 -1.9574 -0.9832
 8517SOL    HW237011   4.415   0.016   6.408  0.4450  1.6970 -0.7267
 8518SOL     OW37012   0.656   0.220   7.280 -0.1800 -0.3234 -0.2655
 8518SOL    HW137013   0.741   0.177   7.270  0.5442  1.3648 -1.3823
 8518SOL    HW237014   0.678   0.310   7.254 -1.5324  0.8024  2.4745
 8519SOL     OW37015   1.426   1.769   5.306  0.0316 -0.0445  0.3831
 8519SOL    HW137016   1.368   1.821   5.362 -1.5449 -1.0073 -0.3627
 8519SOL    HW237017   1.511   1.794   5.343 -0.5272  0.1543  1.5584
 8520SOL     OW37018   4.172   3.484   9.556 -0.2049  0.3207 -0.1885
 8520SOL    HW137019   4.205   3.511   9.642 -0.1064 -0.9889  0.1838
 8520SOL    HW237020   4.228   3.407   9.549  1.6276  1.6428 -0.0694
 8521SOL     OW37021   2.466   0.069   5.909  0.2810  0.1948 -0.3696
 8521SOL    HW137022   2.406   0.059   5.983 -1.1210  1.7636 -1.2758
 8521SOL    HW237023   2.551   0.045   5.946 -0.3325  0.4641  1.1935
 8522SOL     OW37024   2.670   2.980   7.677  1.0366  0.3738 -0.4382
 8522SOL    HW137025   2.642   3.048   7.738 -0.2231 -0.9572  0.4908
 8522SOL    HW237026   2.729   3.039   7.630 -0.7028  1.0172 -1.7977
 8523SOL     OW37027   3.263   4.174  16.348 -0.1255 -0.0633  0.8026
 8523SOL    HW137028   3.179   4.199  16.310  1.0477  0.7180 -1.2366
 8523SOL    HW237029   3.232   4.119  16.421  0.2274 -1.1747  0.1090
 8524SOL     OW37030   3.116   3.470   6.447  0.1178  0.0665 -0.1995
 8524SOL    HW137031   3.121   3.562   6.422 -1.2003  0.5217  1.1721
 8524SOL    HW237032   3.063   3.431   6.378  1.0576 -0.3519 -0.6955
 8525SOL     OW37033   0.912   3.637   6.349  0.3036  0.4615 -0.8053
 8525SOL    HW137034   0.819   3.654   6.360  0.0736  0.2161 -2.4036
 8525SOL    HW237035   0.937   3.704   6.414 -0.1754  0.8062 -0.9850
 8526SOL     OW37036   3.558   3.777   9.364  0.2467  0.0856  0.8117
 8526SOL    HW137037   3.597   3.690   9.363  0.6472  0.2537  1.5452
 8526SOL    HW237038   3.480   3.763   9.310  0.3434  0.9424  0.4575
 8527SOL     OW37039   2.415   1.866   0.741  0.0630 -0.9939 -0.5558
 8527SOL    HW137040   2.405   1.780   0.700 -0.4730 -0.5495 -1.3481
 8527SOL    HW237041   2.346   1.922   0.706 -1.5663 -0.5806  3.3042
 8528SOL     OW37042   4.185   3.863   3.167 -0.2998 -0.1432  0.0574
 8528SOL    HW137043   4.234   3.944   3.154 -0.0125 -0.5436 -1.3609
 8528SOL    HW237044   4.258   3.809   3.137 -0.4439  0.9409 -2.2244
 8529SOL     OW37045   3.351   2.805   7.716  0.0022 -0.0329  0.1730
 8529SOL    HW137046   3.326   2.865   7.786  0.1174 -1.4356  1.4194
 8529SOL    HW237047   3.391   2.734   7.767  1.1558  0.1656 -0.4442
 8530SOL     OW37048   0.239   4.558  14.623 -0.1832 -0.1687 -0.1394
 8530SOL    HW137049   0.191   4.634  14.591  2.3224  0.8015 -1.5662
 8530SOL    HW237050   0.329   4.588  14.612 -0.0388  0.0527  1.5690
 8531SOL     OW37051   2.257   1.693   1.856  0.2828  0.1198  0.1574
 8531SOL    HW137052   2.277   1.777   1.896  0.4440 -0.3290  1.0089
 8531SOL    HW237053   2.236   1.649   1.938 -0.0659  1.7382  0.9397
 8532SOL     OW37054   1.839   1.938  16.913 -0.1285 -0.4986 -0.4566
 8532SOL    HW137055   1.860   1.857  16.958 -0.5807 -0.2915  0.1265
 8532SOL    HW237056   1.911   1.998  16.933 -0.4602 -0.2747  0.0845
 8533SOL     OW37057   3.681   4.293   9.581 -0.0135 -0.5580  0.4015
 8533SOL    HW137058   3.594   4.280   9.618 -1.2197  0.2211 -2.1460
 8533SOL    HW237059   3.657   4.334   9.498 -0.9227  1.0708  1.4842
 8534SOL     OW37060   4.561   1.569   1.400  0.1478 -0.4443  0.4080
 8534SOL    HW137061   4.551   1.660   1.371 -0.2990  0.2995  2.9074
 8534SOL    HW237062   4.578   1.523   1.318 -3.8302  0.9749 -1.2292
 8535SOL     OW37063   0.631   3.172   5.100  0.4826 -0.5006 -0.2698
 8535SOL    HW137064   0.637   3.085   5.061 -0.1260 -0.0438 -1.3678
 8535SOL    HW237065   0.683   3.154   5.179  1.2018  2.1310 -0.1194
 8536SOL     OW37066   2.855   1.148   6.152  0.3037  0.5759  0.2025
 8536SOL    HW137067   2.882   1.061   6.123 -0.0671 -0.2511  2.3109
 8536SOL    HW237068   2.907   1.195   6.086 -0.3656  1.7213  0.4867
 8537SOL     OW37069   4.606   3.990   5.063 -0.3003 -0.1767 -0.0957
 8537SOL    HW137070   4.604   3.919   5.000 -2.7612 -1.3878  1.3568
 8537SOL    HW237071   4.676   4.044   5.025  0.6896 -1.1406  0.3767
 8538SOL     OW37072   1.385   2.134   7.830  0.6338 -0.0087 -0.1450
 8538SOL    HW137073   1.294   2.136   7.862  0.5741 -5.7703  0.0723
 8538SOL    HW237074   1.365   2.132   7.737 -0.3931  2.1340  0.0388
 8539SOL     OW37075   3.036   3.632   9.868 -0.3271 -0.0927  0.2368
 8539SOL    HW137076   3.103   3.581   9.914  1.2899  0.6799 -1.2587
 8539SOL    HW237077   2.992   3.670   9.944  1.2470  3.3049 -0.5556
 8540SOL     OW37078   1.928   2.050  16.479 -0.2038 -0.1108 -0.5403
 8540SOL    HW137079   1.958   2.054  16.388  0.3901 -0.5258 -0.3579
 8540SOL    HW237080   1.899   1.960  16.488 -2.4948  0.5139 -1.5556
 8541SOL     OW37081   3.301   1.892   9.818  0.2214 -0.3723 -0.3600
 8541SOL    HW137082   3.391   1.901   9.850 -0.7121  1.1391  1.8416
 8541SOL    HW237083   3.322   1.880   9.725 -0.3382 -0.5078 -0.4685
 8542SOL     OW37084   0.674   4.324   0.297 -0.3090  0.1996 -0.5804
 8542SOL    HW137085   0.644   4.264   0.229  2.6863 -0.6236 -1.1841
 8542SOL    HW237086   0.642   4.408   0.263 -0.7645  0.0092 -0.6231
 8543SOL     OW37087   4.345   0.609   3.076  0.5894  0.6264  0.4280
 8543SOL    HW137088   4.393   0.633   3.156  1.2445  1.1866 -0.1391
 8543SOL    HW237089   4.381   0.522   3.063 -0.8227  0.5086 -2.5897
 8544SOL     OW37090   1.465   2.089   8.190 -0.1408  0.6854 -0.3722
 8544SOL    HW137091   1.494   2.001   8.163 -0.2688 -0.0155  1.7919
 8544SOL    HW237092   1.444   2.062   8.279  0.1664  1.9593  0.0766
 8545SOL     OW37093   4.660   0.967   1.784 -0.7026 -0.7082 -0.0557
 8545SOL    HW137094   4.612   0.926   1.857  0.3865  2.8822  2.6675
 8545SOL    HW237095   4.720   0.900   1.751 -0.5206 -1.1926  1.2575
 8546SOL     OW37096   0.698   2.968   6.397  0.1752 -0.2337 -0.2113
 8546SOL    HW137097   0.728   2.879   6.414  0.6427  0.2637  1.5725
 8546SOL    HW237098   0.609   2.965   6.434  0.4002  1.2434  0.4332
 8547SOL     OW37099   3.970   3.692   6.503  0.2502 -0.3487 -0.2303
 8547SOL    HW137100   3.937   3.780   6.520 -0.2475 -0.6619  0.4307
 8547SOL    HW237101   4.064   3.694   6.523  0.2259  0.5407 -0.2235
 8548SOL     OW37102   0.470   3.639   3.488 -0.6839  0.3213  0.3490
 8548SOL    HW137103   0.554   3.662   3.449  0.6305 -1.4149  2.1908
 8548SOL    HW237104   0.482   3.546   3.505  4.8999  1.0694  0.6510
 8549SOL     OW37105   4.413   1.436   3.671  0.1047  0.4480 -0.5678
 8549SOL    HW137106   4.350   1.376   3.710  1.7854 -1.1046 -0.2242
 8549SOL    HW237107   4.407   1.510   3.732 -2.1960  1.1857 -1.6815
 8550SOL     OW37108   1.820   4.240   2.989  0.2928  0.2821 -0.3305
 8550SOL    HW137109   1.724   4.245   2.984  0.1402 -1.3740  1.2157
 8550SOL    HW237110   1.816   4.144   2.988  0.8513  0.2512  0.6743
 8551SOL     OW37111   2.029   1.314   6.740 -0.1023 -0.5700  0.0928
 8551SOL    HW137112   1.975   1.392   6.754  2.1209  1.0130 -0.1442
 8551SOL    HW237113   1.962   1.257   6.703 -0.5032 -0.5639  0.8074
 8552SOL     OW37114   0.614   4.017   6.940 -0.0203 -0.2095  0.4145
 8552SOL    HW137115   0.617   3.981   7.029  4.0129  0.9731  0.7735
 8552SOL    HW237116   0.696   4.064   6.928  0.6760 -1.3229  0.7804
 8553SOL     OW37117   1.062   2.528   6.677 -0.3051  0.1140 -0.3663
 8553SOL    HW137118   1.157   2.539   6.681 -0.6281  3.0380 -0.5927
 8553SOL    HW237119   1.054   2.444   6.632  1.6846 -0.0628 -0.3814
 8554SOL     OW37120   2.662   3.928   6.941  0.3078 -0.4841  0.0408
 8554SOL    HW137121   2.618   3.843   6.952 -0.6042  0.2387  1.9056
 8554SOL    HW237122   2.702   3.931   7.028  2.1812 -2.9520 -0.7363
 8555SOL     OW37123   3.691   2.240  14.614 -0.5964  0.7370  0.4843
 8555SOL    HW137124   3.602   2.206  14.604  0.0954 -1.4623  2.0034
 8555SOL    HW237125   3.718   2.251  14.523 -1.0808 -1.7682  0.0389
 8556SOL     OW37126   2.907   4.198   4.458 -0.2500  0.0583 -0.2063
 8556SOL    HW137127   2.834   4.246   4.418 -0.5776 -0.4173 -0.1904
 8556SOL    HW237128   2.946   4.159   4.379 -2.6390 -2.6628 -0.0502
 8557SOL     OW37129   4.327   3.105  15.777 -0.1356 -0.5541  0.2610
 8557SOL    HW137130   4.254   3.052  15.809 -1.6889  0.2238 -2.0399
 8557SOL    HW237131   4.289   3.192  15.769 -0.1375 -0.2687  3.2330
 8558SOL     OW37132   0.106   1.426   2.065 -0.1514 -0.2577  0.2947
 8558SOL    HW137133   0.066   1.502   2.024 -1.8680 -1.9838 -1.2270
 8558SOL    HW237134   0.133   1.366   1.996  1.8912  0.3796  0.5445
 8559SOL     OW37135   3.558   3.382   3.612 -0.3629  0.4880 -0.2461
 8559SOL    HW137136   3.573   3.476   3.624  0.0118  0.3692  0.2097
 8559SOL    HW237137   3.563   3.349   3.701  1.9443 -0.3373 -0.6661
 8560SOL     OW37138   0.180   2.051   2.450 -0.2471  0.0671 -0.9287
 8560SOL    HW137139   0.152   1.959   2.454  2.2806 -0.6650  0.0471
 8560SOL    HW237140   0.103   2.097   2.417 -0.9529  0.1252  0.7705
 8561SOL     OW37141   3.107   3.645   6.794 -0.4660  0.1173 -0.1393
 8561SOL    HW137142   3.126   3.691   6.876  2.6519  1.3421 -1.5456
 8561SOL    HW237143   3.181   3.686   6.749 -0.3377  2.1274  1.9147
 8562SOL     OW37144   4.331   2.475   3.387 -0.0828 -0.4240  0.6337
 8562SOL    HW137145   4.316   2.512   3.474 -0.9016 -1.1538  0.7988
 8562SOL    HW237146   4.363   2.387   3.405 -0.7340 -1.0348 -1.1921
 8563SOL     OW37147   2.726   1.344   6.301 -0.1480  0.2346  0.1805
 8563SOL    HW137148   2.782   1.365   6.376 -0.7175  1.2125  0.3299
 8563SOL    HW237149   2.769   1.272   6.254  2.6028  1.6112  0.5797
 8564SOL     OW37150   4.332   4.315   7.792 -0.6359 -0.2093 -0.5250
 8564SOL    HW137151   4.393   4.358   7.732  1.4015  0.8435  2.2794
 8564SOL    HW237152   4.374   4.333   7.877  1.4156 -2.6651 -1.0143
 8565SOL     OW37153   3.660   1.207  17.231 -0.6346  0.1041 -0.0906
 8565SOL    HW137154   3.721   1.252  17.289  0.4800 -0.5445 -0.7621
 8565SOL    HW237155   3.596   1.277  17.220 -2.0609 -0.9548  1.3004
 8566SOL     OW37156   2.621   3.663   8.070  0.1481 -0.3010 -0.0336
 8566SOL    HW137157   2.622   3.683   8.163 -0.6352 -0.0347 -0.0796
 8566SOL    HW237158   2.544   3.606   8.067  0.7958 -1.1756 -0.1322
 8567SOL     OW37159   1.993   3.297  15.321  0.1002 -0.0434  0.3412
 8567SOL    HW137160   1.904   3.321  15.346 -0.0894 -2.2478  1.7844
 8567SOL    HW237161   2.006   3.323  15.229 -2.1817  3.4715  0.9923
 8568SOL     OW37162   0.364   3.089   3.687 -0.4701  0.0987  0.7467
 8568SOL    HW137163   0.359   3.184   3.699  0.8209  0.1935  0.5268
 8568SOL    HW237164   0.427   3.083   3.615  0.6277 -1.3040  1.8150
 8569SOL     OW37165   0.664   1.872   6.007 -0.2097 -0.0801  0.1982
 8569SOL    HW137166   0.613   1.943   5.968  1.5526  0.1066 -1.7842
 8569SOL    HW237167   0.596   1.818   6.048 -0.1184 -2.2959 -2.5608
 8570SOL     OW37168   0.871   2.988   1.371  0.4410 -0.0395 -0.0871
 8570SOL    HW137169   0.807   2.976   1.301  0.7197 -0.2771 -0.2940
 8570SOL    HW237170   0.882   3.083   1.371 -0.6279  0.0934  0.3225
 8571SOL     OW37171   4.037   0.243   2.730  0.2208  0.1354 -0.3434
 8571SOL    HW137172   4.011   0.298   2.656 -0.1207 -0.7669 -0.8967
 8571SOL    HW237173   4.010   0.156   2.703  0.2439 -0.7849  2.6651
 8572SOL     OW37174   3.310   1.929   3.708  0.0507  0.0373 -0.0550
 8572SOL    HW137175   3.401   1.901   3.722  0.0631  0.0192 -0.1739
 8572SOL    HW237176   3.307   1.912   3.614  0.5196  2.2473 -0.4672
 8573SOL     OW37177   1.110   0.588   4.492  0.2381 -0.2145 -0.1257
 8573SOL    HW137178   1.193   0.622   4.459 -0.3619  0.5456 -0.8243
 8573SOL    HW237179   1.119   0.610   4.584  0.2604 -0.7889  0.0138
 8574SOL     OW37180   0.742   2.123  10.254 -0.0148  0.1318 -0.7084
 8574SOL    HW137181   0.769   2.080  10.335 -1.1639  0.4006 -0.1894
 8574SOL    HW237182   0.738   2.052  10.191  2.3491 -0.9461  0.3351
 8575SOL     OW37183   2.560   4.061   4.725 -0.5884  0.1956 -0.2942
 8575SOL    HW137184   2.561   4.029   4.815  1.0257  1.8928  0.2972
 8575SOL    HW237185   2.632   4.008   4.689 -0.9909 -1.8336  1.8387
 8576SOL     OW37186   2.151   4.487   7.167 -1.1239 -0.6258  0.3796
 8576SOL    HW137187   2.174   4.395   7.151 -0.6068 -0.5386  0.6410
 8576SOL    HW237188   2.190   4.506   7.252  0.1331  0.2456 -0.3832
 8577SOL     OW37189   2.952   1.144   6.823  0.7337 -0.2966 -0.1188
 8577SOL    HW137190   2.881   1.087   6.853  0.1812  1.5298  1.9645
 8577SOL    HW237191   2.982   1.179   6.907 -0.3742  0.2060  0.0714
 8578SOL     OW37192   4.447   2.740   5.674  0.4006  0.0454  0.2689
 8578SOL    HW137193   4.406   2.826   5.674 -0.3740 -0.3155  1.9134
 8578SOL    HW237194   4.438   2.699   5.761  3.7088 -0.6763  0.2838
 8579SOL     OW37195   2.798   0.957   8.322  0.3477  0.1144  0.0753
 8579SOL    HW137196   2.775   1.022   8.389  0.2496 -0.5177  0.6473
 8579SOL    HW237197   2.881   0.917   8.348 -0.5919 -1.6401  0.3878
 8580SOL     OW37198   3.603   1.875   3.637 -0.1598 -0.0917 -0.1365
 8580SOL    HW137199   3.556   1.810   3.689  2.1545  0.1440  2.2222
 8580SOL    HW237200   3.545   1.891   3.562 -1.5830 -0.4925  0.8872
 8581SOL     OW37201   1.347   4.600   8.454  0.0579  0.8588  0.2420
 8581SOL    HW137202   1.424   4.583   8.401 -0.3476  0.7934 -0.3241
 8581SOL    HW237203   1.286   4.550   8.400  3.2657 -1.0414 -1.5863
 8582SOL     OW37204   0.731   2.649   0.454  0.6030 -0.3265  0.3100
 8582SOL    HW137205   0.750   2.716   0.388  1.7000  0.5493  1.5141
 8582SOL    HW237206   0.800   2.584   0.460 -0.1334 -1.3051 -1.5861
 8583SOL     OW37207   1.229   2.804   5.290 -0.6836 -0.4935  0.4785
 8583SOL    HW137208   1.267   2.746   5.356 -2.4682  0.3381  2.2224
 8583SOL    HW237209   1.293   2.816   5.219 -1.1148 -2.4096 -0.2221
 8584SOL     OW37210   1.328   2.820   2.177 -0.0277  0.3459  0.3560
 8584SOL    HW137211   1.250   2.777   2.211 -0.4062 -0.5567 -1.6402
 8584SOL    HW237212   1.353   2.776   2.096  1.1651  1.8220 -0.0776
 8585SOL     OW37213   2.573   3.207  12.367 -1.0446  0.3103 -0.2245
 8585SOL    HW137214   2.666   3.221  12.348 -0.9481 -1.9265 -1.2951
 8585SOL    HW237215   2.557   3.152  12.291 -1.1573  0.3344 -0.2175
 8586SOL     OW37216   2.637   1.525   0.366 -0.3923 -0.6657 -0.5463
 8586SOL    HW137217   2.695   1.506   0.439  0.5614 -1.0034 -1.3820
 8586SOL    HW237218   2.604   1.611   0.392 -0.0622 -0.9736  0.8427
 8587SOL     OW37219   1.187   2.508   1.831  0.0045  0.0833 -0.1928
 8587SOL    HW137220   1.261   2.508   1.891 -1.1888  1.1891  1.2836
 8587SOL    HW237221   1.237   2.465   1.761 -0.7738 -1.2947  0.0935
 8588SOL     OW37222   2.048   1.246   2.538  0.4253 -0.2502  0.4291
 8588SOL    HW137223   2.036   1.168   2.592 -0.0246 -1.3594 -1.2926
 8588SOL    HW237224   2.143   1.259   2.545  0.5053 -0.8654  0.4989
 8589SOL     OW37225   4.584   1.916   7.109 -0.1804  0.1623 -0.8728
 8589SOL    HW137226   4.490   1.921   7.090 -0.9340 -2.1497  2.2132
 8589SOL    HW237227   4.624   1.955   7.031  0.9457 -0.4251 -0.5854
 8590SOL     OW37228   3.936   0.896   2.956 -0.7304 -0.0056 -0.2885
 8590SOL    HW137229   3.952   0.957   3.028  0.9821 -0.0770 -0.6037
 8590SOL    HW237230   3.997   0.930   2.891 -0.8021  0.4915 -0.0891
 8591SOL     OW37231   0.970   3.252   4.703  0.3217  0.4830  0.4625
 8591SOL    HW137232   0.917   3.301   4.766 -2.7212 -1.5014 -0.5323
 8591SOL    HW237233   0.910   3.177   4.701  0.7158  0.1673  0.4558
 8592SOL     OW37234   3.788   0.451  12.272 -0.3996  0.8516 -0.3890
 8592SOL    HW137235   3.758   0.463  12.182  0.0155 -1.3247 -0.8117
 8592SOL    HW237236   3.820   0.536  12.303 -1.1065  0.6700  0.8360
 8593SOL     OW37237   4.017   1.658  10.633 -0.5580  0.2587  0.4163
 8593SOL    HW137238   4.068   1.652  10.714  0.6910 -0.6929 -0.4440
 8593SOL    HW237239   3.950   1.720  10.662  0.7461  0.9700  1.9596
 8594SOL     OW37240   0.522   4.334   4.470 -0.1184 -0.2577  0.2849
 8594SOL    HW137241   0.523   4.429   4.464 -0.0821 -0.3990 -1.8788
 8594SOL    HW237242   0.430   4.316   4.492  0.1294 -1.2305  0.5525
 8595SOL     OW37243   3.454   4.327   7.977  0.0718 -0.5256  0.0134
 8595SOL    HW137244   3.413   4.260   7.922 -0.3960 -0.6803  0.5436
 8595SOL    HW237245   3.519   4.267   8.012  1.2068  0.1391 -0.9656
 8596SOL     OW37246   2.601   3.016  12.557  0.2611  0.4249  0.0683
 8596SOL    HW137247   2.506   3.003  12.564  0.4875 -1.6334 -0.7333
 8596SOL    HW237248   2.602   3.097  12.505  2.7754  1.3951  1.6221
 8597SOL     OW37249   3.515   4.380   3.762 -0.2538  0.5801  0.2516
 8597SOL    HW137250   3.583   4.378   3.829 -1.6749 -2.6670  1.5604
 8597SOL    HW237251   3.566   4.422   3.693 -1.2523  0.0212 -0.8255
 8598SOL     OW37252   0.652   0.478   1.846  0.2580 -0.1672 -0.1941
 8598SOL    HW137253   0.618   0.504   1.760  0.5915  1.3580  0.1331
 8598SOL    HW237254   0.715   0.547   1.865  0.1721  0.1348 -0.9978
 8599SOL     OW37255   1.303   1.085   7.266 -0.3059  0.0082 -0.0615
 8599SOL    HW137256   1.361   1.121   7.198  0.9667 -0.4674  0.7745
 8599SOL    HW237257   1.353   1.009   7.296 -0.0465 -0.8621 -2.6945
 8600SOL     OW37258   2.015   4.429   8.604 -0.2676  0.1522  0.1650
 8600SOL    HW137259   1.990   4.408   8.514 -0.9820 -1.0525  0.6360
 8600SOL    HW237260   1.969   4.357   8.648 -0.9557  1.0259  0.8679
 8601SOL     OW37261   3.666   3.031   8.925  0.0570  0.0543 -0.6386
 8601SOL    HW137262   3.665   3.126   8.933  0.0341  0.1353 -1.5615
 8601SOL    HW237263   3.584   3.026   8.875  0.2294 -2.1146 -0.7214
 8602SOL     OW37264   4.318   0.884   9.718 -0.7375  0.1537  0.0459
 8602SOL    HW137265   4.262   0.839   9.654 -0.6713 -1.8600  1.3997
 8602SOL    HW237266   4.249   0.933   9.762  2.1533  2.4525  1.9635
 8603SOL     OW37267   3.039   1.802   3.860  0.2773 -0.4424  0.1117
 8603SOL    HW137268   3.120   1.836   3.821 -0.2656  0.6238 -0.0926
 8603SOL    HW237269   2.973   1.846   3.807 -0.8988 -0.2800  1.7161
 8604SOL     OW37270   3.235   2.137   9.078 -0.3210  0.5174  0.4416
 8604SOL    HW137271   3.269   2.048   9.062  0.4180  1.0032 -0.6702
 8604SOL    HW237272   3.310   2.179   9.118  0.3054  1.1517 -1.3891
 8605SOL     OW37273   3.520   2.151   6.375  0.2212 -0.1149  0.7037
 8605SOL    HW137274   3.475   2.099   6.441  0.3943 -1.1999 -0.0241
 8605SOL    HW237275   3.520   2.243   6.400 -1.0583  0.3277 -0.9252
 8606SOL     OW37276   4.133   3.290  11.777 -0.2330  0.3554  0.0847
 8606SOL    HW137277   4.099   3.312  11.690 -0.4521  0.3332  0.1639
 8606SOL    HW237278   4.067   3.224  11.798  1.0572 -1.1281 -0.4688
 8607SOL     OW37279   0.163   3.226   5.040 -0.1441 -0.4094  0.2246
 8607SOL    HW137280   0.210   3.264   4.966  0.7432 -0.6665  0.6602
 8607SOL    HW237281   0.071   3.231   5.014 -0.2615  2.4116  1.1555
 8608SOL     OW37282   2.128   1.577   8.664  0.4887  0.0417  0.0860
 8608SOL    HW137283   2.158   1.530   8.741  0.5748 -0.8664 -0.4897
 8608SOL    HW237284   2.206   1.629   8.647 -1.2523  2.8354  0.8081
 8609SOL     OW37285   2.533   3.492  16.070 -0.0786 -0.0291  0.0603
 8609SOL    HW137286   2.581   3.552  16.013 -0.9801  0.6429  0.0096
 8609SOL    HW237287   2.544   3.531  16.156  1.2707 -0.9722  0.3094
 8610SOL     OW37288   0.673   4.666   6.727 -0.0991 -0.3373 -0.4950
 8610SOL    HW137289   0.649   4.590   6.674  1.3933 -2.0741  1.3452
 8610SOL    HW237290   0.610   0.008   6.698 -0.4422 -1.3496 -2.0749
 8611SOL     OW37291   4.687   4.281   4.129 -0.2149  0.3781  0.0736
 8611SOL    HW137292   0.045   4.249   4.166 -1.5392 -3.7839 -0.4790
 8611SOL    HW237293   4.715   4.306   4.042  0.7515 -2.5664 -0.4635
 8612SOL     OW37294   1.693   2.639   1.854  0.0212 -0.0447  0.0106
 8612SOL    HW137295   1.705   2.563   1.797  2.7558  0.7894 -0.5268
 8612SOL    HW237296   1.606   2.665   1.822  0.0032  1.2663  1.1463
 8613SOL     OW37297   0.334   1.098   0.118 -1.0626 -0.1915  1.0217
 8613SOL    HW137298   0.358   1.183   0.080  0.0468 -1.2033 -0.5038
 8613SOL    HW237299   0.320   1.124   0.209  1.9019 -0.6478  1.6008
 8614SOL     OW37300   3.183   2.136   5.491  0.1559 -0.3340 -0.4596
 8614SOL    HW137301   3.272   2.162   5.464  0.4873 -1.6531 -0.6307
 8614SOL    HW237302   3.190   2.167   5.581 -0.5931  0.5015 -0.6883
 8615SOL     OW37303   2.451   4.261   3.411  0.1369  0.0912  0.2974
 8615SOL    HW137304   2.376   4.253   3.469 -0.7013  2.9374 -0.4021
 8615SOL    HW237305   2.417   4.323   3.346 -2.0571  0.5293  1.8701
 8616SOL     OW37306   0.923   2.715   7.429  0.2816 -0.2630  0.1038
 8616SOL    HW137307   0.911   2.703   7.523 -0.0260 -2.2514 -0.1944
 8616SOL    HW237308   1.018   2.721   7.426  0.1300  2.5131  0.4446
 8617SOL     OW37309   3.913   4.521   3.084 -0.1608 -0.2307  0.2345
 8617SOL    HW137310   3.911   4.437   3.130 -0.1746  0.1282  0.8885
 8617SOL    HW237311   3.819   4.523   3.067  0.1431 -0.5113 -1.4742
 8618SOL     OW37312   2.221   0.365   3.989 -0.1648  0.1171 -0.0467
 8618SOL    HW137313   2.214   0.461   3.994 -0.3795  0.1900 -1.8547
 8618SOL    HW237314   2.303   0.364   3.940  0.0748 -0.8588  0.3789
 8619SOL     OW37315   2.194   4.216   5.874  0.1501  0.0119 -0.2363
 8619SOL    HW137316   2.121   4.264   5.835 -0.7941  0.0993  1.6175
 8619SOL    HW237317   2.140   4.161   5.930  1.0064 -1.5344 -0.9210
 8620SOL     OW37318   3.528   3.470   3.190  0.2639 -0.4498 -0.0339
 8620SOL    HW137319   3.582   3.417   3.131  0.2255 -0.5337  0.0071
 8620SOL    HW237320   3.583   3.532   3.237  0.6798 -0.7358 -0.1366
 8621SOL     OW37321   3.546   1.907   5.531 -0.6489  0.0015  0.1658
 8621SOL    HW137322   3.528   1.813   5.528 -1.2077  0.0817  1.0258
 8621SOL    HW237323   3.536   1.929   5.438  0.8019  0.9511  0.2319
 8622SOL     OW37324   4.587   0.775  15.689  0.1451  0.1760  0.2930
 8622SOL    HW137325   4.630   0.834  15.628  2.3175 -0.8494  0.8305
 8622SOL    HW237326   4.622   0.813  15.769  0.5050  3.1687 -1.3027
 8623SOL     OW37327   2.929   0.224   9.267 -0.0332 -1.1084  0.6793
 8623SOL    HW137328   2.969   0.267   9.343 -0.4527  0.2083  0.1611
 8623SOL    HW237329   2.902   0.307   9.227  2.0313 -0.7574  0.0331
 8624SOL     OW37330   1.921   2.081   0.044  0.6568 -0.4701 -0.0506
 8624SOL    HW137331   1.880   2.042   0.121  1.6992  0.0125  0.7632
 8624SOL    HW237332   1.886   2.171   0.044 -0.0449 -0.7456 -0.3817
 8625SOL     OW37333   1.573   4.001   2.857 -0.4254 -0.1905 -0.2466
 8625SOL    HW137334   1.666   3.989   2.874 -0.5007 -1.2991 -0.6047
 8625SOL    HW237335   1.574   3.990   2.762  1.4396  0.2606 -0.2837
 8626SOL     OW37336   2.978   1.595   4.857  0.3882  0.6338 -0.7951
 8626SOL    HW137337   2.982   1.524   4.794  0.8681 -2.0091  2.2330
 8626SOL    HW237338   2.896   1.580   4.904  2.7641 -0.7750  2.8954
 8627SOL     OW37339   4.599   0.356   2.265  0.1883  0.4976  0.1005
 8627SOL    HW137340   4.692   0.334   2.260  0.3816  1.1896  0.5598
 8627SOL    HW237341   4.570   0.329   2.178 -0.2731  3.0164 -0.5248
 8628SOL     OW37342   2.439   0.889  15.240  0.7297  0.4009  0.0191
 8628SOL    HW137343   2.447   0.806  15.194 -2.0117  0.6017 -0.8335
 8628SOL    HW237344   2.384   0.946  15.186 -0.0548  1.3263  1.7834
 8629SOL     OW37345   2.017   2.129   3.398 -0.3941  0.0739 -0.0524
 8629SOL    HW137346   2.046   2.168   3.316  0.1554 -1.5929 -0.6487
 8629SOL    HW237347   1.955   2.193   3.435  2.0372  2.3990  0.0559
 8630SOL     OW37348   4.345   3.886  16.111 -0.0851 -0.1746 -0.2701
 8630SOL    HW137349   4.351   3.970  16.156 -1.8270 -1.0503  1.6032
 8630SOL    HW237350   4.256   3.892  16.075 -0.0439 -3.3651 -0.8288
 8631SOL     OW37351   4.457   2.021   3.245 -0.1305  0.3073 -0.6007
 8631SOL    HW137352   4.372   2.053   3.276  0.0843  0.8293 -0.5503
 8631SOL    HW237353   4.458   2.037   3.150  0.5444  1.7105 -0.3527
 8632SOL     OW37354   2.488   1.255  13.208 -0.0538 -0.5555 -0.0997
 8632SOL    HW137355   2.453   1.166  13.207 -1.6541  0.0772 -0.9526
 8632SOL    HW237356   2.544   1.258  13.285 -2.0945 -0.9722  1.4210
 8633SOL     OW37357   0.494   0.730   4.504 -0.3147 -0.3672  0.6729
 8633SOL    HW137358   0.522   0.669   4.573 -0.1225 -0.9195  0.1079
 8633SOL    HW237359   0.567   0.791   4.510  0.5965 -1.5033  1.1450
 8634SOL     OW37360   0.020   3.900   7.435 -0.7767  0.3510 -0.5201
 8634SOL    HW137361   4.653   3.872   7.437 -0.8284  0.5822  0.1873
 8634SOL    HW237362   0.048   3.861   7.518 -0.4293  0.8737 -0.3958
 8635SOL     OW37363   0.314   4.358   2.720 -0.5262 -0.5912 -0.1446
 8635SOL    HW137364   0.380   4.298   2.756 -0.5122  0.5364  1.7226
 8635SOL    HW237365   0.369   4.415   2.667 -2.1595  2.4125  1.3809
 8636SOL     OW37366   1.516   4.108   9.112 -0.1790  0.4637 -0.1019
 8636SOL    HW137367   1.423   4.130   9.104  0.4613  2.6917 -1.2812
 8636SOL    HW237368   1.506   4.021   9.151 -0.1769  1.3083  1.8166
 8637SOL     OW37369   2.989   0.651   3.790  0.4804  0.4481  0.6173
 8637SOL    HW137370   3.058   0.717   3.788  0.5251  0.3557 -0.7107
 8637SOL    HW237371   3.008   0.616   3.877 -0.8843  2.2942  1.6412
 8638SOL     OW37372   2.624   0.975   9.187 -0.2753  0.2026 -0.4260
 8638SOL    HW137373   2.643   0.928   9.106  0.1978  1.5319 -1.0782
 8638SOL    HW237374   2.528   0.977   9.187 -0.2986 -0.9746  0.4973
 8639SOL     OW37375   0.909   2.891   2.065  0.4081 -0.1611  0.2524
 8639SOL    HW137376   0.903   2.986   2.078 -1.1080  0.1437 -2.7895
 8639SOL    HW237377   0.818   2.866   2.075 -0.0653  0.8327 -1.6534
 8640SOL     OW37378   4.490   2.225  15.930  0.2700  0.3593  0.0770
 8640SOL    HW137379   4.438   2.298  15.895 -2.0646 -1.1593  0.3461
 8640SOL    HW237380   4.435   2.148  15.916  2.0820 -0.4480 -2.4943
 8641SOL     OW37381   1.576   1.594   4.806 -0.5873 -0.5231 -0.1171
 8641SOL    HW137382   1.575   1.544   4.887 -1.8686  1.0892  0.8729
 8641SOL    HW237383   1.492   1.640   4.819 -0.2874 -0.2526  0.8420
 8642SOL     OW37384   0.706   1.938   6.856  0.0896  0.4707 -0.1140
 8642SOL    HW137385   0.782   1.930   6.912  2.0610 -0.6078 -2.9121
 8642SOL    HW237386   0.706   2.024   6.814  0.7241  1.3566  1.7041
 8643SOL     OW37387   1.245   2.405   8.107  0.0515  0.4927  0.1689
 8643SOL    HW137388   1.228   2.464   8.180  1.2201  1.4709 -0.3478
 8643SOL    HW237389   1.322   2.353   8.130 -0.8013 -0.6562  0.4513
 8644SOL     OW37390   1.832   1.564   5.225 -0.1823  0.1364  0.2835
 8644SOL    HW137391   1.830   1.588   5.318  0.0291  0.1869  0.2731
 8644SOL    HW237392   1.898   1.495   5.213  0.7337  0.9758  0.5478
 8645SOL     OW37393   3.664   1.646   3.352  0.4132  0.1685  0.2132
 8645SOL    HW137394   3.585   1.600   3.381  0.2526  0.9056  0.9378
 8645SOL    HW237395   3.721   1.590   3.404 -0.5806 -1.1963 -0.1614
 8646SOL     OW37396   4.375   4.574   9.366 -0.1114  0.0293 -0.3208
 8646SOL    HW137397   4.389   4.646   9.428 -0.2926 -0.2933  0.0895
 8646SOL    HW237398   4.285   4.584   9.335 -0.3600 -0.6719  0.1618
 8647SOL     OW37399   2.655   0.669   5.505 -0.2923 -0.4176  0.4442
 8647SOL    HW137400   2.692   0.700   5.587  0.8532 -2.1042  0.5551
 8647SOL    HW237401   2.623   0.752   5.470 -0.4558 -2.2169 -3.7300
 8648SOL     OW37402   2.521   1.872   2.448 -0.0497  0.1713 -0.3088
 8648SOL    HW137403   2.572   1.941   2.490 -0.0125 -0.1868  0.2324
 8648SOL    HW237404   2.581   1.803   2.421 -1.2222 -0.9148 -0.1374
 8649SOL     OW37405   2.962   1.595  15.645  0.5402  0.0008 -0.2964
 8649SOL    HW137406   2.904   1.643  15.586 -0.0437 -1.1938 -0.6958
 8649SOL    HW237407   2.900   1.583  15.717 -0.0605 -1.1463 -1.0008
 8650SOL     OW37408   0.942   1.440   1.338  0.8747  0.0994  0.4741
 8650SOL    HW137409   0.958   1.447   1.244 -2.5705 -0.8462 -0.1768
 8650SOL    HW237410   0.980   1.527   1.352  2.2492 -0.7937  2.2882
 8651SOL     OW37411   2.145   1.986   4.073 -0.0940 -0.0477  0.0925
 8651SOL    HW137412   2.180   1.945   3.994  0.3454  0.6676 -0.0776
 8651SOL    HW237413   2.102   2.062   4.035  1.7665  0.3489 -1.2106
 8652SOL     OW37414   2.453   1.481   4.375 -0.4265 -0.1463  0.2936
 8652SOL    HW137415   2.457   1.528   4.292  0.1964  1.8890  1.4614
 8652SOL    HW237416   2.522   1.527   4.422  0.2196  0.0728 -0.8692
 8653SOL     OW37417   3.618   0.158  12.884  0.0886 -0.4318 -0.4438
 8653SOL    HW137418   3.568   0.204  12.951  1.5862 -0.7136  0.8702
 8653SOL    HW237419   3.564   0.080  12.876  0.1717 -0.3865 -1.5660
 8654SOL     OW37420   3.829   3.997  15.853  0.0836 -0.9577  0.0379
 8654SOL    HW137421   3.770   4.001  15.928 -0.3579  0.3500 -0.3872
 8654SOL    HW237422   3.870   4.083  15.860  0.1134 -0.9234 -0.5268
 8655SOL     OW37423   1.865   2.351   2.832 -0.0881  0.4222  0.0960
 8655SOL    HW137424   1.932   2.375   2.896  3.7504 -2.1118 -2.9338
 8655SOL    HW237425   1.890   2.408   2.759 -1.0792  0.9755  0.1856
 8656SOL     OW37426   4.132   2.528   3.585  0.5338 -0.1761  0.6147
 8656SOL    HW137427   4.083   2.606   3.559 -0.8479 -0.8864  1.1124
 8656SOL    HW237428   4.058   2.482   3.624 -0.4301  0.0699 -0.9161
 8657SOL     OW37429   3.941   2.675   2.576 -0.0556  0.0953  0.0600
 8657SOL    HW137430   3.867   2.723   2.540 -0.1378  1.2007  1.6769
 8657SOL    HW237431   3.903   2.588   2.588  0.7621 -0.1401  0.9874
 8658SOL     OW37432   4.589   1.415   5.909 -0.2426 -0.2567  0.4260
 8658SOL    HW137433   4.624   1.468   5.981 -1.0865 -1.2103  1.5344
 8658SOL    HW237434   4.665   1.371   5.870 -0.9872 -1.3056  0.1697
 8659SOL     OW37435   4.136   0.206   8.682 -0.3288  0.1515  0.2951
 8659SOL    HW137436   4.106   0.232   8.769  1.5151  1.0280  0.6571
 8659SOL    HW237437   4.211   0.265   8.673  0.7327 -1.4736 -1.5740
 8660SOL     OW37438   4.693   2.176   7.806  0.3869  0.4349 -0.4872
 8660SOL    HW137439   4.637   2.241   7.849  1.2724  0.3936  0.7053
 8660SOL    HW237440   4.643   2.095   7.816  0.5937  0.3926  0.2102
 8661SOL     OW37441   4.333   1.634   7.196 -0.7889 -0.3390  0.5060
 8661SOL    HW137442   4.426   1.634   7.174 -1.3730  2.8560 -1.8445
 8661SOL    HW237443   4.325   1.548   7.238 -1.5956  0.0186  1.0829
 8662SOL     OW37444   2.721   0.567   9.831 -0.2966  0.1050 -0.1236
 8662SOL    HW137445   2.770   0.526   9.759  0.3386 -2.3610  1.7183
 8662SOL    HW237446   2.777   0.642   9.853 -0.5932  0.5406 -0.8405
 8663SOL     OW37447   4.539   0.843  10.488 -0.7230  0.3153  0.2352
 8663SOL    HW137448   4.450   0.879  10.482 -1.1802 -0.8557 -0.2040
 8663SOL    HW237449   4.582   0.905  10.546 -2.7071 -0.4974  2.6108
 8664SOL     OW37450   3.821   4.385   8.374 -0.0225  0.4168  0.2684
 8664SOL    HW137451   3.848   4.312   8.430  1.9681  0.4593 -0.6356
 8664SOL    HW237452   3.843   4.463   8.424  2.5155 -0.9265  1.2473
 8665SOL     OW37453   2.522   4.115   6.737  0.3458  0.2113  0.1889
 8665SOL    HW137454   2.474   4.193   6.712  1.7349  0.7934 -0.6193
 8665SOL    HW237455   2.456   4.056   6.775  0.7914 -0.7834 -0.6052
 8666SOL     OW37456   1.854   1.529   8.295 -0.4406 -0.0593 -0.4348
 8666SOL    HW137457   1.930   1.561   8.342 -0.1737  0.7216 -1.4066
 8666SOL    HW237458   1.862   1.581   8.215 -0.6239 -1.9135 -1.6718
 8667SOL     OW37459   2.249   4.630   2.238 -0.0832  0.3739  0.6259
 8667SOL    HW137460   2.261   4.559   2.176  1.4457 -0.4635  1.8686
 8667SOL    HW237461   2.279   4.581   2.315 -2.2777 -0.6965  0.8002
 8668SOL     OW37462   1.175   3.546   6.547  0.0422 -0.0528  0.1829
 8668SOL    HW137463   1.174   3.518   6.638 -1.0890  0.3591  0.3018
 8668SOL    HW237464   1.087   3.514   6.528  0.2356  0.0401 -0.8596
 8669SOL     OW37465   3.336   4.579   7.270  0.1234  0.4019 -0.1774
 8669SOL    HW137466   3.427   4.550   7.282 -0.4172 -1.0256  0.4674
 8669SOL    HW237467   3.286   4.498   7.266 -2.4370  1.9695 -0.0773
 8670SOL     OW37468   2.030   4.711   6.717  0.5600 -0.2096 -0.0413
 8670SOL    HW137469   2.054   4.673   6.801 -1.0948 -2.8827 -0.7584
 8670SOL    HW237470   2.082   4.649   6.666 -0.0074 -0.0235 -0.8588
 8671SOL     OW37471   4.117   2.327   0.269  0.3844  0.2563 -0.0141
 8671SOL    HW137472   4.166   2.341   0.350  2.7740 -0.7228 -1.2663
 8671SOL    HW237473   4.200   2.322   0.220  0.6841  1.3151  0.3982
 8672SOL     OW37474   3.135   4.521   7.869 -0.0646 -0.1747 -0.0820
 8672SOL    HW137475   3.143   4.509   7.963  1.7417  0.6327 -0.1098
 8672SOL    HW237476   3.122   4.430   7.844 -0.4775 -0.1555  0.0757
 8673SOL     OW37477   3.911   1.070   5.598 -0.4836 -0.2155 -0.3512
 8673SOL    HW137478   3.895   1.100   5.508  0.3854 -0.0115 -0.4341
 8673SOL    HW237479   3.907   1.146   5.656  1.1991 -0.4101  0.0149
 8674SOL     OW37480   2.739   0.187   3.192  0.4827  0.1164  0.0293
 8674SOL    HW137481   2.827   0.209   3.162  0.6105  1.2040  1.1972
 8674SOL    HW237482   2.709   0.132   3.119 -0.8821 -0.4089  0.9851
 8675SOL     OW37483   3.006   0.221  13.089 -0.8887  0.4106  0.0671
 8675SOL    HW137484   3.081   0.211  13.031 -1.0389  3.6089 -0.7038
 8675SOL    HW237485   2.977   0.311  13.072 -0.8216  0.5826  0.8573
 8676SOL     OW37486   0.944   2.703   4.564  0.7166  0.0484  0.0182
 8676SOL    HW137487   0.970   2.691   4.656  2.6260 -0.1567 -0.5554
 8676SOL    HW237488   0.942   2.615   4.526 -1.9537 -0.6207  1.6344
 8677SOL     OW37489   4.152   0.122  10.742  0.2407 -0.3246 -0.0719
 8677SOL    HW137490   4.230   0.117  10.687  0.1644 -2.9690  0.0384
 8677SOL    HW237491   4.204   0.132  10.822  1.1038 -1.1673 -0.5263
 8678SOL     OW37492   0.604   3.158  12.871 -0.4534  0.1173  0.0028
 8678SOL    HW137493   0.573   3.209  12.945 -2.3263  1.1593 -1.4776
 8678SOL    HW237494   0.694   3.139  12.896 -1.3243 -1.6183  1.7820
 8679SOL     OW37495   3.000   2.407   4.823 -0.0537  0.1074  0.2312
 8679SOL    HW137496   2.975   2.497   4.803 -0.4163  0.2046  1.0921
 8679SOL    HW237497   3.089   2.426   4.852  0.2595  0.0141 -0.6681
 8680SOL     OW37498   3.910   0.790   6.800  0.2636  0.2133  0.1503
 8680SOL    HW137499   3.884   0.853   6.732  0.2786  1.1650  1.0342
 8680SOL    HW237500   3.873   0.829   6.879  0.7404  0.2721  0.3455
 8681SOL     OW37501   0.974   2.960   4.484 -0.5099  0.1135  0.0469
 8681SOL    HW137502   0.968   2.866   4.501 -0.4862  0.1094  0.0330
 8681SOL    HW237503   0.881   2.978   4.494 -0.1051 -0.0625  4.0925
 8682SOL     OW37504   2.160   4.411   4.782 -0.2228 -0.0408  0.2598
 8682SOL    HW137505   2.233   4.365   4.740 -0.9067  0.7000 -1.7295
 8682SOL    HW237506   2.206   4.494   4.790 -1.5235  0.7006 -0.0955
 8683SOL     OW37507   3.821   0.847   1.739  0.4094 -0.4703  0.1162
 8683SOL    HW137508   3.795   0.786   1.670 -2.7471  1.0870 -0.0750
 8683SOL    HW237509   3.805   0.933   1.699 -2.1142  0.0702  2.3116
 8684SOL     OW37510   1.124   0.451   0.979 -0.9117 -0.3241  0.1078
 8684SOL    HW137511   1.034   0.451   1.012 -1.5681 -2.6208 -1.6805
 8684SOL    HW237512   1.156   0.370   1.018 -1.6742 -1.1943 -1.0705
 8685SOL     OW37513   2.848   3.634   7.368  0.1227  0.1544  0.4520
 8685SOL    HW137514   2.831   3.551   7.323 -0.0789  1.1607 -1.2966
 8685SOL    HW237515   2.884   3.592   7.447 -0.2714 -1.3077 -0.1439
 8686SOL     OW37516   0.495   4.157  13.675 -0.2778  0.9371  0.1983
 8686SOL    HW137517   0.480   4.251  13.687  1.5103  1.1271  0.8187
 8686SOL    HW237518   0.444   4.130  13.752 -1.1971  1.5099 -0.2042
 8687SOL     OW37519   3.962   4.083   7.100  0.9007  0.0456  0.0001
 8687SOL    HW137520   3.901   4.102   7.172  2.5397  0.6129  1.2234
 8687SOL    HW237521   3.982   4.167   7.059 -1.5166  1.3109  1.3950
 8688SOL     OW37522   0.225   3.906  17.655 -0.4749 -1.0412  0.1681
 8688SOL    HW137523   0.189   3.914   0.045 -2.6770 -2.1984 -0.6220
 8688SOL    HW237524   0.313   3.940  17.671 -0.8810 -0.2770  0.8150
 8689SOL     OW37525   1.830   1.735   4.832  0.3162 -0.0951  0.5514
 8689SOL    HW137526   1.756   1.692   4.789 -0.2364 -0.1116  1.5185
 8689SOL    HW237527   1.899   1.673   4.809  0.7757  0.4740  0.4075
 8690SOL     OW37528   4.715   3.452   3.341  0.0160  0.5477 -0.2452
 8690SOL    HW137529   0.080   3.485   3.339 -0.4273  1.7627 -0.1347
 8690SOL    HW237530   4.695   3.432   3.433 -0.0544  0.0081 -0.3819
 8691SOL     OW37531   1.941   2.552   6.577 -0.2286 -0.0172 -0.3293
 8691SOL    HW137532   1.980   2.513   6.655  0.1516 -1.7690 -1.3834
 8691SOL    HW237533   1.887   2.613   6.627 -0.3678 -0.0657 -0.4183
 8692SOL     OW37534   0.315   1.865  16.206  0.0558 -0.4207  0.0795
 8692SOL    HW137535   0.410   1.861  16.214  0.0183 -1.2773  0.0358
 8692SOL    HW237536   0.304   1.816  16.125 -2.7326  0.6759 -0.2153
 8693SOL     OW37537   0.169   3.017   3.516  0.4616  0.1114  0.3859
 8693SOL    HW137538   0.098   3.078   3.537  2.3572  2.3009  0.4524
 8693SOL    HW237539   0.213   3.035   3.599  0.5183 -2.5066  0.9132
 8694SOL     OW37540   2.760   0.056   4.797 -0.2579  0.3883  0.2751
 8694SOL    HW137541   2.826   0.007   4.847  0.3651  0.4459 -0.4846
 8694SOL    HW237542   2.678   0.014   4.824 -0.0737 -0.1471  0.0123
 8695SOL     OW37543   1.631   0.925   6.452  0.0123  0.4765 -0.5249
 8695SOL    HW137544   1.666   0.944   6.365 -1.7999 -2.1339 -1.8366
 8695SOL    HW237545   1.603   1.013   6.477  0.7507  0.4547  0.4110
 8696SOL     OW37546   2.141   0.221   1.239  0.0948  0.3315  0.0166
 8696SOL    HW137547   2.233   0.205   1.261  0.6297  2.4867 -0.6635
 8696SOL    HW237548   2.119   0.139   1.194 -0.3655  1.0740 -1.1028
 8697SOL     OW37549   0.548   4.164   3.979  0.1249  0.3952  0.9878
 8697SOL    HW137550   0.564   4.136   4.069  0.1310  2.3920  1.6192
 8697SOL    HW237551   0.586   4.099   3.920  0.7767  3.6321 -2.1598
 8698SOL     OW37552   3.796   3.443  10.169  0.0895 -0.0488  0.3633
 8698SOL    HW137553   3.855   3.402  10.232  2.0828  1.4349 -0.5631
 8698SOL    HW237554   3.710   3.444  10.213 -0.4117 -1.9221 -0.5777
 8699SOL     OW37555   0.240   1.483  11.216 -0.0969  0.4433  0.2186
 8699SOL    HW137556   0.195   1.470  11.300  1.2487  0.2226  0.9087
 8699SOL    HW237557   0.299   1.554  11.243 -0.7555  0.9787  0.2557
 8700SOL     OW37558   2.053   1.200   7.733  0.4368 -0.7439 -0.5519
 8700SOL    HW137559   1.988   1.199   7.663 -0.2559  0.8543  0.0631
 8700SOL    HW237560   2.059   1.293   7.754  0.9323 -0.3104 -2.5666
 8701SOL     OW37561   0.294   1.024   1.668 -0.6477 -0.3716  0.3500
 8701SOL    HW137562   0.287   0.965   1.594  2.5134  0.8160 -0.9057
 8701SOL    HW237563   0.309   0.958   1.736 -1.1799 -1.0013 -0.1442
 8702SOL     OW37564   4.336   2.348   0.742  0.4975  0.2581 -0.7303
 8702SOL    HW137565   4.391   2.282   0.784 -0.5826 -0.4070 -0.3595
 8702SOL    HW237566   4.354   2.423   0.799  0.5966  0.0865 -0.5362
 8703SOL     OW37567   4.173   2.119   3.243  0.0493  0.0968  0.1382
 8703SOL    HW137568   4.154   2.069   3.163  1.3790 -1.6536  0.9067
 8703SOL    HW237569   4.179   2.210   3.215 -0.4111 -0.1112 -0.6527
 8704SOL     OW37570   0.371   1.620   2.083  0.3942 -0.1757 -0.5888
 8704SOL    HW137571   0.283   1.656   2.071  1.4393  1.8399 -2.0239
 8704SOL    HW237572   0.389   1.565   2.007  0.5656  0.8603 -1.2951
 8705SOL     OW37573   1.086   2.358  12.191 -0.6690 -0.3000 -0.1007
 8705SOL    HW137574   1.032   2.430  12.159 -0.9221 -0.3739  0.1598
 8705SOL    HW237575   1.127   2.341  12.107 -1.4310 -0.8466 -0.3587
 8706SOL     OW37576   3.826   1.853  15.270  0.2391  0.2484  0.2922
 8706SOL    HW137577   3.862   1.764  15.272  0.3692  0.2977  0.1306
 8706SOL    HW237578   3.828   1.870  15.176  1.9500 -2.9037 -0.2352
 8707SOL     OW37579   3.099   4.184   3.610 -0.1242  0.6051  0.4807
 8707SOL    HW137580   3.147   4.266   3.611 -0.5843  0.8973 -1.6255
 8707SOL    HW237581   3.064   4.175   3.699  1.9048 -0.7494  1.1561
 8708SOL     OW37582   3.143   0.481  12.077 -0.0484  0.5217  0.2437
 8708SOL    HW137583   3.107   0.538  12.009  0.5126  0.0954 -0.4169
 8708SOL    HW237584   3.061   0.457  12.120  0.4012  1.0925  1.4310
 8709SOL     OW37585   2.056   2.349   2.341  0.4941  0.1705 -0.2508
 8709SOL    HW137586   2.086   2.291   2.270 -2.0064 -1.0545 -0.3032
 8709SOL    HW237587   2.011   2.418   2.292  2.2941  0.8474 -0.9500
 8710SOL     OW37588   3.112   4.715   1.046 -0.1380  0.4805  0.3890
 8710SOL    HW137589   3.139   0.081   1.062  0.5015 -0.0945  2.5488
 8710SOL    HW237590   3.168   4.687   0.974 -1.4483  2.3294 -1.3616
 8711SOL     OW37591   2.104   0.095   8.350 -0.1122  0.4772  0.2171
 8711SOL    HW137592   2.169   0.058   8.410 -2.0212 -1.2632  1.1928
 8711SOL    HW237593   2.052   0.018   8.329 -1.4502  1.3410  0.3510
 8712SOL     OW37594   1.247   3.670   7.601 -0.1601 -0.3007 -0.2594
 8712SOL    HW137595   1.225   3.596   7.658 -0.5823 -1.6436 -2.1742
 8712SOL    HW237596   1.305   3.622   7.542 -1.6454 -1.2912 -0.9128
 8713SOL     OW37597   2.771   0.903   5.053  0.3205 -0.1275  0.3404
 8713SOL    HW137598   2.806   0.987   5.022 -1.4187  0.5410  0.1725
 8713SOL    HW237599   2.834   0.882   5.122 -0.9721 -1.4606  1.1018
 8714SOL     OW37600   2.746   0.711   1.678  0.2126  0.2520 -0.5607
 8714SOL    HW137601   2.762   0.799   1.712  0.5403  0.4722 -1.2840
 8714SOL    HW237602   2.834   0.685   1.649  0.3467  0.3599 -0.2481
 8715SOL     OW37603   2.961   4.266   2.103  0.1773 -0.3424 -0.0046
 8715SOL    HW137604   2.896   4.290   2.168  1.2798  2.7805 -0.0665
 8715SOL    HW237605   3.000   4.190   2.146 -2.0388 -0.5900  1.5358
 8716SOL     OW37606   3.079   0.717   7.922  0.1763  0.2932 -0.3332
 8716SOL    HW137607   3.044   0.805   7.933  0.9706  0.3198  1.9925
 8716SOL    HW237608   3.076   0.687   8.013  0.0600  4.6427  1.1069
 8717SOL     OW37609   4.315   1.606   2.651 -0.5562  0.1711  0.6555
 8717SOL    HW137610   4.241   1.588   2.709 -0.8761  2.0810  0.8380
 8717SOL    HW237611   4.332   1.514   2.630  0.0517  0.4087  0.0836
 8718SOL     OW37612   0.046   2.413  17.280 -0.3513  0.4851  0.4787
 8718SOL    HW137613   0.024   2.451  17.195 -2.6542  1.0293  1.3355
 8718SOL    HW237614   0.088   2.331  17.254 -1.2984 -0.1608  0.9866
 8719SOL     OW37615   3.401   4.493   5.886 -0.3804 -0.4181 -0.1755
 8719SOL    HW137616   3.330   4.544   5.927 -0.7981 -1.7022  0.6776
 8719SOL    HW237617   3.450   4.570   5.857  0.3632  0.2407  2.8087
 8720SOL     OW37618   2.971   2.160   4.954  0.0041  0.2023 -0.4491
 8720SOL    HW137619   2.984   2.241   4.905  0.3473 -0.1819 -0.9865
 8720SOL    HW237620   2.989   2.101   4.881  0.0804 -2.2550  1.5684
 8721SOL     OW37621   1.394   0.803   8.113  0.4653 -0.4978 -0.4309
 8721SOL    HW137622   1.450   0.762   8.178  4.0254  0.6397 -2.7843
 8721SOL    HW237623   1.321   0.830   8.169  2.2344  2.1561  0.5783
 8722SOL     OW37624   0.593   1.700   8.135  0.0794 -0.2577  0.1687
 8722SOL    HW137625   0.528   1.656   8.080  1.7600  0.5271 -2.4353
 8722SOL    HW237626   0.550   1.723   8.218 -1.2564  1.6389 -1.0374
 8723SOL     OW37627   2.706   4.379   9.918 -0.2197 -0.1971  0.0184
 8723SOL    HW137628   2.617   4.360   9.890 -0.3920  0.5624  0.0391
 8723SOL    HW237629   2.740   4.430   9.844 -0.9122  0.9029  0.4572
 8724SOL     OW37630   2.177   3.467  16.229 -0.0989 -0.0755 -0.2603
 8724SOL    HW137631   2.179   3.408  16.304  1.0356 -1.8892 -1.7240
 8724SOL    HW237632   2.198   3.406  16.158 -1.7843 -0.6858 -0.2283
 8725SOL     OW37633   4.255   4.700   8.335  0.1248 -0.2945 -0.4817
 8725SOL    HW137634   4.180   4.691   8.394 -0.4117  1.9224 -0.8057
 8725SOL    HW237635   4.329   4.677   8.391  0.6327  0.2503 -0.9264
 8726SOL     OW37636   3.701   0.065   3.802 -0.3303 -0.0258  0.4762
 8726SOL    HW137637   3.648   0.101   3.731  1.3262  1.8445  0.1816
 8726SOL    HW237638   3.706   0.140   3.862 -0.9801 -0.4182  1.0204
 8727SOL     OW37639   3.394   4.533   7.800  0.2148 -0.0257  0.0400
 8727SOL    HW137640   3.302   4.559   7.800  0.3769  0.5620  0.2087
 8727SOL    HW237641   3.388   4.486   7.883  1.1084 -0.1226  0.0526
 8728SOL     OW37642   1.059   4.724   3.280  0.4341 -0.2548  0.2043
 8728SOL    HW137643   1.112   0.073   3.249 -0.5107  0.4131  0.1505
 8728SOL    HW237644   1.098   4.709   3.365 -1.4534  1.9855  1.4764
 8729SOL     OW37645   2.806   3.203   0.467 -0.1936  0.3991  0.0752
 8729SOL    HW137646   2.839   3.159   0.389 -0.3513  0.6434 -0.1287
 8729SOL    HW237647   2.844   3.149   0.536 -0.1653 -1.2540 -1.2282
 8730SOL     OW37648   3.502   3.954   1.744 -0.2968 -0.2976 -0.3696
 8730SOL    HW137649   3.507   3.898   1.667  1.2239 -1.0754  0.2901
 8730SOL    HW237650   3.422   3.922   1.784 -0.0892 -0.7114 -0.2910
 8731SOL     OW37651   4.504   1.478   4.760 -0.3151 -0.4676 -0.0883
 8731SOL    HW137652   4.464   1.564   4.777  0.1982 -0.2171 -0.1485
 8731SOL    HW237653   4.439   1.454   4.694 -1.4751  0.7616  0.5926
 8732SOL     OW37654   0.256   2.614   6.326  0.1656  0.1705 -0.0466
 8732SOL    HW137655   0.321   2.557   6.367  0.5148 -0.2558 -1.1984
 8732SOL    HW237656   0.268   2.600   6.233 -1.5376 -0.4791 -0.1746
 8733SOL     OW37657   3.732   2.779   6.989 -0.0108 -0.4915  0.5306
 8733SOL    HW137658   3.709   2.798   7.080 -1.9691 -0.9207  0.1158
 8733SOL    HW237659   3.727   2.868   6.955  1.7317 -0.0520  1.4309
 8734SOL     OW37660   0.408   2.461   4.357  0.1444 -0.1124 -0.3913
 8734SOL    HW137661   0.340   2.439   4.293 -0.3107 -2.0733  0.7675
 8734SOL    HW237662   0.377   2.546   4.388 -0.7951 -0.9930  1.0935
 8735SOL     OW37663   4.619   1.810   6.194 -0.2421  0.0168 -0.5351
 8735SOL    HW137664   4.693   1.871   6.192 -1.4492  1.5082  0.7108
 8735SOL    HW237665   4.551   1.877   6.205  1.2178  0.8135  3.6690
 8736SOL     OW37666   2.681   2.664   4.085 -0.6202 -0.7670 -0.2021
 8736SOL    HW137667   2.693   2.755   4.113 -0.1235 -1.2030  0.9921
 8736SOL    HW237668   2.740   2.649   4.011  1.3662 -1.1159  1.4444
 8737SOL     OW37669   2.194   3.220   0.257 -0.0320  0.6679  0.7240
 8737SOL    HW137670   2.112   3.268   0.268 -2.3189 -3.4722  1.5126
 8737SOL    HW237671   2.218   3.187   0.344 -0.6058 -0.2004  0.5496
 8738SOL     OW37672   1.631   1.458   7.219 -0.2999 -0.2715  0.4236
 8738SOL    HW137673   1.600   1.522   7.283  1.0200 -0.1660  0.9484
 8738SOL    HW237674   1.633   1.376   7.268 -0.1258 -1.0721 -0.9255
 8739SOL     OW37675   0.731   4.422   3.764  0.3906 -0.3457 -0.1475
 8739SOL    HW137676   0.667   4.450   3.699 -0.6030 -0.5167  0.7552
 8739SOL    HW237677   0.683   4.347   3.800  1.5680  0.0909  2.3410
 8740SOL     OW37678   3.097   0.469   0.936  0.3435 -0.1451  0.1911
 8740SOL    HW137679   3.028   0.530   0.962 -0.7369 -1.6721  0.8678
 8740SOL    HW237680   3.174   0.508   0.978 -0.4764  0.3028  1.2521
 8741SOL     OW37681   2.134   3.164   1.204 -0.6482  0.0748  0.3323
 8741SOL    HW137682   2.148   3.236   1.143  0.8695  0.2585  0.8836
 8741SOL    HW237683   2.111   3.219   1.280  0.1562 -2.0464  2.1088
 8742SOL     OW37684   3.133   4.661  11.963 -0.4791  0.1748 -0.1312
 8742SOL    HW137685   3.113   4.598  12.033  0.1446  0.7426  0.5633
 8742SOL    HW237686   3.046   4.681  11.931 -0.7508  1.7236  1.5768
 8743SOL     OW37687   0.056   3.513   7.253  0.1520 -0.0266 -0.0087
 8743SOL    HW137688   0.071   3.444   7.189  1.6341  0.7157 -0.4402
 8743SOL    HW237689   0.094   3.591   7.214  0.2799 -0.7533 -1.3224
 8744SOL     OW37690   3.909   0.694   0.141  0.5342  0.5421 -0.3553
 8744SOL    HW137691   3.917   0.599   0.154 -1.0211  0.5002  0.3064
 8744SOL    HW237692   3.998   0.718   0.115  0.0092  1.8224 -0.9663
 8745SOL     OW37693   0.187   1.496   1.674 -0.2338 -0.1182  0.6559
 8745SOL    HW137694   0.130   1.569   1.699 -0.3101 -0.2813  0.9534
 8745SOL    HW237695   0.122   1.433   1.643 -0.1582  0.3006 -0.3756
 8746SOL     OW37696   2.081   0.581  17.218  0.5016 -0.0143 -0.2507
 8746SOL    HW137697   1.997   0.598  17.260  1.1437  0.2135  0.9223
 8746SOL    HW237698   2.061   0.498  17.173 -3.5687  0.0421  1.4672
 8747SOL     OW37699   1.517   0.136   2.268 -0.4008 -0.3619  0.4814
 8747SOL    HW137700   1.565   0.196   2.325  2.3169 -0.1067 -2.0311
 8747SOL    HW237701   1.590   0.081   2.237  2.0957  2.9374  0.5115
 8748SOL     OW37702   0.782   4.147   2.852 -0.9861  0.3938  0.2037
 8748SOL    HW137703   0.819   4.169   2.938 -0.9170  0.9919  0.0196
 8748SOL    HW237704   0.846   4.174   2.786 -1.9282  0.4467 -0.6901
 8749SOL     OW37705   1.572   0.469   7.195 -0.2350  0.0338  0.2800
 8749SOL    HW137706   1.542   0.423   7.117 -0.0146 -0.0584  0.2492
 8749SOL    HW237707   1.583   0.395   7.255 -0.0700  0.1118  0.3462
 8750SOL     OW37708   2.159   2.431   4.895 -0.2615 -0.1283 -0.0325
 8750SOL    HW137709   2.116   2.348   4.879  0.0354 -0.6986  2.1339
 8750SOL    HW237710   2.232   2.439   4.833  0.4555 -3.0275  0.4470
 8751SOL     OW37711   4.404   4.121   8.656 -0.0204 -0.5042 -0.5114
 8751SOL    HW137712   4.465   4.176   8.706  2.4993 -2.8510 -1.0221
 8751SOL    HW237713   4.408   4.043   8.711  1.8112  0.8357  1.2581
 8752SOL     OW37714   3.291   2.897   1.646 -0.1242  0.7299 -0.6221
 8752SOL    HW137715   3.322   2.856   1.565 -1.1891 -1.7199  0.1948
 8752SOL    HW237716   3.296   2.827   1.711 -1.4850  0.9335 -0.2964
 8753SOL     OW37717   3.158   3.816  12.941  0.1528  0.0959  0.0820
 8753SOL    HW137718   3.211   3.838  13.018  0.1856  1.5456 -0.3553
 8753SOL    HW237719   3.214   3.857  12.875  2.0655  0.4506  1.9108
 8754SOL     OW37720   3.760   3.560   1.522  0.3312  0.3675  0.3249
 8754SOL    HW137721   3.807   3.630   1.476  0.7218 -0.1872 -0.1247
 8754SOL    HW237722   3.714   3.530   1.444  0.0114 -0.1235  0.7047
 8755SOL     OW37723   1.682   1.772   0.434 -0.0357 -0.3411  0.0495
 8755SOL    HW137724   1.602   1.749   0.387 -0.4420  1.4688 -0.1535
 8755SOL    HW237725   1.736   1.693   0.429 -1.7988 -1.6759  1.8004
 8756SOL     OW37726   2.217   0.676   6.918 -0.3673 -0.1416  0.0273
 8756SOL    HW137727   2.232   0.742   6.986  0.1421 -1.4535  1.1926
 8756SOL    HW237728   2.141   0.630   6.955 -1.1977  2.3834  1.4636
 8757SOL     OW37729   3.181   0.247   8.527 -0.3735  0.4091 -0.5077
 8757SOL    HW137730   3.215   0.164   8.497 -2.1883 -0.2274 -0.8117
 8757SOL    HW237731   3.263   0.290   8.552  0.3527 -0.9937 -0.5317
 8758SOL     OW37732   1.796   2.939   8.658 -0.3038  1.0830 -0.2450
 8758SOL    HW137733   1.869   2.988   8.620  1.0637 -0.6341  0.1404
 8758SOL    HW237734   1.827   2.914   8.745  0.4666  3.8100  0.2662
 8759SOL     OW37735   0.740   4.047  10.284 -0.0179 -0.1304  0.2037
 8759SOL    HW137736   0.735   4.098  10.364  2.3965 -0.4573  0.5619
 8759SOL    HW237737   0.827   4.074  10.255 -0.8754  1.4985 -0.8298
 8760SOL     OW37738   3.279   2.391   6.189 -0.0922  0.3833 -0.0953
 8760SOL    HW137739   3.273   2.462   6.252  0.1733  2.4731 -2.4074
 8760SOL    HW237740   3.371   2.371   6.203 -0.0521 -1.6249 -3.1781
 8761SOL     OW37741   2.445   3.273   2.081 -0.1457  0.7598 -0.3125
 8761SOL    HW137742   2.405   3.360   2.075  0.7582  1.2209  0.4269
 8761SOL    HW237743   2.533   3.296   2.053  1.1148 -0.7175  2.4791
 8762SOL     OW37744   1.686   2.451   7.132 -0.1664 -0.1137 -0.1239
 8762SOL    HW137745   1.754   2.387   7.114 -0.0976  0.2800 -1.2296
 8762SOL    HW237746   1.641   2.464   7.048  1.0440  0.0212 -0.7450
 8763SOL     OW37747   0.267   1.494  14.539 -0.1609  0.1841  0.6039
 8763SOL    HW137748   0.345   1.462  14.584 -1.4603 -0.5831  2.3027
 8763SOL    HW237749   0.268   1.587  14.560 -0.4431  0.7492 -1.8332
 8764SOL     OW37750   0.551   4.257  16.453 -0.2438  0.5715 -0.1578
 8764SOL    HW137751   0.460   4.259  16.482 -0.1957  0.7177 -0.0177
 8764SOL    HW237752   0.569   4.164  16.443  0.7988  1.0396 -2.5381
 8765SOL     OW37753   3.123   4.544  15.042 -0.1972  0.2661 -0.2313
 8765SOL    HW137754   3.096   4.633  15.022 -1.4121 -0.2553 -0.9243
 8765SOL    HW237755   3.129   4.516  14.950  1.5219 -2.3237  0.6750
 8766SOL     OW37756   3.066   1.459   6.928  0.3263 -0.2960 -0.0030
 8766SOL    HW137757   3.010   1.436   6.855  0.4614 -0.9285  0.0977
 8766SOL    HW237758   3.004   1.463   7.001 -1.9912  1.1998 -2.0897
 8767SOL     OW37759   2.991   0.989   8.087 -0.4759  0.0053  0.3372
 8767SOL    HW137760   3.083   0.989   8.113 -0.8436  2.8028  1.7420
 8767SOL    HW237761   2.958   0.930   8.155  0.2576  1.9002  2.3447
 8768SOL     OW37762   1.580   0.473   8.036 -0.4225 -0.2182 -0.2315
 8768SOL    HW137763   1.536   0.434   7.961 -0.6951 -0.0603 -0.1546
 8768SOL    HW237764   1.637   0.543   8.003 -1.5818  1.3015  0.9402
 8769SOL     OW37765   4.624   3.228   4.966  0.0633  0.4069  0.5983
 8769SOL    HW137766   4.570   3.276   5.029 -1.4670 -1.1742  0.5028
 8769SOL    HW237767   4.584   3.261   4.885 -0.0033  0.4237  0.6378
 8770SOL     OW37768   1.489   4.666   1.092 -0.1910 -0.0770  0.5490
 8770SOL    HW137769   1.491   4.579   1.053 -0.6147  0.6365 -1.0904
 8770SOL    HW237770   1.516   4.714   1.013 -0.2729  0.5760  0.9129
 8771SOL     OW37771   0.582   4.507  14.838  0.1073 -0.6640  0.2455
 8771SOL    HW137772   0.510   4.452  14.869  1.4214 -1.7278  1.4236
 8771SOL    HW237773   0.561   4.504  14.745 -1.1681 -0.6494  0.5352
 8772SOL     OW37774   0.732   3.012   4.631 -0.1482  0.1663 -0.4023
 8772SOL    HW137775   0.667   2.944   4.612  0.8877 -0.9992  0.3127
 8772SOL    HW237776   0.738   3.008   4.726 -0.8615 -1.1866 -0.4127
 8773SOL     OW37777   2.592   0.262   6.741 -0.1604  0.0859  0.0576
 8773SOL    HW137778   2.616   0.354   6.744  2.0086 -0.4601 -0.6182
 8773SOL    HW237779   2.619   0.236   6.829  0.5191 -1.6549 -0.6631
 8774SOL     OW37780   0.529   3.869   7.445 -0.4628 -0.4445  0.1389
 8774SOL    HW137781   0.522   3.853   7.539  0.8572 -0.1234  0.2948
 8774SOL    HW237782   0.615   3.828   7.431 -0.1833  0.4552 -0.7881
 8775SOL     OW37783   0.808   4.552   3.177  0.0898  0.0781  0.3149
 8775SOL    HW137784   0.766   4.580   3.258 -1.5260  2.7495 -1.4786
 8775SOL    HW237785   0.864   4.629   3.171  0.7730 -0.4458 -0.0565
 8776SOL     OW37786   3.786   3.685   2.248 -0.3707 -0.9325 -0.4417
 8776SOL    HW137787   3.742   3.715   2.168 -1.0052  0.1187  0.2938
 8776SOL    HW237788   3.869   3.734   2.247 -2.3735  2.4558 -1.9315
 8777SOL     OW37789   1.014   4.590   4.569 -0.4999 -0.1135  0.0388
 8777SOL    HW137790   1.101   4.579   4.609 -0.9082  2.0095  1.5217
 8777SOL    HW237791   1.036   4.657   4.504  0.1559  0.9786  1.3748
 8778SOL     OW37792   3.865   1.271   7.909 -0.1101 -0.4887  0.3024
 8778SOL    HW137793   3.850   1.270   7.815  0.7565  1.9742  0.1325
 8778SOL    HW237794   3.912   1.355   7.910 -0.0723 -0.4986 -0.7117
 8779SOL     OW37795   2.209   3.598   3.902  0.1155  0.0246  0.9661
 8779SOL    HW137796   2.208   3.511   3.942  0.0583 -0.0987  0.6926
 8779SOL    HW237797   2.303   3.605   3.886  0.0851 -0.8174  0.4342
 8780SOL     OW37798   0.762   0.641  16.371  0.1514  0.2895 -0.3529
 8780SOL    HW137799   0.776   0.547  16.377 -0.6604  0.2079  0.3531
 8780SOL    HW237800   0.831   0.673  16.430  1.8937 -1.0869 -1.6959
 8781SOL     OW37801   3.842   1.860   2.361 -0.4914 -0.2602 -0.1224
 8781SOL    HW137802   3.854   1.767   2.379  0.4462  0.0724  0.9442
 8781SOL    HW237803   3.928   1.881   2.397 -0.4649  1.3804 -1.1269
 8782SOL     OW37804   1.630   3.613   2.583 -0.4017 -0.0177 -0.2995
 8782SOL    HW137805   1.555   3.644   2.634  0.7068 -1.6882  2.3468
 8782SOL    HW237806   1.688   3.690   2.582  0.2001 -0.4678  0.2286
 8783SOL     OW37807   3.215   3.990  10.386  0.4235 -0.2258  0.0453
 8783SOL    HW137808   3.224   4.079  10.352  0.8645  0.2136  1.2895
 8783SOL    HW237809   3.131   3.965  10.349 -0.4101 -1.1536  2.5900
 8784SOL     OW37810   2.993   3.937  11.595 -0.3623 -0.0730 -0.4666
 8784SOL    HW137811   2.905   3.971  11.607  0.5379  1.1655  2.5915
 8784SOL    HW237812   3.001   3.962  11.503  2.0245 -0.8518 -0.4733
 8785SOL     OW37813   2.475   3.133   8.520 -0.5755 -0.6478  0.4836
 8785SOL    HW137814   2.434   3.085   8.592  0.9659  2.0640  3.1928
 8785SOL    HW237815   2.400   3.183   8.487  0.6291  0.1789 -0.9893
 8786SOL     OW37816   3.634   0.068  11.571 -0.0478  0.0297 -0.3042
 8786SOL    HW137817   3.633   4.697  11.572  1.6894  0.0429  2.7748
 8786SOL    HW237818   3.543   0.072  11.600  1.0042  0.7544  2.9097
 8787SOL     OW37819   4.600   4.230   0.120 -0.3693  0.1203 -0.5412
 8787SOL    HW137820   4.598   4.315   0.076  0.6230  0.2362 -0.3753
 8787SOL    HW237821   4.669   4.191   0.066 -0.5516  0.0850 -0.7484
 8788SOL     OW37822   1.512   2.813  10.348  0.1685 -0.7073  0.3506
 8788SOL    HW137823   1.439   2.838  10.406 -0.9508 -1.2179 -0.8497
 8788SOL    HW237824   1.543   2.738  10.398  0.3766 -1.9199 -1.6195
 8789SOL     OW37825   0.291   4.720   1.576 -0.1348 -0.4654  0.3743
 8789SOL    HW137826   0.285   4.709   1.481  2.0024  1.5653 -0.0134
 8789SOL    HW237827   0.207   0.040   1.589  0.3522  0.4214  0.5174
 8790SOL     OW37828   1.014   1.252   9.424 -0.7150 -0.9499 -0.5397
 8790SOL    HW137829   0.965   1.320   9.470 -0.7005  0.1664 -2.1578
 8790SOL    HW237830   1.095   1.298   9.398 -1.5948  3.0593  3.8647
 8791SOL     OW37831   4.709   0.014   7.369  0.2416 -0.1054 -0.0823
 8791SOL    HW137832   0.059   0.072   7.351 -0.3148  0.5118 -0.4120
 8791SOL    HW237833   4.714   4.724   7.464 -2.3268 -0.1661  0.0501
 8792SOL     OW37834   3.937   0.988   5.265 -0.7737  0.2188  0.2133
 8792SOL    HW137835   4.024   0.982   5.305 -0.8589  0.5253  0.4471
 8792SOL    HW237836   3.952   1.067   5.212 -0.0006  0.5636  0.9385
 8793SOL     OW37837   1.782   1.239   7.648  0.5603  0.2165 -0.2781
 8793SOL    HW137838   1.730   1.191   7.583  1.0633 -0.6702 -0.0179
 8793SOL    HW237839   1.771   1.183   7.725 -1.6124 -0.3450 -0.9976
 8794SOL     OW37840   3.996   3.122  17.374  0.0182  0.3422 -0.0143
 8794SOL    HW137841   3.930   3.190  17.362 -1.9793 -1.3372  1.3958
 8794SOL    HW237842   4.055   3.145  17.446  0.9993 -2.3114  0.0553
 8795SOL     OW37843   0.110   3.730   4.716 -0.7106 -0.8529 -0.2142
 8795SOL    HW137844   0.074   3.801   4.663  2.5380  0.3844 -0.7531
 8795SOL    HW237845   0.170   3.780   4.771 -0.9121  1.1944 -1.8735
 8796SOL     OW37846   0.212   4.671  12.558  0.1262 -0.5204 -0.0457
 8796SOL    HW137847   0.156   4.721  12.499 -1.1351 -0.7536  0.9396
 8796SOL    HW237848   0.287   4.720  12.525  1.3087 -2.4362 -0.2459
 8797SOL     OW37849   0.438   0.297   1.136  0.1446 -0.0569 -0.1315
 8797SOL    HW137850   0.496   0.230   1.100  1.7288 -0.2977  2.8879
 8797SOL    HW237851   0.384   0.256   1.203 -1.7587  0.6181 -1.2681
 8798SOL     OW37852   1.371   3.573   8.282 -0.0137  0.0523 -0.1544
 8798SOL    HW137853   1.337   3.571   8.372  2.1771 -3.4392  0.5971
 8798SOL    HW237854   1.448   3.629   8.290 -1.6367  2.1244  1.1022
 8799SOL     OW37855   4.331   1.085   8.573 -0.8260 -0.5564  0.3074
 8799SOL    HW137856   4.365   1.040   8.651 -0.7769  1.6431  1.5481
 8799SOL    HW237857   4.309   1.014   8.513  0.1455 -0.5664 -0.0263
 8800SOL     OW37858   3.501   3.100   0.079  0.0524 -0.5544 -0.0269
 8800SOL    HW137859   3.540   3.178   0.041 -0.1278 -0.1825  0.5469
 8800SOL    HW237860   3.559   3.077   0.152 -0.9820 -3.6295 -0.1775
 8801SOL     OW37861   3.094   4.541   8.370 -0.9107  0.3775  0.2767
 8801SOL    HW137862   3.059   4.575   8.452  0.6062 -0.1561  1.1569
 8801SOL    HW237863   3.027   4.474   8.354 -2.4515  1.0939  3.7663
 8802SOL     OW37864   2.311   0.654   5.881 -0.1423  0.5303  0.0505
 8802SOL    HW137865   2.333   0.636   5.790  1.2814 -2.4055  0.9496
 8802SOL    HW237866   2.313   0.749   5.876 -1.5946  0.5385 -0.3637
 8803SOL     OW37867   1.444   1.561   1.294  0.0147  0.2467 -0.1270
 8803SOL    HW137868   1.493   1.487   1.258 -2.2185 -1.3773  0.1786
 8803SOL    HW237869   1.373   1.556   1.230 -0.3760 -3.4044  0.5703
 8804SOL     OW37870   1.690   0.402   1.114  0.6376  0.4626  0.1296
 8804SOL    HW137871   1.704   0.409   1.020 -0.0980 -2.5794 -0.1875
 8804SOL    HW237872   1.730   0.320   1.144  1.3181  0.4304 -0.8527
 8805SOL     OW37873   1.385   0.138   1.988  0.1500 -0.4015  0.2184
 8805SOL    HW137874   1.412   0.080   2.059 -0.3013  0.0105  0.7310
 8805SOL    HW237875   1.337   0.201   2.042 -1.7370 -1.3705 -0.3086
 8806SOL     OW37876   3.568   4.451   8.495 -0.2565 -0.4449  0.2066
 8806SOL    HW137877   3.633   4.397   8.449 -1.0839 -1.5347  0.3376
 8806SOL    HW237878   3.496   4.435   8.435  1.1954 -0.9564 -1.4125
 8807SOL     OW37879   0.086   3.110   6.726  0.2305  0.2443 -0.2440
 8807SOL    HW137880   0.019   3.160   6.772 -0.2431 -0.0183 -0.6558
 8807SOL    HW237881   0.051   3.024   6.746 -1.7785  0.8814 -1.0688
 8808SOL     OW37882   2.205   1.164   0.204  0.1529  0.3508 -0.4004
 8808SOL    HW137883   2.188   1.258   0.202  0.0528  0.3712  1.0797
 8808SOL    HW237884   2.117   1.128   0.196  0.9767 -1.1543 -2.7221
 8809SOL     OW37885   2.896   2.360  14.957 -0.0927 -0.1603 -0.2663
 8809SOL    HW137886   2.923   2.337  15.047  1.7463 -1.1568 -1.0585
 8809SOL    HW237887   2.832   2.289  14.949  1.1810 -1.2582 -0.7835
 8810SOL     OW37888   4.226   4.488   7.187 -0.2492  0.4054 -0.1250
 8810SOL    HW137889   4.263   4.465   7.272  0.9267  1.1754 -0.4326
 8810SOL    HW237890   4.134   4.473   7.209  0.2317 -1.6669  0.4581
 8811SOL     OW37891   3.898   0.598   2.225  0.6187  0.6308  0.4994
 8811SOL    HW137892   3.854   0.608   2.310  1.0814 -1.4643  0.9736
 8811SOL    HW237893   3.906   0.689   2.198 -1.6269  0.1656 -1.6495
 8812SOL     OW37894   1.863   2.676   3.075 -0.2521  0.5374 -0.1723
 8812SOL    HW137895   1.914   2.595   3.086 -1.0719  0.0994  0.4468
 8812SOL    HW237896   1.863   2.713   3.163  0.6265  0.7943 -0.2869
 8813SOL     OW37897   3.153   0.922   2.350 -0.1285 -0.2897  0.1951
 8813SOL    HW137898   3.173   0.927   2.256 -0.8843 -2.5926 -0.1026
 8813SOL    HW237899   3.099   0.843   2.352  1.6728 -1.5337  0.0681
 8814SOL     OW37900   3.367   0.823   2.956  0.5958 -0.4624 -0.1277
 8814SOL    HW137901   3.386   0.916   2.974 -0.3674 -0.4274  0.7341
 8814SOL    HW237902   3.405   0.840   2.870  1.9109  1.5524  0.8261
 8815SOL     OW37903   0.841   3.438  11.105 -0.5742  0.2326 -0.2024
 8815SOL    HW137904   0.776   3.368  11.110  0.0960 -0.4188 -0.6162
 8815SOL    HW237905   0.914   3.403  11.156 -0.6265  0.3995 -0.0134
 8816SOL     OW37906   1.034   3.871   3.848 -0.0162  0.0227  0.3778
 8816SOL    HW137907   0.990   3.913   3.774 -0.1886  1.0406  1.0599
 8816SOL    HW237908   1.107   3.932   3.859  0.8145 -0.9272  0.1659
 8817SOL     OW37909   4.394   4.427   2.609 -0.2546  0.1180 -0.1862
 8817SOL    HW137910   4.325   4.490   2.628  1.5708  1.9573  0.3509
 8817SOL    HW237911   4.435   4.477   2.538 -0.4624 -1.0075 -1.1059
 8818SOL     OW37912   1.231   0.770  15.304 -0.2121 -0.4967  0.1411
 8818SOL    HW137913   1.206   0.819  15.383 -1.0028 -0.3238 -0.2202
 8818SOL    HW237914   1.297   0.824  15.260 -0.6637 -0.3462 -0.3472
 8819SOL     OW37915   4.154   1.304   5.954 -0.3601  0.2404  0.0087
 8819SOL    HW137916   4.245   1.327   5.972  0.0871 -1.6993  0.2656
 8819SOL    HW237917   4.121   1.268   6.037  0.9865 -0.3888  0.2672
 8820SOL     OW37918   2.129   2.290   8.622  0.2239  0.4042 -0.2570
 8820SOL    HW137919   2.184   2.346   8.567  1.0084  0.1656  0.2887
 8820SOL    HW237920   2.096   2.235   8.551 -1.1493  0.5830  0.2346
 8821SOL     OW37921   1.271   3.925   5.923  0.7072  0.0925  0.2857
 8821SOL    HW137922   1.223   3.925   6.006 -2.1108  0.1526 -1.3208
 8821SOL    HW237923   1.198   3.902   5.865  0.4868  0.2682  0.4901
 8822SOL     OW37924   3.915   0.206   3.321  1.1411 -0.1165 -0.6411
 8822SOL    HW137925   3.920   0.111   3.328  2.3084 -0.1377 -1.6806
 8822SOL    HW237926   3.913   0.214   3.225 -0.3119 -1.8598 -0.7455
 8823SOL     OW37927   0.535   2.920   5.932 -0.4359 -0.0751  0.0472
 8823SOL    HW137928   0.547   2.989   5.867  1.9480  0.7398  1.3480
 8823SOL    HW237929   0.588   2.957   6.003  1.2123 -0.5928 -0.9227
 8824SOL     OW37930   0.649   0.725  17.330  0.1466 -0.3374 -0.1520
 8824SOL    HW137931   0.736   0.740  17.291 -0.3573  0.2168 -1.0548
 8824SOL    HW237932   0.664   0.776  17.410 -0.9865 -0.0165 -0.1482
 8825SOL     OW37933   1.942   0.483   0.202  0.1377 -0.3848 -0.4308
 8825SOL    HW137934   2.022   0.440   0.232  0.0463 -2.2348 -2.8306
 8825SOL    HW237935   1.886   0.407   0.189  2.4658 -2.1371 -0.3799
 8826SOL     OW37936   1.938   1.800   8.466 -0.1536 -0.0962 -0.0800
 8826SOL    HW137937   1.992   1.798   8.545  0.1824 -0.2185 -0.3120
 8826SOL    HW237938   1.999   1.850   8.412 -1.5310  2.3293  0.6491
 8827SOL     OW37939   3.571   2.158   3.563  0.4763 -0.5097 -0.2905
 8827SOL    HW137940   3.575   2.127   3.472  0.2633 -2.9586  0.5112
 8827SOL    HW237941   3.619   2.086   3.605  1.2950 -0.0086 -0.3563
 8828SOL     OW37942   0.965   3.524   8.007 -0.3377 -0.1347 -0.2236
 8828SOL    HW137943   0.905   3.594   8.033  0.5955  0.5624  0.0566
 8828SOL    HW237944   0.927   3.445   8.047  0.0800 -1.0871 -1.6932
 8829SOL     OW37945   0.893   3.941   4.081 -0.1231  0.2133 -0.3767
 8829SOL    HW137946   0.926   3.871   4.024  0.5382  0.9033 -0.8336
 8829SOL    HW237947   0.819   3.975   4.031 -1.4003  0.1090  1.4438
 8830SOL     OW37948   0.364   0.529   4.765  0.4282 -0.7950  0.0189
 8830SOL    HW137949   0.454   0.560   4.758  0.1271  0.4828  1.7352
 8830SOL    HW237950   0.367   0.476   4.845 -2.6027  0.4276  0.9518
 8831SOL     OW37951   2.768   4.058  11.610  0.2012  0.2941 -0.1429
 8831SOL    HW137952   2.737   4.134  11.659  2.0177 -0.6060  2.3944
 8831SOL    HW237953   2.756   4.081  11.518  2.5480 -3.7423 -1.4924
 8832SOL     OW37954   0.559   1.129   0.490  0.1869 -0.0190 -0.2043
 8832SOL    HW137955   0.552   1.053   0.547 -0.4011  2.0536  2.5061
 8832SOL    HW237956   0.476   1.175   0.502  0.3534 -0.0384  1.0408
 8833SOL     OW37957   2.323   3.596   0.232  0.1267 -0.4236 -0.2237
 8833SOL    HW137958   2.274   3.620   0.154 -1.1641 -0.9456  0.4271
 8833SOL    HW237959   2.331   3.677   0.284 -2.4478 -0.2737 -0.0250
 8834SOL     OW37960   1.044   0.875   1.910 -0.0115  0.0261  0.3636
 8834SOL    HW137961   1.045   0.836   1.822  0.6380 -0.7296  0.7109
 8834SOL    HW237962   1.009   0.961   1.885  2.8445  1.5004  1.5355
 8835SOL     OW37963   2.305   0.866   8.097 -0.0152 -0.1493 -0.2861
 8835SOL    HW137964   2.262   0.941   8.056  0.5150  0.1068 -0.3797
 8835SOL    HW237965   2.361   0.918   8.155  1.7783 -1.5239 -0.7749
 8836SOL     OW37966   3.225   4.183  12.027  0.3450  0.0193 -0.0795
 8836SOL    HW137967   3.257   4.124  11.958 -2.1912 -0.6418 -0.6602
 8836SOL    HW237968   3.159   4.233  11.980 -1.4162 -1.1419  1.1958
 8837SOL     OW37969   2.034   1.576   4.752 -0.7440  0.0770  0.2272
 8837SOL    HW137970   2.102   1.588   4.685  0.6028 -0.5827  1.4723
 8837SOL    HW237971   2.054   1.488   4.783  2.9942  1.2560  1.1919
 8838SOL     OW37972   0.632   3.655   0.866 -0.3066 -0.0349 -0.1394
 8838SOL    HW137973   0.544   3.695   0.866  0.3574  1.4201 -1.9485
 8838SOL    HW237974   0.675   3.677   0.949 -0.7122 -0.9759  0.3214
 8839SOL     OW37975   0.494   1.704   6.148  0.1838  0.2258 -0.5228
 8839SOL    HW137976   0.438   1.649   6.093  0.5258 -0.3933 -0.2435
 8839SOL    HW237977   0.472   1.673   6.236  1.3711 -0.8253 -0.5976
 8840SOL     OW37978   3.732   2.787   8.731 -0.0842 -0.6298 -0.4253
 8840SOL    HW137979   3.756   2.708   8.780  0.6896 -0.2882 -0.2540
 8840SOL    HW237980   3.754   2.855   8.795 -2.2688 -2.1328  1.9667
 8841SOL     OW37981   1.439   2.651   2.826 -0.1041  0.2710  0.5058
 8841SOL    HW137982   1.344   2.635   2.827  0.0174 -0.4377  0.7549
 8841SOL    HW237983   1.453   2.712   2.898 -1.4449 -0.0122  1.0085
 8842SOL     OW37984   2.463   0.742   1.601 -0.2047  0.0943 -0.1784
 8842SOL    HW137985   2.470   0.656   1.643  3.3552 -0.9358 -2.8480
 8842SOL    HW237986   2.554   0.764   1.582 -0.2863 -0.1466 -0.8609
 8843SOL     OW37987   3.028   4.467   3.472 -0.0131  0.4741 -0.0249
 8843SOL    HW137988   3.087   4.530   3.514  1.6115  0.2306 -1.9196
 8843SOL    HW237989   2.967   4.442   3.541 -1.1915  0.5223 -1.0618
 8844SOL     OW37990   2.425   2.802   8.527 -0.5907  0.2980  0.3318
 8844SOL    HW137991   2.470   2.873   8.482 -2.3149  0.9595 -0.3710
 8844SOL    HW237992   2.493   2.756   8.576  0.9187  2.2026  0.0163
 8845SOL     OW37993   0.711   3.727   5.038 -0.1827  0.1525  0.6501
 8845SOL    HW137994   0.796   3.733   5.081 -0.6337 -1.7391  1.8263
 8845SOL    HW237995   0.729   3.774   4.957 -2.4755 -0.7922 -0.4023
 8846SOL     OW37996   0.587   1.601  17.669  0.6040 -0.0894 -0.5603
 8846SOL    HW137997   0.508   1.566  17.626 -0.5476  0.8158  0.8305
 8846SOL    HW237998   0.653   1.536  17.646 -1.6636 -2.2811 -1.0112
 8847SOL     OW37999   2.367   1.114   1.861 -0.2004 -0.7168 -0.7149
 8847SOL    HW138000   2.378   1.085   1.771  2.3658  2.0175 -1.2705
 8847SOL    HW238001   2.366   1.029   1.906  1.2700  0.4889  1.6566
 8848SOL     OW38002   0.296   2.328   2.225 -0.1274 -0.2112 -0.4854
 8848SOL    HW138003   0.236   2.402   2.231  0.3685 -0.1144  3.6162
 8848SOL    HW238004   0.311   2.313   2.319 -0.1860 -2.0824 -0.7692
 8849SOL     OW38005   3.655   1.455   2.070  0.3661 -0.2602  0.3726
 8849SOL    HW138006   3.642   1.516   1.997 -0.9373  0.1693  0.9661
 8849SOL    HW238007   3.750   1.442   2.072  0.3690  0.0195  2.0178
 8850SOL     OW38008   1.176   4.387   5.079 -0.1728  0.1655 -0.0461
 8850SOL    HW138009   1.260   4.348   5.105 -0.4965  0.7882  1.9483
 8850SOL    HW238010   1.140   4.407   5.165  0.1743  1.2162 -0.1547
 8851SOL     OW38011   3.735   3.390  10.589  0.3591  0.2656 -0.2138
 8851SOL    HW138012   3.751   3.419  10.679  1.4867  0.0522 -0.3488
 8851SOL    HW238013   3.691   3.471  10.560 -1.7006 -1.5364 -2.1047
 8852SOL     OW38014   2.455   2.988   0.120  0.3705 -0.1690  0.1292
 8852SOL    HW138015   2.380   2.967   0.176  1.6030  2.8375  2.8993
 8852SOL    HW238016   2.483   2.900   0.095 -1.7848 -0.8881  0.2751
 8853SOL     OW38017   1.025   1.557   9.694  0.2551  0.0301 -0.2801
 8853SOL    HW138018   0.954   1.502   9.661  2.0028 -2.0857 -0.4970
 8853SOL    HW238019   1.003   1.637   9.647  2.8145  1.0325  0.1925
 8854SOL     OW38020   1.812   1.912   7.364 -0.3803 -0.5302 -0.0660
 8854SOL    HW138021   1.868   1.857   7.420 -0.5364  1.6957  2.3020
 8854SOL    HW238022   1.847   1.879   7.281 -0.7423 -0.4173 -0.2624
 8855SOL     OW38023   3.338   0.208  15.528  0.6465 -0.7234 -0.2086
 8855SOL    HW138024   3.349   0.142  15.460  0.4904 -1.1866  0.2119
 8855SOL    HW238025   3.400   0.279  15.516  1.2573 -1.2030  0.1382
 8856SOL     OW38026   0.520   4.454   6.666 -0.5245  0.6395  0.0533
 8856SOL    HW138027   0.492   4.444   6.575  1.8278 -0.2699 -0.5828
 8856SOL    HW238028   0.507   4.365   6.698 -1.8724 -0.0149 -2.2616
 8857SOL     OW38029   2.457   1.878   4.394  0.8918 -0.5998  0.0340
 8857SOL    HW138030   2.513   1.833   4.457  1.1449 -2.1443 -1.3020
 8857SOL    HW238031   2.513   1.867   4.317  2.6740  0.7563  1.1339
 8858SOL     OW38032   2.949   1.808   4.120 -0.0898  0.0829 -0.0285
 8858SOL    HW138033   2.895   1.880   4.088 -0.9550 -0.3139  0.5142
 8858SOL    HW238034   2.982   1.776   4.036 -0.8406 -0.0367 -0.2757
 8859SOL     OW38035   2.927   2.088   5.578  0.4120  0.4001 -0.3921
 8859SOL    HW138036   2.969   2.032   5.644 -1.2154  0.4798  0.7001
 8859SOL    HW238037   3.002   2.089   5.519  0.1960 -0.2152 -0.6788
 8860SOL     OW38038   1.407   4.273  11.606 -0.2047  0.2610 -0.2033
 8860SOL    HW138039   1.353   4.261  11.684 -0.4361  1.5154 -0.1687
 8860SOL    HW238040   1.487   4.239  11.647 -0.8858 -1.1718 -0.0664
 8861SOL     OW38041   3.396   4.680   1.377  0.2274  0.0001 -0.9544
 8861SOL    HW138042   3.389   0.050   1.362 -1.2461 -0.0445 -0.5439
 8861SOL    HW238043   3.308   4.651   1.354 -0.1164  0.4427 -0.2081
 8862SOL     OW38044   2.871   3.160   2.146 -0.4482  0.7116  0.5704
 8862SOL    HW138045   2.832   3.215   2.215  0.9738  1.6121  0.6483
 8862SOL    HW238046   2.949   3.211   2.127 -0.1454 -0.7587 -2.0249
 8863SOL     OW38047   2.905   1.613   4.330  0.3242 -0.3038 -0.2207
 8863SOL    HW138048   2.932   1.687   4.276  2.1505  1.3484  2.9349
 8863SOL    HW238049   2.989   1.569   4.343  0.6804  0.2052 -0.8309
 8864SOL     OW38050   3.672   2.071  13.594  0.3672 -0.0140 -0.4139
 8864SOL    HW138051   3.587   2.030  13.608  0.6533  0.0731  1.5300
 8864SOL    HW238052   3.707   2.020  13.521  0.9943  1.8051 -1.3861
 8865SOL     OW38053   0.833   3.940   7.362 -0.4098  0.2809 -0.1178
 8865SOL    HW138054   0.877   3.940   7.277  0.8774  0.4835  0.5479
 8865SOL    HW238055   0.876   4.017   7.398 -0.6100 -0.6954  2.2201
 8866SOL     OW38056   2.072   4.569   2.728 -0.2760 -0.5937 -0.4633
 8866SOL    HW138057   2.030   4.539   2.647  0.2697 -1.0891 -0.5672
 8866SOL    HW238058   1.994   4.579   2.782 -0.8030  2.0467 -1.7203
 8867SOL     OW38059   0.568   1.768  16.739 -0.7935  0.2273 -0.3775
 8867SOL    HW138060   0.504   1.744  16.673 -0.0758 -0.1904 -0.9239
 8867SOL    HW238061   0.636   1.803  16.681 -2.4370  0.0570 -2.4047
 8868SOL     OW38062   2.019   0.007   1.040 -0.1845  0.2952  0.2474
 8868SOL    HW138063   2.042   0.094   1.008 -0.6779  0.7905  1.2170
 8868SOL    HW238064   1.934   4.721   0.997 -0.8582  2.1719  1.1012
 8869SOL     OW38065   3.558   0.695  13.080 -0.0514 -0.1069 -0.3766
 8869SOL    HW138066   3.588   0.716  12.992  1.1117 -1.1809 -0.2360
 8869SOL    HW238067   3.484   0.756  13.074  0.2755  0.2350 -0.8863
 8870SOL     OW38068   0.811   1.591  16.851 -0.3210  0.3017  0.5323
 8870SOL    HW138069   0.747   1.615  16.784  0.1055  0.9470  0.3552
 8870SOL    HW238070   0.881   1.654  16.834  2.1720 -2.2357  1.5831
 8871SOL     OW38071   0.464   3.304   5.325  0.1251 -0.5328  0.1983
 8871SOL    HW138072   0.528   3.301   5.254  1.0705  0.8264  0.9839
 8871SOL    HW238073   0.435   3.391   5.296  0.9604 -0.3593 -0.1308
 8872SOL     OW38074   1.619   1.516  16.849  0.3226 -0.1382  0.5942
 8872SOL    HW138075   1.707   1.549  16.834  0.5703 -1.2859 -0.4740
 8872SOL    HW238076   1.567   1.572  16.791  1.9742 -0.1161 -0.8734
 8873SOL     OW38077   2.927   3.926   6.338  0.8054 -0.0667  0.1318
 8873SOL    HW138078   2.841   3.927   6.296  0.3823  2.4597  1.0486
 8873SOL    HW238079   2.945   4.020   6.337 -0.3260  0.1634  0.9186
 8874SOL     OW38080   1.553   0.058   2.857 -0.2946  0.2583 -0.1768
 8874SOL    HW138081   1.457   0.051   2.864 -0.3378  1.5993  0.4938
 8874SOL    HW238082   1.577   0.050   2.949  1.9758  2.9544 -0.5559
 8875SOL     OW38083   2.383   2.319   0.306  0.4216  0.5498  0.1245
 8875SOL    HW138084   2.311   2.284   0.358 -0.2642  0.4040 -0.9132
 8875SOL    HW238085   2.418   2.399   0.345  1.1047  0.9592 -1.3346
 8876SOL     OW38086   3.409   2.795  10.434 -0.0797 -0.1378 -0.5548
 8876SOL    HW138087   3.376   2.746  10.359 -1.6348 -2.0757  1.3913
 8876SOL    HW238088   3.405   2.734  10.508 -1.5810  0.7168  0.0784
 8877SOL     OW38089   3.162   0.162   6.587 -0.0855 -0.9214 -0.3458
 8877SOL    HW138090   3.191   0.190   6.500 -0.9932  0.7032 -0.1281
 8877SOL    HW238091   3.236   0.179   6.645 -0.4280 -2.0238  0.4095
 8878SOL     OW38092   0.306   1.779  12.627  0.0843 -0.1631  0.4288
 8878SOL    HW138093   0.290   1.686  12.610  0.9175  0.1738 -2.1835
 8878SOL    HW238094   0.348   1.802  12.545 -0.3816 -0.5542  0.0807
 8879SOL     OW38095   4.551   4.313   9.170  0.1473  0.1664  0.0873
 8879SOL    HW138096   4.585   4.402   9.183  1.5968 -0.7672  2.6052
 8879SOL    HW238097   4.478   4.320   9.231  0.4305 -0.1155  0.4563
 8880SOL     OW38098   4.218   1.753  17.531  0.2006  0.1934  0.2759
 8880SOL    HW138099   4.224   1.690  17.603 -1.6200 -0.2909  0.0086
 8880SOL    HW238100   4.313   1.757  17.521  0.3093  0.3203  1.3724
 8881SOL     OW38101   3.010   0.190   4.117  0.3010  0.6670  0.4783
 8881SOL    HW138102   2.936   0.153   4.165  0.5564  0.7613  0.9453
 8881SOL    HW238103   3.063   0.219   4.192  0.9367 -0.4916  0.4712
 8882SOL     OW38104   1.402   2.296  14.021 -0.0400  0.0919 -0.5256
 8882SOL    HW138105   1.492   2.313  14.048 -0.2596  2.9657 -1.6121
 8882SOL    HW238106   1.370   2.384  14.042 -2.2755 -1.0350  0.8378
 8883SOL     OW38107   1.867   1.464   7.463  0.0549  0.4256  0.0085
 8883SOL    HW138108   1.957   1.429   7.462  0.3214  1.0672  1.2114
 8883SOL    HW238109   1.821   1.381   7.448 -0.1296  0.3242  1.1464
 8884SOL     OW38110   0.323   1.861   2.771 -0.2764  0.4156 -0.0430
 8884SOL    HW138111   0.352   1.834   2.858 -0.0556 -1.3395 -0.6680
 8884SOL    HW238112   0.405   1.890   2.732 -1.0458 -2.8029 -4.1052
 8885SOL     OW38113   0.969   0.961   5.841  0.0538  0.0985 -0.0110
 8885SOL    HW138114   1.050   0.912   5.829 -0.8564 -1.4119  0.0165
 8885SOL    HW238115   0.922   0.878   5.847  1.1275 -0.3313  2.2352
 8886SOL     OW38116   3.149   0.390  15.359 -0.0237  0.2851  0.1286
 8886SOL    HW138117   3.134   0.415  15.450 -2.1114 -1.2940  0.2292
 8886SOL    HW238118   3.244   0.400  15.349 -0.0183  1.1818  1.0630
 8887SOL     OW38119   0.719   3.485   2.001 -0.3900  0.8425  0.0376
 8887SOL    HW138120   0.715   3.471   1.906 -1.2572 -1.8194  0.4888
 8887SOL    HW238121   0.800   3.531   2.024  0.0508  0.2349 -0.3013
 8888SOL     OW38122   3.841   0.162  16.041  0.3126 -0.1814  0.4704
 8888SOL    HW138123   3.927   0.127  16.066  0.4431  1.2543  2.0184
 8888SOL    HW238124   3.790   0.113  16.106  0.8503 -0.4386  0.6985
 8889SOL     OW38125   1.355   0.840   8.562 -0.5460  0.2653  0.4618
 8889SOL    HW138126   1.326   0.810   8.648 -3.3100 -0.2820 -0.6725
 8889SOL    HW238127   1.448   0.838   8.582 -0.2947  2.3061 -0.4769
 8890SOL     OW38128   0.758   1.433   7.607  0.3853  0.4537  0.1847
 8890SOL    HW138129   0.790   1.379   7.679 -0.7005  0.9374  1.0431
 8890SOL    HW238130   0.680   1.476   7.643  0.1706 -0.8763  1.3151
 8891SOL     OW38131   3.584   0.716  17.195  0.1785  0.0568  0.2780
 8891SOL    HW138132   3.589   0.702  17.100  0.1758 -0.2191  0.3192
 8891SOL    HW238133   3.530   0.795  17.190  1.6341  1.0427  0.1323
 8892SOL     OW38134   1.369   4.121   2.150 -0.2043  0.5123 -0.2341
 8892SOL    HW138135   1.303   4.121   2.080 -1.1645  1.8125  0.6684
 8892SOL    HW238136   1.445   4.087   2.103  0.5541  0.9412  0.6835
 8893SOL     OW38137   3.902   3.329   1.605  0.3065  0.0543  0.5959
 8893SOL    HW138138   3.848   3.391   1.557 -0.1029 -1.1362 -0.5060
 8893SOL    HW238139   3.858   3.327   1.691 -1.1091  0.0371 -0.1300
 8894SOL     OW38140   0.346   3.969   7.985  0.0490 -0.0547 -0.5203
 8894SOL    HW138141   0.262   3.923   7.993  0.0253 -0.2312 -1.9107
 8894SOL    HW238142   0.409   3.897   7.992 -0.2211 -0.3571 -1.2418
 8895SOL     OW38143   0.595   1.801  14.252  0.1825  0.4753 -0.4049
 8895SOL    HW138144   0.546   1.850  14.187 -0.2666  1.9875  1.0602
 8895SOL    HW238145   0.537   1.808  14.328  0.3846 -3.7875  0.1136
 8896SOL     OW38146   1.855   4.602   4.913  0.5303 -0.5784 -0.0311
 8896SOL    HW138147   1.890   4.577   4.828 -1.4543  1.0623 -1.3322
 8896SOL    HW238148   1.935   4.611   4.966  0.0859 -3.1350  1.1125
 8897SOL     OW38149   2.114   1.560   8.371  0.3479 -0.0620  0.0586
 8897SOL    HW138150   2.108   1.529   8.461  0.2695  3.0175  1.1322
 8897SOL    HW238151   2.177   1.632   8.371  1.1968 -0.8188 -0.9506
 8898SOL     OW38152   1.337   4.403   5.525 -0.3838 -0.2040  0.0171
 8898SOL    HW138153   1.269   4.351   5.483  0.2576  0.1094 -1.3974
 8898SOL    HW238154   1.307   4.493   5.511 -2.1298 -0.7237  0.5269
 8899SOL     OW38155   0.785   3.830  12.824  0.3161  0.7311  0.3021
 8899SOL    HW138156   0.798   3.774  12.747  0.8473  0.7540  0.3793
 8899SOL    HW238157   0.753   3.909  12.781  1.0684 -0.7437 -2.9777
 8900SOL     OW38158   1.299   4.479   3.889  0.7310 -0.2674 -0.6164
 8900SOL    HW138159   1.210   4.503   3.863  0.6697  0.7785  0.5887
 8900SOL    HW238160   1.283   4.440   3.975 -0.6511 -0.0526 -0.7682
 8901SOL     OW38161   2.734   0.249   7.008 -0.2209  0.2830 -0.1737
 8901SOL    HW138162   2.784   0.330   6.998  0.1407  0.0506 -0.2151
 8901SOL    HW238163   2.726   0.251   7.104 -0.2564 -0.2768 -0.1623
 8902SOL     OW38164   0.810   3.606   2.771 -0.1488 -0.9517  0.0699
 8902SOL    HW138165   0.744   3.587   2.838  0.4886 -2.7455  0.1820
 8902SOL    HW238166   0.820   3.697   2.797 -3.0105 -1.2838  2.2522
 8903SOL     OW38167   1.953   4.251   0.959 -0.3765  0.3775  0.1845
 8903SOL    HW138168   2.004   4.192   0.903  0.2513  0.0641  1.0775
 8903SOL    HW238169   1.997   4.253   1.044  1.1326  1.8627 -0.6348
 8904SOL     OW38170   3.838   0.656  11.942 -0.4988  0.0891  0.2165
 8904SOL    HW138171   3.872   0.568  11.958  0.9521  0.3897 -1.2410
 8904SOL    HW238172   3.902   0.718  11.975  1.5703 -1.1485 -1.5275
 8905SOL     OW38173   4.531   0.097  15.167  0.5674  0.3952  0.1177
 8905SOL    HW138174   4.612   0.072  15.210 -0.2556 -0.5585  1.1221
 8905SOL    HW238175   4.476   0.023  15.193 -0.0941  1.0052  0.4694
 8906SOL     OW38176   1.617   2.466   6.834 -0.3927  0.3274 -0.1056
 8906SOL    HW138177   1.651   2.547   6.797 -1.2071 -0.0182 -1.6082
 8906SOL    HW238178   1.641   2.404   6.766 -1.4997 -0.3437  0.1177
 8907SOL     OW38179   3.749   3.062  10.137  0.4592 -0.1901 -0.5074
 8907SOL    HW138180   3.673   3.088  10.085 -0.8428  0.0047  1.4670
 8907SOL    HW238181   3.809   3.127  10.102  2.4127 -0.4606  2.3049
 8908SOL     OW38182   0.513   1.234   1.310 -0.7747 -0.0177 -0.1724
 8908SOL    HW138183   0.459   1.211   1.234 -0.0221 -0.1393 -0.6715
 8908SOL    HW238184   0.441   1.242   1.373 -2.3280  0.5221 -2.0263
 8909SOL     OW38185   1.807   3.449  10.275 -0.4077  0.5756  0.6053
 8909SOL    HW138186   1.877   3.391  10.304 -1.0267 -0.3687  0.2028
 8909SOL    HW238187   1.838   3.458  10.185  0.4689  0.4979  0.8961
 8910SOL     OW38188   1.019   0.650  10.059  0.3728  0.3568  0.1368
 8910SOL    HW138189   0.962   0.654   9.982  1.2362 -2.2911 -0.6403
 8910SOL    HW238190   1.008   0.558  10.081 -1.0739  0.4029 -0.3812
 8911SOL     OW38191   2.236   2.984   8.271 -0.4817  0.1170 -0.0317
 8911SOL    HW138192   2.273   2.906   8.230 -1.6729 -0.7902  0.6226
 8911SOL    HW238193   2.226   2.953   8.361 -2.5113 -0.7835 -0.5718
 8912SOL     OW38194   0.485   4.108  12.126 -0.8707  0.1937 -0.5068
 8912SOL    HW138195   0.567   4.139  12.086 -1.8599  1.9753 -1.1162
 8912SOL    HW238196   0.498   4.142  12.214 -1.4214  1.4725 -0.9280
 8913SOL     OW38197   3.818   0.732  12.299  0.1536  0.3301 -0.2701
 8913SOL    HW138198   3.801   0.786  12.375 -1.2632 -0.1027 -0.2759
 8913SOL    HW238199   3.729   0.728  12.263  1.0614 -1.0604 -2.3900
 8914SOL     OW38200   0.944   2.971   5.622 -0.5661  0.0308  0.2860
 8914SOL    HW138201   0.965   3.001   5.711  2.4897  0.4470 -0.5470
 8914SOL    HW238202   0.857   3.010   5.614 -2.2118 -3.2241  2.7202
 8915SOL     OW38203   3.801   4.433   1.406 -0.0829  0.6850 -0.1824
 8915SOL    HW138204   3.863   4.437   1.333 -0.6331  2.7776 -0.5572
 8915SOL    HW238205   3.835   4.358   1.454 -0.8000  0.5041  0.0357
 8916SOL     OW38206   2.574   2.359   2.717  0.3548  0.3276 -0.4181
 8916SOL    HW138207   2.540   2.270   2.724 -1.0949  0.8535 -0.6070
 8916SOL    HW238208   2.507   2.400   2.660  0.8533 -0.2213 -1.4040
 8917SOL     OW38209   3.286   4.298  12.633  0.1318  0.0698 -0.3538
 8917SOL    HW138210   3.313   4.375  12.683 -0.4958  0.3399 -0.4284
 8917SOL    HW238211   3.252   4.245  12.705  0.2103 -0.0257 -0.3870
 8918SOL     OW38212   0.189   3.964   0.724  0.5542  0.5986  0.4084
 8918SOL    HW138213   0.150   3.982   0.809 -1.5143 -1.9064 -0.0253
 8918SOL    HW238214   0.272   3.931   0.758  0.6634  0.2863 -0.1526
 8919SOL     OW38215   2.065   3.665   5.259 -0.4553  0.4158 -0.5352
 8919SOL    HW138216   2.013   3.629   5.331  2.5280 -0.8761  0.9400
 8919SOL    HW238217   2.155   3.660   5.289  0.3406  3.3087 -2.4544
 8920SOL     OW38218   0.153   0.969   0.801  1.0955  0.2374  0.0659
 8920SOL    HW138219   0.231   1.012   0.836  2.9458 -0.4427 -3.2950
 8920SOL    HW238220   0.151   0.884   0.846 -1.3107  0.6214  0.7044
 8921SOL     OW38221   1.935   3.105   0.838  0.0001  0.3027  0.3006
 8921SOL    HW138222   1.970   3.159   0.766 -2.5682 -1.6026 -2.3799
 8921SOL    HW238223   2.018   3.074   0.876 -0.6552 -1.1977  0.5250
 8922SOL     OW38224   1.364   1.472   0.847  0.2074  0.1570 -0.3319
 8922SOL    HW138225   1.318   1.545   0.805 -2.1681 -0.6255  0.9454
 8922SOL    HW238226   1.361   1.497   0.939 -0.1596  0.7122 -0.4933
 8923SOL     OW38227   3.089   1.034   1.676 -0.2083  0.4098 -0.2687
 8923SOL    HW138228   3.030   1.103   1.646  2.4003  1.8530 -2.0936
 8923SOL    HW238229   3.031   0.958   1.677 -1.5600  1.4401  1.0413
 8924SOL     OW38230   0.584   0.088   3.796  0.2957 -0.1424  0.3520
 8924SOL    HW138231   0.529   0.032   3.741  1.8384 -0.6253 -0.7171
 8924SOL    HW238232   0.522   0.111   3.865 -1.1804  0.9326 -1.3631
 8925SOL     OW38233   4.006   4.229  11.547  0.9691 -0.0885 -0.6134
 8925SOL    HW138234   4.038   4.146  11.513 -1.3482 -0.8126 -1.0307
 8925SOL    HW238235   4.002   4.210  11.641  1.7461 -1.3467 -0.8271
 8926SOL     OW38236   1.046   4.555   8.033  0.2602  0.1422  0.2347
 8926SOL    HW138237   1.057   4.532   8.125 -2.7618 -0.1150  0.5390
 8926SOL    HW238238   1.104   4.506   7.976 -0.5089  0.4277 -0.7873
 8927SOL     OW38239   3.990   4.504   7.305  0.1270  0.0561  0.2642
 8927SOL    HW138240   3.952   4.458   7.380 -1.7784 -0.6423 -1.1607
 8927SOL    HW238241   4.012   4.589   7.344  0.1364 -0.1555  0.7271
 8928SOL     OW38242   2.253   0.484   7.353 -0.1680 -0.1781 -0.0089
 8928SOL    HW138243   2.298   0.548   7.408  1.8355  0.5034 -2.4450
 8928SOL    HW238244   2.327   0.424   7.344  1.0247  1.2303  0.4882
 8929SOL     OW38245   0.983   4.130  14.129  0.0869 -0.5446 -0.6144
 8929SOL    HW138246   1.006   4.037  14.136  0.1196 -0.4861  0.0966
 8929SOL    HW238247   0.987   4.149  14.223  1.8081 -0.8646 -0.6208
 8930SOL     OW38248   1.630   0.757   2.552 -0.2009  0.8427 -0.0555
 8930SOL    HW138249   1.622   0.832   2.494 -1.5429 -0.1660 -1.1798
 8930SOL    HW238250   1.721   0.752   2.582 -0.2077 -0.2672 -0.2301
 8931SOL     OW38251   3.932   4.626   0.434 -0.4869  0.1634 -0.0506
 8931SOL    HW138252   4.013   4.576   0.431 -1.2643 -1.1425  1.0321
 8931SOL    HW238253   3.968   4.708   0.470  0.1261  0.2843 -0.9353
 8932SOL     OW38254   2.080   1.987  14.625  0.5869 -0.3300  0.2154
 8932SOL    HW138255   2.001   2.040  14.631  1.0358  0.5433 -1.6507
 8932SOL    HW238256   2.057   1.908  14.674  1.3038  0.9533  2.6336
 8933SOL     OW38257   3.144   0.435   0.509 -0.0530  0.6602 -0.1355
 8933SOL    HW138258   3.126   0.528   0.523 -0.4690  0.7910 -1.5249
 8933SOL    HW238259   3.069   0.390   0.547  0.3642  1.4476  1.6156
 8934SOL     OW38260   2.834   2.169  17.586 -0.6784  0.4385 -0.3843
 8934SOL    HW138261   2.803   2.256  17.613  0.2061  0.7363 -0.3398
 8934SOL    HW238262   2.905   2.140  17.642 -3.2458 -4.9769  0.0863
 8935SOL     OW38263   0.807   2.585  16.316  0.4480  0.3403 -0.4538
 8935SOL    HW138264   0.863   2.577  16.239  0.2140 -0.4145 -0.5455
 8935SOL    HW238265   0.850   2.536  16.386 -2.0377 -1.0681  0.0985
 8936SOL     OW38266   2.605   1.136   6.687 -0.1704 -0.7476 -0.7588
 8936SOL    HW138267   2.612   1.073   6.615 -0.7580  0.6780 -2.0491
 8936SOL    HW238268   2.645   1.082   6.756  1.2747  1.2019 -0.0911
 8937SOL     OW38269   2.272   3.671   4.646 -0.1783 -0.3958 -0.5535
 8937SOL    HW138270   2.283   3.619   4.726 -0.7928  1.4698  0.7243
 8937SOL    HW238271   2.313   3.618   4.577  1.5038 -0.5060  0.5415
 8938SOL     OW38272   0.542   4.376  17.270  0.5970  0.3723  0.1879
 8938SOL    HW138273   0.614   4.376  17.332  0.1221 -0.0604  0.7497
 8938SOL    HW238274   0.495   4.293  17.280  2.4038 -0.6125  0.4447
 8939SOL     OW38275   2.261   3.293  17.679 -0.7549 -1.0397 -0.0182
 8939SOL    HW138276   2.239   3.305   0.073 -0.4739 -1.8802  0.1548
 8939SOL    HW238277   2.277   3.199  17.684 -1.4414 -1.0766  1.6257
 8940SOL     OW38278   3.929   3.915  11.787  0.7486  0.0358 -0.3529
 8940SOL    HW138279   3.889   3.931  11.701 -0.8199 -1.5773  0.0555
 8940SOL    HW238280   3.971   3.832  11.763  0.1949 -1.0300  2.3073
 8941SOL     OW38281   0.979   4.479   2.465  0.5866 -0.5618  0.4107
 8941SOL    HW138282   1.062   4.520   2.441  0.3953 -1.4375 -1.6544
 8941SOL    HW238283   1.007   4.389   2.483  2.7192 -0.3626 -1.9696
 8942SOL     OW38284   4.441   3.681   5.690 -0.3355 -0.5372  0.1926
 8942SOL    HW138285   4.451   3.654   5.782  0.1713  2.3442  0.9718
 8942SOL    HW238286   4.366   3.623   5.675 -2.7906  2.4551  0.7956
 8943SOL     OW38287   3.022   3.048   6.466  0.0364 -0.5021  0.0068
 8943SOL    HW138288   2.979   2.965   6.487  0.3698 -1.1465 -1.8144
 8943SOL    HW238289   2.961   3.119   6.484  1.6971  0.0965  3.2302
 8944SOL     OW38290   4.049   4.703   8.535 -0.1574 -0.1189 -0.2541
 8944SOL    HW138291   3.954   4.710   8.527  0.0158  0.3205 -1.9878
 8944SOL    HW238292   4.073   0.007   8.623  2.1313  1.2386 -1.2978
 8945SOL     OW38293   1.029   0.461   2.773  0.0666  0.4740  0.1020
 8945SOL    HW138294   1.029   0.545   2.726 -0.5167 -0.6685 -1.9450
 8945SOL    HW238295   1.099   0.422   2.722 -0.6322  0.1828 -0.6461
 8946SOL     OW38296   1.455   0.599   9.393 -0.3070 -0.5759  0.2246
 8946SOL    HW138297   1.549   0.581   9.403 -0.3126 -1.3272 -1.0215
 8946SOL    HW238298   1.439   0.647   9.474  1.3974 -1.3051  1.0035
 8947SOL     OW38299   3.217   2.262  17.596 -0.9263  0.0055  0.0483
 8947SOL    HW138300   3.177   2.275  17.510  0.0587 -1.3459 -0.6204
 8947SOL    HW238301   3.281   2.195  17.571 -0.5050  0.0275  1.0811
 8948SOL     OW38302   1.505   3.738   1.949  0.7689 -0.5136  0.0641
 8948SOL    HW138303   1.426   3.760   1.998  0.5152 -1.9469  0.2767
 8948SOL    HW238304   1.482   3.745   1.856 -0.9809 -0.4999  0.5095
 8949SOL     OW38305   1.460   3.590  10.776 -0.6666 -0.0682 -0.5129
 8949SOL    HW138306   1.516   3.586  10.854 -2.6198 -0.9872  0.8369
 8949SOL    HW238307   1.373   3.616  10.807 -0.2466 -0.9449  1.3856
 8950SOL     OW38308   1.553   0.010   9.232 -0.3049 -0.2383  0.1049
 8950SOL    HW138309   1.519   4.707   9.147 -0.0375 -0.2234 -0.0066
 8950SOL    HW238310   1.559   0.105   9.219  0.8090 -0.1456  1.2090
 8951SOL     OW38311   2.690   2.391   8.732 -0.3171  0.1321  0.0655
 8951SOL    HW138312   2.619   2.369   8.671 -1.1109 -0.5944  1.2373
 8951SOL    HW238313   2.740   2.309   8.735  0.0192  0.3513  0.5052
 8952SOL     OW38314   0.197   1.474   2.886 -0.1334 -0.0531 -0.2432
 8952SOL    HW138315   0.240   1.398   2.847  0.3361  0.6109 -1.0234
 8952SOL    HW238316   0.120   1.428   2.919 -0.1641 -0.1951 -0.5160
 8953SOL     OW38317   0.356   2.177   5.154 -0.0217  0.0185  0.0407
 8953SOL    HW138318   0.339   2.271   5.165  1.7150  0.3845 -0.4589
 8953SOL    HW238319   0.410   2.169   5.076 -1.0090 -0.0113 -0.6452
 8954SOL     OW38320   0.708   1.348   1.491  0.8173  0.2989 -0.0821
 8954SOL    HW138321   0.798   1.344   1.458  0.8486 -1.1796  0.1605
 8954SOL    HW238322   0.662   1.298   1.424  1.6170 -0.2144 -0.2543
 8955SOL     OW38323   2.112   2.140   0.941  0.5242 -0.1529 -0.3778
 8955SOL    HW138324   2.020   2.132   0.966 -0.0335  0.6415 -2.1588
 8955SOL    HW238325   2.159   2.133   1.024 -2.2716 -0.3853  1.1568
 8956SOL     OW38326   3.250   0.612   1.732  0.0119  0.4153 -0.0542
 8956SOL    HW138327   3.283   0.692   1.693  1.4226  0.0328  0.3457
 8956SOL    HW238328   3.155   0.615   1.722 -0.1793  0.4910  1.6955
 8957SOL     OW38329   1.910   4.150  16.463  0.0944 -0.1018 -0.0900
 8957SOL    HW138330   1.962   4.172  16.386  1.4652 -0.1186  0.8246
 8957SOL    HW238331   1.920   4.055  16.458  0.7497 -0.0486  0.2033
 8958SOL     OW38332   4.596   4.047  15.950  0.6883  0.4763 -0.0716
 8958SOL    HW138333   4.512   4.001  15.953  1.9518 -1.8617 -0.7594
 8958SOL    HW238334   4.587   4.106  16.024 -3.7227 -0.7704  0.3596
 8959SOL     OW38335   1.660   0.462  16.908  0.0790  0.6078 -0.0152
 8959SOL    HW138336   1.703   0.397  16.853 -1.3682 -1.7148  1.5667
 8959SOL    HW238337   1.568   0.452  16.886  1.0067  0.2081 -3.6474
 8960SOL     OW38338   4.144   0.684   8.263 -0.0935 -0.5884  0.2497
 8960SOL    HW138339   4.146   0.598   8.304  1.4664 -1.1201 -0.9352
 8960SOL    HW238340   4.215   0.678   8.200  0.2476 -0.9229  0.6640
 8961SOL     OW38341   0.327   1.072   8.696  0.0669  0.3595 -0.0968
 8961SOL    HW138342   0.248   1.100   8.743 -1.0222  0.3003 -1.8527
 8961SOL    HW238343   0.352   0.993   8.743  0.4807 -0.2764 -1.3760
 8962SOL     OW38344   4.627   0.749   3.008 -0.5180 -0.1028  0.1556
 8962SOL    HW138345   4.704   0.783   3.054  1.6742 -2.2486 -1.9214
 8962SOL    HW238346   4.661   0.665   2.978 -1.0875 -0.1310 -0.3983
 8963SOL     OW38347   2.764   2.152   3.586 -0.0455  0.5086 -0.2244
 8963SOL    HW138348   2.675   2.116   3.579  0.2071 -0.3748  1.2136
 8963SOL    HW238349   2.783   2.170   3.494  1.3818 -1.3469 -0.2997
 8964SOL     OW38350   2.197   2.808   8.709 -0.3729  0.3754 -0.1982
 8964SOL    HW138351   2.244   2.805   8.792  0.0112 -2.2445 -0.4974
 8964SOL    HW238352   2.263   2.807   8.639 -2.1788  1.6549 -1.9107
 8965SOL     OW38353   0.191   0.311   7.826 -0.2418  0.7553 -0.6792
 8965SOL    HW138354   0.195   0.269   7.913 -1.6863  1.5277 -0.2522
 8965SOL    HW238355   0.236   0.241   7.778  1.0877  0.8483  0.4147
 8966SOL     OW38356   3.840   2.644   4.780 -0.0638  0.0551  0.0984
 8966SOL    HW138357   3.925   2.679   4.755  0.2465 -1.3284 -0.7867
 8966SOL    HW238358   3.820   2.722   4.832 -0.6510 -0.7467  1.0824
 8967SOL     OW38359   0.763   0.553   4.170  0.5109  0.4736  0.7171
 8967SOL    HW138360   0.676   0.592   4.182 -0.5933 -1.7134 -0.0419
 8967SOL    HW238361   0.809   0.633   4.145  0.1354  0.9979  1.7395
 8968SOL     OW38362   1.231   4.526  13.139  0.2636  0.2574 -0.2595
 8968SOL    HW138363   1.136   4.533  13.142  0.2902  0.0642  0.8928
 8968SOL    HW238364   1.229   4.431  13.154  1.5001  0.3818  0.7083
 8969SOL     OW38365   2.965   4.664   2.768  0.2139  0.6545  0.3767
 8969SOL    HW138366   2.918   0.019   2.740  1.2723  0.4299 -2.0697
 8969SOL    HW238367   2.915   4.594   2.727 -0.2526 -0.8062  3.4918
 8970SOL     OW38368   2.521   0.359   9.826  0.3387 -0.2042  0.4984
 8970SOL    HW138369   2.508   0.269   9.796  1.0625 -0.6831  1.6061
 8970SOL    HW238370   2.616   0.363   9.837  0.5387 -1.1814 -0.7911
 8971SOL     OW38371   2.680   0.694   1.205 -0.2236 -0.1834 -0.5791
 8971SOL    HW138372   2.679   0.777   1.251 -1.1608  0.3446 -1.5590
 8971SOL    HW238373   2.731   0.635   1.261  0.3330  0.8727  0.0177
 8972SOL     OW38374   1.347   3.951  12.491 -0.0905  0.1346  0.2896
 8972SOL    HW138375   1.406   4.013  12.449  0.6868 -0.0257  1.1484
 8972SOL    HW238376   1.389   3.930  12.574 -2.2036 -1.4174  0.9772
 8973SOL     OW38377   1.101   2.778   5.944 -0.0926 -0.1295 -0.3818
 8973SOL    HW138378   1.184   2.795   5.900 -0.0932  0.2555 -0.2303
 8973SOL    HW238379   1.119   2.847   6.007 -0.0977  0.2333 -0.7802
 8974SOL     OW38380   1.356   1.473   0.239  0.4257 -0.6723 -0.3124
 8974SOL    HW138381   1.279   1.448   0.290  2.1379 -2.4010  1.4019
 8974SOL    HW238382   1.415   1.404   0.270  0.1444 -1.3952 -1.3659
 8975SOL     OW38383   2.157   1.682  11.706 -0.2597 -0.3001 -0.4422
 8975SOL    HW138384   2.114   1.624  11.642 -0.8844 -1.3181  0.8951
 8975SOL    HW238385   2.096   1.756  11.715  1.9148  1.2453  1.3186
 8976SOL     OW38386   3.918   0.303   5.397 -0.0406  0.1615 -0.3616
 8976SOL    HW138387   3.850   0.356   5.437 -0.8648 -1.2548  0.1250
 8976SOL    HW238388   3.984   0.294   5.466 -0.0915  1.1502 -0.1889
 8977SOL     OW38389   2.406   3.807  12.855 -0.0190  0.2335 -0.4800
 8977SOL    HW138390   2.500   3.813  12.838  0.1776 -0.7698  0.2419
 8977SOL    HW238391   2.408   3.854  12.939  0.7622  1.9629 -1.4859
 8978SOL     OW38392   3.763   1.781   6.083 -0.5932  0.3059 -0.2588
 8978SOL    HW138393   3.710   1.842   6.135  0.6988  1.2632 -0.0646
 8978SOL    HW238394   3.851   1.813   6.104 -0.4476 -0.1619 -0.1655
 8979SOL     OW38395   4.075   1.934   7.373  0.2916 -0.0895 -0.4623
 8979SOL    HW138396   4.111   1.851   7.404  0.8788  0.6863  0.9717
 8979SOL    HW238397   4.125   1.997   7.426  0.3287  1.9475 -2.9236
 8980SOL     OW38398   0.424   3.269  13.259  0.0535 -0.5261 -0.8631
 8980SOL    HW138399   0.347   3.324  13.246  0.0260 -0.1841  0.7322
 8980SOL    HW238400   0.476   3.295  13.182  0.0932  0.5403 -0.4763
 8981SOL     OW38401   4.425   3.096   7.368 -0.4838 -0.0628  0.3832
 8981SOL    HW138402   4.402   3.180   7.408 -0.0444 -1.1898  3.0110
 8981SOL    HW238403   4.503   3.130   7.323  0.4613  2.6119  4.0543
 8982SOL     OW38404   2.509   0.272   4.652 -0.4315  0.4677 -0.1346
 8982SOL    HW138405   2.583   0.329   4.634  0.3276 -0.5867 -0.3326
 8982SOL    HW238406   2.504   0.215   4.575  1.5385 -1.4440  1.1387
 8983SOL     OW38407   2.231   0.779   4.518 -0.2529  0.2216  0.5239
 8983SOL    HW138408   2.209   0.750   4.430  2.6792  0.0631 -0.1504
 8983SOL    HW238409   2.324   0.802   4.512 -0.6202  1.7177  0.5676
 8984SOL     OW38410   4.647   2.134   1.813  1.4845 -0.0589 -0.9005
 8984SOL    HW138411   4.646   2.219   1.768 -0.4567 -1.3050 -3.2600
 8984SOL    HW238412   4.724   2.093   1.774  1.7141 -0.0479 -0.4505
 8985SOL     OW38413   3.729   3.487   9.348  0.4817 -0.0066  0.0352
 8985SOL    HW138414   3.667   3.504   9.419 -2.0246 -1.5539 -1.7549
 8985SOL    HW238415   3.806   3.447   9.389  0.4603  0.2326  0.3056
 8986SOL     OW38416   1.364   1.248   8.211  0.1152  0.0260 -0.1581
 8986SOL    HW138417   1.422   1.178   8.183 -1.5969 -2.3474  2.1066
 8986SOL    HW238418   1.437   1.306   8.233  0.1464  0.1625 -0.6245
 8987SOL     OW38419   2.199   0.434  10.907  0.0790  0.2205 -0.0655
 8987SOL    HW138420   2.214   0.522  10.942  0.2659 -0.5613  1.8104
 8987SOL    HW238421   2.103   0.428  10.904 -0.0915  2.0167  1.6937
 8988SOL     OW38422   4.019   4.290   6.937  0.6268  0.1978  0.2469
 8988SOL    HW138423   3.982   4.378   6.938  1.0398  0.3491  2.1612
 8988SOL    HW238424   4.095   4.296   6.879 -0.5023  2.8726 -0.9165
 8989SOL     OW38425   1.613   0.803   5.695  0.0411  0.1450  0.4720
 8989SOL    HW138426   1.552   0.778   5.764  1.2608 -0.4641  1.3416
 8989SOL    HW238427   1.564   0.768   5.621  0.9793 -0.9867  0.3755
 8990SOL     OW38428   4.085   3.627   2.802  0.0046 -0.3501  0.0252
 8990SOL    HW138429   4.040   3.568   2.861 -1.1547 -1.7344 -2.2674
 8990SOL    HW238430   4.024   3.694   2.772 -0.0162  0.7737  2.5698
 8991SOL     OW38431   4.184   2.351   8.451  0.2664  0.1609 -0.8200
 8991SOL    HW138432   4.110   2.308   8.492  1.1780 -1.4054 -0.8312
 8991SOL    HW238433   4.140   2.386   8.373  2.3614  1.8074 -1.2877
 8992SOL     OW38434   3.405   2.527   6.715  0.1662  0.2052 -0.2698
 8992SOL    HW138435   3.395   2.605   6.661 -3.1726 -0.5943 -0.8159
 8992SOL    HW238436   3.491   2.540   6.755 -1.3386  0.1482  3.0129
 8993SOL     OW38437   3.672   2.895  14.714  0.0221  0.2719 -0.0868
 8993SOL    HW138438   3.719   2.814  14.738  1.1330  0.6541 -0.9651
 8993SOL    HW238439   3.670   2.877  14.620 -2.8363  1.7588 -0.3076
 8994SOL     OW38440   1.406   0.145   8.346 -0.5601 -1.1102 -0.6169
 8994SOL    HW138441   1.501   0.141   8.352 -0.2966  3.2414 -2.1042
 8994SOL    HW238442   1.379   0.060   8.383 -2.3103  0.0391  0.7645
 8995SOL     OW38443   4.379   4.357   4.669 -0.3799 -0.0249 -0.0593
 8995SOL    HW138444   4.354   4.394   4.754  2.1587 -0.0955  0.7357
 8995SOL    HW238445   4.459   4.318   4.705 -0.7673  0.6182  1.5195
 8996SOL     OW38446   1.792   4.444   6.992 -0.6966 -0.3103  0.5507
 8996SOL    HW138447   1.841   4.458   6.911 -1.9509 -0.9576 -0.3113
 8996SOL    HW238448   1.736   4.373   6.963 -0.9552 -0.1703  0.7091
 8997SOL     OW38449   0.275   4.140   6.379  0.0966  1.3176 -0.2935
 8997SOL    HW138450   0.184   4.152   6.350 -0.3198 -2.2519 -0.4639
 8997SOL    HW238451   0.320   4.131   6.294  0.5739 -1.0299  0.2098
 8998SOL     OW38452   0.792   3.580  10.708  0.1312  0.3653 -0.1587
 8998SOL    HW138453   0.855   3.652  10.715 -0.8504  0.9010  3.1716
 8998SOL    HW238454   0.769   3.581  10.615 -4.2834 -0.0423  0.9141
 8999SOL     OW38455   4.366   3.438   4.563  0.3007 -0.3543 -0.2612
 8999SOL    HW138456   4.371   3.436   4.658  0.5908  2.5733 -0.2179
 8999SOL    HW238457   4.408   3.522   4.544 -2.3940  1.2671  1.0934
 9000SOL     OW38458   1.894   0.214   7.037  0.3825  0.6693  0.2601
 9000SOL    HW138459   1.904   0.256   7.122  1.0589  1.1721 -0.0608
 9000SOL    HW238460   1.929   0.128   7.063  1.7025  1.3600  0.7736
 9001SOL     OW38461   1.997   2.648   7.425  0.6716 -0.2695 -0.0021
 9001SOL    HW138462   1.989   2.657   7.330  0.0591 -0.9529 -0.0149
 9001SOL    HW238463   2.072   2.589   7.425  0.9199  0.0335 -1.6631
 9002SOL     OW38464   3.166   2.819  17.295 -0.2454 -0.6930 -0.6199
 9002SOL    HW138465   3.159   2.910  17.325  0.7575 -1.1024  0.8292
 9002SOL    HW238466   3.189   2.777  17.378  2.4120  0.8534 -0.5773
 9003SOL     OW38467   0.355   0.612   5.982  0.4294 -0.2902 -0.0022
 9003SOL    HW138468   0.380   0.689   5.931  0.3883  0.6166  1.3549
 9003SOL    HW238469   0.285   0.647   6.038  2.2043 -0.0279  2.0264
 9004SOL     OW38470   1.656   4.528   9.379 -0.3910  0.3932 -0.0754
 9004SOL    HW138471   1.590   4.459   9.367 -1.4153  1.2274  0.7827
 9004SOL    HW238472   1.614   4.598   9.330  0.6891  1.6474  0.7834
 9005SOL     OW38473   2.517   1.306   3.446  0.7684 -0.1677  0.0260
 9005SOL    HW138474   2.573   1.233   3.421 -0.2226 -0.7750 -0.4427
 9005SOL    HW238475   2.451   1.323   3.378  0.3386 -1.1952  0.1798
 9006SOL     OW38476   2.994   3.589   7.628 -0.5403 -0.2372  0.0857
 9006SOL    HW138477   2.990   3.493   7.624  1.5458 -0.2972 -0.8147
 9006SOL    HW238478   3.013   3.599   7.721  1.1264 -1.6124 -0.1080
 9007SOL     OW38479   4.330   2.884   8.121 -0.3694 -0.1147 -0.1557
 9007SOL    HW138480   4.343   2.797   8.084 -0.1675  0.6405 -1.8966
 9007SOL    HW238481   4.235   2.888   8.131 -0.4020  1.1011 -0.9337
 9008SOL     OW38482   1.574   4.014   2.564 -0.1442 -0.1622 -0.2454
 9008SOL    HW138483   1.491   4.049   2.533 -0.1489 -1.2621 -1.4598
 9008SOL    HW238484   1.601   3.971   2.483 -0.4671  1.1702 -1.0506
 9009SOL     OW38485   4.540   2.400  15.657  0.0130  0.5132 -0.3628
 9009SOL    HW138486   4.454   2.388  15.697 -0.4641  1.2619 -1.1671
 9009SOL    HW238487   4.530   2.382  15.564  2.2478  0.3383 -0.5777
 9010SOL     OW38488   0.176   1.432  15.024  0.0084  0.2365 -0.4361
 9010SOL    HW138489   0.146   1.472  15.106  1.7351  2.1157 -0.7082
 9010SOL    HW238490   0.128   1.478  14.954  2.1657 -2.2518 -3.5616
 9011SOL     OW38491   4.288   1.304   3.896 -0.1596  0.6715  0.1300
 9011SOL    HW138492   4.198   1.272   3.890 -0.1521  1.3113 -3.2675
 9011SOL    HW238493   4.332   1.234   3.942 -2.4050 -3.0397 -3.3636
 9012SOL     OW38494   1.678   3.450  13.456  0.0574 -0.0391 -0.4533
 9012SOL    HW138495   1.597   3.501  13.455  1.2498  1.9044  0.3768
 9012SOL    HW238496   1.656   3.373  13.509 -0.6210  0.0881 -0.5543
 9013SOL     OW38497   3.064   0.447  11.289  0.8808 -0.1321  0.1445
 9013SOL    HW138498   3.003   0.374  11.277  1.6258 -0.6087 -0.6739
 9013SOL    HW238499   3.075   0.442  11.384  2.9190 -0.4695 -0.1236
 9014SOL     OW38500   3.860   4.082   1.557  0.1068 -0.0475 -0.2592
 9014SOL    HW138501   3.832   4.118   1.641  3.0762 -1.4713  1.3268
 9014SOL    HW238502   3.886   3.992   1.579 -0.0336 -0.0898 -0.2673
 9015SOL     OW38503   1.800   4.691   8.989 -0.4872 -0.4072  0.4850
 9015SOL    HW138504   1.814   4.603   9.023  0.9821 -1.0860 -1.8483
 9015SOL    HW238505   1.705   4.687   8.981 -0.5347  0.7910  0.4205
 9016SOL     OW38506   4.624   2.859   3.658 -0.1479  0.6356 -0.1914
 9016SOL    HW138507   4.619   2.816   3.743  1.6347 -0.4591 -0.6299
 9016SOL    HW238508   4.681   2.932   3.684  0.6404  0.2009 -0.6885
 9017SOL     OW38509   2.497   0.151   6.274 -1.0299 -0.6281  0.7358
 9017SOL    HW138510   2.540   0.131   6.357 -2.4264 -0.9609  1.3801
 9017SOL    HW238511   2.569   0.184   6.221 -2.2276 -2.7835 -2.2337
 9018SOL     OW38512   0.373   0.141   6.464 -0.0200  0.3463  0.1966
 9018SOL    HW138513   0.410   0.073   6.408 -0.2609 -0.4382  0.9899
 9018SOL    HW238514   0.304   0.097   6.513  0.8751  0.2754  1.4088
 9019SOL     OW38515   4.515   3.919   1.047 -0.2170  0.1072  0.1191
 9019SOL    HW138516   4.480   4.006   1.030  0.9346 -0.0605 -3.1595
 9019SOL    HW238517   4.543   3.934   1.138 -2.8393 -0.8406  1.0812
 9020SOL     OW38518   4.599   0.331  17.485  0.2877  0.1737  0.1921
 9020SOL    HW138519   4.540   0.334  17.411 -0.5147 -2.8120  0.6888
 9020SOL    HW238520   4.663   0.272  17.445 -0.4513  0.2788 -1.1429
 9021SOL     OW38521   2.078   4.383   7.653  0.4582  0.1769 -0.2716
 9021SOL    HW138522   2.161   4.416   7.687 -0.8132  0.4065  2.6129
 9021SOL    HW238523   2.073   4.289   7.673  1.1646  1.0981  4.1308
 9022SOL     OW38524   4.630   2.213   6.427 -0.3194  0.0198  0.2080
 9022SOL    HW138525   4.723   2.226   6.442 -0.7450  2.5253  0.6453
 9022SOL    HW238526   4.623   2.267   6.348  3.8525 -0.4771 -0.4949
 9023SOL     OW38527   1.289   0.391   5.678  0.1099  0.2880 -0.3867
 9023SOL    HW138528   1.307   0.298   5.687 -0.2913  0.1652 -0.7874
 9023SOL    HW238529   1.367   0.428   5.718  0.6742 -1.6766  0.2990
 9024SOL     OW38530   1.850   1.349  11.205 -0.3897  0.3230 -0.1300
 9024SOL    HW138531   1.874   1.401  11.281 -0.0099 -0.4067  0.2516
 9024SOL    HW238532   1.939   1.319  11.188 -0.5742  0.4008 -1.2527
 9025SOL     OW38533   4.566   4.660   4.238  0.4391  0.2130 -0.3274
 9025SOL    HW138534   4.528   0.011   4.283  0.6615 -0.2634  0.6624
 9025SOL    HW238535   4.660   4.676   4.252  0.1325  2.5029 -0.8163
 9026SOL     OW38536   3.336   1.167  17.228  0.6577  0.4710  0.8356
 9026SOL    HW138537   3.398   1.133  17.292 -0.3083 -0.6900  1.1468
 9026SOL    HW238538   3.368   1.253  17.199  1.5220 -0.9886 -2.5556
 9027SOL     OW38539   1.118   0.002   2.326 -0.4772  0.0241  0.0088
 9027SOL    HW138540   1.155   4.639   2.339 -1.8899 -0.6285 -0.2900
 9027SOL    HW238541   1.177   0.044   2.389 -0.7400  1.7140 -0.8621
 9028SOL     OW38542   2.211   4.193   9.018  0.3886 -0.1278  0.2177
 9028SOL    HW138543   2.120   4.210   9.044 -0.1483 -0.3297 -1.4904
 9028SOL    HW238544   2.221   4.245   8.938 -0.7016 -1.1709 -0.5954
 9029SOL     OW38545   0.687   3.479   9.289  0.3642  0.0386  0.1423
 9029SOL    HW138546   0.637   3.556   9.264  1.6934  0.4734 -1.1830
 9029SOL    HW238547   0.651   3.454   9.374 -1.1921  0.9792 -0.2471
 9030SOL     OW38548   0.925   2.186   4.893  0.2602 -0.1638  0.2876
 9030SOL    HW138549   0.988   2.163   4.961  1.9431  0.8913 -0.9331
 9030SOL    HW238550   0.879   2.252   4.945 -0.0451  0.4090 -0.7110
 9031SOL     OW38551   0.446   4.372   6.424 -0.6623  0.2213  0.0161
 9031SOL    HW138552   0.369   4.317   6.410 -0.8451  0.7873 -1.2471
 9031SOL    HW238553   0.456   4.411   6.337  3.6756  1.0811  0.9022
 9032SOL     OW38554   4.626   3.125   3.468  0.1378 -0.1705  0.1330
 9032SOL    HW138555   4.562   3.126   3.397 -0.2837  2.7672  0.5348
 9032SOL    HW238556   4.568   3.134   3.545 -2.6074 -1.3332 -1.7986
 9033SOL     OW38557   0.802   0.292  11.048  0.1140  0.2720  0.0143
 9033SOL    HW138558   0.895   0.298  11.027  0.1437  2.2624  0.6638
 9033SOL    HW238559   0.773   0.384  11.044 -0.2161  0.2128  1.1338
 9034SOL     OW38560   1.801   2.353   4.010 -0.1417 -0.0017 -0.0410
 9034SOL    HW138561   1.795   2.273   3.958 -0.2577 -0.3792  0.5592
 9034SOL    HW238562   1.814   2.318   4.098  2.2056  3.2405  0.9253
 9035SOL     OW38563   3.210   0.144   2.735  0.2237 -0.5908  0.0736
 9035SOL    HW138564   3.115   0.151   2.729  0.0165 -1.3853  2.4305
 9035SOL    HW238565   3.243   0.231   2.711 -4.8162  1.3441  0.1930
 9036SOL     OW38566   3.832   2.126   1.558 -0.0271 -0.6338 -0.3437
 9036SOL    HW138567   3.919   2.127   1.518 -0.1826  2.0842 -0.6376
 9036SOL    HW238568   3.835   2.189   1.630 -1.8594 -1.1198  0.1493
 9037SOL     OW38569   1.433   0.169   6.079 -0.1051 -0.3255  0.6373
 9037SOL    HW138570   1.482   0.227   6.020 -2.2021  2.4135  1.5805
 9037SOL    HW238571   1.408   0.230   6.148  1.1629  0.9901 -0.0477
 9038SOL     OW38572   2.258   4.357   8.774 -0.2044  0.4156  0.0989
 9038SOL    HW138573   2.320   4.416   8.731 -1.5497  2.3199  0.8132
 9038SOL    HW238574   2.186   4.367   8.712 -0.4326  0.5799  0.3910
 9039SOL     OW38575   0.824   0.067  13.003 -0.3279 -0.3716 -0.1239
 9039SOL    HW138576   0.809   0.128  12.931  0.5843 -1.2707 -1.0795
 9039SOL    HW238577   0.757   0.001  12.983 -2.0468  1.3834 -0.2182
 9040SOL     OW38578   3.456   4.650   7.013 -0.4501 -0.1492 -0.4560
 9040SOL    HW138579   3.394   4.676   7.081 -0.2410  0.1869 -0.3973
 9040SOL    HW238580   3.447   4.555   7.010 -0.4572 -0.0905 -3.0042
 9041SOL     OW38581   4.412   1.600  10.983  0.3131  0.0796  0.6757
 9041SOL    HW138582   4.393   1.623  11.074  0.9215  1.4529  0.4497
 9041SOL    HW238583   4.467   1.523  10.996  1.9307  0.9542 -1.1797
 9042SOL     OW38584   2.651   2.418   4.187  0.6825 -0.2133  0.1297
 9042SOL    HW138585   2.651   2.514   4.177  0.2336  0.0487  2.6461
 9042SOL    HW238586   2.729   2.406   4.241  0.2645  1.1584  1.0252
 9043SOL     OW38587   1.724   0.472  11.320 -0.2426 -0.1768 -0.0438
 9043SOL    HW138588   1.747   0.383  11.294 -0.1933  0.2691 -1.5104
 9043SOL    HW238589   1.804   0.491  11.368  0.0635  1.4212 -1.2002
 9044SOL     OW38590   2.861   0.885   8.912  0.0416 -0.2855 -0.1697
 9044SOL    HW138591   2.907   0.942   8.974 -0.1127  2.2245 -2.3707
 9044SOL    HW238592   2.931   0.862   8.850 -0.7557 -1.0759 -0.7820
 9045SOL     OW38593   4.537   3.291  11.641 -0.1696 -0.2231  0.5457
 9045SOL    HW138594   4.481   3.213  11.643 -1.0150  0.3765  0.4569
 9045SOL    HW238595   4.547   3.313  11.734 -0.8890 -1.2357  0.8670
 9046SOL     OW38596   1.851   1.050  17.585  0.0884 -0.8345  0.1659
 9046SOL    HW138597   1.847   0.955  17.578  1.2581 -0.7021 -2.3263
 9046SOL    HW238598   1.804   1.074  17.505  1.9028 -1.6307 -1.1625
 9047SOL     OW38599   1.546   2.100   6.896  0.1235  0.3054 -0.4975
 9047SOL    HW138600   1.477   2.143   6.845  1.1480  3.2000  0.5807
 9047SOL    HW238601   1.575   2.055   6.816  0.0643  0.5833 -0.6741
 9048SOL     OW38602   4.217   2.369   8.734  0.1034 -0.0543  0.5483
 9048SOL    HW138603   4.283   2.438   8.741 -0.2805  0.3042  0.6435
 9048SOL    HW238604   4.214   2.365   8.639 -1.8511  0.9814  0.5736
 9049SOL     OW38605   2.218   2.976   3.849 -0.0720 -0.4902 -0.5078
 9049SOL    HW138606   2.153   2.959   3.918 -1.6064 -1.0176 -2.0683
 9049SOL    HW238607   2.176   3.058   3.821  0.3025 -1.0386 -2.7239
 9050SOL     OW38608   2.134   1.987   5.179 -0.3011 -0.1244 -0.4664
 9050SOL    HW138609   2.073   1.916   5.157 -1.8301  1.3320 -0.8968
 9050SOL    HW238610   2.198   1.951   5.240 -1.2138 -3.1785 -1.3244
 9051SOL     OW38611   1.009   0.997   1.630  0.0392 -0.1776 -0.1360
 9051SOL    HW138612   1.097   1.033   1.624 -0.4131  1.5368  3.4047
 9051SOL    HW238613   0.993   0.945   1.551 -1.2595  0.7461 -0.4888
 9052SOL     OW38614   4.117   3.432   3.291 -0.3486  0.0896 -0.0669
 9052SOL    HW138615   4.182   3.484   3.244 -0.6635  0.1558 -0.4275
 9052SOL    HW238616   4.055   3.496   3.325  1.7639  1.5537  1.0428
 9053SOL     OW38617   2.923   4.493   5.681 -0.2374 -0.4572  0.2218
 9053SOL    HW138618   2.975   4.444   5.617  0.8245  0.5539  0.3107
 9053SOL    HW238619   2.888   4.559   5.622 -0.7839  1.3201  2.5353
 9054SOL     OW38620   2.086   3.712   2.028  0.2033  0.5294  0.2447
 9054SOL    HW138621   2.170   3.717   1.982 -0.4872 -1.4720 -1.2547
 9054SOL    HW238622   2.112   3.751   2.112  0.1477 -0.0951  0.5531
 9055SOL     OW38623   4.660   0.972  10.685 -0.6385 -0.1070  0.2129
 9055SOL    HW138624   4.636   1.062  10.667 -0.6377  0.0261  0.8586
 9055SOL    HW238625   4.635   0.966  10.778 -0.4278 -2.9263  0.1101
 9056SOL     OW38626   4.535   0.685   0.599  0.5254 -0.2093 -0.1104
 9056SOL    HW138627   4.508   0.601   0.562  0.7644 -0.4357  0.2332
 9056SOL    HW238628   4.629   0.668   0.607  0.8529  1.4330 -0.5142
 9057SOL     OW38629   2.293   2.877   5.134  0.0107  0.2219  0.3667
 9057SOL    HW138630   2.294   2.787   5.100  0.4129  0.8806 -1.3278
 9057SOL    HW238631   2.353   2.866   5.207  1.2985  0.2652 -0.6958
 9058SOL     OW38632   1.418   0.296   0.940 -0.3019  0.6621 -0.5700
 9058SOL    HW138633   1.482   0.230   0.912 -0.3347 -0.0269  0.9946
 9058SOL    HW238634   1.405   0.262   1.028 -1.5903 -0.7767 -1.3075
 9059SOL     OW38635   1.211   3.900   1.638 -0.2292 -0.4232 -0.3375
 9059SOL    HW138636   1.133   3.875   1.687 -0.8051 -2.6099 -2.3459
 9059SOL    HW238637   1.270   3.824   1.637 -0.7944 -0.8523 -0.7101
 9060SOL     OW38638   0.502   4.091  17.295 -0.0165 -0.2690  0.3676
 9060SOL    HW138639   0.430   4.064  17.353 -0.2367  0.8336  0.6106
 9060SOL    HW238640   0.487   4.040  17.216  1.0562  1.7729 -1.1479
 9061SOL     OW38641   1.807   1.976   0.275 -0.0340 -0.1523 -0.4534
 9061SOL    HW138642   1.840   2.034   0.343  0.5372 -1.4545  0.3814
 9061SOL    HW238643   1.762   1.914   0.333 -1.5941 -0.3622 -1.8694
 9062SOL     OW38644   4.682   0.930   3.976 -0.0729  0.4452 -0.2930
 9062SOL    HW138645   4.706   0.967   3.891 -0.9103 -2.5579 -1.8206
 9062SOL    HW238646   0.018   0.975   4.036 -0.9655  1.1082  0.1009
 9063SOL     OW38647   3.841   3.199   4.606  0.1021  0.2298  0.0417
 9063SOL    HW138648   3.844   3.118   4.555  0.8565 -0.7216  1.5693
 9063SOL    HW238649   3.894   3.183   4.684  1.8427 -0.8615 -1.3860
 9064SOL     OW38650   2.223   0.456   7.804  0.3769  0.1568  0.3823
 9064SOL    HW138651   2.280   0.413   7.869  1.3091 -0.6145 -0.9445
 9064SOL    HW238652   2.247   0.546   7.825 -1.5459  0.9937 -1.0649
 9065SOL     OW38653   1.911   0.491   3.021 -0.2473  0.3798  0.1238
 9065SOL    HW138654   1.911   0.482   3.117 -1.6623 -2.6815 -0.1457
 9065SOL    HW238655   1.903   0.585   3.007 -3.9104  0.1861  0.6708
 9066SOL     OW38656   0.432   3.054   9.420 -0.0017 -0.0734 -0.0809
 9066SOL    HW138657   0.495   3.120   9.450 -0.4416  0.7800 -1.0147
 9066SOL    HW238658   0.483   2.976   9.440 -1.5614 -0.6582  1.6074
 9067SOL     OW38659   4.435   0.530   5.619 -0.0300  0.4411 -0.0830
 9067SOL    HW138660   4.428   0.509   5.712  0.5325 -1.8417 -0.5676
 9067SOL    HW238661   4.419   0.446   5.577 -1.2272  0.7501 -0.2442
 9068SOL     OW38662   2.542   2.734   7.125  0.4514 -0.4105 -0.1955
 9068SOL    HW138663   2.562   2.772   7.211 -0.1647 -0.2823 -0.1070
 9068SOL    HW238664   2.626   2.696   7.102  0.0970  0.8714 -3.5446
 9069SOL     OW38665   3.155   1.865   0.747 -0.3053  0.6435  0.2211
 9069SOL    HW138666   3.188   1.858   0.837  0.5731  1.9245 -0.0041
 9069SOL    HW238667   3.060   1.869   0.753 -0.2696  0.9902  0.5999
 9070SOL     OW38668   4.012   3.955   2.332 -0.5085  0.5985  0.5488
 9070SOL    HW138669   3.930   3.960   2.284 -0.3090  0.2907  0.1718
 9070SOL    HW238670   4.058   4.020   2.280 -2.4494 -0.1767 -2.1478
 9071SOL     OW38671   0.502   2.941   5.244  0.6154  0.4637 -0.0075
 9071SOL    HW138672   0.463   3.024   5.272  2.0952  1.6094 -1.3644
 9071SOL    HW238673   0.568   2.913   5.307 -1.2148 -1.5858  1.0106
 9072SOL     OW38674   2.890   1.945  17.379 -0.3011 -0.0224 -0.0327
 9072SOL    HW138675   2.899   1.997  17.459 -1.2534 -0.3850  0.3171
 9072SOL    HW238676   2.804   1.976  17.349  0.0091 -0.0489 -0.9405
 9073SOL     OW38677   4.566   4.675   5.674  0.5962 -0.3499  0.4256
 9073SOL    HW138678   4.631   0.017   5.651  1.1409 -1.0684 -0.1308
 9073SOL    HW238679   4.562   4.619   5.596  1.2103 -0.5823  0.5579
 9074SOL     OW38680   1.724   3.915   0.565  0.0629  0.6756  0.2202
 9074SOL    HW138681   1.784   3.981   0.530 -1.2348  1.0309 -1.3675
 9074SOL    HW238682   1.759   3.905   0.653 -0.6847  0.7451  0.5222
 9075SOL     OW38683   0.455   3.036   2.999 -0.1228 -0.0783  0.1930
 9075SOL    HW138684   0.493   2.955   2.964 -0.7239 -0.9656  1.6082
 9075SOL    HW238685   0.443   3.089   2.920 -0.5337  1.0718  1.0349
 9076SOL     OW38686   4.240   4.346   6.779  0.8177  0.1646 -0.4162
 9076SOL    HW138687   4.279   4.361   6.693 -3.1635  1.9289 -1.8880
 9076SOL    HW238688   4.298   4.278   6.813  1.0334  0.4249 -0.2625
 9077SOL     OW38689   4.707   3.323   4.238  0.0390  0.2039  0.1879
 9077SOL    HW138690   4.690   3.349   4.329 -1.5623  0.5914 -0.2319
 9077SOL    HW238691   4.621   3.331   4.198  0.3427 -0.8527 -0.6825
 9078SOL     OW38692   2.227   3.168   4.227  0.1683  0.6441  0.2263
 9078SOL    HW138693   2.215   3.089   4.280  2.0830 -1.5072 -2.5701
 9078SOL    HW238694   2.143   3.211   4.243 -1.0795 -2.2684  1.6168
 9079SOL     OW38695   3.971   1.043   1.178 -0.3914  0.0601 -0.0335
 9079SOL    HW138696   4.024   1.095   1.118  1.0184  0.6155  1.7188
 9079SOL    HW238697   3.947   0.975   1.115 -4.3969 -0.2876  1.8914
 9080SOL     OW38698   1.441   1.029   2.501  1.0085 -0.4412 -0.1060
 9080SOL    HW138699   1.458   0.995   2.413  0.0599  1.2293 -0.9354
 9080SOL    HW238700   1.361   1.081   2.492  0.3852 -1.5663 -1.0523
 9081SOL     OW38701   4.359   1.317   1.976  0.3403 -0.1366  0.1705
 9081SOL    HW138702   4.407   1.334   2.057  0.1895  0.1845  0.1914
 9081SOL    HW238703   4.402   1.376   1.915  1.2016 -0.1973  0.7243
 9082SOL     OW38704   0.464   4.210   9.203  0.2816  0.3375  0.0724
 9082SOL    HW138705   0.408   4.143   9.243  1.4673 -1.1385 -0.7393
 9082SOL    HW238706   0.476   4.267   9.279 -1.3111  0.2326  0.4145
 9083SOL     OW38707   0.456   0.074  12.510 -0.1160 -0.6074  0.3854
 9083SOL    HW138708   0.470   0.148  12.569  0.9485  1.8650 -2.9843
 9083SOL    HW238709   0.537   0.081  12.460  0.1962  0.7160  1.0756
 9084SOL     OW38710   4.216   2.835   9.232  0.4453  0.5678  0.5056
 9084SOL    HW138711   4.125   2.809   9.248  0.5424 -0.5823 -0.8045
 9084SOL    HW238712   4.272   2.787   9.293  1.6656  0.2851 -0.8407
 9085SOL     OW38713   1.976   1.867  12.952 -0.3016 -0.0017  0.2762
 9085SOL    HW138714   2.035   1.924  13.001 -0.1369 -0.4894  0.6389
 9085SOL    HW238715   1.897   1.922  12.949  1.1436  2.0946  0.3731
 9086SOL     OW38716   4.484   2.851   3.106 -0.3160 -0.0416 -0.5770
 9086SOL    HW138717   4.511   2.928   3.156 -0.9800 -0.3767  0.2828
 9086SOL    HW238718   4.395   2.869   3.075 -0.2274  1.4175  0.0094
 9087SOL     OW38719   2.438   2.805  13.948  0.6704 -0.0173 -0.1548
 9087SOL    HW138720   2.440   2.711  13.929  2.6264 -0.0324  0.1245
 9087SOL    HW238721   2.422   2.841  13.861  1.3172  0.2140 -0.1759
 9088SOL     OW38722   2.196   2.494   7.318 -0.3046 -0.5659 -0.1290
 9088SOL    HW138723   2.286   2.529   7.317 -0.1093 -1.1019 -0.9565
 9088SOL    HW238724   2.213   2.407   7.354  1.0955 -0.9552 -1.7012
 9089SOL     OW38725   4.411   1.339  13.617 -0.1420  0.2227 -0.7831
 9089SOL    HW138726   4.335   1.396  13.607  0.3701  0.3866 -3.7710
 9089SOL    HW238727   4.409   1.325  13.711  0.4738 -0.1142 -0.8212
 9090SOL     OW38728   2.655   1.342   3.711 -0.1330  0.1459  0.2105
 9090SOL    HW138729   2.701   1.259   3.714  1.8948  1.1867 -1.4971
 9090SOL    HW238730   2.665   1.361   3.617 -0.0981  0.0590  0.1969
 9091SOL     OW38731   1.382   3.061   6.557  0.1346  0.0568  0.2774
 9091SOL    HW138732   1.450   3.065   6.624 -1.0277  2.4146  1.2932
 9091SOL    HW238733   1.316   3.126   6.583  0.0791  0.8781 -1.9379
 9092SOL     OW38734   2.909   1.503   7.744 -0.1066 -0.9361 -0.2248
 9092SOL    HW138735   2.990   1.476   7.788 -0.1206 -0.6710 -0.0350
 9092SOL    HW238736   2.903   1.587   7.788 -0.5428 -0.1002 -1.8823
 9093SOL     OW38737   3.554   1.383   6.654  0.1491  0.4523  0.1908
 9093SOL    HW138738   3.506   1.459   6.687 -0.5789 -1.3690  3.3177
 9093SOL    HW238739   3.512   1.310   6.699  3.1302 -1.0278  0.5834
 9094SOL     OW38740   3.079   1.653   0.479 -0.2973 -0.3588 -0.8233
 9094SOL    HW138741   3.025   1.699   0.414 -1.2261  0.0047  0.2016
 9094SOL    HW238742   3.086   1.727   0.540 -1.4210 -1.0531  0.1294
 9095SOL     OW38743   0.655   0.743   5.232 -0.1859  0.3194  0.3293
 9095SOL    HW138744   0.687   0.788   5.311  2.9247 -1.0131 -0.1558
 9095SOL    HW238745   0.638   0.814   5.170  1.0789 -0.0620 -0.4465
 9096SOL     OW38746   1.104   3.792  15.461  0.1522 -0.1090 -0.4173
 9096SOL    HW138747   1.149   3.829  15.386 -1.9742  1.4583 -0.9268
 9096SOL    HW238748   1.018   3.835  15.456  0.3396 -0.0312 -3.0456
 9097SOL     OW38749   4.209   1.007   5.380 -0.2548 -0.4966  0.6901
 9097SOL    HW138750   4.249   0.938   5.433 -0.9713 -1.6234 -0.2111
 9097SOL    HW238751   4.251   0.994   5.294  0.4380  0.6985  0.8517
 9098SOL     OW38752   0.400   3.223   3.295 -0.2866  0.0209  0.1926
 9098SOL    HW138753   0.312   3.206   3.261 -0.2199  0.0410  0.0076
 9098SOL    HW238754   0.431   3.133   3.294 -2.2583 -0.6444 -1.0650
 9099SOL     OW38755   0.844   4.276   3.095 -0.0460 -0.0172  0.5073
 9099SOL    HW138756   0.812   4.366   3.083  0.5439 -0.2770 -3.0142
 9099SOL    HW238757   0.925   4.277   3.146 -1.7695 -1.6350  3.3023
 9100SOL     OW38758   3.761   2.430   3.130  0.7447  0.3646  0.3063
 9100SOL    HW138759   3.675   2.428   3.173  0.7789 -1.3941  0.3009
 9100SOL    HW238760   3.812   2.374   3.188 -0.4563 -1.1395 -0.0777
 9101SOL     OW38761   1.528   3.805   6.757 -0.0397  0.0934  0.4688
 9101SOL    HW138762   1.461   3.818   6.690  0.7580  0.8780 -0.1856
 9101SOL    HW238763   1.534   3.896   6.786  3.4492  0.1169 -0.3207
 9102SOL     OW38764   1.911   1.805  11.419  0.3874 -0.2690  0.1411
 9102SOL    HW138765   1.920   1.879  11.358  1.6482 -1.3062 -0.9415
 9102SOL    HW238766   1.828   1.820  11.463 -1.6564 -1.7833 -3.2353
 9103SOL     OW38767   0.898   0.833   3.354 -0.8394 -0.1524 -0.0872
 9103SOL    HW138768   0.937   0.824   3.441  0.4480 -1.7054 -0.8225
 9103SOL    HW238769   0.840   0.757   3.344 -0.2931 -0.7848  1.4251
 9104SOL     OW38770   2.730   3.224   6.338 -0.9982  0.3967 -0.0462
 9104SOL    HW138771   2.719   3.129   6.335  1.3651  0.1082  0.4867
 9104SOL    HW238772   2.641   3.249   6.316 -1.2529 -1.0659 -0.6553
 9105SOL     OW38773   3.764   3.105   8.213  0.2380  0.5616 -0.6496
 9105SOL    HW138774   3.781   3.110   8.306 -1.8108  0.6834 -0.2684
 9105SOL    HW238775   3.719   3.022   8.197 -0.6339  0.6865  1.1593
 9106SOL     OW38776   4.002   0.865  16.755  0.1148  0.0184 -0.1466
 9106SOL    HW138777   3.997   0.817  16.838  3.2746  1.7256  0.9955
 9106SOL    HW238778   3.938   0.934  16.775 -0.8185 -0.9928  0.3552
 9107SOL     OW38779   0.920   2.485   1.967  0.1240 -0.0323 -0.2980
 9107SOL    HW138780   0.864   2.551   1.927  0.5967  0.4603 -0.1470
 9107SOL    HW238781   0.989   2.492   1.901 -1.2361  1.8401 -1.5086
 9108SOL     OW38782   2.636   2.837   7.960 -0.4877 -0.4762 -0.0247
 9108SOL    HW138783   2.712   2.896   7.958  1.0561 -2.4381 -0.4583
 9108SOL    HW238784   2.621   2.829   7.866  0.4144 -1.1727 -0.1143
 9109SOL     OW38785   3.317   0.123  10.100  0.0773  0.0337 -0.0901
 9109SOL    HW138786   3.254   0.113  10.171  1.7615  1.0377  1.5432
 9109SOL    HW238787   3.386   0.174  10.141  0.0377 -1.4922  1.8582
 9110SOL     OW38788   1.438   1.433   6.379  0.5460  0.4274  0.1044
 9110SOL    HW138789   1.438   1.492   6.304  0.8954 -2.6358 -2.3044
 9110SOL    HW238790   1.349   1.398   6.384  0.4074  0.8386  0.5389
 9111SOL     OW38791   0.606   0.691   3.669 -0.3249 -0.0539 -0.3610
 9111SOL    HW138792   0.575   0.750   3.600 -0.1465 -1.9970 -2.0918
 9111SOL    HW238793   0.592   0.604   3.633 -0.5179 -1.1911  2.4775
 9112SOL     OW38794   1.175   2.366   9.351  0.7700  0.0695  0.4407
 9112SOL    HW138795   1.109   2.297   9.346  0.4475  0.4018  0.0857
 9112SOL    HW238796   1.245   2.326   9.299 -0.1064 -0.7368 -0.1159
 9113SOL     OW38797   0.207   1.474   2.310  0.1693  0.1937 -0.4945
 9113SOL    HW138798   0.265   1.544   2.279 -1.1125  1.5479  0.1884
 9113SOL    HW238799   0.149   1.461   2.236  1.3210  1.8377 -1.6888
 9114SOL     OW38800   2.369   4.214   9.253 -0.6505  0.0361  0.4690
 9114SOL    HW138801   2.324   4.186   9.174 -0.8981  0.1507  0.5687
 9114SOL    HW238802   2.401   4.302   9.232 -1.1779  0.5127  1.6215
 9115SOL     OW38803   4.233   2.878  10.732 -0.1581  0.2348 -0.3113
 9115SOL    HW138804   4.197   2.817  10.668 -1.1628  0.1629  0.3120
 9115SOL    HW238805   4.153   2.899  10.781  1.2183  1.3333  1.4571
 9116SOL     OW38806   4.609   1.526  12.004  0.0018 -0.0553 -0.0232
 9116SOL    HW138807   4.642   1.615  12.016 -1.7165  0.3672  1.5468
 9116SOL    HW238808   4.514   1.536  12.006 -0.0568 -0.6732  0.4324
 9117SOL     OW38809   4.266   0.729   1.954  0.5136  0.4398  0.3275
 9117SOL    HW138810   4.195   0.784   1.985 -1.0455 -1.9681  1.0283
 9117SOL    HW238811   4.272   0.751   1.861 -0.3909  1.0209  0.4183
 9118SOL     OW38812   2.324   4.362   6.451  0.0905  0.0747  0.5865
 9118SOL    HW138813   2.390   4.369   6.520  1.7552  1.5011 -1.1526
 9118SOL    HW238814   2.362   4.419   6.384 -0.6190 -1.4031 -1.0947
 9119SOL     OW38815   4.148   0.202  17.035  0.2434  0.6341  0.2193
 9119SOL    HW138816   4.151   0.298  17.038  1.8191  0.5766  0.2488
 9119SOL    HW238817   4.134   0.185  17.128 -1.3805 -0.1148 -0.1557
 9120SOL     OW38818   3.967   2.272   3.560  0.1129  0.2422  0.5302
 9120SOL    HW138819   3.962   2.323   3.479 -0.5709  1.0566  1.0963
 9120SOL    HW238820   3.907   2.199   3.548 -1.4725  1.7232 -0.5302
 9121SOL     OW38821   3.509   2.014  15.482  0.4905 -0.3069 -0.2594
 9121SOL    HW138822   3.531   1.931  15.523  1.1532  0.2608  0.5383
 9121SOL    HW238823   3.593   2.061  15.483 -0.3948  1.2855  0.5762
 9122SOL     OW38824   4.249   4.031   8.342  0.2735  0.1385  0.1662
 9122SOL    HW138825   4.174   3.999   8.394 -0.9222  0.8849 -1.0954
 9122SOL    HW238826   4.207   4.113   8.317 -0.0776 -0.3901 -0.9870
 9123SOL     OW38827   2.904   1.528   7.427  0.3502  0.5959  0.0290
 9123SOL    HW138828   2.822   1.482   7.445  0.8555 -0.2609  0.1355
 9123SOL    HW238829   2.948   1.520   7.512  0.7327  2.4432  0.0183
 9124SOL     OW38830   4.429   2.053   0.666  0.3624 -0.2940 -0.8069
 9124SOL    HW138831   4.377   2.124   0.631 -0.8590 -0.5413  0.5317
 9124SOL    HW238832   4.486   2.040   0.590 -1.0437 -2.5361 -1.4859
 9125SOL     OW38833   3.923   1.026   6.398  0.3213 -0.4242  0.1980
 9125SOL    HW138834   3.893   1.099   6.453 -0.0240 -1.3291  1.2173
 9125SOL    HW238835   3.915   1.067   6.312  1.4365  0.9199  0.7438
 9126SOL     OW38836   1.810   3.030   4.388  0.3774 -0.4121 -0.6052
 9126SOL    HW138837   1.812   3.118   4.427  1.8532 -0.7009 -0.0236
 9126SOL    HW238838   1.730   2.998   4.429  1.0864  1.6527  2.3646
 9127SOL     OW38839   2.882   3.830   8.226 -0.2184  0.0668 -0.0414
 9127SOL    HW138840   2.788   3.826   8.204 -0.5859  1.5954  1.2893
 9127SOL    HW238841   2.909   3.762   8.164  0.0273 -2.1468  2.4826
 9128SOL     OW38842   1.005   2.470   3.629 -0.0744 -0.7779  0.1495
 9128SOL    HW138843   0.920   2.438   3.660 -1.0677  2.1731  0.4987
 9128SOL    HW238844   1.011   2.552   3.677  0.2821 -0.9585  0.4143
 9129SOL     OW38845   3.924   0.998   8.885 -0.3553 -0.6720 -0.0365
 9129SOL    HW138846   3.982   1.015   8.811 -0.3437  0.1110  0.1490
 9129SOL    HW238847   3.988   0.989   8.956  1.1031  1.5687 -1.0696
 9130SOL     OW38848   0.876   0.556   5.245  1.4033 -0.0662 -0.1521
 9130SOL    HW138849   0.899   0.493   5.177  1.1671 -0.1274 -0.1773
 9130SOL    HW238850   0.836   0.624   5.189  1.5084 -0.7422 -1.0494
 9131SOL     OW38851   0.010   0.497   7.730  0.1179  0.5123  0.0532
 9131SOL    HW138852   0.040   0.421   7.780  1.7542  0.7816 -0.5312
 9131SOL    HW238853   0.013   0.570   7.793 -0.4138  0.3438  0.2797
 9132SOL     OW38854   4.479   0.796   6.343 -0.5710  0.0722 -0.0971
 9132SOL    HW138855   4.458   0.885   6.316 -0.0124  0.4211  0.6099
 9132SOL    HW238856   4.537   0.759   6.276  0.3187  1.0349  0.1334
 9133SOL     OW38857   3.245   2.387  13.464 -0.3215  0.0980 -0.3287
 9133SOL    HW138858   3.217   2.446  13.534  0.4967  0.6256 -0.4315
 9133SOL    HW238859   3.208   2.302  13.486 -0.1859 -0.1603 -1.0880
 9134SOL     OW38860   0.408   2.036   6.163  0.2412 -0.1962  0.0975
 9134SOL    HW138861   0.360   1.986   6.229 -0.2101 -0.4135 -0.3880
 9134SOL    HW238862   0.381   2.127   6.171  2.0163  0.6208 -3.1228
 9135SOL     OW38863   3.133   1.439   7.875 -0.6092  0.2739  0.4430
 9135SOL    HW138864   3.208   1.481   7.917  0.5395 -0.2188 -1.0992
 9135SOL    HW238865   3.137   1.348   7.902 -2.4603 -0.0181 -0.2625
 9136SOL     OW38866   4.454   2.559   7.707  0.2865  0.2232  0.0730
 9136SOL    HW138867   4.364   2.575   7.676  1.1669 -0.9655 -3.1487
 9136SOL    HW238868   4.484   2.501   7.637  0.5306  0.9762 -0.4517
 9137SOL     OW38869   3.420   4.436   2.290  0.5180 -0.2644 -0.1961
 9137SOL    HW138870   3.372   4.382   2.353 -0.2068  5.7852  4.4341
 9137SOL    HW238871   3.353   4.451   2.224 -1.2100  1.7314  2.0432
 9138SOL     OW38872   3.247   1.185   8.353 -0.5640  0.3129 -0.6349
 9138SOL    HW138873   3.264   1.219   8.441 -0.3207 -0.0283 -0.5493
 9138SOL    HW238874   3.176   1.238   8.316  0.5280  0.6020 -2.3283
 9139SOL     OW38875   0.709   4.656   7.197  0.0049 -0.7979 -0.1159
 9139SOL    HW138876   0.668   4.705   7.125 -0.0873 -2.2348 -1.0396
 9139SOL    HW238877   0.785   4.625   7.148  0.9113 -1.1655  1.5291
 9140SOL     OW38878   0.649   3.015   2.280  0.3278 -0.0734  0.5325
 9140SOL    HW138879   0.594   3.093   2.286  1.0847  0.5545 -0.5330
 9140SOL    HW238880   0.727   3.056   2.241  1.5514 -2.2372  0.7012
 9141SOL     OW38881   0.758   3.386   4.462 -0.3822  0.7164  0.3115
 9141SOL    HW138882   0.845   3.425   4.471 -0.5531  0.6903  2.2158
 9141SOL    HW238883   0.746   3.400   4.368 -1.2675  0.5370  0.3947
 9142SOL     OW38884   2.651   3.462   7.707  0.1201 -0.7162  0.4828
 9142SOL    HW138885   2.579   3.524   7.719  1.7509  0.5913  3.6347
 9142SOL    HW238886   2.713   3.502   7.768 -1.1833 -0.0303  1.3512
 9143SOL     OW38887   1.647   3.063   3.528 -0.2983 -0.7693  0.2492
 9143SOL    HW138888   1.689   2.995   3.580 -0.3233 -2.5019 -2.0136
 9143SOL    HW238889   1.573   3.013   3.495 -0.0836 -0.0584 -1.3088
 9144SOL     OW38890   4.026   3.889   6.256 -0.1313  0.1410  0.0467
 9144SOL    HW138891   4.007   3.937   6.336  2.3005  1.5035 -0.2081
 9144SOL    HW238892   4.072   3.810   6.285  0.3684  0.4830  0.1832
 9145SOL     OW38893   2.878   2.331   5.426 -0.1176  0.0155  0.1816
 9145SOL    HW138894   2.911   2.244   5.448 -2.3098 -0.7330  0.5004
 9145SOL    HW238895   2.787   2.311   5.446 -0.2874 -1.4534 -1.9781
 9146SOL     OW38896   1.120   1.756  12.083 -0.4923 -0.3089  0.3862
 9146SOL    HW138897   1.111   1.808  12.003  2.2252 -0.7111 -0.1735
 9146SOL    HW238898   1.208   1.780  12.114  0.7040 -2.1107 -1.6228
 9147SOL     OW38899   4.596   1.793  10.713  0.6467 -0.3645  0.5271
 9147SOL    HW138900   4.502   1.776  10.705  0.3406 -0.2227  3.7825
 9147SOL    HW238901   4.590   1.888  10.719 -1.3818 -0.4769  0.1925
 9148SOL     OW38902   2.741   0.508   1.917  0.6642 -0.3200  0.3437
 9148SOL    HW138903   2.680   0.561   1.968  2.7706  3.0030 -0.5448
 9148SOL    HW238904   2.727   0.530   1.825  0.3986 -2.3877 -0.0982
 9149SOL     OW38905   1.399   3.138  10.808  0.3533 -0.4603  0.4783
 9149SOL    HW138906   1.432   3.192  10.737 -0.6154  0.8679  1.0330
 9149SOL    HW238907   1.474   3.120  10.866  0.7839 -0.0250  0.0540
 9150SOL     OW38908   3.028   4.371  11.923 -0.3538 -0.0517  0.1869
 9150SOL    HW138909   3.036   4.378  12.019 -0.2107 -0.9886  0.2451
 9150SOL    HW238910   2.936   4.394  11.911 -0.3089 -0.0662 -0.1649
 9151SOL     OW38911   4.046   2.278   4.660  0.1975  0.0536  0.1815
 9151SOL    HW138912   4.037   2.184   4.645  0.3219  0.1342 -0.4075
 9151SOL    HW238913   4.133   2.271   4.700 -0.5603  1.3339  2.0416
 9152SOL     OW38914   2.458   1.062   1.586  0.3413  0.2753 -0.2159
 9152SOL    HW138915   2.384   1.094   1.533 -0.4704  0.1965  0.8766
 9152SOL    HW238916   2.527   1.120   1.554  0.1818  0.0085 -1.0619
 9153SOL     OW38917   0.789   2.653   1.794  0.9523  0.2386  0.0958
 9153SOL    HW138918   0.772   2.678   1.704  0.2879 -0.4543  0.0272
 9153SOL    HW238919   0.760   2.730   1.844  0.3505  0.9060 -1.2954
 9154SOL     OW38920   0.794   2.131   4.161 -0.1350  0.7529  0.1520
 9154SOL    HW138921   0.813   2.102   4.072  0.8562 -0.0961  0.6467
 9154SOL    HW238922   0.727   2.068   4.186  1.3925 -1.8496 -2.3118
 9155SOL     OW38923   2.756   1.695  11.556  0.6807  0.0459 -0.0846
 9155SOL    HW138924   2.780   1.777  11.600  1.3575 -0.9598  1.4509
 9155SOL    HW238925   2.843   1.655  11.551  1.3051  1.6012 -1.4949
 9156SOL     OW38926   1.380   2.812   1.865  0.0900 -0.1733  0.1671
 9156SOL    HW138927   1.410   2.749   1.799 -0.1064 -1.2246  1.0691
 9156SOL    HW238928   1.285   2.806   1.879 -0.3408 -1.6197 -3.3631
 9157SOL     OW38929   2.980   3.564   8.668  0.1663  0.1082  0.5326
 9157SOL    HW138930   2.922   3.521   8.606 -1.2928  0.1577  1.8824
 9157SOL    HW238931   2.912   3.585   8.731 -1.3458  0.6993 -1.2929
 9158SOL     OW38932   1.514   1.128   6.574 -0.1354  0.2615 -0.3415
 9158SOL    HW138933   1.529   1.183   6.650 -2.1489 -1.7696  1.5611
 9158SOL    HW238934   1.420   1.141   6.558 -0.1293  0.9298  0.2049
 9159SOL     OW38935   1.651   0.589  17.682  0.2118  0.1574 -0.2266
 9159SOL    HW138936   1.659   0.494  17.672  1.1161  0.1562  0.4648
 9159SOL    HW238937   1.604   0.590   0.066 -1.3018  1.0026 -1.0947
 9160SOL     OW38938   3.954   3.492   7.364  0.1454  0.3746  0.4726
 9160SOL    HW138939   3.912   3.474   7.448  0.7818 -1.1155  0.4802
 9160SOL    HW238940   4.017   3.559   7.391  0.2897 -0.6997  2.8431
 9161SOL     OW38941   3.629   1.008   5.335  0.3704 -0.1921  0.1279
 9161SOL    HW138942   3.709   0.958   5.353  0.8320  1.3052  2.2787
 9161SOL    HW238943   3.664   1.069   5.270  0.6789 -0.3918  0.1069
 9162SOL     OW38944   4.047   2.873   7.192 -0.3514 -0.3690  0.5897
 9162SOL    HW138945   4.002   2.812   7.250  0.4755  0.4678  2.1053
 9162SOL    HW238946   4.117   2.816   7.161 -0.3575 -0.0931  0.0719
 9163SOL     OW38947   2.194   2.238   7.613 -0.4247 -0.3636 -0.0430
 9163SOL    HW138948   2.204   2.230   7.518 -0.1480  0.8500 -0.1063
 9163SOL    HW238949   2.128   2.307   7.624  1.8215  1.9351 -1.0592
 9164SOL     OW38950   3.573   4.458   9.387  0.0546  0.1214 -0.9811
 9164SOL    HW138951   3.578   4.386   9.325 -0.4335  0.1784 -1.0880
 9164SOL    HW238952   3.617   4.527   9.338  1.4341 -0.9316 -1.2294
 9165SOL     OW38953   0.086   2.229   5.495  0.0429 -0.0888  0.0885
 9165SOL    HW138954   0.123   2.147   5.464 -0.4613 -1.1505  2.3684
 9165SOL    HW238955   0.154   2.256   5.557 -0.6752  0.2599  0.7238
 9166SOL     OW38956   3.665   1.485   8.238  0.2300  0.4924 -0.0525
 9166SOL    HW138957   3.727   1.417   8.263 -1.4986 -0.3323  1.9698
 9166SOL    HW238958   3.608   1.447   8.172 -2.5138  0.0590  2.6107
 9167SOL     OW38959   0.908   0.575   7.485  0.8996 -0.1315 -1.0746
 9167SOL    HW138960   0.956   0.519   7.423 -0.5730 -1.3373 -1.1060
 9167SOL    HW238961   0.958   0.657   7.475 -0.4954  0.7959 -0.4336
 9168SOL     OW38962   1.311   0.753  12.504 -0.0618  0.0259 -0.0764
 9168SOL    HW138963   1.290   0.737  12.595  1.6109  0.7834  0.4537
 9168SOL    HW238964   1.243   0.698  12.465  0.8937 -1.3912  0.2720
 9169SOL     OW38965   1.459   1.994   8.441  0.3623 -0.0948  0.1384
 9169SOL    HW138966   1.523   2.054   8.482 -0.3176 -0.7497  2.1705
 9169SOL    HW238967   1.467   1.920   8.502 -0.6209 -0.6996 -0.4760
 9170SOL     OW38968   2.671   3.987   8.833 -0.3176 -0.0332  0.0567
 9170SOL    HW138969   2.610   4.047   8.788 -1.0010  0.3782  1.5178
 9170SOL    HW238970   2.639   3.991   8.923 -0.1013 -1.9734  0.2191
 9171SOL     OW38971   3.755   1.755   7.789  0.5318  0.6716 -0.0495
 9171SOL    HW138972   3.784   1.845   7.797 -0.8162  1.1736 -0.6684
 9171SOL    HW238973   3.660   1.760   7.773  0.8080  1.4798 -1.3855
 9172SOL     OW38974   3.288   2.425   9.908 -0.1842  0.2464  0.3569
 9172SOL    HW138975   3.383   2.436   9.904 -0.3153  1.3320  0.2171
 9172SOL    HW238976   3.259   2.469   9.828 -1.7451 -0.2172  0.6672
 9173SOL     OW38977   4.593   1.096   3.344  0.0626 -0.0521 -0.2631
 9173SOL    HW138978   4.542   1.146   3.281 -0.8426  2.3166  2.3661
 9173SOL    HW238979   4.557   1.007   3.337  1.5540 -0.6810 -0.0895
 9174SOL     OW38980   0.462   1.100   7.489  0.0080 -0.4713  0.2997
 9174SOL    HW138981   0.421   1.067   7.569  1.7013  1.6126  2.0441
 9174SOL    HW238982   0.553   1.073   7.498  0.8529  1.8542 -1.2086
 9175SOL     OW38983   2.420   0.648   1.219  0.3639  0.3623  0.3137
 9175SOL    HW138984   2.402   0.592   1.144  2.5798 -0.3317  0.3117
 9175SOL    HW238985   2.513   0.663   1.206  0.3041  0.3376 -0.1516
 9176SOL     OW38986   3.389   3.085  11.799  1.0809 -0.0226  0.7094
 9176SOL    HW138987   3.400   3.023  11.727  2.9483 -1.3830  2.1790
 9176SOL    HW238988   3.387   3.165  11.748 -0.5139  0.8286  2.1015
 9177SOL     OW38989   4.143   2.056   1.511  0.3389  0.4967  0.1210
 9177SOL    HW138990   4.125   2.141   1.471 -0.3467  1.4903  2.5412
 9177SOL    HW238991   4.190   2.011   1.441  0.5456  0.8459  0.0387
 9178SOL     OW38992   0.819   0.791   7.656 -0.3301  0.2266 -0.4112
 9178SOL    HW138993   0.794   0.867   7.603  0.6551 -1.1047 -2.7794
 9178SOL    HW238994   0.784   0.714   7.612  1.0490 -0.9423  0.5217
 9179SOL     OW38995   4.020   0.266  16.814  0.2000  0.1748  0.1562
 9179SOL    HW138996   3.958   0.295  16.881  0.6812  0.7750  0.3451
 9179SOL    HW238997   4.080   0.215  16.869  1.0881  2.0571  0.9429
 9180SOL     OW38998   4.633   3.175   8.642 -0.1424 -0.2130 -0.5296
 9180SOL    HW138999   4.560   3.140   8.591 -0.5245 -0.3571  0.1057
 9180SOL    HW239000   4.589   3.242   8.695 -2.0489 -2.9857  1.4126
 9181SOL     OW39001   1.901   4.174   2.329  0.0799 -0.5634  0.1256
 9181SOL    HW139002   1.899   4.094   2.382  0.4412  0.5472  1.8410
 9181SOL    HW239003   1.812   4.191   2.300 -0.8177 -1.3346  2.4303
 9182SOL     OW39004   1.391   1.470   5.450 -0.4454  0.1898  0.3274
 9182SOL    HW139005   1.473   1.464   5.499 -0.3986 -1.5048  0.0200
 9182SOL    HW239006   1.385   1.565   5.443  1.5746  0.4497  1.9478
 9183SOL     OW39007   3.879   2.517   6.334  0.0475  0.4550 -0.3504
 9183SOL    HW139008   3.944   2.585   6.314  0.3232  0.5550  0.8404
 9183SOL    HW239009   3.831   2.560   6.405  0.7034 -0.3227  0.5783
 9184SOL     OW39010   0.971   2.329  16.262 -0.5945 -0.1032  0.0277
 9184SOL    HW139011   1.008   2.358  16.346 -0.2169  0.8299 -0.4518
 9184SOL    HW239012   1.047   2.325  16.204 -0.4165 -0.5272  0.2949
 9185SOL     OW39013   3.578   4.258   5.933  0.0317 -0.0171 -0.3396
 9185SOL    HW139014   3.499   4.310   5.920  1.1948  1.9944  0.6451
 9185SOL    HW239015   3.620   4.298   6.009 -1.8601  0.5940  0.3767
 9186SOL     OW39016   4.244   2.988   4.010  0.1881 -0.1345 -0.1301
 9186SOL    HW139017   4.215   2.903   4.043  1.9233 -0.5828  0.2000
 9186SOL    HW239018   4.244   2.969   3.916 -0.0158 -1.9564  0.2525
 9187SOL     OW39019   3.758   1.973   6.993  0.0886 -0.3305  0.4021
 9187SOL    HW139020   3.714   2.001   6.912  1.7647 -0.4602 -0.5683
 9187SOL    HW239021   3.697   1.909   7.029  0.1957 -0.8901 -0.4036
 9188SOL     OW39022   0.373   3.691   4.432 -0.0271  0.1628 -0.0052
 9188SOL    HW139023   0.365   3.644   4.514  0.3111 -2.2131 -1.3396
 9188SOL    HW239024   0.431   3.764   4.455 -0.0752 -0.4762  2.1005
 9189SOL     OW39025   1.073   0.484   6.119 -0.1796  0.2804  0.1683
 9189SOL    HW139026   1.031   0.481   6.034 -1.8542 -1.6243  1.0680
 9189SOL    HW239027   1.071   0.576   6.145 -4.1909  0.9224 -2.5582
 9190SOL     OW39028   3.617   3.588   4.252 -0.3801  0.4148 -0.1474
 9190SOL    HW139029   3.689   3.528   4.237  0.9578  1.4786  2.0671
 9190SOL    HW239030   3.633   3.657   4.187 -0.0905 -0.1389 -0.6542
 9191SOL     OW39031   4.589   0.038   0.086 -0.3813  0.3648  0.1700
 9191SOL    HW139032   4.635   0.031   0.002  0.9119 -1.6149  1.0395
 9191SOL    HW239033   4.640   0.105   0.130  1.4826  0.8044 -2.6802
 9192SOL     OW39034   4.692   2.465   6.603 -0.4641  0.5000  0.6061
 9192SOL    HW139035   0.013   2.541   6.638 -1.9974  1.6549  0.1136
 9192SOL    HW239036   0.042   2.407   6.589 -0.1154  0.4280  2.7812
 9193SOL     OW39037   3.743   4.334   7.160 -0.3118 -0.4108  0.0524
 9193SOL    HW139038   3.814   4.312   7.220 -0.0719  1.5076  0.4885
 9193SOL    HW239039   3.680   4.262   7.153  1.8853 -2.4082  0.9634
 9194SOL     OW39040   2.842   4.364   4.130 -0.4121 -0.2267 -0.1113
 9194SOL    HW139041   2.834   4.269   4.116 -0.4950 -0.3785  0.9900
 9194SOL    HW239042   2.879   4.396   4.047  1.3974  1.1536  1.2509
 9195SOL     OW39043   2.225   0.450   9.097 -0.4742  0.1925 -0.3620
 9195SOL    HW139044   2.268   0.366   9.083 -0.1592  0.5459 -1.4591
 9195SOL    HW239045   2.157   0.449   9.029  1.8685  0.7654 -2.6957
 9196SOL     OW39046   2.597   2.450   1.744 -0.0938  0.0833  0.3644
 9196SOL    HW139047   2.669   2.508   1.769  0.7770 -0.2971 -1.2499
 9196SOL    HW239048   2.572   2.420   1.831  0.7605  0.5960  0.7952
 9197SOL     OW39049   2.030   3.493   7.385  0.0170 -0.1861  0.4080
 9197SOL    HW139050   2.026   3.504   7.480  0.7565 -0.5179  0.4795
 9197SOL    HW239051   2.123   3.514   7.371  0.4577 -1.2800  1.7441
 9198SOL     OW39052   1.884   0.050  13.312  0.0831 -0.2729 -0.0241
 9198SOL    HW139053   1.924   4.699  13.268 -0.3339  0.1895 -1.2166
 9198SOL    HW239054   1.831   0.067  13.234  0.1699 -1.4406 -0.3456
 9199SOL     OW39055   2.127   2.522   2.032 -0.3931  0.0505  0.4509
 9199SOL    HW139056   2.142   2.548   1.941 -1.1664 -2.5677 -0.4104
 9199SOL    HW239057   2.214   2.544   2.067 -0.1780 -0.9287  0.5121
 9200SOL     OW39058   0.937   2.573  12.103 -0.1422  0.4728 -0.3412
 9200SOL    HW139059   0.886   2.601  12.026 -0.0762  1.5600  0.0070
 9200SOL    HW239060   0.878   2.589  12.177  0.6830 -1.5399  0.7579
 9201SOL     OW39061   0.148   0.317   1.930 -0.2414  0.2594 -0.1619
 9201SOL    HW139062   0.195   0.357   1.857 -1.8465 -0.9999 -1.8807
 9201SOL    HW239063   0.178   0.226   1.938 -0.0916  0.1855 -1.6856
 9202SOL     OW39064   0.927   1.621   8.407  0.4918 -0.0313 -0.3832
 9202SOL    HW139065   0.950   1.539   8.364 -1.9412 -0.3993 -0.9954
 9202SOL    HW239066   1.017   1.650   8.417  0.6267 -0.5797  0.0466
 9203SOL     OW39067   3.038   3.422   8.051 -0.3598 -0.3029  0.2769
 9203SOL    HW139068   2.946   3.407   8.073 -1.0337 -1.1107 -3.0490
 9203SOL    HW239069   3.088   3.372   8.115  1.6147  0.8773 -0.3219
 9204SOL     OW39070   0.328   4.164  17.542  0.4746  0.2976  0.0035
 9204SOL    HW139071   0.313   4.241  17.597  1.4140  0.1655  0.4311
 9204SOL    HW239072   0.387   4.124  17.606  0.9129 -0.0368 -0.6108
 9205SOL     OW39073   4.631   3.113  15.874 -0.1971  0.3367 -0.2797
 9205SOL    HW139074   4.537   3.128  15.888 -0.3260 -0.2847 -0.4828
 9205SOL    HW239075   4.657   3.100  15.965 -0.9465 -1.4540 -0.3328
 9206SOL     OW39076   2.192   2.028   6.691  0.5117  0.0378 -0.3348
 9206SOL    HW139077   2.200   1.978   6.772 -1.5352 -1.0969 -0.8273
 9206SOL    HW239078   2.212   1.956   6.630  0.2664 -0.2271 -0.1077
 9207SOL     OW39079   1.932   1.309   3.135  0.2140 -0.4595 -0.4658
 9207SOL    HW139080   1.848   1.264   3.136  0.9207 -1.7916 -1.0682
 9207SOL    HW239081   1.914   1.383   3.194 -0.2428 -1.7121  0.9637
 9208SOL     OW39082   4.024   3.041  13.796 -0.1775  0.8735  0.1050
 9208SOL    HW139083   4.035   3.111  13.860 -0.5568 -1.3301  2.5836
 9208SOL    HW239084   4.066   3.065  13.714 -2.0952  1.2382 -0.7708
 9209SOL     OW39085   2.871   3.249   3.065  0.2406  0.1837  0.5849
 9209SOL    HW139086   2.898   3.316   3.002  1.1661 -2.9124 -2.2539
 9209SOL    HW239087   2.792   3.271   3.115 -0.0526 -1.9630  1.0569
 9210SOL     OW39088   4.413   1.080   3.983  0.2815  0.0578 -0.4371
 9210SOL    HW139089   4.505   1.102   4.000  0.1495  0.1538  0.1514
 9210SOL    HW239090   4.379   1.050   4.067 -0.4633  0.0614 -0.7339
 9211SOL     OW39091   2.023   4.582  13.172  0.2349  0.6537  0.1044
 9211SOL    HW139092   1.989   4.510  13.119  0.5127  0.2422  0.4860
 9211SOL    HW239093   2.075   4.636  13.112 -2.1866  1.8640 -0.9141
 9212SOL     OW39094   1.458   0.804   0.788  0.4382 -0.0885  0.3685
 9212SOL    HW139095   1.435   0.895   0.806 -0.4565 -0.3758  0.6729
 9212SOL    HW239096   1.406   0.762   0.857 -0.9112  1.2539  0.1464
 9213SOL     OW39097   0.220   0.704   2.766 -0.3507 -0.4243 -0.4688
 9213SOL    HW139098   0.254   0.716   2.854  1.5704  0.5326 -1.3329
 9213SOL    HW239099   0.142   0.653   2.785 -0.4323  0.1204  0.6235
 9214SOL     OW39100   4.541   0.166   2.917 -0.2265  0.1539 -0.7563
 9214SOL    HW139101   4.534   0.124   2.832 -0.0472 -0.2287 -0.5830
 9214SOL    HW239102   4.570   0.095   2.975 -1.8693  0.5256  0.5196
 9215SOL     OW39103   4.181   2.028   6.886 -0.0297 -0.1468  0.1823
 9215SOL    HW139104   4.126   2.084   6.940 -0.4003 -0.4402  0.1088
 9215SOL    HW239105   4.139   2.041   6.801 -0.3706  1.9259  0.6845
 9216SOL     OW39106   2.923   1.469   7.152  1.0486 -0.0513  0.8594
 9216SOL    HW139107   2.911   1.481   7.247  0.1788  0.3112  0.7033
 9216SOL    HW239108   2.835   1.448   7.122  0.2791  0.7116  2.5841
 9217SOL     OW39109   3.549   0.578   4.234 -0.4717  0.3882  0.3227
 9217SOL    HW139110   3.495   0.500   4.251  1.5792 -1.1532 -0.2189
 9217SOL    HW239111   3.598   0.574   4.316  1.6653  1.5404 -0.9210
 9218SOL     OW39112   4.403   3.842  11.503 -0.0450  0.1996 -0.4240
 9218SOL    HW139113   4.397   3.859  11.597  1.6454  2.3908 -0.6971
 9218SOL    HW239114   4.316   3.879  11.488 -1.2767 -1.5023  2.5430
 9219SOL     OW39115   2.178   2.533   9.058 -0.1466  0.0211  0.5204
 9219SOL    HW139116   2.190   2.492   8.972 -2.3059 -2.3077  1.3363
 9219SOL    HW239117   2.261   2.578   9.075  0.4791 -0.5042 -1.0791
 9220SOL     OW39118   0.115   0.955  12.103  0.2155 -0.3914  0.4232
 9220SOL    HW139119   0.036   0.927  12.150  0.6603 -2.5829 -0.1412
 9220SOL    HW239120   0.133   1.030  12.160 -1.3832 -1.8335  2.8131
 9221SOL     OW39121   2.640   0.359   2.954 -0.5567  0.3973 -0.3807
 9221SOL    HW139122   2.733   0.381   2.951 -0.7000  0.7724 -1.9723
 9221SOL    HW239123   2.648   0.292   3.022 -2.2408  0.4260 -0.1375
 9222SOL     OW39124   1.017   3.214   7.226 -0.2862 -0.5354 -0.3716
 9222SOL    HW139125   1.070   3.214   7.146 -0.0759  0.3807 -0.2264
 9222SOL    HW239126   0.929   3.213   7.188 -0.2034 -1.8822 -0.5534
 9223SOL     OW39127   1.587   0.349   3.602  0.8731  0.2941  0.0758
 9223SOL    HW139128   1.537   0.428   3.620  0.1088 -0.3781  0.9271
 9223SOL    HW239129   1.520   0.284   3.622  0.8588  1.2205  2.9399
 9224SOL     OW39130   0.896   3.137   2.171  1.4090  0.3643  0.0635
 9224SOL    HW139131   0.890   3.192   2.249 -1.9470 -1.2168  0.9535
 9224SOL    HW239132   0.941   3.198   2.112  0.1576  1.4825  0.2417
 9225SOL     OW39133   2.501   3.359   2.726 -0.3238 -0.3755  0.3256
 9225SOL    HW139134   2.446   3.296   2.772 -0.0693 -1.3053 -0.6445
 9225SOL    HW239135   2.552   3.310   2.661 -0.6302  0.2489 -0.3846
 9226SOL     OW39136   1.642   0.968   5.036 -0.4679 -0.7185  0.1498
 9226SOL    HW139137   1.584   0.906   5.081 -0.6218  0.3383  1.4185
 9226SOL    HW239138   1.674   1.025   5.106 -2.0638  0.2662  0.0886
 9227SOL     OW39139   4.530   1.344   7.055  0.2840  0.3672 -0.5359
 9227SOL    HW139140   4.453   1.341   6.998 -1.2941 -2.5291  1.7021
 9227SOL    HW239141   4.529   1.433   7.089  2.0719  0.6189 -1.1784
 9228SOL     OW39142   3.115   1.432   1.630  0.0334  0.7475  0.0592
 9228SOL    HW139143   3.105   1.523   1.603  0.4098  1.1629  1.3010
 9228SOL    HW239144   3.106   1.393   1.543  0.7171  3.1475 -1.0781
 9229SOL     OW39145   1.884   2.330   3.532  0.0635 -0.3740  0.0309
 9229SOL    HW139146   1.818   2.357   3.469  1.8468  2.0315 -0.8434
 9229SOL    HW239147   1.915   2.418   3.554 -0.4686  0.3392 -2.1218
 9230SOL     OW39148   0.034   0.406   4.801 -0.3979  0.5779 -0.2032
 9230SOL    HW139149   0.022   0.382   4.893 -1.5790 -3.3026 -1.3926
 9230SOL    HW239150   0.113   0.356   4.782 -0.2701  0.6586  0.1102
 9231SOL     OW39151   1.662   4.030   4.974 -0.6587  0.0760 -0.3697
 9231SOL    HW139152   1.751   3.996   4.970 -0.4007  0.6507  0.4581
 9231SOL    HW239153   1.673   4.094   5.045  0.1528 -1.4701  0.8788
 9232SOL     OW39154   0.847   1.499   4.176 -0.3711 -0.3786  0.3900
 9232SOL    HW139155   0.763   1.487   4.133  0.4613  1.7021 -1.8341
 9232SOL    HW239156   0.833   1.591   4.200  2.0083 -0.0733  0.6684
 9233SOL     OW39157   0.433   3.517   4.886  0.1491 -0.4046  0.7604
 9233SOL    HW139158   0.445   3.520   4.791  0.9488 -0.3073  0.8688
 9233SOL    HW239159   0.455   3.426   4.905  1.3417 -0.0195  1.2123
 9234SOL     OW39160   2.771   1.810   7.300  0.1703 -0.1890 -0.1573
 9234SOL    HW139161   2.829   1.763   7.240  1.6826 -2.0371  2.7260
 9234SOL    HW239162   2.803   1.898   7.320  2.4956 -0.4370 -2.8321
 9235SOL     OW39163   4.449   1.041   2.542 -0.4435  0.7420  0.0792
 9235SOL    HW139164   4.507   1.063   2.616  3.4366 -3.0384 -1.8937
 9235SOL    HW239165   4.490   0.965   2.502 -1.3222  0.8872 -1.0754
 9236SOL     OW39166   4.343   3.956  10.487  0.4607 -0.7753 -0.0684
 9236SOL    HW139167   4.296   4.038  10.500  0.7541 -0.7219  0.6496
 9236SOL    HW239168   4.325   3.913  10.571  2.0768  0.1930  0.7638
 9237SOL     OW39169   3.247   2.786  11.883  1.0233  0.3390  0.2604
 9237SOL    HW139170   3.220   2.703  11.920 -2.3443 -0.1235 -3.2571
 9237SOL    HW239171   3.193   2.796  11.804 -2.0614 -0.8204  2.2309
 9238SOL     OW39172   1.396   2.067   7.112  0.2597  0.0075  0.0530
 9238SOL    HW139173   1.381   1.976   7.136 -0.5817 -0.4228 -2.0909
 9238SOL    HW239174   1.467   2.071   7.047  0.4118 -2.4899  0.0774
 9239SOL     OW39175   4.668   4.144  15.689 -0.0670  0.2214  0.1785
 9239SOL    HW139176   4.714   4.219  15.725  1.3238  0.1752 -1.4721
 9239SOL    HW239177   4.639   4.097  15.767  1.9209 -0.2119  0.6527
 9240SOL     OW39178   1.707   3.037  16.863 -0.1860 -0.0042 -0.0775
 9240SOL    HW139179   1.674   3.101  16.926 -0.4458  0.5610 -0.7886
 9240SOL    HW239180   1.711   3.083  16.779  1.7547  1.3414  0.7641
 9241SOL     OW39181   4.488   0.246   9.649 -0.5278 -0.1394  0.2886
 9241SOL    HW139182   4.433   0.187   9.702 -0.4182 -0.0453  0.5070
 9241SOL    HW239183   4.531   0.296   9.718  0.7980  0.1634 -0.7616
 9242SOL     OW39184   4.449   0.382   6.286  0.1091 -0.2123  0.2492
 9242SOL    HW139185   4.532   0.359   6.328  0.5280 -0.4737 -0.7299
 9242SOL    HW239186   4.463   0.344   6.200 -1.1910 -0.2212  0.0423
 9243SOL     OW39187   1.818   4.388   7.638 -0.7434 -0.2009 -0.3791
 9243SOL    HW139188   1.826   4.463   7.579  0.6622 -0.5357 -0.6362
 9243SOL    HW239189   1.913   4.378   7.649 -0.3159  1.7741 -2.2158
 9244SOL     OW39190   1.777   4.558   5.360  0.0258 -0.2932 -0.1860
 9244SOL    HW139191   1.846   4.607   5.315  0.5900  0.4956  1.5314
 9244SOL    HW239192   1.722   4.533   5.286 -2.2801  0.3378  1.2894
 9245SOL     OW39193   1.545   2.519  11.596  0.3484 -0.3687 -0.2914
 9245SOL    HW139194   1.484   2.493  11.665 -0.3189  1.5691 -0.1476
 9245SOL    HW239195   1.587   2.598  11.628  0.0890 -0.1179 -0.5646
 9246SOL     OW39196   0.731   1.025   7.525 -0.1255 -0.1144  0.5260
 9246SOL    HW139197   0.764   1.096   7.468  2.8448 -3.0325 -1.3979
 9246SOL    HW239198   0.717   1.066   7.610  0.1095 -0.9928  0.9842
 9247SOL     OW39199   2.067   2.877   9.801  0.2476 -0.3845 -0.2223
 9247SOL    HW139200   2.139   2.833   9.756  0.0553  0.0508 -0.9486
 9247SOL    HW239201   2.086   2.838   9.886  2.5224  2.1240  0.4112
 9248SOL     OW39202   0.770   2.209   3.062 -0.2251  0.5551 -0.2115
 9248SOL    HW139203   0.723   2.142   3.014 -0.1883  1.3299 -1.3365
 9248SOL    HW239204   0.857   2.211   3.023  0.1976 -0.2955  0.6772
 9249SOL     OW39205   1.760   2.968   5.992  0.4418  0.5750  0.2167
 9249SOL    HW139206   1.735   3.001   6.079  0.1277 -0.7830  0.6489
 9249SOL    HW239207   1.812   3.040   5.958  3.1011 -0.9448  1.0840
 9250SOL     OW39208   4.306   1.896   7.107  1.0275 -0.0090 -0.0926
 9250SOL    HW139209   4.277   1.805   7.109  0.4128  0.1278 -2.5362
 9250SOL    HW239210   4.261   1.927   7.028 -0.2916 -2.1652 -0.2008
 9251SOL     OW39211   3.723   3.134   7.917  0.3323 -0.4635  0.1481
 9251SOL    HW139212   3.761   3.137   8.005  1.4211  1.0776 -0.3709
 9251SOL    HW239213   3.799   3.102   7.869  1.9096  0.5732  1.9336
 9252SOL     OW39214   2.178   2.092   2.915 -0.5528 -0.0433  0.7305
 9252SOL    HW139215   2.093   2.115   2.952 -0.3638 -1.4364  2.0208
 9252SOL    HW239216   2.197   2.020   2.975 -1.3473 -0.7829  0.0902
 9253SOL     OW39217   0.872   1.309   5.127  0.0518  0.1822  0.1094
 9253SOL    HW139218   0.792   1.336   5.082 -0.5959 -0.2746  0.9737
 9253SOL    HW239219   0.915   1.394   5.140  0.2323  0.1245 -0.1248
 9254SOL     OW39220   3.600   1.317   4.802 -0.0205 -0.3480 -0.6119
 9254SOL    HW139221   3.651   1.267   4.866  0.1877 -0.9735 -1.2610
 9254SOL    HW239222   3.667   1.365   4.754 -0.7161  0.1301 -1.0979
 9255SOL     OW39223   2.001   2.986   0.425  0.0405 -0.1593  0.5787
 9255SOL    HW139224   1.954   3.063   0.457 -2.9751 -2.2933  1.2618
 9255SOL    HW239225   1.947   2.953   0.352  1.2139  0.8498 -0.7384
 9256SOL     OW39226   1.572   3.238  16.273 -0.1206 -0.0462 -0.1104
 9256SOL    HW139227   1.557   3.312  16.332  0.4015 -0.2708  0.2995
 9256SOL    HW239228   1.655   3.199  16.301  0.0354 -0.0784 -0.6295
 9257SOL     OW39229   3.783   4.601  15.270 -0.1399 -0.3483 -0.7131
 9257SOL    HW139230   3.870   4.626  15.239  0.0137  1.3963  1.1115
 9257SOL    HW239231   3.763   4.660  15.342 -0.5553  1.0630 -1.9778
 9258SOL     OW39232   3.583   4.230  13.613  0.6527  0.2102  0.7432
 9258SOL    HW139233   3.510   4.171  13.631  1.3878 -0.4211  1.7210
 9258SOL    HW239234   3.578   4.283  13.693  0.5615  1.5023 -0.1210
 9259SOL     OW39235   2.361   2.415   3.391  0.6655 -0.1669 -0.1066
 9259SOL    HW139236   2.342   2.486   3.452 -0.6709  0.9365 -1.8331
 9259SOL    HW239237   2.453   2.423   3.368  0.4892  4.1831  0.6926
 9260SOL     OW39238   4.304   4.665   3.057 -0.8241 -0.0934 -1.1783
 9260SOL    HW139239   4.397   4.673   3.039 -0.2920 -1.6264  0.8960
 9260SOL    HW239240   4.283   0.022   3.011  0.2399  0.1507 -1.2274
 9261SOL     OW39241   0.828   0.733   5.840 -0.1435 -0.0282 -0.1334
 9261SOL    HW139242   0.826   0.644   5.805  1.3935 -1.1741  2.6111
 9261SOL    HW239243   0.790   0.716   5.926  0.4148 -0.0937  0.1033
 9262SOL     OW39244   0.867   4.206  12.257  0.2551 -0.4062 -0.2669
 9262SOL    HW139245   0.840   4.129  12.307 -0.0809 -1.6195 -2.3075
 9262SOL    HW239246   0.819   4.189  12.176  0.1548  1.1681 -0.5220
 9263SOL     OW39247   3.392   2.634   4.211  0.0560 -0.2178  0.5097
 9263SOL    HW139248   3.397   2.584   4.130 -1.4146 -1.9812  1.4852
 9263SOL    HW239249   3.481   2.618   4.243  1.0062 -0.4443 -2.2990
 9264SOL     OW39250   0.058   4.301  17.426 -0.5693 -0.0780 -0.3658
 9264SOL    HW139251   0.082   4.246  17.501 -0.9151  0.2188 -0.0345
 9264SOL    HW239252   4.687   4.304  17.436 -0.4223  4.8019 -0.2392
 9265SOL     OW39253   0.044   0.173   8.379 -0.3123  0.0015  0.0043
 9265SOL    HW139254   4.724   0.252   8.409  0.1098 -0.2366  1.2803
 9265SOL    HW239255   4.716   0.108   8.427 -0.3743 -0.3416 -0.5261
 9266SOL     OW39256   0.250   4.639   4.575 -0.2955 -0.3330 -0.2761
 9266SOL    HW139257   0.339   4.616   4.546 -0.0283 -0.0150  0.2926
 9266SOL    HW239258   0.276   4.718   4.623 -0.1562  0.3388 -1.4549
 9267SOL     OW39259   1.606   0.241  11.865 -0.1294  0.2597  0.0236
 9267SOL    HW139260   1.565   0.202  11.943 -0.4063 -0.0927 -0.2965
 9267SOL    HW239261   1.550   0.318  11.869 -2.2426 -1.2821  0.3300
 9268SOL     OW39262   4.676   0.324  12.075 -0.5935  0.1714 -0.1398
 9268SOL    HW139263   4.605   0.263  12.051 -1.4922  1.1437  0.0558
 9268SOL    HW239264   0.026   0.278  12.036  0.8321  3.3646 -1.1295
 9269SOL     OW39265   0.974   3.666  17.344  0.2767  0.0653  0.2309
 9269SOL    HW139266   1.055   3.627  17.376  0.4511  0.1088 -0.1581
 9269SOL    HW239267   0.944   3.594  17.288 -1.2492  1.4816 -0.7805
 9270SOL     OW39268   0.259   0.817   4.544 -0.5501 -0.1103 -0.8264
 9270SOL    HW139269   0.345   0.783   4.520 -0.1930  0.5964 -0.5172
 9270SOL    HW239270   0.255   0.886   4.478  0.2191 -0.3243 -1.0974
 9271SOL     OW39271   2.600   1.558   8.716 -0.1005  0.3065 -0.2459
 9271SOL    HW139272   2.631   1.486   8.770 -0.5039 -0.1491 -0.6186
 9271SOL    HW239273   2.613   1.629   8.780 -0.5222 -1.0094  1.2867
 9272SOL     OW39274   2.077   3.750  14.260  0.1988 -0.1508  0.0722
 9272SOL    HW139275   2.079   3.738  14.355  1.6061  0.2363  0.0950
 9272SOL    HW239276   2.106   3.841  14.253  0.5426 -0.5352 -3.7414
 9273SOL     OW39277   4.288   3.069   1.079 -0.3381  0.4819 -0.4360
 9273SOL    HW139278   4.231   3.137   1.113  1.7276  1.5873  0.8512
 9273SOL    HW239279   4.229   2.995   1.064  0.3993  0.0476 -1.2459
 9274SOL     OW39280   0.189   2.017   4.801 -0.3862  0.4869  0.0230
 9274SOL    HW139281   0.138   2.086   4.843  0.1109  0.5430  0.5472
 9274SOL    HW239282   0.143   2.006   4.718  0.3910 -1.6218 -0.1214
 9275SOL     OW39283   3.585   0.245   6.943 -0.0036 -0.3747  0.0357
 9275SOL    HW139284   3.657   0.292   6.984 -1.0158 -0.0473  1.4368
 9275SOL    HW239285   3.524   0.230   7.016 -0.5749 -0.2630 -0.4168
 9276SOL     OW39286   2.355   2.995   1.153 -0.0342 -0.3187 -0.2287
 9276SOL    HW139287   2.353   2.927   1.220 -2.3865 -1.0513 -1.0390
 9276SOL    HW239288   2.303   3.064   1.195 -0.6743 -1.7596  1.3360
 9277SOL     OW39289   1.172   1.031  14.665 -0.1560 -0.0300 -0.3122
 9277SOL    HW139290   1.227   1.014  14.589  0.5771 -0.4706  0.3153
 9277SOL    HW239291   1.106   1.090  14.630  2.1503  0.7557 -3.3105
 9278SOL     OW39292   0.605   0.103   7.995  0.2728 -0.9138 -0.8394
 9278SOL    HW139293   0.687   0.132   8.035 -0.8465  1.0172  0.0899
 9278SOL    HW239294   0.619   0.109   7.900 -1.3023 -1.0903 -1.0822
 9279SOL     OW39295   2.196   4.586   5.380 -0.3157  0.2789  0.0142
 9279SOL    HW139296   2.223   4.635   5.457  1.2860  0.5327 -0.7306
 9279SOL    HW239297   2.124   4.641   5.349  0.2972  1.7382  1.2147
 9280SOL     OW39298   0.109   4.135   6.060  0.3553  0.0699 -0.4283
 9280SOL    HW139299   0.153   4.127   5.976 -1.3411  0.1857 -1.3345
 9280SOL    HW239300   0.082   4.227   6.069  2.2708  0.6597 -0.8359
 9281SOL     OW39301   2.253   2.856   2.464 -0.0608 -0.3499  0.0920
 9281SOL    HW139302   2.213   2.805   2.534  0.8724 -0.1677  0.7666
 9281SOL    HW239303   2.259   2.949   2.488 -1.7729  0.2034 -1.6303
 9282SOL     OW39304   4.724   4.240   6.372  0.0899 -0.3596 -0.5692
 9282SOL    HW139305   4.641   4.261   6.328  0.0339  0.2193 -0.1871
 9282SOL    HW239306   0.026   4.326   6.404  2.6932 -1.3430 -0.1447
 9283SOL     OW39307   2.546   0.627   3.394 -0.3636  0.1576  0.3912
 9283SOL    HW139308   2.599   0.643   3.472  0.2584 -1.7822  0.3661
 9283SOL    HW239309   2.586   0.550   3.353 -1.8858  0.3723 -1.5292
 9284SOL     OW39310   1.914   3.720   2.250 -0.1647 -0.3826  0.1618
 9284SOL    HW139311   1.930   3.733   2.156 -1.4205 -3.5693 -0.5207
 9284SOL    HW239312   1.823   3.691   2.253 -0.0630 -0.7231  0.0511
 9285SOL     OW39313   2.256   3.967   2.198 -0.0577 -0.3913 -0.4398
 9285SOL    HW139314   2.192   4.028   2.161  0.9264 -0.6323 -2.5228
 9285SOL    HW239315   2.241   3.977   2.292  1.5239 -1.3216 -0.0941
 9286SOL     OW39316   0.600   0.188   0.973 -0.0914 -0.0637 -0.2956
 9286SOL    HW139317   0.594   0.128   0.899 -1.4360  0.2394 -0.4170
 9286SOL    HW239318   0.588   0.271   0.929  0.6495  0.9508  1.3978
 9287SOL     OW39319   0.550   4.294  12.316  0.1170  0.6547  0.3799
 9287SOL    HW139320   0.611   4.355  12.274 -0.1253  0.2986 -0.5011
 9287SOL    HW239321   0.535   4.344  12.396 -0.1130  0.8756  0.2022
 9288SOL     OW39322   2.927   3.972   8.763  0.3880  0.4221 -0.3260
 9288SOL    HW139323   2.834   3.986   8.782  1.0115  1.0039  2.2185
 9288SOL    HW239324   2.928   3.971   8.667 -1.3699 -0.0175 -0.3548
 9289SOL     OW39325   3.626   0.486  17.358  0.0626  0.2524 -0.4417
 9289SOL    HW139326   3.600   0.568  17.315  0.0827  0.1081 -0.7268
 9289SOL    HW239327   3.601   0.421  17.293 -0.7198  0.8462 -0.7390
 9290SOL     OW39328   3.828   2.010   0.804 -0.1270 -0.6214 -0.7317
 9290SOL    HW139329   3.864   1.960   0.877  0.4416 -0.3002 -0.7979
 9290SOL    HW239330   3.770   2.074   0.846 -0.4279 -1.9817  0.9266
 9291SOL     OW39331   0.499   2.194  16.328  0.0974  0.6786 -0.1543
 9291SOL    HW139332   0.591   2.180  16.308 -0.1756  2.0850 -2.3484
 9291SOL    HW239333   0.478   2.254  16.257 -0.7442 -0.1903 -0.6510
 9292SOL     OW39334   3.246   1.161   1.849 -0.1894  0.3326 -0.5927
 9292SOL    HW139335   3.165   1.122   1.816  0.1741  0.7815 -2.0108
 9292SOL    HW239336   3.297   1.175   1.769 -2.1537 -1.0862 -2.0810
 9293SOL     OW39337   0.905   2.958   3.721 -0.1418  0.2010  0.6482
 9293SOL    HW139338   0.845   3.002   3.781  0.6321  1.7765  0.2719
 9293SOL    HW239339   0.898   2.866   3.747 -0.4462  0.1188  0.2703
 9294SOL     OW39340   4.037   4.358  17.493  0.5325 -0.0716  0.0092
 9294SOL    HW139341   4.121   4.327  17.458  1.1399  3.2454 -1.4531
 9294SOL    HW239342   4.028   4.436  17.438  0.4390  0.5810  0.9512
 9295SOL     OW39343   0.007   2.380   8.442 -0.1602  0.1630 -0.6648
 9295SOL    HW139344   0.040   2.424   8.363  0.2268  0.1797 -0.4913
 9295SOL    HW239345   4.639   2.357   8.429 -0.1696  0.9697 -2.1222
 9296SOL     OW39346   1.052   3.982   0.641  0.3293  0.1935  0.4297
 9296SOL    HW139347   0.989   4.043   0.602 -1.9748 -3.4812 -1.6383
 9296SOL    HW239348   1.117   4.040   0.680  1.6904 -0.9247 -0.1688
 9297SOL     OW39349   3.705   2.790   2.517 -0.2148  0.5102 -0.4973
 9297SOL    HW139350   3.666   2.796   2.604  0.4523  0.7063 -0.2143
 9297SOL    HW239351   3.660   2.862   2.472 -2.1070 -0.2914  0.1035
 9298SOL     OW39352   3.248   0.349   6.400  0.5240  0.5306  0.4071
 9298SOL    HW139353   3.287   0.346   6.313  1.1239 -0.8659  0.7244
 9298SOL    HW239354   3.166   0.392   6.374 -0.0464 -1.3912 -0.9860
 9299SOL     OW39355   0.799   1.134   2.301  0.3031  0.1429  0.2177
 9299SOL    HW139356   0.734   1.066   2.318 -1.1405  0.8689 -2.5373
 9299SOL    HW239357   0.741   1.199   2.261 -1.1234 -1.6558 -0.6479
 9300SOL     OW39358   3.590   4.572  15.988  0.0866  0.4536 -0.4355
 9300SOL    HW139359   3.505   4.581  16.029  0.3708 -1.4630  0.5794
 9300SOL    HW239360   3.644   4.628  16.043  0.9204 -1.0875  0.3165
 9301SOL     OW39361   4.197   2.997   9.018 -0.1566  0.3216 -0.1302
 9301SOL    HW139362   4.173   2.939   9.091 -3.1871  2.8867  0.9264
 9301SOL    HW239363   4.227   3.068   9.075 -0.5660 -0.2791  0.8285
 9302SOL     OW39364   0.581   1.490   3.993 -0.0881 -0.0492 -0.5619
 9302SOL    HW139365   0.547   1.490   3.904 -2.4815 -1.8727  0.3356
 9302SOL    HW239366   0.619   1.577   4.003 -0.2514  0.0665 -0.9759
 9303SOL     OW39367   2.041   2.467   2.633  0.7563 -0.2182 -0.5087
 9303SOL    HW139368   2.085   2.427   2.558 -0.9202 -1.2049 -0.9622
 9303SOL    HW239369   2.112   2.518   2.671 -0.4893  0.3371  1.0827
 9304SOL     OW39370   1.190   3.842   1.132 -0.0512  0.5341  0.3852
 9304SOL    HW139371   1.253   3.908   1.162  0.2957  0.3920 -0.0307
 9304SOL    HW239372   1.122   3.860   1.197  0.3610  0.4439  0.8451
 9305SOL     OW39373   3.319   3.756   9.208 -0.3687 -0.5179 -0.0424
 9305SOL    HW139374   3.280   3.836   9.242 -1.4412 -1.4540  0.9074
 9305SOL    HW239375   3.349   3.777   9.120 -2.2765  0.5575 -0.4130
 9306SOL     OW39376   3.449   3.015   7.892 -0.7758 -0.6792 -0.0123
 9306SOL    HW139377   3.478   3.091   7.943 -0.7444 -0.5657 -0.2001
 9306SOL    HW239378   3.431   3.062   7.811  1.6237  0.4299  0.1197
 9307SOL     OW39379   3.137   1.794   8.102 -0.4416 -0.5507  0.4526
 9307SOL    HW139380   3.064   1.735   8.121 -0.9985  0.5801  1.8457
 9307SOL    HW239381   3.106   1.834   8.021 -0.4114 -2.4502 -0.5065
 9308SOL     OW39382   3.516   0.452  15.741  0.4371 -0.3706 -0.0595
 9308SOL    HW139383   3.569   0.374  15.761 -1.1549 -0.8055  2.4825
 9308SOL    HW239384   3.572   0.522  15.776 -0.2421  1.1510 -2.0094
 9309SOL     OW39385   1.621   1.470   5.567 -0.3650 -0.0456 -0.8067
 9309SOL    HW139386   1.697   1.512   5.527 -1.4988  0.9949 -1.8408
 9309SOL    HW239387   1.664   1.421   5.638 -0.9969  0.1422 -0.3056
 9310SOL     OW39388   0.713   0.745   0.609 -0.6468  0.7048 -0.2962
 9310SOL    HW139389   0.792   0.702   0.641 -0.3146  0.1654 -1.8408
 9310SOL    HW239390   0.743   0.766   0.521 -2.3256  1.7699 -0.6119
 9311SOL     OW39391   3.775   2.078  15.424 -0.0626 -0.1312 -0.1208
 9311SOL    HW139392   3.785   2.152  15.365  1.4379 -1.0436 -0.9943
 9311SOL    HW239393   3.800   2.005  15.367  0.3092  0.7832 -1.1249
 9312SOL     OW39394   4.191   1.011   6.992 -0.3762 -0.3139 -0.0878
 9312SOL    HW139395   4.109   1.018   7.040  0.7243 -2.5032  2.1192
 9312SOL    HW239396   4.205   1.099   6.957  0.1660 -0.2864  0.1882
 9313SOL     OW39397   0.069   1.424   4.688  0.5042  0.2891 -0.2351
 9313SOL    HW139398   4.705   1.442   4.718  0.5317 -0.4911  0.2999
 9313SOL    HW239399   0.075   1.474   4.606  2.2814 -0.8027 -0.7874
 9314SOL     OW39400   2.605   1.372  10.225  0.0259  0.5956 -0.0709
 9314SOL    HW139401   2.647   1.301  10.272 -0.9311 -0.2219 -0.4557
 9314SOL    HW239402   2.518   1.333  10.230 -0.0903  1.0245  1.3382
 9315SOL     OW39403   0.632   3.899   6.605 -0.6985 -0.0122  0.7426
 9315SOL    HW139404   0.617   3.864   6.693 -1.9188 -1.3685 -0.0257
 9315SOL    HW239405   0.583   3.981   6.602 -1.6536 -0.5209  2.2585
 9316SOL     OW39406   4.653   3.873  10.523 -0.0831  0.2303 -0.2874
 9316SOL    HW139407   4.594   3.924  10.579  0.6360  2.6009 -1.6922
 9316SOL    HW239408   4.576   3.835  10.481  0.5334 -0.3525 -0.8802
 9317SOL     OW39409   2.107   0.694   1.893  0.0120 -0.1304 -0.6684
 9317SOL    HW139410   2.168   0.720   1.824 -0.0465  0.1090 -0.6292
 9317SOL    HW239411   2.132   0.739   1.974  0.0292  0.1764 -0.8440
 9318SOL     OW39412   3.561   0.501   5.031 -0.1259  0.1140 -0.5940
 9318SOL    HW139413   3.579   0.481   4.940  0.1013 -0.5373 -0.4086
 9318SOL    HW239414   3.630   0.565   5.051  1.2059 -1.7531  0.9507
 9319SOL     OW39415   0.740   0.356   3.360  0.2866 -0.1236 -0.2418
 9319SOL    HW139416   0.718   0.449   3.353 -1.9860 -0.8594 -2.8415
 9319SOL    HW239417   0.713   0.334   3.450  2.3849  0.3551  0.5126
 9320SOL     OW39418   1.242   3.842   4.970  0.1183 -0.1264  0.0258
 9320SOL    HW139419   1.280   3.913   5.022  2.3354 -1.3016  0.0121
 9320SOL    HW239420   1.299   3.852   4.894 -0.1968  1.0725 -0.0448
 9321SOL     OW39421   1.665   0.990   6.176  0.3835  0.2189 -0.2019
 9321SOL    HW139422   1.741   0.941   6.144  0.2761 -2.3249  3.3881
 9321SOL    HW239423   1.696   1.078   6.154  2.5301 -0.2649  0.8448
 9322SOL     OW39424   1.213   1.462   4.639  0.0635 -0.4750 -0.1635
 9322SOL    HW139425   1.188   1.512   4.561 -2.5965 -0.5367  0.6163
 9322SOL    HW239426   1.254   1.523   4.700 -0.3681 -0.1793 -0.1640
 9323SOL     OW39427   0.772   0.104   1.169  0.7984 -0.0188  0.5515
 9323SOL    HW139428   0.708   0.102   1.098  1.1390 -1.7568  0.2819
 9323SOL    HW239429   0.831   0.036   1.135 -0.6913 -0.9237 -0.2468
 9324SOL     OW39430   0.616   2.669   5.660  0.2500 -0.1914  0.0205
 9324SOL    HW139431   0.668   2.697   5.736  0.7901 -0.8525 -0.1036
 9324SOL    HW239432   0.533   2.641   5.696 -0.1986  0.6780 -0.3340
 9325SOL     OW39433   0.782   2.256  15.856  0.3647  0.1958 -0.0238
 9325SOL    HW139434   0.834   2.191  15.903 -1.4169 -0.5269  0.9823
 9325SOL    HW239435   0.697   2.239  15.896  1.3549  1.9590  2.7651
 9326SOL     OW39436   0.221   0.771   5.770  0.3771 -0.5097  0.4679
 9326SOL    HW139437   0.209   0.858   5.806 -2.6643 -1.1800  1.0626
 9326SOL    HW239438   0.133   0.747   5.741  1.1303 -0.6479 -1.7524
 9327SOL     OW39439   4.437   4.677   6.731  0.2166  0.5089 -0.1209
 9327SOL    HW139440   4.411   0.022   6.792 -0.1522  1.5148 -1.4265
 9327SOL    HW239441   4.388   4.606   6.771 -0.1679  1.9726  2.0444
 9328SOL     OW39442   0.185   2.118   9.653  0.1958 -0.0364 -0.1346
 9328SOL    HW139443   0.280   2.111   9.667 -0.3821 -2.5773  2.6935
 9328SOL    HW239444   0.138   2.113   9.736 -0.3057  5.0389 -0.1188
 9329SOL     OW39445   3.040   0.350   5.463 -0.9731  0.0454  0.1380
 9329SOL    HW139446   3.074   0.289   5.527  1.2932  1.5820  0.3791
 9329SOL    HW239447   3.001   0.417   5.519 -1.4961  1.8654 -2.4001
 9330SOL     OW39448   3.301   3.263   4.418  0.5005 -0.3690 -0.3696
 9330SOL    HW139449   3.351   3.274   4.338 -0.7462  0.1386 -1.0778
 9330SOL    HW239450   3.328   3.347   4.456  0.4078 -0.7272  0.5095
 9331SOL     OW39451   4.264   1.603  10.483  0.8192  0.2360 -0.0895
 9331SOL    HW139452   4.252   1.698  10.486 -3.5343 -0.2775 -1.0290
 9331SOL    HW239453   4.173   1.581  10.467  0.0400  1.6541  2.4414
 9332SOL     OW39454   0.277   1.490   5.518 -0.0255 -0.1003 -0.0517
 9332SOL    HW139455   0.322   1.528   5.443  1.6708 -0.1441  0.9490
 9332SOL    HW239456   0.218   1.431   5.471  0.0019  0.6676 -1.0595
 9333SOL     OW39457   3.968   2.157  10.869 -0.1340 -0.6271 -0.1067
 9333SOL    HW139458   4.036   2.149  10.803 -0.1401 -1.3155 -0.0241
 9333SOL    HW239459   4.027   2.175  10.943 -0.6762  0.2254  0.1242
 9334SOL     OW39460   0.121   1.097   6.743  0.3432  0.4702  0.1594
 9334SOL    HW139461   0.035   1.060   6.764  0.2747 -0.8361 -2.3829
 9334SOL    HW239462   0.183   1.028   6.767  0.4702  0.9363  1.1853
 9335SOL     OW39463   2.329   0.605   8.864  0.1223  0.6030  0.4307
 9335SOL    HW139464   2.370   0.689   8.844 -1.6136  1.4235  0.3172
 9335SOL    HW239465   2.271   0.620   8.939  0.2071 -0.5963  0.7270
 9336SOL     OW39466   0.669   4.508  10.380  0.1746 -0.4944 -0.3777
 9336SOL    HW139467   0.752   4.478  10.343  0.4182 -0.2543 -0.0168
 9336SOL    HW239468   0.653   4.594  10.340 -0.5490  0.3468  1.7398
 9337SOL     OW39469   2.295   2.655   0.241 -0.8025  0.3154  0.3664
 9337SOL    HW139470   2.221   2.606   0.276  0.5724 -2.2825 -0.4242
 9337SOL    HW239471   2.285   2.738   0.288  4.2630  0.0225  1.9650
 9338SOL     OW39472   3.538   1.855   4.477  0.0341 -0.6630  0.7363
 9338SOL    HW139473   3.452   1.813   4.476  0.0211 -0.5576 -1.5552
 9338SOL    HW239474   3.521   1.934   4.528  0.3224 -0.3380  0.3271
 9339SOL     OW39475   1.130   4.224   3.157 -0.0805  0.3022 -0.2381
 9339SOL    HW139476   1.156   4.316   3.157  1.7489 -0.1992 -2.7802
 9339SOL    HW239477   1.141   4.197   3.066  2.2366  1.1188 -0.2146
 9340SOL     OW39478   0.012   0.339  17.102 -0.1028  0.0737  0.4003
 9340SOL    HW139479   0.012   0.273  17.172 -1.7268  1.1392  1.4069
 9340SOL    HW239480   0.099   0.379  17.107 -1.0805  2.2136  0.1203
 9341SOL     OW39481   0.989   3.074  13.489  0.1887  0.3537 -0.6946
 9341SOL    HW139482   0.930   3.080  13.414  1.5127 -0.6873 -1.8258
 9341SOL    HW239483   0.953   3.136  13.553 -0.4989  0.3681 -1.0942
 9342SOL     OW39484   3.116   2.845  11.668 -0.1021  0.0884  0.8819
 9342SOL    HW139485   3.022   2.846  11.685  0.2792 -2.1697  3.2722
 9342SOL    HW239486   3.118   2.897  11.588  1.5595  2.9479  2.8037
 9343SOL     OW39487   4.307   0.494   8.950 -0.8530 -0.2837  0.1374
 9343SOL    HW139488   4.362   0.544   8.890 -0.2720 -1.3239 -0.1883
 9343SOL    HW239489   4.226   0.540   8.927 -2.1478 -2.6866 -0.0554
 9344SOL     OW39490   2.356   1.523   5.782  0.6191  0.0865 -0.2314
 9344SOL    HW139491   2.386   1.593   5.725  0.6598 -0.0171 -0.3384
 9344SOL    HW239492   2.417   1.537   5.854 -0.2143  0.1517  0.4526
 9345SOL     OW39493   2.141   3.683   6.724  0.0780 -0.4483 -0.1083
 9345SOL    HW139494   2.148   3.777   6.712 -0.5733 -0.3333  0.4204
 9345SOL    HW239495   2.225   3.658   6.763  0.5108  1.0562 -0.1024
 9346SOL     OW39496   4.573   0.988   0.495  0.1133  0.9198 -0.0298
 9346SOL    HW139497   4.506   0.931   0.457  1.7509 -2.1694  1.6819
 9346SOL    HW239498   4.604   1.017   0.409 -0.2559  0.5316 -0.2903
 9347SOL     OW39499   3.492   1.794  11.203  0.3387  0.3557 -0.1997
 9347SOL    HW139500   3.483   1.798  11.298  0.7004  1.5717 -0.2124
 9347SOL    HW239501   3.453   1.708  11.186 -0.6913  0.5866  0.9774
 9348SOL     OW39502   1.367   4.073  15.201 -0.2919  0.5753  0.1204
 9348SOL    HW139503   1.344   4.146  15.144  0.5905 -0.2772 -1.3411
 9348SOL    HW239504   1.450   4.105  15.237 -1.2314  2.9629  0.1310
 9349SOL     OW39505   1.670   1.274   8.002 -0.3313 -0.2876  0.4929
 9349SOL    HW139506   1.762   1.269   7.977 -0.2888 -0.8415  0.7638
 9349SOL    HW239507   1.649   1.181   7.999  0.7391 -0.4863 -0.7445
 9350SOL     OW39508   0.731   1.579  13.974 -0.1299  0.0837  0.3370
 9350SOL    HW139509   0.724   1.658  14.027 -2.3130 -0.3621  0.7201
 9350SOL    HW239510   0.700   1.610  13.889  0.6976 -0.4539 -0.1633
 9351SOL     OW39511   2.678   3.873  12.831 -0.0983 -0.3024 -0.3311
 9351SOL    HW139512   2.749   3.814  12.857 -0.8994 -1.7124 -1.3717
 9351SOL    HW239513   2.727   3.941  12.785  2.3374  0.2973  3.0540
 9352SOL     OW39514   0.626   0.233  13.273 -0.1547  0.5078 -0.2961
 9352SOL    HW139515   0.560   0.270  13.331 -0.6906 -1.9406  0.6630
 9352SOL    HW239516   0.582   0.202  13.194  1.6751 -1.5773 -0.5129
 9353SOL     OW39517   3.875   0.299   2.491  0.1861  0.4678 -0.1082
 9353SOL    HW139518   3.886   0.267   2.401 -2.9924  1.7707 -0.9610
 9353SOL    HW239519   3.785   0.271   2.508  0.6975 -1.4046 -0.4580
 9354SOL     OW39520   1.408   2.865   6.207  0.8177  0.0325 -0.1787
 9354SOL    HW139521   1.459   2.842   6.285  2.3401  0.4129 -1.0414
 9354SOL    HW239522   1.423   2.792   6.148 -1.1679 -0.6667  0.2115
 9355SOL     OW39523   0.165   0.989   1.197 -0.2135 -0.1473  0.1467
 9355SOL    HW139524   0.230   1.051   1.164  0.7771 -1.5231 -0.4980
 9355SOL    HW239525   0.116   0.973   1.116 -0.4810  1.3242  0.0180
 9356SOL     OW39526   0.956   4.071  10.780 -0.2162  0.1071  0.0763
 9356SOL    HW139527   0.912   3.994  10.743 -0.0331  1.0411 -2.0887
 9356SOL    HW239528   0.954   4.053  10.874 -1.4256 -1.2422 -0.1986
 9357SOL     OW39529   1.746   3.332  12.965 -0.0385 -0.0772 -0.1674
 9357SOL    HW139530   1.707   3.245  12.966  0.0952 -0.1349  0.0551
 9357SOL    HW239531   1.711   3.365  12.882  0.6562 -2.0007 -1.2314
 9358SOL     OW39532   4.001   1.837   9.390  0.3938  0.3096  0.0649
 9358SOL    HW139533   4.094   1.827   9.408 -0.0876 -1.7964  1.3797
 9358SOL    HW239534   3.964   1.753   9.418 -0.6866  0.9923  0.7243
 9359SOL     OW39535   1.602   1.984  13.468  0.0537  0.1498 -0.0769
 9359SOL    HW139536   1.565   2.028  13.391 -0.8364  0.4102  0.4969
 9359SOL    HW239537   1.669   2.042  13.505  1.5919 -2.6012  1.4605
 9360SOL     OW39538   1.939   0.532  10.878  0.4909  0.3977  0.1191
 9360SOL    HW139539   1.870   0.482  10.835  0.4305  0.5424  0.0483
 9360SOL    HW239540   1.894   0.579  10.949 -0.5781 -1.2576  0.5264
 9361SOL     OW39541   4.154   0.358   0.448  0.1273 -0.0240  0.4570
 9361SOL    HW139542   4.244   0.386   0.432  0.3794 -1.3065 -0.3624
 9361SOL    HW239543   4.111   0.426   0.397  0.2042  1.8665  2.9405
 9362SOL     OW39544   1.363   0.226  10.708  0.0067  0.2808  0.0131
 9362SOL    HW139545   1.370   0.256  10.799 -0.9117 -1.9834  0.8516
 9362SOL    HW239546   1.312   0.145  10.716 -0.4767  0.5270 -0.6056
 9363SOL     OW39547   0.174   0.901   7.446  0.4655  0.2625  0.4290
 9363SOL    HW139548   0.237   0.880   7.377 -0.5145 -1.8167  0.1853
 9363SOL    HW239549   0.232   0.902   7.521  3.0384 -2.9513 -1.5398
 9364SOL     OW39550   3.973   4.462   5.278 -0.4960 -0.6215  0.5024
 9364SOL    HW139551   3.927   4.501   5.204  1.0827  0.9778  0.3764
 9364SOL    HW239552   3.994   4.541   5.326  0.0160  0.0636 -0.8482
 9365SOL     OW39553   1.813   3.053   6.826  1.0429 -0.1724  0.0800
 9365SOL    HW139554   1.881   3.085   6.885  0.8540  1.1407 -0.4120
 9365SOL    HW239555   1.750   3.023   6.891 -0.6391  1.0865 -0.9592
 9366SOL     OW39556   4.199   1.720   7.435  0.0578 -0.5380 -0.1690
 9366SOL    HW139557   4.253   1.661   7.488 -0.5655  1.4214  2.6911
 9366SOL    HW239558   4.255   1.721   7.357  0.3058  1.9554  0.0286
 9367SOL     OW39559   0.693   3.686   6.948  0.8723 -0.0612 -0.2514
 9367SOL    HW139560   0.602   3.696   6.921  0.5224  2.3914  1.7924
 9367SOL    HW239561   0.705   3.766   6.999  1.1819 -1.2714  1.5576
 9368SOL     OW39562   4.512   3.904   2.495  0.3819 -0.6004 -0.2003
 9368SOL    HW139563   4.569   3.962   2.444 -2.3415  0.8501 -1.6090
 9368SOL    HW239564   4.433   3.897   2.441 -1.2152  2.6355  1.6688
 9369SOL     OW39565   0.640   0.639  13.449 -0.3854  0.0189  0.2976
 9369SOL    HW139566   0.600   0.717  13.487 -0.7105 -0.3815  0.7716
 9369SOL    HW239567   0.732   0.665  13.461 -0.0608 -0.8000 -0.4068
 9370SOL     OW39568   4.618   3.941   4.692 -0.0865  0.0326  0.0478
 9370SOL    HW139569   4.626   3.878   4.764 -0.8378  0.8779  0.8632
 9370SOL    HW239570   4.538   3.915   4.645 -0.8393  1.0199  0.7805
 9371SOL     OW39571   0.483   3.368   3.514 -0.4292  0.2042  0.0479
 9371SOL    HW139572   0.434   3.328   3.442  0.9650  0.3930 -1.0183
 9371SOL    HW239573   0.573   3.356   3.484 -0.5289 -0.8319  0.1599
 9372SOL     OW39574   1.005   4.632  15.281  0.1711  0.3362 -0.6664
 9372SOL    HW139575   1.070   4.594  15.222  0.6247 -0.9069  0.6511
 9372SOL    HW239576   0.942   4.655  15.212  0.5949 -0.1094 -1.2024
 9373SOL     OW39577   2.290   2.638   6.596  0.1965 -0.2223 -0.2255
 9373SOL    HW139578   2.246   2.588   6.528  0.1715 -0.7599  0.1835
 9373SOL    HW239579   2.381   2.636   6.566  0.6165 -1.4078  1.0920
 9374SOL     OW39580   4.158   4.329   5.101 -0.3582  0.4837 -0.1187
 9374SOL    HW139581   4.220   4.335   5.174 -0.8157 -2.4573  0.5229
 9374SOL    HW239582   4.087   4.380   5.140 -0.5611  0.3454 -0.3100
 9375SOL     OW39583   2.499   4.439   9.184 -0.3922  0.4406  0.0197
 9375SOL    HW139584   2.556   4.514   9.197 -0.0491  0.0181  0.9323
 9375SOL    HW239585   2.437   4.467   9.116 -0.3729  1.9859  0.6550
 9376SOL     OW39586   3.790   0.246  17.669  0.2320 -0.0702 -0.4214
 9376SOL    HW139587   3.804   0.325   0.022  2.3782  0.4008 -1.6928
 9376SOL    HW239588   3.792   0.182   0.041 -2.3322 -0.8778 -1.1000
 9377SOL     OW39589   3.131   0.432  15.637 -0.0001 -0.1843  0.3706
 9377SOL    HW139590   3.060   0.428  15.702  0.2032  1.6018  0.7295
 9377SOL    HW239591   3.206   0.400  15.687  0.6586 -1.8587 -1.7372
 9378SOL     OW39592   4.602   4.259  13.171 -0.3159 -0.2338  0.1878
 9378SOL    HW139593   4.608   4.306  13.088  1.4408 -0.4158  0.2147
 9378SOL    HW239594   4.671   4.299  13.224 -0.2631  0.2503 -0.2496
 9379SOL     OW39595   2.856   4.232   2.652  0.8655 -0.4255 -0.4717
 9379SOL    HW139596   2.907   4.165   2.606 -0.8342 -0.2563 -2.5845
 9379SOL    HW239597   2.901   4.315   2.634 -1.0305  0.6564 -0.1609
 9380SOL     OW39598   1.966   2.204   8.418 -0.2689  0.2895 -0.0868
 9380SOL    HW139599   2.003   2.253   8.344 -0.4149 -0.0681 -0.3960
 9380SOL    HW239600   1.960   2.118   8.378 -0.4839  0.7814 -1.1183
 9381SOL     OW39601   2.124   3.636  11.627  0.2267 -0.0747 -0.3103
 9381SOL    HW139602   2.168   3.706  11.579  1.2873 -1.4701 -1.3958
 9381SOL    HW239603   2.154   3.664  11.713  0.2931 -0.6315 -0.1514
 9382SOL     OW39604   1.146   2.626   8.655 -0.0340  0.3147 -0.1154
 9382SOL    HW139605   1.206   2.700   8.659  1.7303 -1.1934  1.4020
 9382SOL    HW239606   1.208   2.553   8.651  1.2802  1.5613 -2.3045
 9383SOL     OW39607   3.917   3.305   8.529 -0.5359  0.2895  0.0900
 9383SOL    HW139608   3.965   3.351   8.598 -0.5302 -0.9707  0.9315
 9383SOL    HW239609   3.917   3.371   8.460  0.1660  0.5343  0.3206
 9384SOL     OW39610   4.390   4.295   6.267 -0.5148 -0.6173 -0.1898
 9384SOL    HW139611   4.321   4.284   6.201  0.7447  0.9467 -1.7684
 9384SOL    HW239612   4.415   4.205   6.288  0.2190 -0.4093 -0.1877
 9385SOL     OW39613   1.664   0.155  10.342 -0.0627  0.1556 -0.0131
 9385SOL    HW139614   1.695   0.081  10.291 -3.4468 -1.5449  0.3875
 9385SOL    HW239615   1.580   0.168  10.298 -0.5394  1.7320  1.3377
 9386SOL     OW39616   4.614   3.189   5.369 -0.3807 -0.2082  0.2970
 9386SOL    HW139617   4.552   3.258   5.344  1.5066  1.0197 -0.9983
 9386SOL    HW239618   4.548   3.121   5.386 -3.3572  3.2051  2.4230
 9387SOL     OW39619   0.754   1.476   2.452 -0.1731 -0.4502  0.6768
 9387SOL    HW139620   0.691   1.405   2.460  0.0301 -0.6142  0.8239
 9387SOL    HW239621   0.695   1.551   2.445 -0.8398 -0.7099  3.4872
 9388SOL     OW39622   1.297   3.847   7.119 -0.1674  0.1649 -0.6036
 9388SOL    HW139623   1.262   3.850   7.030 -3.1920  0.3373  0.5855
 9388SOL    HW239624   1.356   3.772   7.111  0.7385  0.7683  0.5187
 9389SOL     OW39625   0.088   3.900   9.414  0.1735  0.4722  0.5920
 9389SOL    HW139626   4.721   3.927   9.399  0.3751  0.9397  0.2024
 9389SOL    HW239627   0.075   3.820   9.464 -0.2647  0.2741  0.1601
 9390SOL     OW39628   0.714   3.678   3.280  0.2903 -0.2305 -0.1378
 9390SOL    HW139629   0.637   3.718   3.241  0.2109  1.6157  1.9371
 9390SOL    HW239630   0.780   3.695   3.213 -0.2260 -0.7887 -0.7890
 9391SOL     OW39631   1.688   3.700   5.949  0.0406 -0.3154 -0.0569
 9391SOL    HW139632   1.679   3.607   5.929  1.9505 -0.2173 -1.4369
 9391SOL    HW239633   1.711   3.692   6.042 -0.5488 -0.4285  0.0802
 9392SOL     OW39634   1.128   3.830  11.736  0.1140  0.2167  0.4661
 9392SOL    HW139635   1.112   3.876  11.819  3.5957  1.9476  0.1864
 9392SOL    HW239636   1.133   3.909  11.683 -0.8252 -0.4495 -0.6248
 9393SOL     OW39637   3.709   1.016   7.643 -0.0722  0.0578 -0.0446
 9393SOL    HW139638   3.766   1.024   7.567  2.1820  4.0641  2.0612
 9393SOL    HW239639   3.776   1.026   7.711  0.7162  0.7446 -0.9274
 9394SOL     OW39640   2.453   1.673   5.423 -0.7292 -0.0821  0.1350
 9394SOL    HW139641   2.475   1.590   5.466 -0.9561 -0.2740 -0.1123
 9394SOL    HW239642   2.417   1.634   5.343  1.9270 -0.5793 -0.8129
 9395SOL     OW39643   3.502   1.123   7.779 -0.1506  0.3481 -0.1628
 9395SOL    HW139644   3.590   1.092   7.758  0.1744  1.1796 -0.0015
 9395SOL    HW239645   3.485   1.178   7.702 -0.3684 -0.5859 -0.7894
 9396SOL     OW39646   1.907   0.139  13.997 -0.6193  0.3126 -0.2621
 9396SOL    HW139647   1.922   0.216  14.052  0.2458 -0.4918  0.6435
 9396SOL    HW239648   1.822   0.109  14.028  0.5998 -0.8042  2.0082
 9397SOL     OW39649   3.023   3.194   6.917  0.2452 -0.3287 -0.1511
 9397SOL    HW139650   3.026   3.240   6.834  0.2990  1.6657  0.9434
 9397SOL    HW239651   3.050   3.263   6.978  0.2605  0.5733 -1.1874
 9398SOL     OW39652   0.564   2.767  16.331 -0.1000 -0.3469 -0.5734
 9398SOL    HW139653   0.642   2.716  16.308  2.0807  3.1852 -1.0279
 9398SOL    HW239654   0.587   2.777  16.423 -1.3645  1.5016 -0.4610
 9399SOL     OW39655   0.985   0.500   5.524  0.5109 -0.5049  0.0329
 9399SOL    HW139656   0.934   0.537   5.452  0.6691 -2.4055 -1.0518
 9399SOL    HW239657   0.920   0.476   5.590 -0.6812 -0.1103 -1.0016
 9400SOL     OW39658   2.079   3.971   1.500  0.0626 -0.3907 -0.4522
 9400SOL    HW139659   2.033   3.925   1.430 -1.5965  0.6162 -0.0351
 9400SOL    HW239660   2.045   3.927   1.578  0.1192  1.2790  0.5129
 9401SOL     OW39661   4.101   3.030   4.235 -0.1664  0.1138  0.5226
 9401SOL    HW139662   4.154   3.033   4.156  0.8696  0.1914  1.2117
 9401SOL    HW239663   4.047   2.954   4.212  1.2287 -0.6725 -0.1893
 9402SOL     OW39664   3.649   3.755  11.234 -0.2830 -0.8958 -0.0787
 9402SOL    HW139665   3.589   3.742  11.307 -1.4642 -2.4269 -1.3175
 9402SOL    HW239666   3.672   3.846  11.251 -0.4203 -0.8227 -0.2875
 9403SOL     OW39667   0.068   1.604   7.240 -0.0740  0.0273 -0.4113
 9403SOL    HW139668   0.113   1.600   7.324  0.8589 -0.8644 -0.9490
 9403SOL    HW239669   0.127   1.576   7.170 -0.5817 -1.6263 -0.1881
 9404SOL     OW39670   0.361   1.889   3.707  0.3892  0.8026 -0.3278
 9404SOL    HW139671   0.322   1.975   3.691 -0.1381  0.8263  1.1222
 9404SOL    HW239672   0.301   1.827   3.665  1.5440 -0.3564 -0.2607
 9405SOL     OW39673   0.492   0.946   5.937 -0.4921 -0.2171 -0.1096
 9405SOL    HW139674   0.500   1.032   5.896 -1.2952  0.1373  0.4743
 9405SOL    HW239675   0.539   0.942   6.020  1.0379  3.6054 -0.8080
 9406SOL     OW39676   1.043   0.131  15.058 -0.2010  0.9521  0.1435
 9406SOL    HW139677   1.063   0.217  15.021 -1.5200  1.4268  0.5366
 9406SOL    HW239678   1.101   0.072  15.010  0.9140  2.9418 -0.9409
 9407SOL     OW39679   3.085   0.549   8.395  0.4533  0.1567  0.1090
 9407SOL    HW139680   3.042   0.565   8.312 -1.5500  0.1816  1.1469
 9407SOL    HW239681   3.173   0.580   8.375  0.8587 -1.1467 -0.1017
 9408SOL     OW39682   3.217   1.389  14.915  0.1613 -0.4063  0.0180
 9408SOL    HW139683   3.239   1.478  14.889 -2.0802  0.5043  1.3074
 9408SOL    HW239684   3.262   1.386  15.000  1.0078  0.0009 -0.4147
 9409SOL     OW39685   3.391   4.693   3.909  0.0523 -0.0479 -0.4569
 9409SOL    HW139686   3.411   0.048   3.960 -1.2677  0.3508 -0.5338
 9409SOL    HW239687   3.462   4.688   3.846  1.5098  0.7095  1.1240
 9410SOL     OW39688   3.891   3.137   9.058 -0.1542 -0.2867  0.4514
 9410SOL    HW139689   3.883   3.133   9.153 -1.1807 -0.5012  0.3587
 9410SOL    HW239690   3.848   3.219   9.038 -1.6233 -0.2012  4.0612
 9411SOL     OW39691   3.227   3.509   1.781 -0.1038  0.0921 -0.0635
 9411SOL    HW139692   3.306   3.459   1.764 -0.1484 -0.2189  0.6609
 9411SOL    HW239693   3.229   3.573   1.710  1.2634 -0.2613 -0.3450
 9412SOL     OW39694   1.899   3.373   7.618 -1.0646  0.3299  0.2384
 9412SOL    HW139695   1.822   3.329   7.653 -1.7975  1.3818 -0.0223
 9412SOL    HW239696   1.933   3.301   7.564 -1.7801  0.5272 -0.4829
 9413SOL     OW39697   4.699   0.741   7.403  0.2080 -0.7761  0.2355
 9413SOL    HW139698   0.033   0.815   7.422  0.4636 -1.0519  0.5428
 9413SOL    HW239699   4.685   0.744   7.309  1.5217 -2.1183 -0.0031
 9414SOL     OW39700   1.336   0.992   4.083 -0.2357  0.9118  0.3007
 9414SOL    HW139701   1.360   1.078   4.049 -1.1800 -0.0541 -2.7964
 9414SOL    HW239702   1.417   0.968   4.127 -1.9689 -1.0984  2.4487
 9415SOL     OW39703   0.734   1.973   8.561 -0.1634  0.7289 -0.4269
 9415SOL    HW139704   0.707   1.883   8.547  0.6986  0.3080  0.5755
 9415SOL    HW239705   0.660   2.008   8.611 -1.5849 -1.3818 -1.0758
 9416SOL     OW39706   4.116   3.996   1.093  0.4207  0.3891 -0.1306
 9416SOL    HW139707   4.127   3.970   1.184 -1.0039 -0.6760 -0.2602
 9416SOL    HW239708   4.113   3.907   1.056 -0.9965  1.4846 -2.6345
 9417SOL     OW39709   3.139   0.147  16.957  0.4352  0.1981 -0.0309
 9417SOL    HW139710   3.166   0.198  17.033 -2.3281 -1.7226  2.2158
 9417SOL    HW239711   3.059   0.193  16.934 -0.3417 -1.4960 -0.7457
 9418SOL     OW39712   0.901   1.434   3.335  0.1905 -0.4682 -0.0001
 9418SOL    HW139713   0.830   1.375   3.358 -0.8129  1.2932  1.4076
 9418SOL    HW239714   0.876   1.517   3.376 -1.6836 -0.9562 -0.1724
 9419SOL     OW39715   0.371   0.245   6.863 -0.0388 -0.4042  0.3183
 9419SOL    HW139716   0.373   0.154   6.834  0.5698 -0.1775 -0.3538
 9419SOL    HW239717   0.293   0.255   6.917 -1.7919  0.0865 -2.3177
 9420SOL     OW39718   3.482   0.162   1.703  0.2950  0.1362  0.1386
 9420SOL    HW139719   3.407   0.190   1.651 -1.1999 -1.1889  1.5807
 9420SOL    HW239720   3.445   0.168   1.791 -0.3454 -0.3439 -0.1004
 9421SOL     OW39721   3.826   1.306   6.741 -0.3177 -0.3443  0.0563
 9421SOL    HW139722   3.763   1.376   6.724 -0.3637 -0.5493 -0.6015
 9421SOL    HW239723   3.912   1.336   6.711 -0.1025 -1.0920 -0.0742
 9422SOL     OW39724   1.798   0.993   4.502  0.5185 -0.0613  0.7708
 9422SOL    HW139725   1.800   0.947   4.586  2.8728 -0.2561  0.6251
 9422SOL    HW239726   1.847   0.929   4.451  0.9155  1.6819 -1.0441
 9423SOL     OW39727   2.872   3.654   1.106  1.0779  0.0215  0.1965
 9423SOL    HW139728   2.920   3.665   1.024 -0.2948  0.4339 -0.5509
 9423SOL    HW239729   2.939   3.627   1.168  0.2780  1.4280  1.6542
 9424SOL     OW39730   0.571   3.223   4.526 -0.1619 -0.1422  0.0196
 9424SOL    HW139731   0.635   3.293   4.517  1.4702 -1.7131 -0.5407
 9424SOL    HW239732   0.624   3.144   4.538  0.2740  0.0080 -0.9770
 9425SOL     OW39733   0.270   0.860   6.702 -0.0288  0.3858 -0.0426
 9425SOL    HW139734   0.364   0.873   6.685 -0.3518 -0.3514 -2.4054
 9425SOL    HW239735   0.271   0.769   6.731 -1.4835  0.4227  0.1089
 9426SOL     OW39736   1.433   0.016   4.069 -0.1575 -1.0255 -0.0001
 9426SOL    HW139737   1.413   4.708   4.157  0.7774 -4.0085 -0.8718
 9426SOL    HW239738   1.433   4.660   4.017  1.0298 -0.3459 -1.0389
 9427SOL     OW39739   4.573   1.617   7.082  0.1383  0.0436 -0.0336
 9427SOL    HW139740   4.570   1.712   7.097  2.6197 -0.1273  1.4168
 9427SOL    HW239741   4.657   1.596   7.122  0.8313  2.8915 -0.0036
 9428SOL     OW39742   4.370   2.249   1.335  0.7827  0.2919  0.5894
 9428SOL    HW139743   4.447   2.192   1.340  0.1122 -0.6086  0.5866
 9428SOL    HW239744   4.334   2.263   1.423  0.8460 -1.3880  0.8826
 9429SOL     OW39745   0.141   2.940   5.117 -0.7778  0.1895  0.5008
 9429SOL    HW139746   0.058   2.923   5.072 -1.3644 -1.1770  2.0668
 9429SOL    HW239747   0.154   3.034   5.106  0.6505 -0.0670 -0.0038
 9430SOL     OW39748   3.090   2.729   4.249  0.2506 -0.0338  0.8901
 9430SOL    HW139749   3.180   2.754   4.270  0.2605  0.8425 -0.1657
 9430SOL    HW239750   3.097   2.658   4.185  0.0644 -0.1693  1.0190
 9431SOL     OW39751   4.463   2.545   7.178 -0.5902  0.5851 -0.0817
 9431SOL    HW139752   4.470   2.474   7.242  2.2982  1.5885  0.7248
 9431SOL    HW239753   4.456   2.500   7.094  1.7599  1.8778 -0.9594
 9432SOL     OW39754   2.675   1.368   7.751 -0.1698  0.1290 -0.1964
 9432SOL    HW139755   2.743   1.434   7.735  0.1319 -0.6049 -1.9454
 9432SOL    HW239756   2.730   1.299   7.788 -0.8568  0.1266  0.8166
 9433SOL     OW39757   4.043   3.137   6.980 -0.1012  0.2088 -0.3771
 9433SOL    HW139758   4.127   3.162   7.018 -0.0620 -1.3505  0.5737
 9433SOL    HW239759   4.007   3.087   7.053 -0.1799  2.5877  1.1966
 9434SOL     OW39760   3.604   2.686   3.812  0.8963 -0.3838  0.0544
 9434SOL    HW139761   3.587   2.623   3.743 -0.4718  2.2169 -1.9810
 9434SOL    HW239762   3.534   2.751   3.804  0.1365 -1.3684 -1.0573
 9435SOL     OW39763   2.798   3.994  12.577 -0.0119  0.0193 -0.7187
 9435SOL    HW139764   2.859   3.950  12.516  0.6656  0.1266 -0.1164
 9435SOL    HW239765   2.853   4.028  12.647 -1.0986  1.8339 -0.7680
 9436SOL     OW39766   4.723   0.070  11.161 -0.2411 -0.0372 -0.2075
 9436SOL    HW139767   0.033   0.140  11.105  0.1950 -1.1176 -1.2920
 9436SOL    HW239768   4.645   0.038  11.116 -1.1364  0.5537  0.9032
 9437SOL     OW39769   2.128   4.043  11.502 -0.2803 -0.6524 -0.6858
 9437SOL    HW139770   2.129   4.099  11.424 -0.0335 -0.4048 -0.5066
 9437SOL    HW239771   2.182   4.090  11.565 -1.4036 -0.0771 -0.1582
 9438SOL     OW39772   1.787   3.202   1.772 -0.5593 -0.4165 -0.5943
 9438SOL    HW139773   1.750   3.147   1.703 -0.9031 -2.2198  1.0380
 9438SOL    HW239774   1.753   3.288   1.747 -4.0069 -2.0959 -1.7972
 9439SOL     OW39775   2.559   0.020   7.566 -0.3077  0.8958  0.3064
 9439SOL    HW139776   2.508   0.097   7.538  3.1262  3.4034  0.9287
 9439SOL    HW239777   2.646   0.059   7.573  0.4791 -1.2541  2.4127
 9440SOL     OW39778   2.101   4.001   5.525  0.2892 -0.9501 -0.2225
 9440SOL    HW139779   2.005   3.997   5.530  0.3098 -0.4406  0.6289
 9440SOL    HW239780   2.118   4.095   5.524  1.1591 -1.1057 -0.1912
 9441SOL     OW39781   4.038   2.882   8.185  0.0113  0.1609 -0.2684
 9441SOL    HW139782   4.017   2.877   8.092  2.4936  0.2505 -0.8498
 9441SOL    HW239783   3.961   2.850   8.232  1.4688 -1.0185  1.3429
 9442SOL     OW39784   3.710   0.836   5.598 -0.1343 -0.0192 -0.5255
 9442SOL    HW139785   3.781   0.879   5.644 -1.8385  1.9757  0.2319
 9442SOL    HW239786   3.647   0.907   5.581 -0.3456 -0.3081 -0.9641
 9443SOL     OW39787   0.423   2.752  12.666  0.4824  0.3840 -0.0065
 9443SOL    HW139788   0.495   2.787  12.718  1.3028  1.1016 -1.6262
 9443SOL    HW239789   0.360   2.824  12.673 -1.9805 -1.5463 -2.0678
 9444SOL     OW39790   4.189   0.029  14.656  0.4294  0.2806  0.3100
 9444SOL    HW139791   4.277   4.722  14.681  1.8358  3.5821 -0.5341
 9444SOL    HW239792   4.134   4.682  14.689 -1.0708  0.4576 -1.8393
 9445SOL     OW39793   1.060   3.537  14.440 -0.0879  0.3633 -0.8437
 9445SOL    HW139794   1.017   3.475  14.381 -1.8413  0.8989 -0.1220
 9445SOL    HW239795   1.119   3.474  14.484 -0.7449 -0.3705 -1.0147
 9446SOL     OW39796   3.901   0.419  17.362 -0.1697  1.0427  0.2934
 9446SOL    HW139797   3.949   0.472  17.424 -2.3106  0.4812  2.4307
 9446SOL    HW239798   3.812   0.453  17.371 -0.7136 -1.2136  3.3183
 9447SOL     OW39799   2.423   4.219   6.022 -0.2523  0.2251  0.2233
 9447SOL    HW139800   2.356   4.202   5.955 -0.4515 -0.0130  0.4783
 9447SOL    HW239801   2.377   4.288   6.069  1.1945  0.6218  1.0323
 9448SOL     OW39802   4.699   0.388   4.164  0.6268  0.2934  0.2717
 9448SOL    HW139803   0.030   0.465   4.154  2.3168 -0.7885  1.2058
 9448SOL    HW239804   4.632   0.416   4.227 -0.2614  2.7894 -1.7983
 9449SOL     OW39805   3.613   0.187   2.411 -0.3019 -0.2112  0.0675
 9449SOL    HW139806   3.593   0.211   2.320 -1.9964  0.9130  0.7282
 9449SOL    HW239807   3.622   0.092   2.404  1.6742 -0.0957  1.0318
 9450SOL     OW39808   1.084   4.453   8.272  0.2236 -0.3299  0.7507
 9450SOL    HW139809   1.145   4.384   8.301 -0.2045 -1.2113 -0.4964
 9450SOL    HW239810   1.014   4.457   8.337 -0.2770  0.9114  0.1400
 9451SOL     OW39811   0.468   3.928   6.311 -0.2558 -0.5163 -0.0933
 9451SOL    HW139812   0.404   3.940   6.381 -0.5526 -0.5168 -0.3650
 9451SOL    HW239813   0.412   3.960   6.240 -1.4653 -1.2015  0.5546
 9452SOL     OW39814   1.775   2.133  10.029  0.3828  0.4407 -0.1029
 9452SOL    HW139815   1.703   2.180  10.069  0.0533  0.2557 -0.4723
 9452SOL    HW239816   1.816   2.085  10.101 -0.2213  0.0775 -0.0064
 9453SOL     OW39817   3.004   0.116   5.642 -0.2516 -0.4024 -0.2452
 9453SOL    HW139818   2.937   0.175   5.678 -0.5400 -0.3818 -0.8231
 9453SOL    HW239819   2.948   0.041   5.625 -0.3164 -0.5502  0.5842
 9454SOL     OW39820   2.223   0.312   2.229  0.4826 -0.7872 -0.2287
 9454SOL    HW139821   2.134   0.306   2.196  0.5253 -0.3668 -0.4104
 9454SOL    HW239822   2.215   0.270   2.315 -1.1814  2.3416  1.1592
 9455SOL     OW39823   4.323   0.411  16.191  0.2859  0.1182 -0.0950
 9455SOL    HW139824   4.277   0.339  16.235 -1.1358  1.1226  0.0424
 9455SOL    HW239825   4.324   0.470  16.266 -0.7315 -1.2144  0.9727
 9456SOL     OW39826   2.780   3.048  15.755  0.6139  0.8227 -1.0042
 9456SOL    HW139827   2.723   3.010  15.688 -1.7208  0.5602  1.0821
 9456SOL    HW239828   2.862   3.056  15.707  1.2662  1.0680  0.1368
 9457SOL     OW39829   1.838   0.659  15.037 -0.1689  0.4428 -0.3244
 9457SOL    HW139830   1.865   0.671  15.128  0.5233 -0.0172 -0.4743
 9457SOL    HW239831   1.891   0.721  14.987 -0.5602  0.7074 -0.4175
 9458SOL     OW39832   1.537   2.666   0.393 -0.1278  0.3885 -0.0711
 9458SOL    HW139833   1.567   2.755   0.412  1.2907  0.1127 -1.0228
 9458SOL    HW239834   1.511   2.645   0.482  3.4933 -0.9763  0.6773
 9459SOL     OW39835   0.283   0.188   8.035  0.1559 -0.5141 -0.2311
 9459SOL    HW139836   0.291   0.252   8.105 -1.9334 -1.2561  0.6958
 9459SOL    HW239837   0.369   0.147   8.021  0.0362 -1.2818  1.2194
 9460SOL     OW39838   3.949   1.259   3.536 -0.0894  0.0874 -0.7098
 9460SOL    HW139839   3.895   1.213   3.600  0.2735  2.0509  1.0255
 9460SOL    HW239840   4.031   1.282   3.580  0.5665 -1.5893 -1.0521
 9461SOL     OW39841   0.263   4.114   5.824  0.2861  0.3516 -0.5183
 9461SOL    HW139842   0.295   4.024   5.819 -1.2777 -0.1889 -0.6364
 9461SOL    HW239843   0.328   4.171   5.782  1.4410  0.4323  1.3733
 9462SOL     OW39844   2.408   0.301   8.920 -0.0343  0.0468 -0.5502
 9462SOL    HW139845   2.456   0.383   8.912 -0.3747  0.0828 -2.3020
 9462SOL    HW239846   2.476   0.238   8.940  0.9257  0.8276 -1.3180
 9463SOL     OW39847   3.119   1.740   2.836  0.2694  0.2019  0.0939
 9463SOL    HW139848   3.189   1.794   2.800 -1.4796  2.6903  0.3975
 9463SOL    HW239849   3.058   1.724   2.763 -0.2688  0.6528  0.4459
 9464SOL     OW39850   0.061   1.352  13.664  0.0610 -0.0489 -0.4225
 9464SOL    HW139851   0.135   1.364  13.723  0.4826  0.6803 -1.1047
 9464SOL    HW239852   0.065   1.256  13.663 -1.3914 -0.1008 -1.9861
 9465SOL     OW39853   1.333   0.732   4.424  0.1076  0.1965  0.0174
 9465SOL    HW139854   1.391   0.698   4.356  2.7187  1.3844  1.6536
 9465SOL    HW239855   1.379   0.810   4.457 -0.2415  0.4570 -0.1114
 9466SOL     OW39856   0.943   0.569   2.090 -0.0825 -0.0482  0.3356
 9466SOL    HW139857   0.858   0.603   2.119 -0.4281 -1.7088  1.2794
 9466SOL    HW239858   0.921   0.476   2.086  0.4276 -0.2890  3.1519
 9467SOL     OW39859   3.031   3.688   9.493  0.3312  0.5714 -0.4603
 9467SOL    HW139860   2.993   3.623   9.552  1.7919 -1.0413 -1.3196
 9467SOL    HW239861   3.095   3.646   9.436 -0.5334 -0.9050 -0.3610
 9468SOL     OW39862   2.716   2.000   9.260  0.3589  0.0765  0.3448
 9468SOL    HW139863   2.666   2.071   9.219 -0.0446 -0.3048  0.1757
 9468SOL    HW239864   2.748   1.955   9.183 -2.2711 -0.8594 -0.1951
 9469SOL     OW39865   2.623   1.131   4.503  0.3169  0.2139  0.2966
 9469SOL    HW139866   2.658   1.175   4.426 -0.2342  0.8128  0.3857
 9469SOL    HW239867   2.530   1.124   4.479 -0.4371  0.0148  3.2917
 9470SOL     OW39868   2.849   4.050   1.587 -0.6442 -0.2696 -0.2754
 9470SOL    HW139869   2.826   4.099   1.508  1.2374 -0.1252 -0.7384
 9470SOL    HW239870   2.935   4.087   1.605 -1.3373  1.7299 -1.0745
 9471SOL     OW39871   3.872   1.402  12.035  0.1322  0.0432 -0.2743
 9471SOL    HW139872   3.807   1.347  11.991 -0.9331  0.9165  0.2147
 9471SOL    HW239873   3.895   1.338  12.103  1.9380  0.1800 -0.7599
 9472SOL     OW39874   4.628   2.408   7.509  0.2594  0.5283  0.1198
 9472SOL    HW139875   4.662   2.350   7.441  0.1702  1.4558 -0.7068
 9472SOL    HW239876   4.706   2.458   7.534  1.4486 -2.1746  1.8422
 9473SOL     OW39877   0.499   0.692   8.075  0.0771  0.3423 -0.1852
 9473SOL    HW139878   0.482   0.611   8.025 -2.3257  1.4614 -1.1817
 9473SOL    HW239879   0.457   0.766   8.031  0.6350  2.5325  2.9793
 9474SOL     OW39880   0.379   2.297   5.792 -0.3812  0.1711  0.3094
 9474SOL    HW139881   0.424   2.360   5.848 -0.3204  1.3696 -1.0889
 9474SOL    HW239882   0.301   2.345   5.763 -1.4848 -1.5300  0.4037
 9475SOL     OW39883   0.880   3.363   3.674 -0.1642 -0.3326 -0.0697
 9475SOL    HW139884   0.953   3.425   3.674  1.1972 -1.9178  1.1502
 9475SOL    HW239885   0.922   3.285   3.638 -0.2872  0.4835 -1.9666
 9476SOL     OW39886   0.040   4.143   8.093 -0.0359  0.4216  0.3322
 9476SOL    HW139887   0.015   4.186   8.012  1.2105  0.8207  0.1597
 9476SOL    HW239888   0.077   4.059   8.064  0.8734  1.3512 -1.1566
 9477SOL     OW39889   4.657   4.681   9.386 -0.7445  0.2261  0.3773
 9477SOL    HW139890   4.650   0.049   9.410 -1.9738  0.5022 -1.0394
 9477SOL    HW239891   0.003   4.661   9.447 -0.0439  0.1339 -0.4609
 9478SOL     OW39892   3.746   0.093   5.541 -0.1792  0.4690 -0.4186
 9478SOL    HW139893   3.721   0.182   5.565 -2.3292 -0.5469  1.1913
 9478SOL    HW239894   3.826   0.101   5.490  0.8599  0.1108  1.1664
 9479SOL     OW39895   3.046   1.007  11.390 -0.0240  0.0679  0.5724
 9479SOL    HW139896   3.054   1.008  11.295  0.0987  1.0911  0.6011
 9479SOL    HW239897   3.120   1.064  11.408  0.9581 -1.3459  1.0450
 9480SOL     OW39898   0.916   4.238   5.707 -0.0788 -0.5536  0.5621
 9480SOL    HW139899   0.923   4.149   5.672  0.2846 -0.4127  0.2634
 9480SOL    HW239900   0.924   4.222   5.801  1.9739 -1.2271  0.2821
 9481SOL     OW39901   0.750   0.198  12.731  0.1969 -0.5020  0.1892
 9481SOL    HW139902   0.806   0.269  12.700  0.2863 -0.4787  0.4021
 9481SOL    HW239903   0.682   0.219  12.668 -0.2652  1.5872  1.4062
 9482SOL     OW39904   3.291   3.857   3.397  0.4779  0.0297  0.3902
 9482SOL    HW139905   3.214   3.843   3.452 -1.3185 -0.7899 -2.3065
 9482SOL    HW239906   3.331   3.770   3.400  1.9347  0.6980  0.1011
 9483SOL     OW39907   2.647   2.869   1.687 -0.4008  0.0185 -0.8169
 9483SOL    HW139908   2.699   2.946   1.663  1.5331 -1.1016 -0.2645
 9483SOL    HW239909   2.586   2.870   1.613 -1.1391  0.2207 -0.2116
 9484SOL     OW39910   0.123   0.160   4.074 -0.1216 -0.4510 -0.8594
 9484SOL    HW139911   0.080   0.194   4.152 -0.6672  1.7381 -2.1447
 9484SOL    HW239912   0.058   0.114   4.021 -3.7957  0.7700  2.6468
 9485SOL     OW39913   0.429   1.045   6.425  0.0329  0.5100 -0.4048
 9485SOL    HW139914   0.503   1.088   6.469 -0.9253  0.3806  1.3073
 9485SOL    HW239915   0.354   1.100   6.447  0.7608  1.2624  0.2196
 9486SOL     OW39916   1.205   3.226   7.006 -0.2075 -0.0093 -0.1721
 9486SOL    HW139917   1.279   3.217   7.065  0.4918  0.1299 -1.0238
 9486SOL    HW239918   1.250   3.272   6.935 -1.1689  0.6341 -0.3711
 9487SOL     OW39919   1.260   3.864   2.037  0.4154  0.5852  0.1116
 9487SOL    HW139920   1.229   3.774   2.041  0.3656  0.6034  0.1335
 9487SOL    HW239921   1.254   3.886   2.130 -2.7152 -0.1761  0.0814
 9488SOL     OW39922   4.039   2.201   8.869 -0.2372 -0.9678  0.4084
 9488SOL    HW139923   4.036   2.121   8.816 -1.6093 -1.4513  1.1972
 9488SOL    HW239924   4.085   2.255   8.805  0.0572 -0.7788  0.7860
 9489SOL     OW39925   1.399   4.707   7.160  0.1249  0.1272  0.5332
 9489SOL    HW139926   1.439   0.013   7.078  0.7314  2.6322  1.7465
 9489SOL    HW239927   1.339   0.053   7.184  1.2256  0.9165  0.9730
 9490SOL     OW39928   1.677   2.266   9.170  0.3424  0.8018 -0.2244
 9490SOL    HW139929   1.760   2.221   9.187 -0.8084 -0.1100  3.0413
 9490SOL    HW239930   1.706   2.356   9.183  0.5128  1.0335 -2.3012
 9491SOL     OW39931   2.496   4.363   1.725 -0.1423  0.2418 -0.1596
 9491SOL    HW139932   2.423   4.319   1.770 -1.8802 -2.3317 -5.4537
 9491SOL    HW239933   2.480   4.450   1.762 -0.9700 -0.0820  0.2654
 9492SOL     OW39934   0.165   3.928   8.824 -0.1555 -0.2997 -0.0505
 9492SOL    HW139935   0.164   3.836   8.851  1.6074  0.6794  3.3358
 9492SOL    HW239936   0.149   3.928   8.729 -0.5749 -1.0517  0.0201
 9493SOL     OW39937   3.366   0.330   3.340 -0.4332  0.1026 -0.6665
 9493SOL    HW139938   3.419   0.293   3.270 -0.1914 -1.2129  0.2247
 9493SOL    HW239939   3.430   0.394   3.373  1.1954 -1.6312 -0.4779
 9494SOL     OW39940   2.531   3.393   3.546  0.1025  0.2911 -0.0817
 9494SOL    HW139941   2.472   3.461   3.578 -0.2219 -0.8271  1.6793
 9494SOL    HW239942   2.605   3.392   3.607  2.0721  1.0332 -2.4290
 9495SOL     OW39943   2.281   4.529   7.769 -0.2955 -0.7166 -0.1773
 9495SOL    HW139944   2.352   4.589   7.791  0.4062 -1.4400 -0.4197
 9495SOL    HW239945   2.225   4.533   7.846 -0.2507 -0.9886 -0.1315
 9496SOL     OW39946   4.682   3.182  12.007  0.1629 -0.2501 -0.3406
 9496SOL    HW139947   0.023   3.123  12.045  1.1190  0.3789 -0.9888
 9496SOL    HW239948   4.596   3.141  12.015  1.0119 -1.4594  2.4235
 9497SOL     OW39949   0.604   4.147   3.129  0.2621  0.5551  0.3304
 9497SOL    HW139950   0.554   4.200   3.066 -1.3087 -1.6881 -0.2987
 9497SOL    HW239951   0.693   4.177   3.111  0.1338  0.6524 -0.1366
 9498SOL     OW39952   3.810   2.380   8.715  0.6272  0.2941 -0.4804
 9498SOL    HW139953   3.778   2.299   8.753 -0.7581  1.5020  0.9151
 9498SOL    HW239954   3.837   2.433   8.790  1.3107 -0.1818 -0.3929
 9499SOL     OW39955   4.180   2.928   5.486  0.2116  0.3415 -0.5252
 9499SOL    HW139956   4.215   2.949   5.573  1.7003  0.1078 -1.0727
 9499SOL    HW239957   4.109   2.866   5.503  0.5685 -0.2111 -1.1018
 9500SOL     OW39958   4.270   2.225   5.367  0.1279 -0.4132  0.3684
 9500SOL    HW139959   4.359   2.241   5.335 -1.3889  0.0279 -3.6875
 9500SOL    HW239960   4.251   2.300   5.424 -1.4832  0.2992 -1.0948
 9501SOL     OW39961   1.226   3.386   4.183  0.3672 -0.3317 -0.1418
 9501SOL    HW139962   1.173   3.326   4.235 -0.7578 -0.0936 -1.0089
 9501SOL    HW239963   1.186   3.379   4.096 -1.8607 -3.5545  1.1473
 9502SOL     OW39964   3.238   2.049   4.298 -0.1845  0.7936 -0.0226
 9502SOL    HW139965   3.298   1.976   4.283 -1.3428 -0.6085  2.1251
 9502SOL    HW239966   3.183   2.015   4.369  0.9008  2.3382  1.5586
 9503SOL     OW39967   2.996   0.663   9.311 -0.0851  0.9551  0.1388
 9503SOL    HW139968   3.038   0.626   9.389 -1.6765 -2.1608 -0.4562
 9503SOL    HW239969   3.058   0.735   9.301  2.2157 -1.0457 -0.3230
 9504SOL     OW39970   2.776   2.480   6.884  0.0355  0.1981 -0.0034
 9504SOL    HW139971   2.711   2.416   6.914  0.7446 -0.2919  0.4659
 9504SOL    HW239972   2.729   2.507   6.804  0.1937 -3.8749 -1.5038
 9505SOL     OW39973   4.222   2.190   3.501  0.0057 -0.2852  0.2344
 9505SOL    HW139974   4.172   2.260   3.545  2.6311  1.6236  0.1723
 9505SOL    HW239975   4.158   2.152   3.441  1.5337 -2.2542 -0.1457
 9506SOL     OW39976   2.605   3.292   7.520 -0.3618  0.7670 -0.2856
 9506SOL    HW139977   2.638   3.347   7.592  1.5972 -0.2957 -0.3845
 9506SOL    HW239978   2.514   3.302   7.548 -0.1872  0.4184  0.3994
 9507SOL     OW39979   4.584   4.303   5.254 -0.1412  0.4106 -0.0870
 9507SOL    HW139980   4.508   4.346   5.293 -0.0602 -0.8828  1.4903
 9507SOL    HW239981   4.590   4.227   5.312  1.6911 -0.0187 -0.8405
 9508SOL     OW39982   4.057   3.489  11.945 -0.1066  0.4977 -0.1923
 9508SOL    HW139983   4.079   3.423  11.879 -1.8463 -1.3485  1.0577
 9508SOL    HW239984   4.048   3.573  11.900 -1.4777  0.2196 -0.4310
 9509SOL     OW39985   1.193   1.635   5.785  0.1551  0.0209  0.0500
 9509SOL    HW139986   1.264   1.584   5.824  1.1089 -0.2107 -1.9549
 9509SOL    HW239987   1.185   1.713   5.840  0.2930 -0.2391  0.4388
 9510SOL     OW39988   2.215   3.746  10.278  0.3116 -0.8430  0.1152
 9510SOL    HW139989   2.165   3.731  10.359 -0.9513  1.7383 -0.1744
 9510SOL    HW239990   2.263   3.823  10.309 -1.2855  0.2899 -0.2491
 9511SOL     OW39991   2.694   4.616   3.532 -0.2125  0.5649 -0.5889
 9511SOL    HW139992   2.647   4.593   3.451 -1.6606  2.0218 -0.1675
 9511SOL    HW239993   2.774   4.645   3.489  1.5326  0.0118  2.3173
 9512SOL     OW39994   2.901   2.626  14.613 -0.1935 -0.3168 -0.1541
 9512SOL    HW139995   2.921   2.718  14.596 -0.9574 -0.2495 -0.6823
 9512SOL    HW239996   2.930   2.575  14.537  0.5288 -1.8220  1.1449
 9513SOL     OW39997   4.183   3.658   7.942 -0.2405 -0.7184 -0.6151
 9513SOL    HW139998   4.254   3.612   7.897 -0.8781 -0.6235 -1.6868
 9513SOL    HW239999   4.181   3.750   7.917 -1.3639 -0.1273  1.6719
 9514SOL     OW40000   0.695   2.109   2.243  0.7164 -0.2788  0.9733
 9514SOL    HW140001   0.679   2.179   2.179 -1.7879 -0.1085  1.7989
 9514SOL    HW240002   0.790   2.123   2.252  0.6910  0.7385 -0.3244
 9515SOL     OW40003   1.900   3.031   2.004  0.0415 -0.3207 -0.2050
 9515SOL    HW140004   1.944   2.949   2.025 -0.5634 -1.0072 -1.6831
 9515SOL    HW240005   1.816   3.008   1.965 -0.6386  0.6354  0.6972
 9516SOL     OW40006   0.267   0.326   8.268 -0.3525  0.4563 -0.3960
 9516SOL    HW140007   0.220   0.297   8.346  0.2225 -2.8599 -1.2894
 9516SOL    HW240008   0.351   0.353   8.304 -0.6597 -0.0504  0.6910
 9517SOL     OW40009   1.866   3.214   0.505 -0.1267 -0.4276  0.3619
 9517SOL    HW140010   1.843   3.280   0.439  2.2043  2.1628  2.1416
 9517SOL    HW240011   1.792   3.220   0.565  0.8305  1.1461  1.3733
 9518SOL     OW40012   0.543   0.269   4.762 -0.0584 -0.5597 -0.1161
 9518SOL    HW140013   0.584   0.241   4.680  0.1785 -1.7583  0.4119
 9518SOL    HW240014   0.546   0.365   4.760 -0.7500 -0.4826  2.8622
 9519SOL     OW40015   4.428   1.180   5.693  0.1921 -0.0354 -0.5496
 9519SOL    HW140016   4.417   1.085   5.686 -1.4330  0.0072  1.2615
 9519SOL    HW240017   4.493   1.168   5.762  1.3791  0.4616 -1.6022
 9520SOL     OW40018   4.713   3.449   4.486  0.0065  0.2871  0.2400
 9520SOL    HW140019   4.659   3.454   4.565 -2.4717 -0.8795 -1.3889
 9520SOL    HW240020   0.024   3.538   4.487  1.9364 -0.4795 -0.2437
 9521SOL     OW40021   3.707   0.588  13.689 -0.1100  0.6154  0.6087
 9521SOL    HW140022   3.654   0.553  13.760  0.0768  0.3303  0.6041
 9521SOL    HW240023   3.797   0.556  13.697  0.9541  3.0628 -1.2849
 9522SOL     OW40024   2.042   3.001   4.042 -0.0493  0.4171 -0.1116
 9522SOL    HW140025   1.962   3.050   4.020  1.1246  3.0357  1.5090
 9522SOL    HW240026   2.072   3.052   4.117 -1.6935  1.1819  0.0318
 9523SOL     OW40027   0.700   1.161   7.185  0.5482 -0.5718  0.6734
 9523SOL    HW140028   0.680   1.079   7.230  0.7613 -1.1975 -0.3709
 9523SOL    HW240029   0.754   1.206   7.250 -1.4712  1.3606  1.0270
 9524SOL     OW40030   1.250   3.279  16.293  0.0501  0.4096  1.0277
 9524SOL    HW140031   1.302   3.229  16.355  2.8129  0.9767 -0.8383
 9524SOL    HW240032   1.296   3.261  16.211  0.0166  1.7037  0.7224
 9525SOL     OW40033   4.447   3.329   4.154 -0.2617 -0.7211  0.0062
 9525SOL    HW140034   4.390   3.401   4.180  0.5891 -0.5311  1.3707
 9525SOL    HW240035   4.448   3.360   4.064 -1.3066  0.5294  0.4302
 9526SOL     OW40036   0.479   1.639   4.626  0.2039 -0.1368  0.5401
 9526SOL    HW140037   0.479   1.565   4.687  1.2735 -0.3474  0.2923
 9526SOL    HW240038   0.399   1.624   4.576  1.2253 -0.1273 -1.1179
 9527SOL     OW40039   2.486   0.587   4.898 -0.1771  0.2492 -0.2528
 9527SOL    HW140040   2.410   0.581   4.840 -1.4576 -2.5157  1.7195
 9527SOL    HW240041   2.524   0.663   4.854 -1.0296  1.5869  1.3491
 9528SOL     OW40042   2.459   1.825  10.770  0.1565  0.1705 -0.1351
 9528SOL    HW140043   2.463   1.733  10.793 -2.1931 -0.3307 -1.7215
 9528SOL    HW240044   2.504   1.825  10.685 -1.5743  0.9327 -1.0488
 9529SOL     OW40045   1.463   0.457  11.429 -0.0816 -0.7261 -0.1288
 9529SOL    HW140046   1.547   0.431  11.389 -0.0028  0.3435 -0.6647
 9529SOL    HW240047   1.500   0.507  11.502  0.1987  0.4521 -1.0719
 9530SOL     OW40048   0.892   4.453   6.544  0.1115  0.6601 -0.6482
 9530SOL    HW140049   0.921   4.499   6.622  2.0000  1.3644 -1.7578
 9530SOL    HW240050   0.966   4.392   6.538 -0.9139 -0.6579  0.1581
 9531SOL     OW40051   1.512   4.105  14.414 -0.0106 -0.3165  0.0573
 9531SOL    HW140052   1.430   4.070  14.378 -0.3499  1.1848 -0.6364
 9531SOL    HW240053   1.548   4.143  14.334  1.4377 -2.8176 -0.4964
 9532SOL     OW40054   0.294   0.790   7.245  0.1487  0.4398  0.2781
 9532SOL    HW140055   0.324   0.700   7.229  0.1878  0.8496 -2.0381
 9532SOL    HW240056   0.317   0.840   7.166 -1.5852 -0.4827 -0.7982
 9533SOL     OW40057   1.195   2.461   7.430  0.9290 -0.8276  0.2100
 9533SOL    HW140058   1.226   2.421   7.512 -0.9211  1.5584  2.0702
 9533SOL    HW240059   1.201   2.553   7.455  0.7238 -0.5348 -0.8435
 9534SOL     OW40060   2.011   1.381  10.782 -0.3264  0.4893  0.0366
 9534SOL    HW140061   2.102   1.388  10.754 -0.1665 -0.9948  0.1821
 9534SOL    HW240062   2.006   1.290  10.812 -1.2223  0.3604 -0.5160
 9535SOL     OW40063   1.332   4.390  12.755  0.6111  0.3143 -0.1467
 9535SOL    HW140064   1.242   4.420  12.769  0.9787  1.4244 -0.0858
 9535SOL    HW240065   1.321   4.319  12.692  0.1151  1.2302 -1.0927
 9536SOL     OW40066   0.066   4.396  17.079 -0.3660  0.2290  0.4511
 9536SOL    HW140067   0.097   4.470  17.132  1.5867 -0.0815 -0.2683
 9536SOL    HW240068   0.023   4.444  17.008 -1.7150 -1.3756  0.1966
 9537SOL     OW40069   0.149   1.050   7.043  0.1356  0.2683  0.2604
 9537SOL    HW140070   0.203   1.117   7.085  0.6216  0.3663 -0.5156
 9537SOL    HW240071   0.076   1.043   7.104  0.1461  3.9002  0.6697
 9538SOL     OW40072   3.894   4.473   1.910  0.4734 -0.0257 -0.4637
 9538SOL    HW140073   3.972   4.418   1.901  1.3823  1.3376 -0.7528
 9538SOL    HW240074   3.864   4.464   1.819  1.8006 -2.4351 -0.6641
 9539SOL     OW40075   1.096   3.375   4.486 -0.0639 -0.6730  0.1923
 9539SOL    HW140076   1.159   3.445   4.506  0.5950 -0.8325 -1.3076
 9539SOL    HW240077   1.059   3.358   4.572 -1.0110  0.6037  0.0412
 9540SOL     OW40078   4.203   1.811   1.102 -0.1587 -0.3414 -0.0019
 9540SOL    HW140079   4.162   1.876   1.044  0.5734  0.5936  0.5332
 9540SOL    HW240080   4.228   1.748   1.034  2.4656  1.0077 -0.3049
 9541SOL     OW40081   2.677   1.402   2.326  0.0450  0.2148  0.1649
 9541SOL    HW140082   2.682   1.398   2.231 -0.4632  0.0019  0.1462
 9541SOL    HW240083   2.587   1.376   2.349  0.1503 -0.7461 -0.5047
 9542SOL     OW40084   2.137   2.824   9.160 -0.0970 -0.3249 -0.0618
 9542SOL    HW140085   2.094   2.739   9.153  0.3231 -0.4901 -0.6475
 9542SOL    HW240086   2.147   2.836   9.254 -0.0323  0.9966 -0.2353
 9543SOL     OW40087   3.689   3.699   1.018  0.1667 -0.8068  0.1267
 9543SOL    HW140088   3.694   3.646   0.937  0.4498 -1.0166  0.2798
 9543SOL    HW240089   3.648   3.778   0.983  0.7415 -1.0497 -1.1209
 9544SOL     OW40090   3.336   0.111  16.794  0.3174 -0.0985  0.8535
 9544SOL    HW140091   3.276   0.126  16.867  0.3980  1.1727  0.6565
 9544SOL    HW240092   3.309   0.181  16.736  2.1458  1.1236  1.4631
 9545SOL     OW40093   1.265   2.575   5.443  0.3419 -0.0754 -0.5752
 9545SOL    HW140094   1.304   2.607   5.524  0.1626  0.7110 -0.7903
 9545SOL    HW240095   1.210   2.503   5.475 -0.5025  0.7726 -0.1068
 9546SOL     OW40096   2.740   2.625   5.701 -0.5679 -0.4855  0.1365
 9546SOL    HW140097   2.748   2.592   5.791  1.0935 -0.8918 -0.1556
 9546SOL    HW240098   2.794   2.556   5.663  2.5109  1.4777  0.9198
 9547SOL     OW40099   2.460   2.113   5.865  0.1881 -0.0985  0.1355
 9547SOL    HW140100   2.436   2.055   5.792  0.1353 -0.8912  0.7941
 9547SOL    HW240101   2.412   2.192   5.841 -2.0724 -2.3585 -2.9035
 9548SOL     OW40102   4.523   3.747   7.438  0.2752 -0.3768  0.1086
 9548SOL    HW140103   4.552   3.680   7.500  0.7618  1.2167  1.6424
 9548SOL    HW240104   4.544   3.701   7.358  1.1530 -0.0650  0.1590
 9549SOL     OW40105   2.620   3.544   6.032  0.5481 -0.1161 -0.2318
 9549SOL    HW140106   2.620   3.497   5.949  0.9544  1.0136 -0.8731
 9549SOL    HW240107   2.538   3.592   6.016  0.0702 -0.2136  1.8189
 9550SOL     OW40108   4.014   2.450   8.243  0.4264  0.1997  0.0518
 9550SOL    HW140109   3.979   2.491   8.322  0.6974  0.8001 -0.1442
 9550SOL    HW240110   3.982   2.522   8.188 -1.0876 -0.3605  0.1792
 9551SOL     OW40111   4.211   3.388  13.148  0.4160  0.1258 -0.5908
 9551SOL    HW140112   4.118   3.378  13.128  0.5721 -3.7104  0.7104
 9551SOL    HW240113   4.267   3.319  13.113  0.5306  0.7326 -1.5962
 9552SOL     OW40114   1.397   4.604   8.719 -0.6341  0.2364  0.4407
 9552SOL    HW140115   1.371   4.598   8.627  0.8606  0.1147  0.0282
 9552SOL    HW240116   1.347   4.683   8.740  1.0848  1.5337 -0.3671
 9553SOL     OW40117   2.589   3.870   0.531 -0.2959  0.0362  0.0696
 9553SOL    HW140118   2.656   3.938   0.538  1.1262 -1.3174 -0.3555
 9553SOL    HW240119   2.618   3.800   0.589 -2.5065 -1.2250 -0.3404
 9554SOL     OW40120   0.276   2.715   5.595  0.2826 -0.8151 -0.3042
 9554SOL    HW140121   0.213   2.678   5.533 -0.5867 -0.3714  0.3352
 9554SOL    HW240122   0.293   2.794   5.544  1.5293 -0.0744  1.2402
 9555SOL     OW40123   3.615   0.296  17.147 -0.2080  0.3671  0.4113
 9555SOL    HW140124   3.593   0.355  17.074 -1.5866 -2.2591 -1.2826
 9555SOL    HW240125   3.607   0.213  17.101  2.0376  0.4082 -0.0559
 9556SOL     OW40126   1.228   4.065   6.509  0.1657  0.7750  0.5582
 9556SOL    HW140127   1.251   4.063   6.416 -1.0369  0.0930  0.2810
 9556SOL    HW240128   1.209   3.973   6.528  0.8180  0.2297 -1.5362
 9557SOL     OW40129   1.257   3.509   8.514  0.0746 -0.4028 -0.0067
 9557SOL    HW140130   1.269   3.419   8.542  3.5237  0.0058 -0.2290
 9557SOL    HW240131   1.191   3.543   8.575 -0.4867  1.1808 -1.4818
 9558SOL     OW40132   4.167   0.991   6.711  0.1570 -0.0331  0.8533
 9558SOL    HW140133   4.168   0.980   6.806  0.1938  0.3990  0.9047
 9558SOL    HW240134   4.261   1.007   6.699  0.0164  0.8182  0.8946
 9559SOL     OW40135   1.077   3.465   3.459 -0.1253  0.2148 -0.1457
 9559SOL    HW140136   1.107   3.382   3.421 -0.5601 -0.5229  1.1016
 9559SOL    HW240137   1.151   3.476   3.519 -0.8436  0.4449  0.6955
 9560SOL     OW40138   3.265   4.129  13.607  0.2598  0.1492  0.0808
 9560SOL    HW140139   3.188   4.170  13.648 -1.4152 -0.8108 -2.1560
 9560SOL    HW240140   3.234   4.097  13.523 -0.8323 -0.4015  0.6928
 9561SOL     OW40141   3.719   2.794   4.471 -0.2688  0.1924 -0.3180
 9561SOL    HW140142   3.716   2.752   4.385  0.0720  0.9791 -0.7103
 9561SOL    HW240143   3.671   2.732   4.526  1.4434  0.1824  1.1810
 9562SOL     OW40144   4.724   2.903   4.745  0.1070  0.2315  0.0477
 9562SOL    HW140145   0.006   2.989   4.703  0.6289 -0.3905 -1.1448
 9562SOL    HW240146   4.697   2.925   4.835 -0.2819 -0.1215  0.0155
 9563SOL     OW40147   2.881   3.174   2.630 -0.0955 -0.2255 -0.2001
 9563SOL    HW140148   2.934   3.236   2.680 -1.5586  0.6873  0.2220
 9563SOL    HW240149   2.925   3.088   2.632 -1.3393 -0.8626 -0.3918
 9564SOL     OW40150   2.566   1.124   2.669 -0.5503  0.1757  0.5520
 9564SOL    HW140151   2.641   1.069   2.648 -1.0407 -0.4495  0.4093
 9564SOL    HW240152   2.512   1.045   2.675 -0.9919  0.3663 -0.7796
 9565SOL     OW40153   2.067   4.262   1.210 -0.0390 -0.3566 -0.1424
 9565SOL    HW140154   1.984   4.233   1.248 -0.4222  0.4324 -0.3902
 9565SOL    HW240155   2.101   4.313   1.284 -2.0196  0.8017 -0.0479
   4.72432   4.72432  17.69888
