Membrane in water
40155
    1TCq1    O1    1   3.087   0.162  10.819 -0.3729  0.3450 -0.2664
    1TCq1    C1    2   3.005   0.187  10.716  0.0008  0.1343  0.2792
    1TCq1    O2    3   3.031   0.210  10.599  0.7367  0.0017 -0.7326
    1TCq1    C2    4   2.867   0.206  10.768 -0.0521  0.3582  1.0128
    1TCq1    C3    5   2.786   0.290  10.693 -0.0131 -0.3315  0.8391
    1TCq1    C4    6   2.668   0.332  10.754 -0.6302 -0.0033  0.5134
    1TCq1    C5    7   2.620   0.282  10.874 -0.0842 -0.6925  0.3903
    1TCq1    C6    8   2.704   0.193  10.939 -0.0348  0.4549  0.4656
    1TCq1    C7    9   2.828   0.159  10.888  0.2918  0.1662  0.4202
    1TCq1    C8   10   2.665   0.148  11.070 -0.1007  0.1979 -0.1420
    1TCq1    O4   11   2.545   0.153  11.092  0.6880  0.2916  0.1052
    1TCq1    C9   12   2.589   0.431  10.679 -0.1816  0.5312  0.0845
    1TCq1    O5   13   2.482   0.471  10.723 -0.4044 -0.0711 -0.3493
    1TCq1    O6   14   2.641   0.488  10.583  1.1629  0.0669  0.1724
    1TCq1    H1   15   3.052   0.164  10.910 -0.2832  0.1129 -0.2269
    1TCq1    H2   16   2.820   0.333  10.600  1.4657 -2.2497  0.4994
    1TCq1    H3   17   2.529   0.318  10.920  0.4150 -1.3562  1.8771
    1TCq1    H4   18   2.888   0.084  10.937 -1.0104  0.1441  1.9493
    2MPD2     C   19   2.745   4.700  11.560 -0.6728  0.4119  0.1401
    2MPD2    C1   20   2.636   0.035  11.507 -0.0332  0.2799 -0.3488
    2MPD2    C2   21   2.638   0.070  11.371 -0.6946 -0.1284 -0.0932
    2MPD2    C3   22   2.757   0.060  11.289  0.2844 -0.0275 -0.1345
    2MPD2    C4   23   2.864   4.725  11.346  0.3473 -0.1600  0.0443
    2MPD2    C5   24   2.855   4.677  11.478 -0.1298 -0.4111 -0.7523
    2MPD2     H   25   2.550   0.119  11.331 -2.1960  0.1642  3.5880
    2MPD2    H1   26   2.963   4.716  11.303  0.0716 -0.7632 -0.4559
    2MPD2    H2   27   2.737   4.672  11.665  0.9313  0.1685  0.1992
    2MPD2    H3   28   2.942   4.629  11.520 -0.5574 -0.3159  0.2565
    2MPD2     N   29   2.772   0.113  11.154 -0.4627 -0.3791 -0.2418
    2MPD2    H5   30   2.866   0.108  11.115 -0.1933  1.8586  0.1544
    2MPD2    N1   31   2.516   0.061  11.581 -0.0160 -0.1342 -0.9050
    2MPD2    H7   32   2.439   0.076  11.517  0.2483  1.1322 -0.9218
    3TCq1    O1   33   1.485   0.582   9.670  0.1798  0.6125  0.1662
    3TCq1    C1   34   1.491   0.511   9.781  0.4206  0.1257  0.7762
    3TCq1    O2   35   1.441   0.399   9.800  0.2879  0.1340 -0.0978
    3TCq1    C2   36   1.546   0.589   9.888  0.3661 -0.4862 -0.6307
    3TCq1    C3   37   1.667   0.657   9.854  0.8704  0.4292  0.4260
    3TCq1    C4   38   1.720   0.743   9.954  1.1662  0.4600  1.1839
    3TCq1    C5   39   1.657   0.743  10.075  0.7918  0.1468 -0.5999
    3TCq1    C6   40   1.538   0.684  10.091  0.5089 -0.1764 -0.2764
    3TCq1    C7   41   1.473   0.601  10.003 -0.4684 -0.0077  0.5435
    3TCq1    C8   42   1.471   0.701  10.216 -0.3834  0.1225 -0.4533
    3TCq1    O4   43   1.366   0.637  10.236 -0.3413 -0.0298 -0.0091
    3TCq1    C9   44   1.828   0.832   9.925 -0.1585 -0.3491  0.8741
    3TCq1    O5   45   1.880   0.898  10.019 -0.5101 -0.1974 -0.1902
    3TCq1    O6   46   1.835   0.863   9.800 -0.6943  0.0020  0.3619
    3TCq1    H1   47   1.536   0.666   9.668  0.9160  0.2225  2.8250
    3TCq1    H2   48   1.720   0.638   9.762  0.7649 -0.6325  0.5848
    3TCq1    H3   49   1.702   0.816  10.142  0.0090  2.0981 -2.1766
    3TCq1    H4   50   1.377   0.552  10.017 -1.6294  2.3335  0.7650
    4MPD2     C   51   1.336   1.001  10.602 -0.7770 -0.2708 -0.0743
    4MPD2    C1   52   1.427   1.063  10.526 -0.5706  0.6015  0.6458
    4MPD2    C2   53   1.485   0.998  10.418 -0.4941 -0.2459 -0.6582
    4MPD2    C3   54   1.451   0.867  10.393  0.1401  0.0220 -0.0918
    4MPD2    C4   55   1.364   0.800  10.477  0.9591  0.7211  0.4380
    4MPD2    C5   56   1.304   0.872  10.574  0.1602  0.1966  0.1461
    4MPD2     H   57   1.563   1.047  10.362  1.9358 -1.4115  1.7075
    4MPD2    H1   58   1.328   0.700  10.455  2.7970  0.2970 -0.5971
    4MPD2    H2   59   1.276   1.042  10.682  0.3724 -0.3554  0.8350
    4MPD2    H3   60   1.238   0.827  10.647 -0.8633 -0.7227 -1.3534
    4MPD2     N   61   1.515   0.814  10.284  0.0401  0.3819 -0.5465
    4MPD2    H5   62   1.589   0.863  10.234  0.7981  0.5940  0.8002
    4MPD2    N1   63   1.464   1.198  10.542  0.0317 -0.1328  0.3556
    4MPD2    H7   64   1.536   1.236  10.482 -0.8608  2.4657  0.9316
    5TCq1    O1   65   2.306   2.639  11.850  0.4684  0.1819  0.3274
    5TCq1    C1   66   2.379   2.687  11.741 -0.1272  0.1447  0.2475
    5TCq1    O2   67   2.485   2.653  11.698  0.1752 -0.0187  0.2403
    5TCq1    C2   68   2.276   2.758  11.668  0.1890 -0.2274 -0.3560
    5TCq1    C3   69   2.192   2.836  11.733  0.7721  0.0225 -0.2565
    5TCq1    C4   70   2.086   2.890  11.662 -0.1978 -0.5305 -0.4359
    5TCq1    C5   71   2.073   2.863  11.527  0.1033  0.7311 -0.1234
    5TCq1    C6   72   2.160   2.772  11.463 -0.6114  0.0738  0.3966
    5TCq1    C7   73   2.272   2.735  11.530  0.7467  0.4962 -0.4079
    5TCq1    C8   74   2.180   2.778  11.318 -0.4646  0.2555  0.0467
    5TCq1    O4   75   2.296   2.754  11.278 -0.2940 -0.0889 -0.1366
    5TCq1    C9   76   1.980   2.957  11.730 -0.3883 -0.3025  0.3085
    5TCq1    O5   77   1.974   2.942  11.854  0.0139  0.4302  0.3971
    5TCq1    O6   78   1.881   2.965  11.657  0.4411 -0.7960 -0.3744
    5TCq1    H1   79   2.212   2.663  11.840  0.2958 -0.3046  0.8657
    5TCq1    H2   80   2.195   2.861  11.838 -0.7592  1.4327 -0.5654
    5TCq1    H3   81   1.983   2.890  11.473 -0.8972  1.6840  1.9907
    5TCq1    H4   82   2.344   2.671  11.481 -0.5157 -0.9546 -0.3775
    6MPD2     C   83   2.020   3.008  11.081 -0.5247  0.2511  0.1721
    6MPD2    C1   84   2.095   2.903  11.115 -0.4341 -0.4042  0.5586
    6MPD2    C2   85   2.184   2.845  11.020  0.4186  0.1959 -0.3150
    6MPD2    C3   86   2.193   2.902  10.892 -0.4265  0.4523  0.0478
    6MPD2    C4   87   2.117   3.009  10.860 -0.0866 -0.4769 -0.2192
    6MPD2    C5   88   2.029   3.066  10.952 -0.4424  0.1150  0.5484
    6MPD2     H   89   2.249   2.762  11.046 -0.5403 -0.1249  1.0424
    6MPD2    H1   90   2.136   3.063  10.768 -4.0168  0.4417 -0.5162
    6MPD2    H2   91   1.948   3.051  11.150  0.9637  0.8593  1.3304
    6MPD2    H3   92   1.966   3.143  10.909  2.7366  1.5645 -1.4711
    6MPD2     N   93   2.288   2.846  10.802  0.3807  0.6065 -0.5580
    6MPD2    H5   94   2.328   2.758  10.834  1.0552  0.4493 -1.8311
    6MPD2    N1   95   2.086   2.854  11.254  0.0849  0.2597  0.0881
    6MPD2    H7   96   2.008   2.882  11.311 -0.9545 -1.0924 -0.6806
    7TCq1    O1   97   4.387   1.504  11.863  0.6340 -0.5553 -0.2667
    7TCq1    C1   98   4.286   1.527  11.951 -1.0718  0.1308 -0.8415
    7TCq1    O2   99   4.174   1.574  11.931  0.4526 -0.4119 -0.1826
    7TCq1    C2  100   4.321   1.469  12.077 -0.2680 -0.2593 -0.0484
    7TCq1    C3  101   4.358   1.336  12.083  0.3392  0.0958 -0.2020
    7TCq1    C4  102   4.386   1.289  12.209 -0.1751 -0.1188 -0.1282
    7TCq1    C5  103   4.368   1.367  12.318 -0.3212 -0.4978 -0.1843
    7TCq1    C6  104   4.327   1.499  12.309 -0.9559 -0.7703  0.2568
    7TCq1    C7  105   4.312   1.554  12.188 -0.3275  0.1823  0.1524
    7TCq1    C8  106   4.317   1.583  12.429 -0.2173 -0.9235 -0.0845
    7TCq1    O4  107   4.323   1.515  12.533 -0.6672  0.2962 -0.5254
    7TCq1    C9  108   4.438   1.149  12.219  0.3807 -0.3047  0.9462
    7TCq1    O5  109   4.405   1.074  12.313  0.3705 -0.1879  0.2053
    7TCq1    O6  110   4.488   1.103  12.113 -0.0774  0.0632  0.0396
    7TCq1    H1  111   4.465   1.457  11.900  0.7400  0.0309  0.2520
    7TCq1    H2  112   4.350   1.268  12.000  0.3386  1.3269 -1.2021
    7TCq1    H3  113   4.391   1.313  12.409  0.8186  0.1567 -0.0850
    7TCq1    H4  114   4.298   1.660  12.169 -0.8600 -0.0487 -0.7733
    8MPD2     C  115   4.339   2.021  12.685  0.9072  0.2299  0.4198
    8MPD2    C1  116   4.374   1.895  12.723  0.4845  0.0630  0.4154
    8MPD2    C2  117   4.354   1.788  12.633  0.2384  0.2423 -0.3891
    8MPD2    C3  118   4.311   1.819  12.505 -0.4194  0.0466 -0.4365
    8MPD2    C4  119   4.281   1.945  12.468  0.0029 -0.4224  0.1752
    8MPD2    C5  120   4.282   2.046  12.565 -0.1470  0.5781  1.0181
    8MPD2     H  121   4.369   1.686  12.666 -0.9539 -0.0160 -0.6285
    8MPD2    H1  122   4.261   1.961  12.363 -2.3819 -1.7201  0.4364
    8MPD2    H2  123   4.337   2.104  12.754  0.5139  1.2274 -0.8014
    8MPD2    H3  124   4.247   2.144  12.532 -1.1782  0.0326  0.4704
    8MPD2     N  125   4.304   1.717  12.407 -0.6432 -0.3322 -0.2049
    8MPD2    H5  126   4.295   1.753  12.312 -1.5479 -0.5047 -0.1829
    8MPD2    N1  127   4.436   1.885  12.853  0.4121 -0.9170  0.6539
    8MPD2    H7  128   4.443   1.961  12.920 -0.4311  0.9969 -1.4283
    9TCq1    O1  129   1.771   1.041  10.214 -0.0247 -0.2595  0.0403
    9TCq1    C1  130   1.818   1.127  10.306 -0.2892  0.3298 -0.4411
    9TCq1    O2  131   1.760   1.156  10.410 -0.4986  0.1474  0.0210
    9TCq1    C2  132   1.955   1.165  10.266 -0.8355 -0.1032 -0.4867
    9TCq1    C3  133   1.977   1.192  10.135 -0.0108 -0.4209 -0.8093
    9TCq1    C4  134   2.098   1.250  10.105 -0.2689 -0.5537 -0.0684
    9TCq1    C5  135   2.184   1.288  10.200  0.2903 -0.4315 -0.1432
    9TCq1    C6  136   2.151   1.280  10.335 -0.3428  0.0146  0.0974
    9TCq1    C7  137   2.037   1.208  10.367  0.6583 -0.5112 -0.0937
    9TCq1    C8  138   2.251   1.316  10.438  0.3142 -0.5159  0.4458
    9TCq1    O4  139   2.360   1.355  10.395  0.4036  0.1596 -0.3228
    9TCq1    C9  140   2.131   1.281   9.966 -0.4808  0.6084 -0.6676
    9TCq1    O5  141   2.053   1.238   9.881  0.2311 -0.2563 -0.5294
    9TCq1    O6  142   2.243   1.321   9.940  0.2642 -0.3985 -0.9808
    9TCq1    H1  143   1.828   1.000  10.146  0.6685 -1.6283  1.4409
    9TCq1    H2  144   1.910   1.158  10.056 -1.0998  0.3664 -0.2203
    9TCq1    H3  145   2.261   1.359  10.170 -2.0260  2.0306 -0.2051
    9TCq1    H4  146   2.005   1.193  10.470 -0.8531 -0.7757 -0.6067
   10MPD2     C  147   2.414   1.325  10.677 -0.2856 -0.3613  0.6179
   10MPD2    C1  148   2.278   1.310  10.680 -0.4949 -0.1140  0.0806
   10MPD2    C2  149   2.218   1.283  10.806  0.3517 -0.4235  0.0826
   10MPD2    C3  150   2.297   1.259  10.924 -1.1583  0.5906 -0.5032
   10MPD2    C4  151   2.432   1.276  10.916 -0.6604  0.0153 -0.1767
   10MPD2    C5  152   2.487   1.320  10.797  0.0520  0.2027  0.0711
   10MPD2     H  153   2.110   1.285  10.813  0.4548 -1.8760  2.2295
   10MPD2    H1  154   2.489   1.256  11.005 -0.2444  0.4050 -0.3554
   10MPD2    H2  155   2.462   1.363  10.588 -0.1250 -2.4443 -0.1977
   10MPD2    H3  156   2.595   1.330  10.796 -0.0916  1.7988  0.9180
   10MPD2     N  157   2.248   1.215  11.051  0.0132 -0.3176 -0.5860
   10MPD2    H5  158   2.314   1.195  11.125  1.8034 -0.8772 -2.3470
   10MPD2    N1  159   2.204   1.306  10.565 -0.1226 -0.0373 -0.1910
   10MPD2    H7  160   2.105   1.284  10.577  0.4257 -2.0013  0.6137
   11TCq1    O1  161   3.730   1.256  14.516  0.6108 -0.0371 -0.6406
   11TCq1    C1  162   3.815   1.150  14.523  1.3118  0.2014 -0.0276
   11TCq1    O2  163   3.912   1.143  14.598 -0.1680  0.2401 -0.1592
   11TCq1    C2  164   3.742   1.031  14.504  0.0417  0.2333  0.9889
   11TCq1    C3  165   3.747   0.929  14.599  1.2981  0.3592 -0.3413
   11TCq1    C4  166   3.676   0.817  14.582  0.9462  0.4545 -0.0498
   11TCq1    C5  167   3.596   0.805  14.472  0.3684  0.1262  0.3781
   11TCq1    C6  168   3.594   0.900  14.374  0.4839  0.3293 -0.7484
   11TCq1    C7  169   3.672   1.011  14.389 -0.7280  0.8618 -0.4281
   11TCq1    C8  170   3.503   0.875  14.261 -0.0463 -0.2627 -0.7539
   11TCq1    O4  171   3.409   0.794  14.275  0.2982 -0.5375 -0.3739
   11TCq1    C9  172   3.676   0.721  14.686  0.7767 -0.5407  0.2689
   11TCq1    O5  173   3.651   0.604  14.659 -0.0947 -0.0596 -0.4342
   11TCq1    O6  174   3.728   0.758  14.796  0.2798 -0.7197 -0.0559
   11TCq1    H1  175   3.649   1.244  14.462  0.8804 -1.8535 -0.6342
   11TCq1    H2  176   3.813   0.937  14.684  1.2264  1.4594 -0.3889
   11TCq1    H3  177   3.541   0.713  14.458 -2.8843  2.4452 -2.2239
   11TCq1    H4  178   3.685   1.085  14.311 -1.6940  1.7262  0.2217
   12MPD2     C  179   3.459   1.081  13.956 -0.0269 -0.3072 -0.1322
   12MPD2    C1  180   3.447   0.972  14.044  0.1811 -0.4728  0.1511
   12MPD2    C2  181   3.348   0.878  14.006  0.3385 -0.3983 -0.0198
   12MPD2    C3  182   3.291   0.873  13.881  0.7977 -1.3607  0.1127
   12MPD2    C4  183   3.312   0.985  13.807 -0.0407  0.5374  0.6003
   12MPD2    C5  184   3.380   1.092  13.846  0.4789 -0.3278  0.5078
   12MPD2     H  185   3.326   0.804  14.082 -1.0583  0.2070  0.1715
   12MPD2    H1  186   3.261   0.987  13.712  1.1546 -4.1780 -0.1494
   12MPD2    H2  187   3.515   1.166  13.994 -1.4127  1.0343 -1.1098
   12MPD2    H3  188   3.373   1.188  13.796  0.0572 -0.1475  0.9077
   12MPD2     N  189   3.206   0.771  13.831  0.2337 -1.2844  0.7594
   12MPD2    H5  190   3.155   0.781  13.744  2.7858 -1.1628 -0.7095
   12MPD2    N1  191   3.528   0.963  14.158 -0.2771 -0.6293  0.1020
   12MPD2    H7  192   3.598   1.035  14.169 -1.0754  0.0010  1.0434
   13TCq1    O1  193   2.766   0.956  10.605  0.4212  0.4041 -0.3709
   13TCq1    C1  194   2.676   1.040  10.658 -0.0597 -0.1423  0.0456
   13TCq1    O2  195   2.660   1.074  10.774 -0.0732 -0.2537  0.1015
   13TCq1    C2  196   2.579   1.056  10.553 -0.3808 -0.6192 -0.3115
   13TCq1    C3  197   2.623   1.069  10.423  0.7238  0.4346 -0.5959
   13TCq1    C4  198   2.528   1.064  10.325  0.4363  0.2340 -0.4281
   13TCq1    C5  199   2.398   1.031  10.349  0.3709  0.1435  0.6886
   13TCq1    C6  200   2.367   0.998  10.477  0.3396  0.2554  0.1459
   13TCq1    C7  201   2.451   1.018  10.586 -0.2084 -0.3498 -0.3658
   13TCq1    C8  202   2.230   0.958  10.521  0.6592  0.1883 -0.2872
   13TCq1    O4  203   2.206   0.957  10.641 -0.5185 -0.4909 -0.0490
   13TCq1    C9  204   2.570   1.080  10.188  0.0068  0.4471 -0.2091
   13TCq1    O5  205   2.497   1.038  10.098 -0.1936 -0.3102 -0.2819
   13TCq1    O6  206   2.682   1.128  10.171 -0.2606  0.1974 -0.5900
   13TCq1    H1  207   2.739   0.921  10.517 -0.1760  0.8907 -0.3797
   13TCq1    H2  208   2.726   1.087  10.398  1.1082 -0.0443  0.6324
   13TCq1    H3  209   2.326   1.027  10.268 -1.1574 -1.1260  2.1223
   13TCq1    H4  210   2.433   0.963  10.677  0.4648  0.0244 -0.0124
   14MPD2     C  211   1.968   0.775  10.317  0.0062  0.3373 -0.0816
   14MPD2    C1  212   2.032   0.842  10.424 -0.2443  0.2136  0.3249
   14MPD2    C2  213   1.952   0.861  10.537 -0.7197 -0.1723 -0.6846
   14MPD2    C3  214   1.836   0.793  10.549 -0.0966 -0.2563 -0.1751
   14MPD2    C4  215   1.779   0.719  10.444 -0.5667 -0.6669 -0.0555
   14MPD2    C5  216   1.847   0.718  10.327  0.0295  0.0927  0.6414
   14MPD2     H  217   1.974   0.947  10.600  0.1739  0.6728 -2.1543
   14MPD2    H1  218   1.678   0.681  10.453  0.3559 -2.6182  1.9275
   14MPD2    H2  219   2.004   0.773  10.215  1.9563 -1.2156  0.6418
   14MPD2    H3  220   1.806   0.659  10.247  1.6049 -0.3245  0.1404
   14MPD2     N  221   1.754   0.827  10.657 -0.1542  0.0991 -0.2158
   14MPD2    H5  222   1.794   0.893  10.723  0.8734  0.1108 -0.8478
   14MPD2    N1  223   2.156   0.901  10.411 -0.4402  0.1174  0.2148
   14MPD2    H7  224   2.196   0.893  10.318 -3.6488  2.1147 -1.3589
   15TCq1    O1  225   3.832   0.404   1.682  0.3373 -0.5626  0.5030
   15TCq1    C1  226   3.875   0.303   1.602 -0.5709 -0.2184  0.4408
   15TCq1    O2  227   3.831   0.296   1.488 -0.3615 -0.5319 -0.1532
   15TCq1    C2  228   4.004   0.253   1.644  0.3286  0.0045 -0.0425
   15TCq1    C3  229   4.087   0.335   1.725  0.4310  0.1867  0.7846
   15TCq1    C4  230   4.209   0.284   1.768 -0.1309  0.4438  0.5851
   15TCq1    C5  231   4.240   0.159   1.739  0.2266 -0.2555  0.0661
   15TCq1    C6  232   4.166   0.082   1.652 -0.2313 -0.3928  0.0855
   15TCq1    C7  233   4.047   0.133   1.606  0.8293 -0.4963  0.3113
   15TCq1    C8  234   4.232   4.699   1.587 -0.6605 -0.0083  0.0702
   15TCq1    O4  235   4.337   4.660   1.641  0.0750  0.0801 -0.0453
   15TCq1    C9  236   4.283   0.351   1.858  0.0766 -0.2409 -0.1498
   15TCq1    O5  237   4.243   0.464   1.902 -0.3359  0.1133 -0.1354
   15TCq1    O6  238   4.365   0.281   1.924 -0.0370 -0.3882  0.3590
   15TCq1    H1  239   3.853   0.399   1.777 -0.0572  1.7547  0.6970
   15TCq1    H2  240   4.064   0.438   1.750 -1.6595 -0.2713  0.8058
   15TCq1    H3  241   4.336   0.113   1.761  0.7507  1.5484  1.5714
   15TCq1    H4  242   3.974   0.084   1.543  0.6285 -0.6370  0.6557
   16MPD2     C  243   4.144   4.490   1.287  0.0842  0.7745 -0.2284
   16MPD2    C1  244   4.221   4.553   1.383  0.5778  0.5388 -0.3265
   16MPD2    C2  245   4.356   4.528   1.380  1.2695  0.5464 -0.3569
   16MPD2    C3  246   4.411   4.435   1.300  0.2482 -0.3483 -0.7994
   16MPD2    C4  247   4.334   4.372   1.205  0.4791  0.0578  0.1381
   16MPD2    C5  248   4.200   4.406   1.200 -0.2713  0.8608  0.2530
   16MPD2     H  249   4.422   4.570   1.455  1.8810  1.1045 -1.2052
   16MPD2    H1  250   4.372   4.308   1.127  1.0461 -1.3931  1.6090
   16MPD2    H2  251   4.036   4.501   1.288  0.0637  0.5054  0.5895
   16MPD2    H3  252   4.142   4.357   1.123 -0.2777  1.3259 -0.0401
   16MPD2     N  253   4.553   4.410   1.315 -0.2701  0.0720 -0.7548
   16MPD2    H5  254   4.591   4.480   1.379 -2.1413  0.7266 -0.3579
   16MPD2    N1  255   4.167   4.654   1.472  0.0208 -0.0429 -0.1790
   16MPD2    H7  256   4.073   4.690   1.459  0.4873  1.1749 -0.2422
   17TCq1    O1  257   1.910   4.301  11.050 -0.1709  0.4351  0.1408
   17TCq1    C1  258   1.869   4.383  10.950 -0.4642 -0.7916 -0.2753
   17TCq1    O2  259   1.766   4.370  10.881  0.2647 -0.4494  0.4048
   17TCq1    C2  260   1.956   4.505  10.946 -0.3859  0.7615 -0.5432
   17TCq1    C3  261   1.914   4.629  10.905 -0.6132  0.1749  0.0539
   17TCq1    C4  262   2.002   4.719  10.852 -0.0693 -0.0909  0.1064
   17TCq1    C5  263   2.135   4.692  10.855 -0.8835 -0.2194 -0.0433
   17TCq1    C6  264   2.175   4.571  10.906  0.1856 -0.0743  0.3423
   17TCq1    C7  265   2.086   4.477  10.950  0.2243 -0.2486 -0.2230
   17TCq1    C8  266   2.319   4.544  10.906  0.2182 -0.7649  0.5030
   17TCq1    O4  267   2.349   4.464  10.993  0.5430  0.4469 -0.0193
   17TCq1    C9  268   1.950   0.124  10.812 -0.0676  0.4709  0.0158
   17TCq1    O5  269   1.828   0.153  10.830 -0.2991 -0.3371 -0.1488
   17TCq1    O6  270   2.032   0.210  10.778  0.2192  0.1344 -0.2482
   17TCq1    H1  271   1.970   4.346  11.113  1.1288  0.4656 -1.1349
   17TCq1    H2  272   1.809   4.656  10.903 -1.4134 -2.9100 -0.0585
   17TCq1    H3  273   2.210   0.041  10.832 -1.0576  0.0944  0.4184
   17TCq1    H4  274   2.125   4.377  10.966  1.6916  0.1172 -1.5908
   18MPD2     C  275   2.603   4.561  10.907 -0.0657 -0.1411  0.2689
   18MPD2    C1  276   2.536   4.591  10.793  0.1111 -0.9507  0.1632
   18MPD2    C2  277   2.601   4.627  10.679  0.2039 -0.3152  0.1295
   18MPD2    C3  278   2.737   4.615  10.671 -0.4356 -0.5249  0.3046
   18MPD2    C4  279   2.806   4.571  10.788 -0.4535  1.0011  0.4152
   18MPD2    C5  280   2.744   4.553  10.905  0.0448  0.6284 -0.1246
   18MPD2     H  281   2.533   4.652  10.598 -2.0890 -2.7707  1.2905
   18MPD2    H1  282   2.911   4.547  10.783 -0.0984  2.5829  0.4192
   18MPD2    H2  283   2.564   4.547  11.007 -0.4939 -0.2604  0.0873
   18MPD2    H3  284   2.802   4.545  10.997  1.5439  2.0781 -0.9534
   18MPD2     N  285   2.807   4.633  10.552 -0.6908  0.6028  0.3590
   18MPD2    H5  286   2.907   4.613  10.556 -0.8552 -0.4388 -0.7868
   18MPD2    N1  287   2.393   4.601  10.799 -0.4164  0.3045 -0.3565
   18MPD2    H7  288   2.339   4.633  10.720 -0.5201  2.7788  0.7390
   19TMC2    C1  289   3.770   0.540  13.530 -0.1516 -0.0396  0.7880
   19TMC2    C2  290   3.654   0.614  13.540  0.1903 -0.3574 -0.4184
   19TMC2    C3  291   3.551   0.557  13.614  0.3832  0.9880  0.2606
   19TMC2    C4  292   3.779   0.406  13.566  0.1192 -0.4171 -0.0312
   19TMC2    C5  293   3.681   0.361  13.649 -0.4023  0.7446  0.1248
   19TMC2    C6  294   3.567   0.439  13.673  0.1509  0.3658 -0.0128
   19TMC2     C  295   3.895   0.608  13.501  0.2154 -0.2913  0.1382
   19TMC2     O  296   3.885   0.724  13.458 -0.4606 -0.3222  0.0440
   19TMC2     H  297   3.649   0.712  13.493  2.6888 -0.1528 -0.2581
   19TMC2    H1  298   3.868   0.347  13.549  1.1067  1.3960 -1.2252
   19TMC2    H2  299   3.485   0.392  13.725 -0.5277  1.6865  0.1166
   19TMC2    C7  300   3.656   0.222  13.659  0.1555 -1.1723  0.0384
   19TMC2    C8  301   3.411   0.591  13.578 -0.2900  0.2570  0.0339
   19TMC2    O1  302   3.574   0.186  13.747 -0.6491 -0.0985 -0.2527
   19TMC2    O2  303   3.317   0.512  13.566 -0.1007 -0.6778 -0.0395
   19TMC2    O5  304   3.418   0.713  13.531 -0.7840  0.2389  0.2777
   19TMC2    H5  305   3.493   0.764  13.570 -0.6442  1.9466 -2.2276
   20MPD2     C  306   4.166   0.717  13.491 -0.3886  0.5912  0.9696
   20MPD2    C1  307   4.134   0.601  13.559  0.3161 -0.1954 -0.1877
   20MPD2    C2  308   4.229   0.546  13.653 -0.1477 -0.1800 -0.7445
   20MPD2    C3  309   4.353   0.607  13.672  0.2097 -0.7540 -0.3188
   20MPD2    C4  310   4.373   0.720  13.602 -0.2038  0.2460 -0.2230
   20MPD2    C5  311   4.288   0.772  13.508 -0.2051 -0.0068  0.3252
   20MPD2     H  312   4.201   0.459  13.712  1.7388 -0.5069 -0.3391
   20MPD2    H1  313   4.465   0.774  13.620  0.2914 -0.4010 -0.8352
   20MPD2    H2  314   4.114   0.765  13.409 -0.7165 -1.6451 -0.1573
   20MPD2    H3  315   4.305   0.872  13.469 -1.8066  0.4392  0.7451
   20MPD2     N  316   4.453   0.579  13.761  0.3459  0.3379  0.2293
   20MPD2    H5  317   4.526   0.650  13.767 -0.7257  1.3454  1.2828
   20MPD2    N1  318   4.001   0.550  13.561  0.2003 -0.3615  0.2102
   20MPD2    H7  319   3.982   0.463  13.609  1.4328 -0.6630  0.1517
   21MPD2     C  320   1.421   1.233  14.408  0.3608 -0.0796 -0.1912
   21MPD2    C1  321   1.509   1.131  14.441  0.4002 -0.0799  0.1796
   21MPD2    C2  322   1.451   1.010  14.477  0.3140  0.2413 -0.0380
   21MPD2    C3  323   1.314   0.975  14.460  0.2505  0.0317  0.4721
   21MPD2    C4  324   1.234   1.077  14.413 -0.0763 -1.0968 -0.2189
   21MPD2    C5  325   1.287   1.204  14.392 -0.6069 -0.0258 -0.8604
   21MPD2     H  326   1.525   0.937  14.506  2.2236  2.0793 -0.2223
   21MPD2    H1  327   1.129   1.065  14.389 -0.4306  0.0240  0.8054
   21MPD2    H2  328   1.450   1.333  14.378 -0.2714  0.1477 -0.0422
   21MPD2    H3  329   1.224   1.285  14.357 -2.9030  0.1498  3.6576
   21MPD2     N  330   1.257   0.851  14.482 -0.4646  1.0743  0.4159
   21MPD2    H5  331   1.175   0.835  14.424  3.2802 -2.0559 -3.9988
   21MPD2    N1  332   1.652   1.138  14.454  0.5113  0.5361 -0.2939
   21MPD2    H7  333   1.705   1.061  14.495  0.1278 -0.4102 -1.5874
   22TCq2    C1  334   1.327   0.742  14.525  0.1918 -0.0071 -0.3426
   22TCq2    O2  335   1.303   0.626  14.494 -0.1165  0.0120  0.3886
   22TCq2    C2  336   1.408   0.750  14.646  0.0063  0.2278 -0.3176
   22TCq2    C3  337   1.481   0.640  14.666  0.7230 -0.5057 -0.4516
   22TCq2    C4  338   1.538   0.623  14.783  0.3349 -0.0666  1.1067
   22TCq2    C5  339   1.524   0.711  14.885  0.3501 -0.2365 -0.7825
   22TCq2    C6  340   1.439   0.820  14.865 -0.2086  0.1800  0.1395
   22TCq2    C7  341   1.383   0.840  14.743  0.3239  0.1289 -0.0230
   22TCq2    C8  342   1.432   0.933  14.967 -0.4624  0.4625  0.2476
   22TCq2    O4  343   1.521   0.958  15.048  0.1950 -0.2464  0.3916
   22TCq2    C9  344   1.620   0.508  14.801 -0.9723  0.9086 -0.5132
   22TCq2    O5  345   1.666   0.481  14.914 -0.1527  0.5972 -0.1093
   22TCq2    O6  346   1.653   0.445  14.698 -0.2586 -0.2853 -0.1143
   22TCq2    H2  347   1.488   0.561  14.593  0.6209 -0.1786 -0.8131
   22TCq2    H3  348   1.570   0.709  14.984 -2.3297 -1.9674  0.4247
   22TCq2    H4  349   1.313   0.920  14.719 -1.8781 -1.4789  1.0794
   23MPD2     C  350   3.244   1.756  14.243 -0.2508 -0.1635  0.5114
   23MPD2    C1  351   3.159   1.818  14.336 -0.2204 -0.1400  0.2267
   23MPD2    C2  352   3.046   1.881  14.297  0.2535  0.4674  0.6188
   23MPD2    C3  353   3.010   1.888  14.161 -0.1647 -0.0119 -0.3190
   23MPD2    C4  354   3.090   1.825  14.073 -0.6801  0.1782  0.7593
   23MPD2    C5  355   3.208   1.765  14.108  0.5450  0.1357  0.0685
   23MPD2     H  356   2.990   1.926  14.378 -1.4238 -0.1071 -0.2432
   23MPD2    H1  357   3.060   1.826  13.969 -1.4440 -0.8210  0.9688
   23MPD2    H2  358   3.330   1.695  14.269 -0.5054 -0.0752  1.5505
   23MPD2    H3  359   3.267   1.726  14.026 -1.1277  0.2871 -1.2227
   23MPD2     N  360   2.895   1.954  14.115  0.2539 -0.1797 -0.8378
   23MPD2    H5  361   2.863   1.941  14.019  1.2175  1.4090 -1.3856
   23MPD2    N1  362   3.184   1.796  14.474  0.7725  0.2702 -0.8905
   23MPD2    H7  363   3.123   1.840  14.541  0.4517 -1.6696  0.0880
   24TCq2    C1  364   2.823   2.039  14.192  0.2868  0.5648 -0.7371
   24TCq2    O2  365   2.873   2.095  14.288 -0.4497  0.2804 -0.2585
   24TCq2    C2  366   2.696   2.089  14.145  0.0584  0.7351  0.1123
   24TCq2    C3  367   2.649   2.197  14.213  0.9939 -0.0689 -0.3178
   24TCq2    C4  368   2.516   2.210  14.231 -0.2498 -0.2361 -0.0502
   24TCq2    C5  369   2.431   2.133  14.162 -0.3909 -0.2564  0.0133
   24TCq2    C6  370   2.482   2.045  14.068 -0.3022  0.1909 -0.4836
   24TCq2    C7  371   2.612   2.016  14.062 -0.5446 -0.1053 -0.2503
   24TCq2    C8  372   2.399   1.950  13.999 -0.1814  0.0626 -0.5322
   24TCq2    O4  373   2.450   1.868  13.921  0.4891  0.3145 -0.1225
   24TCq2    C9  374   2.471   2.307  14.329  0.2881  0.1118 -0.3740
   24TCq2    O5  375   2.350   2.310  14.347  0.6512  0.0797 -0.6477
   24TCq2    O6  376   2.562   2.371  14.394  0.1637  0.1511 -0.1903
   24TCq2    H2  377   2.718   2.256  14.273 -0.4891  1.5642 -0.2058
   24TCq2    H3  378   2.324   2.135  14.181 -0.1797 -2.2237  1.4960
   24TCq2    H4  379   2.647   1.934  14.000 -2.2422 -0.5798 -0.5813
   25TMC2    C1  380   1.597   4.000  11.365  0.0366 -0.4057  0.1484
   25TMC2    C2  381   1.595   4.087  11.257  0.2009 -0.8099 -0.8435
   25TMC2    C3  382   1.520   4.198  11.258 -0.1195 -0.0061  0.1829
   25TMC2    C4  383   1.521   4.020  11.476  1.2963  0.3620 -0.6253
   25TMC2    C5  384   1.446   4.136  11.473 -0.1878  0.0906 -0.2529
   25TMC2    C6  385   1.438   4.220  11.365  0.7328 -0.1582 -0.9687
   25TMC2     C  386   1.704   3.905  11.376  0.5407 -0.4477  0.9148
   25TMC2     O  387   1.814   3.937  11.338  0.2636 -0.0804  0.5365
   25TMC2     H  388   1.664   4.067  11.176  0.2212 -0.8185 -0.8240
   25TMC2    H1  389   1.523   3.953  11.562 -2.1810  0.2711 -0.6259
   25TMC2    H2  390   1.372   4.307  11.357  0.7113 -0.3948 -3.4210
   25TMC2    C7  391   1.404   4.183  11.608  0.3564 -0.7511  0.7137
   25TMC2    C8  392   1.495   4.278  11.134 -0.0337  0.5101 -0.4166
   25TMC2    O1  393   1.406   4.106  11.703  0.0769 -0.0585 -0.4280
   25TMC2    O2  394   1.384   4.267  11.081  0.6111 -0.5223 -0.6698
   25TMC2    O5  395   1.556   4.399  11.155  0.6567  0.4237  0.3410
   25TMC2    H5  396   1.622   4.401  11.228  1.0404 -1.9760  0.0593
   26MPD2     C  397   1.897   3.422  11.403  0.1830 -0.2933  0.5300
   26MPD2    C1  398   1.764   3.420  11.383 -0.1697  0.0535 -0.0918
   26MPD2    C2  399   1.682   3.534  11.397  0.3735 -0.0621 -0.5137
   26MPD2    C3  400   1.739   3.660  11.404 -0.0518  0.2323 -0.3868
   26MPD2    C4  401   1.874   3.665  11.415 -0.4784  0.0909 -0.3106
   26MPD2    C5  402   1.950   3.549  11.416 -1.2319 -0.6931  0.6751
   26MPD2     H  403   1.574   3.525  11.387  0.4449  0.4818 -1.8785
   26MPD2    H1  404   1.927   3.755  11.442 -0.0838  0.2626 -1.6478
   26MPD2    H2  405   1.953   3.329  11.406 -1.7735 -1.4710  0.0582
   26MPD2    H3  406   2.057   3.549  11.433 -1.2210 -0.6170  0.6090
   26MPD2     N  407   1.657   3.778  11.405  0.0649 -0.2323 -0.2164
   26MPD2    H5  408   1.556   3.768  11.411  0.0398  0.8259  1.0962
   26MPD2    N1  409   1.701   3.291  11.366  0.4247 -0.0689 -0.3647
   26MPD2    H7  410   1.761   3.209  11.365 -0.4746 -0.6932 -3.6490
   27TMC2    C1  411   0.720   1.264  12.009  0.0355 -0.0253  0.9488
   27TMC2    C2  412   0.643   1.273  11.895 -0.3095 -0.4728 -0.0721
   27TMC2    C3  413   0.664   1.386  11.821 -0.1979  0.7251 -0.0586
   27TMC2    C4  414   0.796   1.364  12.047 -0.5572  0.5067 -0.5322
   27TMC2    C5  415   0.816   1.471  11.964  0.0806 -0.1855 -0.0841
   27TMC2    C6  416   0.747   1.487  11.848 -0.3577  0.1803 -0.4020
   27TMC2     C  417   0.681   1.162  12.099  0.3198  0.1414  0.7388
   27TMC2     O  418   0.696   1.044  12.072  0.3565 -0.4975 -0.0398
   27TMC2     H  419   0.583   1.189  11.862  1.2607 -2.1094  1.2358
   27TMC2    H1  420   0.866   1.337  12.126 -0.6110 -1.0601 -1.0207
   27TMC2    H2  421   0.772   1.557  11.769 -1.8436 -1.2384 -2.1153
   27TMC2    C7  422   0.848   1.598  12.031  0.5217 -0.1725  0.0025
   27TMC2    C8  423   0.576   1.424  11.706  0.3325 -0.4267 -0.5241
   27TMC2    O1  424   0.804   1.699  11.980  0.0522  0.0168  0.1512
   27TMC2    O2  425   0.578   1.542  11.669 -0.4336  0.3002  0.3753
   27TMC2    O5  426   0.463   1.344  11.708 -0.3177  0.4634 -0.2561
   27TMC2    H5  427   0.460   1.251  11.739  0.8496  0.7757  0.7822
   28MPD2     C  428   0.539   1.052  12.584 -0.3142 -0.0596 -0.1254
   28MPD2    C1  429   0.514   1.185  12.562 -0.0989  0.6295 -0.1696
   28MPD2    C2  430   0.556   1.240  12.442  0.1537  0.5980 -0.1771
   28MPD2    C3  431   0.611   1.157  12.337 -0.4567 -0.1555 -0.5535
   28MPD2    C4  432   0.624   1.018  12.360 -0.5719  0.3885 -0.1440
   28MPD2    C5  433   0.582   0.968  12.483  0.2764  0.9778  0.4249
   28MPD2     H  434   0.544   1.346  12.423  4.5147  0.6021 -3.0353
   28MPD2    H1  435   0.665   0.954  12.283  0.3323  0.7788  0.0114
   28MPD2    H2  436   0.539   1.009  12.684  1.0743  2.7849  1.0938
   28MPD2    H3  437   0.602   0.862  12.496 -2.5391  0.7219  2.5649
   28MPD2     N  438   0.629   1.220  12.214  0.6364 -0.2629 -0.2394
   28MPD2    H5  439   0.603   1.319  12.217  3.6921  0.5548 -0.5263
   28MPD2    N1  440   0.457   1.264  12.661 -0.7595  0.2446 -0.2881
   28MPD2    H7  441   0.428   1.219  12.747 -0.7653 -0.6222 -0.7457
   29MPD2     C  442   0.411   3.974  14.057 -0.2475 -0.6657 -0.0202
   29MPD2    C1  443   0.533   3.923  14.064  0.0364  0.0954 -0.5828
   29MPD2    C2  444   0.639   4.000  14.103 -0.2555  0.0061  0.6101
   29MPD2    C3  445   0.614   4.127  14.162  0.2135 -0.3687  0.4639
   29MPD2    C4  446   0.484   4.177  14.156 -0.5164  0.1808 -0.5497
   29MPD2    C5  447   0.384   4.103  14.096 -0.4404 -0.0387 -0.4778
   29MPD2     H  448   0.737   3.955  14.110 -0.5185 -0.7019 -0.2772
   29MPD2    H1  449   0.467   4.277  14.192  1.7504 -0.1215  1.3285
   29MPD2    H2  450   0.335   3.919  14.003 -0.4326  0.9777 -1.4589
   29MPD2    H3  451   0.285   4.146  14.081 -0.4008  0.1718 -0.1384
   29MPD2     N  452   0.710   4.206  14.219 -0.1263 -0.3929  0.5275
   29MPD2    H5  453   0.677   4.289  14.269 -2.0222 -0.3455 -0.8064
   29MPD2    N1  454   0.564   3.790  14.019 -0.2090  0.6807  0.3072
   29MPD2    H7  455   0.662   3.777  13.996 -0.5223 -1.5031  0.2155
   30TCq2    C1  456   0.844   4.172  14.244  0.6926  1.0518  0.0603
   30TCq2    O2  457   0.918   4.092  14.196 -0.0013 -0.4445  0.0998
   30TCq2    C2  458   0.890   4.280  14.329 -0.1939 -0.2778 -0.4399
   30TCq2    C3  459   0.825   4.305  14.445  0.6054 -0.4948  0.5079
   30TCq2    C4  460   0.858   4.417  14.519 -0.4207 -0.0547  0.1863
   30TCq2    C5  461   0.962   4.500  14.476  0.3719  0.2055 -0.5490
   30TCq2    C6  462   1.026   4.476  14.359 -0.3028 -0.3877  1.0788
   30TCq2    C7  463   0.993   4.364  14.280 -0.1075  0.5769 -0.1937
   30TCq2    C8  464   1.140   4.555  14.308  0.2840  0.1162 -0.0751
   30TCq2    O4  465   1.170   4.544  14.191 -0.1918  0.0913  0.0814
   30TCq2    C9  466   0.799   4.429  14.651 -0.2798 -0.6789  0.1403
   30TCq2    O5  467   0.842   4.523  14.719 -0.4800  0.1370 -0.5108
   30TCq2    O6  468   0.709   4.343  14.682 -1.0369 -0.7017 -0.0152
   30TCq2    H2  469   0.730   4.266  14.479  0.5511 -2.1547 -1.5573
   30TCq2    H3  470   0.983   4.586  14.539 -0.3597 -0.0578  0.0487
   30TCq2    H4  471   1.043   4.346  14.186 -0.7619 -3.0477  0.1320
   31MPD2     C  472   3.796   3.072  14.703  0.5047 -0.0456  0.0110
   31MPD2    C1  473   3.663   3.085  14.660  0.2696  0.2493 -0.6202
   31MPD2    C2  474   3.573   2.998  14.715  0.2998  0.0694  0.2342
   31MPD2    C3  475   3.608   2.887  14.789  0.9048 -0.7865  0.7034
   31MPD2    C4  476   3.740   2.872  14.832 -0.2004 -0.0458 -0.2454
   31MPD2    C5  477   3.840   2.965  14.790 -0.0244  0.5948  0.0973
   31MPD2     H  478   3.468   3.021  14.702  0.0879 -0.4958  0.9766
   31MPD2    H1  479   3.775   2.788  14.890  1.5724  0.6673 -0.2724
   31MPD2    H2  480   3.877   3.139  14.678  0.8809 -0.5152 -0.0364
   31MPD2    H3  481   3.947   2.967  14.808 -0.2920  0.1097  1.7004
   31MPD2     N  482   3.512   2.800  14.838 -0.4086 -0.9103 -0.0283
   31MPD2    H5  483   3.542   2.729  14.904 -1.5417 -0.3094  1.1121
   31MPD2    N1  484   3.635   3.200  14.581  0.2435 -0.6528  0.2171
   31MPD2    H7  485   3.716   3.255  14.558  1.2285 -2.1295  0.1323
   32TCq2    C1  486   3.391   2.775  14.776 -0.0328 -0.1609 -0.3833
   32TCq2    O2  487   3.357   2.819  14.666 -0.0626 -0.5807 -0.3327
   32TCq2    C2  488   3.288   2.697  14.854  0.2071 -0.4136 -0.4384
   32TCq2    C3  489   3.170   2.667  14.785  0.4355 -0.2333  0.4273
   32TCq2    C4  490   3.070   2.612  14.852 -0.4829  0.3697  0.0597
   32TCq2    C5  491   3.082   2.589  14.988 -0.1367  0.2362 -0.3947
   32TCq2    C6  492   3.195   2.625  15.055  0.5822 -0.1352 -0.1353
   32TCq2    C7  493   3.301   2.674  14.991  0.1298  0.6790  0.0190
   32TCq2    C8  494   3.198   2.607  15.198 -0.6331  0.5831 -0.4455
   32TCq2    O4  495   3.306   2.574  15.247  0.2846  0.2401 -0.2708
   32TCq2    C9  496   2.944   2.593  14.782  0.1670 -0.0252  0.4327
   32TCq2    O5  497   2.924   2.655  14.675 -0.4565 -0.2759 -0.2118
   32TCq2    O6  498   2.858   2.536  14.848  0.4454  0.3121  0.1118
   32TCq2    H2  499   3.154   2.679  14.679 -0.1988 -1.0098  0.4358
   32TCq2    H3  500   2.998   2.550  15.044  0.5730  0.5119  0.8605
   32TCq2    H4  501   3.383   2.717  15.048 -0.8633  0.0180  1.9425
   33MPD2     C  502   3.263   0.522  10.193 -0.6887 -0.1475 -0.6543
   33MPD2    C1  503   3.151   0.461  10.140  0.3144  0.2791 -0.5301
   33MPD2    C2  504   3.083   0.521  10.039  0.4945 -0.0019  0.0623
   33MPD2    C3  505   3.117   0.646   9.992 -0.4786 -0.3061 -0.3228
   33MPD2    C4  506   3.227   0.710  10.048  0.6403  1.0281 -0.8713
   33MPD2    C5  507   3.300   0.651  10.149 -0.0698  0.3243  0.1896
   33MPD2     H  508   2.996   0.474   9.993 -0.6162  1.0937  1.0334
   33MPD2    H1  509   3.268   0.798  10.000 -2.6155  3.6164  1.0632
   33MPD2    H2  510   3.328   0.474  10.265  0.5699 -0.5608 -2.0698
   33MPD2    H3  511   3.384   0.703  10.194  0.6513  0.2547 -1.0454
   33MPD2     N  512   3.053   0.709   9.887  0.6033 -0.0474  0.4405
   33MPD2    H5  513   3.106   0.793   9.864  1.4983 -0.7507 -0.0793
   33MPD2    N1  514   3.120   0.329  10.180 -0.1302 -0.8218  0.4654
   33MPD2    H7  515   3.180   0.278  10.245  1.7075  0.9203  0.1383
   34TCq2    C1  516   2.957   0.666   9.806  0.2390 -0.5431  0.5389
   34TCq2    O2  517   2.902   0.558   9.816 -0.2624 -0.2797  0.1711
   34TCq2    C2  518   2.928   0.753   9.693  0.0866 -0.5179 -0.1784
   34TCq2    C3  519   2.859   0.697   9.590 -0.1047 -0.0307  0.8900
   34TCq2    C4  520   2.841   0.768   9.476 -0.8155  0.1016 -0.2382
   34TCq2    C5  521   2.887   0.891   9.461  0.2227 -0.0762 -0.1876
   34TCq2    C6  522   2.954   0.946   9.572 -0.9404 -0.3450 -0.4607
   34TCq2    C7  523   2.971   0.879   9.688 -0.4640  0.1382  0.1053
   34TCq2    C8  524   3.038   1.069   9.559  0.5345  0.4686 -0.2187
   34TCq2    O4  525   3.080   1.129   9.656 -0.3028  0.0736  0.3937
   34TCq2    C9  526   2.751   0.711   9.374  0.3342 -0.4611  1.1711
   34TCq2    O5  527   2.726   0.587   9.381  0.1849  0.6520  0.5879
   34TCq2    O6  528   2.725   0.781   9.274 -0.3071 -0.0455  0.5402
   34TCq2    H2  529   2.824   0.596   9.601 -1.0475  0.2399  0.3946
   34TCq2    H3  530   2.865   0.952   9.374  0.3867 -2.1448 -1.6670
   34TCq2    H4  531   3.010   0.928   9.776 -2.4914 -0.9753  1.6251
   35MPD2     C  532   0.011   2.029  11.571 -0.4039  0.1264 -0.4516
   35MPD2    C1  533   4.675   1.916  11.644 -0.6090 -0.7728 -0.0194
   35MPD2    C2  534   4.557   1.863  11.592  0.4830  0.6791  0.7979
   35MPD2    C3  535   4.499   1.919  11.480 -0.2622 -0.2947 -0.0365
   35MPD2    C4  536   4.553   2.032  11.419  0.7978  0.0906  0.1288
   35MPD2    C5  537   4.671   2.086  11.464  0.2294  0.3884  0.2127
   35MPD2     H  538   4.512   1.774  11.633  0.8037 -0.3424 -1.0731
   35MPD2    H1  539   4.500   2.083  11.340  0.1759 -1.5148 -0.4781
   35MPD2    H2  540   0.102   2.068  11.615 -1.8475 -1.1581  3.7296
   35MPD2    H3  541   4.716   2.168  11.408  0.1174  0.3386  0.0496
   35MPD2     N  542   4.382   1.863  11.430  0.1412  0.3138  0.1728
   35MPD2    H5  543   4.333   1.792  11.484 -1.2140  1.9619  1.0902
   35MPD2    N1  544   0.006   1.878  11.764 -0.0260 -0.3512  0.0406
   35MPD2    H7  545   0.086   1.932  11.796 -1.4649  1.6111  0.2651
   36TCq2    C1  546   4.322   1.886  11.308 -0.3035 -0.7963  0.1574
   36TCq2    O2  547   4.362   1.961  11.218  0.0747  0.3152 -0.7141
   36TCq2    C2  548   4.189   1.821  11.299  0.1455  0.0728 -0.2493
   36TCq2    C3  549   4.097   1.886  11.222  0.6051  0.3489 -0.0217
   36TCq2    C4  550   3.969   1.877  11.266 -0.8497  0.3807  0.1494
   36TCq2    C5  551   3.925   1.787  11.354  0.5772  0.0830  0.1566
   36TCq2    C6  552   4.018   1.702  11.408 -0.3790 -0.7362  0.2578
   36TCq2    C7  553   4.153   1.726  11.387 -1.3969  0.8589 -0.2559
   36TCq2    C8  554   3.970   1.574  11.452  0.4065 -0.5561 -0.5313
   36TCq2    O4  555   3.854   1.543  11.427 -0.4342  0.1971  0.2707
   36TCq2    C9  556   3.864   1.957  11.202 -0.0495 -0.0011  0.9568
   36TCq2    O5  557   3.903   2.067  11.162  0.2958 -0.1262  0.5433
   36TCq2    O6  558   3.745   1.935  11.242  0.2735 -0.1655  1.2424
   36TCq2    H2  559   4.120   1.971  11.159 -0.5810  0.5468 -0.1785
   36TCq2    H3  560   3.823   1.769  11.385  0.0672  2.1252 -0.3136
   36TCq2    H4  561   4.223   1.646  11.408 -1.6776  0.5297 -0.5844
   37TMC2    C1  562   1.430   1.883  11.781 -0.0492  0.0334  0.0352
   37TMC2    C2  563   1.367   1.961  11.685  0.1396  0.1544  0.4460
   37TMC2    C3  564   1.436   1.983  11.570  0.4954 -0.4310 -0.4897
   37TMC2    C4  565   1.553   1.827  11.766 -0.3008 -0.4597  0.4467
   37TMC2    C5  566   1.625   1.875  11.660  0.1257 -0.0567  0.5368
   37TMC2    C6  567   1.565   1.943  11.559 -0.3821  0.1086  0.1888
   37TMC2     C  568   1.353   1.877  11.905 -0.6011  0.0278  0.0371
   37TMC2     O  569   1.239   1.916  11.918 -0.1954 -0.2686  0.0854
   37TMC2     H  570   1.260   1.975  11.679  0.2346  1.4894  1.7211
   37TMC2    H1  571   1.597   1.767  11.844 -2.9657 -2.3657  0.4823
   37TMC2    H2  572   1.618   1.992  11.478  0.2586  2.8319  2.2268
   37TMC2    C7  573   1.773   1.884  11.683  0.1595 -0.3946 -0.1819
   37TMC2    C8  574   1.382   2.088  11.479 -1.0790  0.4755  0.3974
   37TMC2    O1  575   1.809   1.858  11.796 -0.3354 -0.1862 -0.4150
   37TMC2    O2  576   1.404   2.091  11.360 -0.6840  0.6816 -1.0619
   37TMC2    O5  577   1.348   2.188  11.564 -0.3825 -0.2885  0.3355
   37TMC2    H5  578   1.363   2.167  11.659  1.9637 -2.9123 -0.6347
   38MPD2     C  579   1.285   1.655  12.369 -0.1276 -0.2384 -0.0495
   38MPD2    C1  580   1.416   1.627  12.326 -0.9007  0.3801  0.9237
   38MPD2    C2  581   1.454   1.680  12.206 -0.0260  0.0455  0.0732
   38MPD2    C3  582   1.375   1.766  12.127  0.5060 -0.4337  0.4756
   38MPD2    C4  583   1.241   1.786  12.169 -0.1517 -0.2600  0.6137
   38MPD2    C5  584   1.208   1.728  12.285 -0.2473  0.5748  1.4108
   38MPD2     H  585   1.551   1.653  12.166  0.1593  0.6942  0.0807
   38MPD2    H1  586   1.162   1.842  12.121  0.8711  0.5655 -0.0904
   38MPD2    H2  587   1.242   1.629  12.465  1.3099  1.2097  0.9850
   38MPD2    H3  588   1.106   1.750  12.315 -1.6699 -1.9317 -1.5697
   38MPD2     N  589   1.422   1.801  12.000  0.0022  0.4588 -0.1442
   38MPD2    H5  590   1.515   1.767  11.978 -0.0387 -0.3726  0.9660
   38MPD2    N1  591   1.523   1.561  12.401  0.4741 -0.5416 -0.0158
   38MPD2    H7  592   1.615   1.568  12.360 -0.1654  0.9236 -1.1927
   39MPD2     C  593   0.352   3.986   1.755  0.4057 -0.3257 -0.4905
   39MPD2    C1  594   0.290   4.111   1.753  0.3886 -0.7553 -0.1890
   39MPD2    C2  595   0.171   4.130   1.682  0.1385 -0.6787 -0.5960
   39MPD2    C3  596   0.108   4.017   1.628 -0.2639 -0.4069  0.3760
   39MPD2    C4  597   0.175   3.893   1.629  0.3569 -0.3603 -0.5930
   39MPD2    C5  598   0.296   3.879   1.695  0.1626  0.3757 -0.5800
   39MPD2     H  599   0.120   4.226   1.675 -0.6568 -1.0367  0.2370
   39MPD2    H1  600   0.120   3.806   1.596  0.3919 -0.4456 -0.4227
   39MPD2    H2  601   0.444   3.966   1.809  0.4745 -1.8532 -1.1799
   39MPD2    H3  602   0.349   3.785   1.693 -0.5030  0.0036 -0.6329
   39MPD2     N  603   4.711   4.026   1.556 -0.0486 -0.3160 -0.6275
   39MPD2    H5  604   4.679   3.941   1.509 -1.1833  0.0676 -0.5402
   39MPD2    N1  605   0.356   4.209   1.826 -0.6280  0.0007 -0.4555
   39MPD2    H7  606   0.446   4.179   1.862 -1.7385 -3.1427 -0.3519
   40TCq2    C1  607   0.311   4.337   1.854  0.1286  0.0896 -0.3021
   40TCq2    O2  608   0.197   4.377   1.853 -0.0138  0.3325  0.7016
   40TCq2    C2  609   0.414   4.421   1.907 -0.2498 -0.0665 -0.1184
   40TCq2    C3  610   0.379   4.523   1.982  0.1392 -0.0289  0.2691
   40TCq2    C4  611   0.469   4.585   2.066  0.0107 -0.0968 -0.1608
   40TCq2    C5  612   0.598   4.560   2.069  0.7074 -0.6695 -0.1068
   40TCq2    C6  613   0.633   4.459   1.981 -0.4455 -0.7055 -0.3685
   40TCq2    C7  614   0.547   4.387   1.895  0.0062  1.0963 -0.7132
   40TCq2    C8  615   0.776   4.455   1.952  0.2302 -0.3596  0.2972
   40TCq2    O4  616   0.822   4.344   1.921 -0.5938  0.1703 -0.1283
   40TCq2    C9  617   0.417   4.697   2.142 -0.9556 -0.0412 -0.3166
   40TCq2    O5  618   0.508   0.044   2.189 -0.2621  0.1238 -0.1128
   40TCq2    O6  619   0.294   4.706   2.173 -0.2561  0.1331 -0.1015
   40TCq2    H2  620   0.276   4.554   1.979  0.7939  1.8111 -2.3651
   40TCq2    H3  621   0.666   4.600   2.144 -0.3376 -0.2934  0.6422
   40TCq2    H4  622   0.587   4.316   1.824  1.2051 -0.8649  1.8949
   41TMC2    C1  623   3.617   2.058  12.781  0.5533 -0.5045  0.0399
   41TMC2    C2  624   3.610   2.190  12.829  0.9915 -0.2717 -0.5692
   41TMC2    C3  625   3.592   2.294  12.734  0.5044 -0.1035 -0.6282
   41TMC2    C4  626   3.595   2.021  12.649  0.2356 -0.2907 -0.1007
   41TMC2    C5  627   3.599   2.126  12.563 -0.5945  0.4873  0.2678
   41TMC2    C6  628   3.585   2.256  12.599  0.3178 -0.0271  0.5130
   41TMC2     C  629   3.638   1.955  12.879 -0.8075  0.2490 -0.0157
   41TMC2     O  630   3.637   1.842  12.836  0.3988 -0.7008  0.1974
   41TMC2     H  631   3.619   2.208  12.936 -0.5999  1.8288 -0.7838
   41TMC2    H1  632   3.599   1.915  12.626  2.7987 -0.7309  2.3779
   41TMC2    H2  633   3.586   2.339  12.529 -0.6046  2.1301  3.0580
   41TMC2    C7  634   3.608   2.104  12.422  0.1957  0.0684 -1.3952
   41TMC2    C8  635   3.608   2.429  12.771  0.2020 -0.1122 -0.2593
   41TMC2    O1  636   3.583   2.195  12.344 -0.3763 -0.5517  0.1250
   41TMC2    O2  637   3.552   2.516  12.701  0.3798 -0.4733  0.5537
   41TMC2    O5  638   3.713   2.439  12.856  0.5446  0.2589  0.2726
   41TMC2    H5  639   3.745   2.531  12.867  2.8452 -0.7040  1.8013
   42MPD2     C  640   3.756   1.790  13.094  0.0854 -0.2067  0.0550
   42MPD2    C1  641   3.734   1.927  13.098 -0.3431 -0.1653 -0.4704
   42MPD2    C2  642   3.764   1.994  13.216  0.1167 -0.1929 -0.0245
   42MPD2    C3  643   3.818   1.933  13.326  0.3971  0.5158  0.2007
   42MPD2    C4  644   3.839   1.798  13.318  0.1514  0.0703 -0.2972
   42MPD2    C5  645   3.800   1.724  13.206  0.2598 -0.1099  0.2254
   42MPD2     H  646   3.748   2.101  13.213  1.3377 -0.0388 -1.6943
   42MPD2    H1  647   3.896   1.742  13.392 -0.4187 -0.2917 -0.1355
   42MPD2    H2  648   3.752   1.731  13.003  1.1531 -0.4983  0.1967
   42MPD2    H3  649   3.816   1.616  13.207  2.4116  0.2021  0.6349
   42MPD2     N  650   3.850   2.002  13.449  0.1455 -0.0680  0.2220
   42MPD2    H5  651   3.862   1.943  13.531 -0.8023 -1.8618 -0.9522
   42MPD2    N1  652   3.684   2.006  12.996 -0.4836 -0.8909 -0.3286
   42MPD2    H7  653   3.690   2.106  13.009  1.0116 -1.3931  2.9699
   43MPD2     C  654   0.605   4.260   1.029 -0.1042 -0.0573 -0.2411
   43MPD2    C1  655   0.712   4.321   1.091  0.8371  0.0037 -0.9857
   43MPD2    C2  656   0.699   4.441   1.164  0.3997  0.2265 -0.0688
   43MPD2    C3  657   0.567   4.497   1.176  0.0778  0.0168  0.0155
   43MPD2    C4  658   0.462   4.437   1.110 -0.5691  0.2903 -0.3669
   43MPD2    C5  659   0.483   4.325   1.042  0.4343 -0.1286 -0.1770
   43MPD2     H  660   0.787   4.488   1.206 -2.0510  2.5469  2.4508
   43MPD2    H1  661   0.362   4.478   1.113 -0.8367 -0.3128 -1.1290
   43MPD2    H2  662   0.610   4.176   0.960  0.1555  0.7278 -1.1744
   43MPD2    H3  663   0.399   4.277   0.994 -0.3123 -1.1999  2.1995
   43MPD2     N  664   0.538   4.623   1.242  0.3514  0.5318  0.0898
   43MPD2    H5  665   0.440   4.650   1.243 -0.0667 -0.9299 -3.3904
   43MPD2    N1  666   0.844   4.268   1.084 -0.3232  0.5981 -0.6467
   43MPD2    H7  667   0.917   4.326   1.124  2.8573 -2.6269 -1.7778
   44TCq2    C1  668   0.291   0.205   1.562 -0.4795  0.1397  0.0821
   44TCq2    O2  669   0.204   0.127   1.518  0.1805 -0.0334 -0.2538
   44TCq2    C2  670   0.414   0.213   1.473  0.3203  0.0022  0.3677
   44TCq2    C3  671   0.482   0.334   1.458  0.1779  0.8871 -0.2700
   44TCq2    C4  672   0.602   0.331   1.388 -0.9099  0.4190  0.1361
   44TCq2    C5  673   0.653   0.219   1.330  0.0633  0.8309  0.0969
   44TCq2    C6  674   0.577   0.104   1.344  0.0495 -0.1198  0.5953
   44TCq2    C7  675   0.457   0.093   1.412  0.0666 -0.0932 -0.5961
   44TCq2    C8  676   0.628   4.716   1.279  0.5904 -0.1742 -0.0218
   44TCq2    O4  677   0.747   4.714   1.248  0.0953  0.1504 -0.5744
   44TCq2    C9  678   0.673   0.452   1.384 -0.1903 -1.0452 -0.4308
   44TCq2    O5  679   0.775   0.449   1.312 -0.0893 -0.2265  0.0182
   44TCq2    O6  680   0.607   0.556   1.404 -0.4265  0.0863 -0.0786
   44TCq2    H2  681   0.447   0.426   1.506  0.0721  0.7088 -0.0040
   44TCq2    H3  682   0.757   0.215   1.300  0.1032  0.8578  0.2279
   44TCq2    H4  683   0.404   0.003   1.440  1.6375 -0.6382  0.6310
   45TMC2    C1  684   0.944   1.939   9.598 -0.7811 -0.2193 -0.9889
   45TMC2    C2  685   0.859   2.008   9.519  0.6659  0.5389 -0.5776
   45TMC2    C3  686   0.898   2.131   9.477  0.3119 -0.2359 -0.7068
   45TMC2    C4  687   1.058   1.995   9.647  0.5989  0.0725 -0.5317
   45TMC2    C5  688   1.092   2.125   9.607  0.5178 -0.4903 -0.3524
   45TMC2    C6  689   1.014   2.188   9.516 -0.5657 -0.4097 -0.2401
   45TMC2     C  690   0.914   1.811   9.651  0.1939  0.2775  0.2386
   45TMC2     O  691   0.994   1.768   9.734  0.0598  0.2850  0.4155
   45TMC2     H  692   0.774   1.962   9.469  0.3703  1.9887 -1.3990
   45TMC2    H1  693   1.126   1.938   9.709 -1.9136 -1.2990  0.9680
   45TMC2    H2  694   1.025   2.285   9.468  0.6507  0.3864  1.6851
   45TMC2    C7  695   1.212   2.193   9.651 -0.2976 -0.1241  0.1638
   45TMC2    C8  696   0.821   2.206   9.378  0.5665 -0.2085 -0.4582
   45TMC2    O1  697   1.242   2.294   9.587  0.0240 -0.1548  0.0897
   45TMC2    O2  698   0.853   2.199   9.263  0.1104  0.1743  0.0125
   45TMC2    O5  699   0.689   2.201   9.412  0.1275  0.2461 -0.0324
   45TMC2    H5  700   0.665   2.212   9.506 -1.0214  4.6323 -0.8600
   46MPD2     C  701   0.830   1.527   9.713 -0.7893 -0.2926  0.5172
   46MPD2    C1  702   0.760   1.614   9.627  0.4844  0.2292  1.0317
   46MPD2    C2  703   0.652   1.557   9.559 -0.2080 -0.2565  0.2895
   46MPD2    C3  704   0.614   1.426   9.581 -0.2116 -0.1355 -0.4487
   46MPD2    C4  705   0.686   1.352   9.665 -0.3480 -0.1112 -0.2872
   46MPD2    C5  706   0.795   1.398   9.726  0.8832 -0.8030  0.5261
   46MPD2     H  707   0.602   1.627   9.493  0.6919 -2.7170 -3.0048
   46MPD2    H1  708   0.656   1.250   9.688  1.0789 -0.4782 -0.0718
   46MPD2    H2  709   0.917   1.558   9.770 -1.9714  1.3992  1.4080
   46MPD2    H3  710   0.850   1.344   9.801 -0.7952 -3.0049  0.1582
   46MPD2     N  711   0.502   1.384   9.510 -0.7551  0.0334  0.1493
   46MPD2    H5  712   0.465   1.453   9.445  0.8062  1.0441  0.3413
   46MPD2    N1  713   0.799   1.747   9.602 -0.4897 -0.1107  0.2117
   46MPD2    H7  714   0.748   1.799   9.532  1.2057 -2.9662 -3.1562
   47TMC2    C1  715   3.507   3.355   9.215  0.8196 -0.6256  0.1879
   47TMC2    C2  716   3.496   3.284   9.097  0.0024 -0.3496 -0.1444
   47TMC2    C3  717   3.383   3.259   9.034 -0.2280  0.1956  0.4481
   47TMC2    C4  718   3.394   3.423   9.255  0.2878 -0.0583  0.5474
   47TMC2    C5  719   3.283   3.409   9.181  0.0172  0.4471  0.0886
   47TMC2    C6  720   3.279   3.335   9.066  0.0439 -0.0512 -0.7480
   47TMC2     C  721   3.620   3.343   9.308 -0.4158  0.5958 -1.0204
   47TMC2     O  722   3.630   3.402   9.416  0.0536  0.0263  0.2311
   47TMC2     H  723   3.583   3.236   9.053 -1.3622 -0.4652 -2.7127
   47TMC2    H1  724   3.397   3.480   9.347 -1.4799 -0.2680  0.7420
   47TMC2    H2  725   3.188   3.331   9.007  0.2257 -0.4484 -1.0055
   47TMC2    C7  726   3.202   3.525   9.172 -0.4600  0.2005 -0.0779
   47TMC2    C8  727   3.401   3.212   8.899 -0.5501 -0.1352 -1.1895
   47TMC2    O1  728   3.093   3.508   9.125  0.1251 -0.2587  0.3741
   47TMC2    O2  729   3.329   3.246   8.808  0.2784 -0.3599  0.1083
   47TMC2    O5  730   3.448   3.088   8.913 -0.0067  0.1814 -0.0405
   47TMC2    H5  731   3.513   3.069   8.984 -1.2427  1.2489  1.3847
   48MPD2     C  732   3.904   3.299   9.378  0.5728 -0.1191 -0.1369
   48MPD2    C1  733   3.826   3.197   9.318  0.2034 -0.2692  0.4334
   48MPD2    C2  734   3.872   3.071   9.312 -0.5042  0.6230 -0.1413
   48MPD2    C3  735   3.993   3.030   9.360 -0.2721 -0.2225 -0.0199
   48MPD2    C4  736   4.072   3.127   9.422  0.5392 -0.3942  0.5550
   48MPD2    C5  737   4.029   3.255   9.424  0.2879  0.4992  0.1234
   48MPD2     H  738   3.818   2.999   9.251  0.8476 -0.7460  0.2673
   48MPD2    H1  739   4.166   3.116   9.475 -0.7597 -1.1184  2.6789
   48MPD2    H2  740   3.884   3.406   9.380  0.9002 -0.0413 -0.9030
   48MPD2    H3  741   4.093   3.329   9.472  0.2344  1.3800 -1.1586
   48MPD2     N  742   4.034   2.892   9.347 -0.1867 -0.2589 -0.6266
   48MPD2    H5  743   3.961   2.825   9.325  0.7958 -2.3255  2.3904
   48MPD2    N1  744   3.694   3.229   9.272 -0.1883 -0.5160 -0.1787
   48MPD2    H7  745   3.668   3.169   9.194 -0.6307 -1.0555  0.3830
   49MPD2     C  746   1.009   4.376   9.744  0.1221 -0.0381 -0.4852
   49MPD2    C1  747   1.010   4.305   9.864 -0.5412 -0.2370 -0.6382
   49MPD2    C2  748   1.071   4.367   9.973 -0.5491 -0.4768  0.8597
   49MPD2    C3  749   1.133   4.487   9.964  0.6770  0.1173  0.0878
   49MPD2    C4  750   1.139   4.553   9.838 -0.0357  0.2423  0.0620
   49MPD2    C5  751   1.070   4.497   9.730 -0.2703 -1.2756 -0.5609
   49MPD2     H  752   1.086   4.304  10.060  1.7526 -0.9740  0.0896
   49MPD2    H1  753   1.177   4.652   9.819  0.7291 -0.3164 -1.2657
   49MPD2    H2  754   0.971   4.343   9.648 -0.4755 -1.4920  0.2666
   49MPD2    H3  755   1.065   4.549   9.635 -1.4531 -0.5582 -0.1033
   49MPD2     N  756   1.208   4.547  10.071 -0.0340  0.0585 -0.1207
   49MPD2    H5  757   1.262   4.625  10.036  0.1234  0.4735  1.0603
   49MPD2    N1  758   0.968   4.175   9.870  0.0997  0.0320 -0.7705
   49MPD2    H7  759   0.976   4.126   9.959 -0.9533  0.4067 -0.4588
   50TCq2    C1  760   0.900   4.110   9.771 -0.9100 -0.0960 -0.5585
   50TCq2    O2  761   0.838   4.156   9.670 -0.0179  0.1095 -0.0385
   50TCq2    C2  762   0.889   3.969   9.789 -0.3523  0.7387 -0.3823
   50TCq2    C3  763   0.798   3.902   9.708 -0.5176 -0.0165 -0.1517
   50TCq2    C4  764   0.770   3.766   9.737 -0.1666  0.4196 -0.1010
   50TCq2    C5  765   0.820   3.710   9.850  0.7430  0.2260 -0.0307
   50TCq2    C6  766   0.914   3.779   9.923  0.5218  0.0612  0.1977
   50TCq2    C7  767   0.955   3.912   9.896 -0.4992  0.6244  0.1324
   50TCq2    C8  768   1.002   3.702  10.001 -0.5500 -0.0439 -0.2820
   50TCq2    O4  769   0.997   3.579   9.996 -0.0032  0.3866 -1.1273
   50TCq2    C9  770   0.684   3.688   9.655 -0.4284  0.1246  0.1970
   50TCq2    O5  771   0.652   3.733   9.547  0.4211  0.2274  0.7811
   50TCq2    O6  772   0.680   3.567   9.684  0.1316  0.6364 -0.8721
   50TCq2    H2  773   0.747   3.947   9.623  4.6860  3.9496 -1.1134
   50TCq2    H3  774   0.797   3.606   9.873 -0.8609  0.2986 -1.2402
   50TCq2    H4  775   1.035   3.968   9.944 -0.4147  1.2939 -0.7973
   51MPD2     C  776   1.815   3.803   0.528 -0.5785  0.2106  0.1127
   51MPD2    C1  777   1.787   3.686   0.599  0.0522 -0.2431  0.0287
   51MPD2    C2  778   1.787   3.678   0.735  0.2122 -0.2745 -0.6490
   51MPD2    C3  779   1.830   3.793   0.809 -0.3078 -0.6799 -0.4913
   51MPD2    C4  780   1.870   3.905   0.734  0.1923  0.2068 -1.0332
   51MPD2    C5  781   1.864   3.909   0.596 -0.6301 -0.2851  0.2056
   51MPD2     H  782   1.753   3.585   0.781  2.6438 -0.9912 -0.2942
   51MPD2    H1  783   1.916   3.987   0.789 -1.4271 -1.1397  2.3511
   51MPD2    H2  784   1.789   3.823   0.424  1.8985  0.2971 -0.5043
   51MPD2    H3  785   1.896   3.997   0.541  1.1965 -0.8854  0.3129
   51MPD2     N  786   1.825   3.810   0.948 -0.2298 -0.7390 -0.0387
   51MPD2    H5  787   1.866   3.896   0.983 -2.3729  1.1458 -2.1200
   51MPD2    N1  788   1.752   3.567   0.527  1.1097 -0.0044  0.2471
   51MPD2    H7  789   1.704   3.499   0.585  0.3186 -1.6682 -2.3434
   52TCq2    C1  790   1.793   3.710   1.042  0.0142 -0.5398 -0.7292
   52TCq2    O2  791   1.750   3.599   1.020 -0.2366  0.6786 -0.5849
   52TCq2    C2  792   1.805   3.743   1.186  0.9275 -0.0584 -0.3456
   52TCq2    C3  793   1.708   3.681   1.264  0.4110 -0.6021  0.1857
   52TCq2    C4  794   1.689   3.731   1.392 -0.5990  0.1258  0.0067
   52TCq2    C5  795   1.763   3.834   1.436 -0.3428 -0.3145  0.6938
   52TCq2    C6  796   1.841   3.900   1.349 -0.1295 -0.5704 -0.2618
   52TCq2    C7  797   1.875   3.852   1.223  0.6773  0.2330  0.3726
   52TCq2    C8  798   1.885   4.035   1.381 -0.4508 -0.0591  0.1939
   52TCq2    O4  799   1.954   4.075   1.286  0.8833  0.1542 -0.1097
   52TCq2    C9  800   1.600   3.668   1.479  0.2101 -0.0767  0.5111
   52TCq2    O5  801   1.627   3.689   1.606  0.0116 -0.1966 -0.1016
   52TCq2    O6  802   1.521   3.577   1.432  0.0019 -0.6755  0.1278
   52TCq2    H2  803   1.642   3.599   1.236 -0.6786 -0.2586  1.7577
   52TCq2    H3  804   1.739   3.864   1.537  0.4829 -0.3168  0.8937
   52TCq2    H4  805   1.944   3.891   1.150 -0.6394 -1.4564 -1.7550
   53TMC2    C1  806   2.453   1.924  11.927  0.3778 -0.0797 -0.3498
   53TMC2    C2  807   2.569   1.985  11.967 -0.3101 -0.3863 -0.0724
   53TMC2    C3  808   2.595   1.971  12.102 -0.9400  0.0173 -0.2861
   53TMC2    C4  809   2.361   1.876  12.014  0.1065 -0.1360 -0.2030
   53TMC2    C5  810   2.394   1.873  12.146  0.3484  0.4910  0.6070
   53TMC2    C6  811   2.506   1.933  12.191  0.8588 -0.0523  0.5221
   53TMC2     C  812   2.411   1.945  11.785  0.3903 -0.1462 -0.4627
   53TMC2     O  813   2.491   1.953  11.695 -0.8843  0.2068 -0.0040
   53TMC2     H  814   2.636   2.029  11.893 -0.9122 -0.1923 -0.5066
   53TMC2    H1  815   2.267   1.831  11.985  0.2979 -1.0892  0.6605
   53TMC2    H2  816   2.528   1.958  12.294  1.2695 -1.3802  0.7582
   53TMC2    C7  817   2.280   1.857  12.229  0.1212  0.3758  0.5850
   53TMC2    C8  818   2.712   2.036  12.152  0.8491 -0.1852 -0.0640
   53TMC2    O1  819   2.172   1.885  12.184 -0.1428  0.6820  0.2874
   53TMC2    O2  820   2.718   2.090  12.262 -0.2688  0.0151 -0.2309
   53TMC2    O5  821   2.813   2.029  12.061 -0.1524  0.4443 -0.0754
   53TMC2    H5  822   2.794   1.956  11.998  1.3662  0.6701 -0.7982
   54MPD2     C  823   2.253   1.968  11.533 -0.1255 -0.3562 -0.0676
   54MPD2    C1  824   2.196   1.950  11.663 -0.5869  0.4196 -0.3170
   54MPD2    C2  825   2.066   1.918  11.670 -0.6259 -0.2853 -0.7803
   54MPD2    C3  826   1.981   1.911  11.558 -0.0201 -1.2573  0.4705
   54MPD2    C4  827   2.034   1.945  11.438 -0.6502  0.6858 -0.4200
   54MPD2    C5  828   2.169   1.967  11.426  0.3258 -0.1311  0.2112
   54MPD2     H  829   2.019   1.911  11.768 -1.0213 -0.1629 -0.9612
   54MPD2    H1  830   1.984   1.948  11.342 -1.4301 -0.9970 -0.0739
   54MPD2    H2  831   2.356   1.997  11.517  0.1192 -0.3963  1.4256
   54MPD2    H3  832   2.215   1.966  11.328  2.0728  1.5449  1.0053
   54MPD2     N  833   1.840   1.897  11.567  0.3218  0.8104  0.0515
   54MPD2    H5  834   1.790   1.898  11.478 -0.3918  2.3782  0.4661
   54MPD2    N1  835   2.273   1.948  11.778 -0.1052  0.1103  0.0567
   54MPD2    H7  836   2.215   1.942  11.862 -0.5072  3.3236  0.0106
   55MPD2     C  837   3.114   4.671  17.687 -0.0983 -0.0127  0.2261
   55MPD2    C1  838   3.106   4.611   0.108  0.1796  0.5182 -0.3914
   55MPD2    C2  839   3.059   4.690   0.213  0.0817  0.3173  0.0139
   55MPD2    C3  840   3.023   0.101   0.198  0.7466  0.4707 -0.1503
   55MPD2    C4  841   3.022   0.154   0.070  0.2260  0.0475  0.2448
   55MPD2    C5  842   3.071   0.077  17.667  0.0052 -0.3882  0.2318
   55MPD2     H  843   3.061   4.650   0.313  2.3739  0.7149  0.1110
   55MPD2    H1  844   2.996   0.257   0.053 -1.7955 -0.3336  0.9710
   55MPD2    H2  845   3.148   4.622  17.596  2.1530 -2.0094  2.1607
   55MPD2    H3  846   3.088   0.129  17.574 -2.5504 -0.4793 -0.3039
   55MPD2     N  847   2.997   0.175   0.317 -0.3827  0.3452 -0.5010
   55MPD2    H5  848   3.012   0.130   0.407  3.0185 -0.4545 -1.4466
   55MPD2    N1  849   3.131   4.476   0.111  0.3319 -0.4959  0.8820
   55MPD2    H7  850   3.154   4.428   0.024 -1.6422 -1.1023  0.7036
   56TCq2    C1  851   3.137   4.405   0.231 -0.4195  0.4112 -0.1622
   56TCq2    O2  852   3.097   4.440   0.343  0.0802 -0.4042  0.3374
   56TCq2    C2  853   3.159   4.263   0.206 -0.3692 -0.1342  0.4503
   56TCq2    C3  854   3.226   4.229   0.087  0.2699 -0.0111  0.6508
   56TCq2    C4  855   3.232   4.098   0.058 -0.3623  0.0743 -0.5205
   56TCq2    C5  856   3.170   4.007   0.137 -0.0117 -0.0234  0.3024
   56TCq2    C6  857   3.126   4.036   0.263 -0.1597 -0.0762  0.6236
   56TCq2    C7  858   3.118   4.172   0.300 -0.1210 -0.2494 -0.8024
   56TCq2    C8  859   3.071   3.926   0.346 -0.1601  0.0559  0.0278
   56TCq2    O4  860   3.057   3.816   0.295  0.2794  0.3042  0.6417
   56TCq2    C9  861   3.308   4.062  17.646 -0.3492  0.4838 -0.0201
   56TCq2    O5  862   3.296   3.948  17.602  0.2805  0.0639 -0.6668
   56TCq2    O6  863   3.396   4.145  17.614  0.2073  0.3380  0.1026
   56TCq2    H2  864   3.285   4.299   0.030 -0.5970 -1.1598 -1.6335
   56TCq2    H3  865   3.169   3.902   0.113  1.1136 -0.3538  1.7405
   56TCq2    H4  866   3.066   4.209   0.388  0.0949  0.6018 -1.0383
   57TMC2    C1  867   2.487   0.974  13.872  0.5462 -0.2838  0.4906
   57TMC2    C2  868   2.582   0.910  13.939  0.4458 -0.0746  1.0154
   57TMC2    C3  869   2.695   0.873  13.867 -0.3503 -0.4058 -0.2417
   57TMC2    C4  870   2.505   1.012  13.740  0.1182  0.3482  0.2065
   57TMC2    C5  871   2.621   0.974  13.680  0.0758  0.1146  0.7900
   57TMC2    C6  872   2.727   0.908  13.740  0.5370  0.0385  0.0784
   57TMC2     C  873   2.356   1.003  13.933  0.1799 -0.4729 -1.5748
   57TMC2     O  874   2.296   1.107  13.907  0.0539 -0.6804  0.0560
   57TMC2     H  875   2.567   0.864  14.036  0.5213  0.5440  1.3219
   57TMC2    H1  876   2.423   1.060  13.688  0.2417  1.1689  0.7840
   57TMC2    H2  877   2.824   0.895  13.692 -0.2800 -2.4632 -0.8897
   57TMC2    C7  878   2.634   1.023  13.550  0.3072  0.1454  0.0256
   57TMC2    C8  879   2.813   0.826  13.933 -0.5658  0.6279 -0.0222
   57TMC2    O1  880   2.565   1.115  13.518  0.1363  0.2887 -0.0732
   57TMC2    O2  881   2.923   0.872  13.918 -0.9265 -0.0827  0.5143
   57TMC2    O5  882   2.777   0.758  14.035 -0.0481 -0.2190  0.4370
   57TMC2    H5  883   2.711   0.693  14.002 -1.0746  1.1868 -0.2878
   58MPD2     C  884   1.909   0.825  14.055  0.2592  0.4694  0.5641
   58MPD2    C1  885   1.949   0.952  14.039  0.7029 -0.1340  0.4883
   58MPD2    C2  886   2.077   0.978  14.009  0.3580  0.1941 -0.7521
   58MPD2    C3  887   2.168   0.877  14.003 -0.0674  0.2597  0.4901
   58MPD2    C4  888   2.128   0.752  14.022 -0.0769 -0.2241 -0.5929
   58MPD2    C5  889   2.003   0.725  14.045  0.2905 -0.3690 -0.0814
   58MPD2     H  890   2.095   1.085  14.003 -0.2668  0.5292  3.3089
   58MPD2    H1  891   2.204   0.676  14.013 -0.5241 -0.9814  2.2886
   58MPD2    H2  892   1.806   0.793  14.070  0.7768 -0.0977  2.9863
   58MPD2    H3  893   1.990   0.617  14.041  1.5712 -0.5767  1.2094
   58MPD2     N  894   2.305   0.887  13.987  0.3183  0.3261 -0.1424
   58MPD2    H5  895   2.372   0.813  14.004 -0.5236 -0.3077  0.4110
   58MPD2    N1  896   1.853   1.054  14.040 -0.3123 -0.0296  0.2760
   58MPD2    H7  897   1.881   1.146  14.006  0.7875 -1.0991 -1.7553
   59MPD2     C  898   4.680   0.860  13.359 -0.1414 -0.2572 -1.1127
   59MPD2    C1  899   4.711   0.972  13.286 -0.4357 -0.8159 -0.3846
   59MPD2    C2  900   0.059   1.071  13.347  0.1550  0.4295  0.0676
   59MPD2    C3  901   0.090   1.065  13.485 -0.4148  0.4082 -0.1895
   59MPD2    C4  902   0.055   0.949  13.558 -0.0319 -0.3123  0.1059
   59MPD2    C5  903   4.713   0.850  13.494 -0.2085 -0.0791 -0.5809
   59MPD2     H  904   0.089   1.164  13.300  0.9808 -0.2021 -0.6607
   59MPD2    H1  905   0.082   0.931  13.661 -1.3999 -2.4499  0.1048
   59MPD2    H2  906   4.626   0.774  13.320 -0.2866  0.3024 -2.1566
   59MPD2    H3  907   4.680   0.759  13.544 -1.1985 -0.0762 -1.2220
   59MPD2     N  908   0.154   1.174  13.552 -0.1198  0.1442  0.2042
   59MPD2    H5  909   0.181   1.253  13.494 -1.9150  0.9231  0.4347
   59MPD2    N1  910   4.684   0.982  13.147  0.3269 -0.2743 -0.5879
   59MPD2    H7  911   4.717   1.059  13.089  0.2702 -0.9414 -1.4975
   60TCq2    C1  912   4.576   0.918  13.088  0.2990  0.0252 -0.1465
   60TCq2    O2  913   4.483   0.863  13.146  1.1018 -0.1510  0.0366
   60TCq2    C2  914   4.577   0.934  12.945 -0.0512 -0.2460  0.1632
   60TCq2    C3  915   4.451   0.936  12.892 -0.2819  0.4186 -0.1131
   60TCq2    C4  916   4.429   0.978  12.761 -0.5699  0.2871  0.0305
   60TCq2    C5  917   4.534   1.005  12.682 -0.1828 -0.3460 -0.0675
   60TCq2    C6  918   4.655   1.020  12.744  0.1576  0.4565 -0.6196
   60TCq2    C7  919   4.685   0.981  12.871  0.0433 -0.3454  0.3580
   60TCq2    C8  920   0.044   1.053  12.661 -0.3397  0.1565  0.0209
   60TCq2    O4  921   0.152   1.001  12.688  0.5672  0.4800  0.3067
   60TCq2    C9  922   4.291   0.988  12.711  0.4406  0.7073  0.4280
   60TCq2    O5  923   4.280   1.028  12.591  0.3613  0.2668  0.6070
   60TCq2    O6  924   4.199   0.921  12.771 -0.4911 -0.1876  0.0545
   60TCq2    H2  925   4.368   0.905  12.955 -0.2220  1.3371  0.4192
   60TCq2    H3  926   4.511   1.034  12.580 -1.6442  0.6174  0.5357
   60TCq2    H4  927   0.058   0.975  12.914 -0.0949 -2.2986  0.4029
   61MPD2     C  928   4.279   2.360  14.862  0.0883  0.0487  0.1119
   61MPD2    C1  929   4.326   2.477  14.921 -0.4480  0.8818  0.0512
   61MPD2    C2  930   4.381   2.580  14.837 -0.9848  0.3430  0.0402
   61MPD2    C3  931   4.375   2.570  14.697 -0.6818  1.1119 -0.1811
   61MPD2    C4  932   4.339   2.452  14.650  0.0605 -0.3862  0.1871
   61MPD2    C5  933   4.289   2.353  14.726  0.0795 -0.4524  0.5036
   61MPD2     H  934   4.405   2.677  14.879  0.4511  0.5378 -1.2381
   61MPD2    H1  935   4.344   2.445  14.542  1.2681 -2.6379  0.3914
   61MPD2    H2  936   4.246   2.272  14.916  0.6936  1.5863  2.9532
   61MPD2    H3  937   4.275   2.251  14.692 -1.9875  0.3217 -1.0172
   61MPD2     N  938   4.395   2.673  14.609  0.0309  0.4883 -0.2607
   61MPD2    H5  939   4.368   2.660  14.512  0.5526 -0.4022 -0.2879
   61MPD2    N1  940   4.338   2.499  15.057  0.0414  0.1627  0.5117
   61MPD2    H7  941   4.375   2.589  15.087  0.2992 -0.0274  0.7606
   62TCq2    C1  942   4.288   2.417  15.161 -0.6688  0.1376 -0.0048
   62TCq2    O2  943   4.238   2.305  15.160  0.3291  0.0634 -0.3643
   62TCq2    C2  944   4.294   2.486  15.285 -0.2647 -0.4080  0.1682
   62TCq2    C3  945   4.256   2.415  15.397  0.0486 -0.0504  0.0902
   62TCq2    C4  946   4.238   2.489  15.512 -0.0672  0.8152  0.2754
   62TCq2    C5  947   4.257   2.622  15.516 -0.0641 -0.4356  0.1485
   62TCq2    C6  948   4.306   2.685  15.406  0.0755 -0.0873 -0.3148
   62TCq2    C7  949   4.319   2.620  15.289  0.6949  0.3880  0.2195
   62TCq2    C8  950   4.354   2.822  15.416  0.6107 -0.0563  0.5998
   62TCq2    O4  951   4.373   2.885  15.315 -0.3646 -0.1108 -0.1284
   62TCq2    C9  952   4.212   2.418  15.633 -0.3969  0.0205  0.3596
   62TCq2    O5  953   4.191   2.483  15.739  0.4817 -0.4797  0.0750
   62TCq2    O6  954   4.253   2.301  15.633 -0.1441 -0.5130  0.2482
   62TCq2    H2  955   4.265   2.307  15.392  1.7003  0.0129  1.8194
   62TCq2    H3  956   4.231   2.666  15.612  1.1451 -1.1085  0.7792
   62TCq2    H4  957   4.349   2.685  15.207 -1.6367 -0.8646 -1.6247
   63TMC2    C1  958   3.955   2.578  10.875 -0.1905 -0.2657 -0.0084
   63TMC2    C2  959   4.070   2.613  10.935 -0.9747 -0.1449 -0.1792
   63TMC2    C3  960   4.187   2.639  10.863 -0.7587 -0.1358  0.4005
   63TMC2    C4  961   3.945   2.570  10.738  0.5528 -0.3879  0.5930
   63TMC2    C5  962   4.058   2.603  10.669  0.2437 -0.1143 -1.0352
   63TMC2    C6  963   4.183   2.630  10.727 -0.5080 -0.4827  0.4341
   63TMC2     C  964   3.837   2.566  10.954  0.2597  0.2750  0.0939
   63TMC2     O  965   3.862   2.589  11.073 -0.6143 -0.2900  0.1007
   63TMC2     H  966   4.086   2.609  11.042  1.1081  1.0292 -0.4502
   63TMC2    H1  967   3.848   2.555  10.691 -0.2301 -1.3625  2.5008
   63TMC2    H2  968   4.267   2.650  10.661 -0.2547  1.0447  1.2189
   63TMC2    C7  969   4.038   2.632  10.528  0.1121  0.4277  0.7193
   63TMC2    C8  970   4.283   2.717  10.935 -0.0192  0.4968  0.4085
   63TMC2    O1  971   3.946   2.568  10.490 -0.5291  0.1446  0.0779
   63TMC2    O2  972   4.256   2.813  11.008 -0.7540 -0.4550  0.1617
   63TMC2    O5  973   4.385   2.725  10.844 -0.0400  0.0249  0.5795
   63TMC2    H5  974   4.403   2.636  10.806  2.4664  1.2781 -1.2080
   64MPD2     C  975   3.362   2.365  11.025  0.0930  0.3685  0.4283
   64MPD2    C1  976   3.416   2.330  10.897  0.0799 -0.3425 -0.0945
   64MPD2    C2  977   3.530   2.387  10.858 -0.0128  0.0179 -0.5681
   64MPD2    C3  978   3.602   2.472  10.933  0.1648 -0.0569  0.1136
   64MPD2    C4  979   3.557   2.494  11.067 -0.2203 -0.1922  0.2391
   64MPD2    C5  980   3.438   2.443  11.109  0.3389  0.1672 -0.3744
   64MPD2     H  981   3.569   2.365  10.759  3.3852 -0.5445  0.8744
   64MPD2    H1  982   3.612   2.557  11.135 -0.2421  1.0832 -0.9130
   64MPD2    H2  983   3.265   2.330  11.059 -0.0643 -0.2568 -0.6718
   64MPD2    H3  984   3.393   2.478  11.201 -0.2077  1.5088 -1.1620
   64MPD2     N  985   3.732   2.515  10.885 -0.0055 -0.4396  0.2032
   64MPD2    H5  986   3.756   2.484  10.791 -0.8273 -0.6564  0.0687
   64MPD2    N1  987   3.361   2.232  10.805  0.2034  0.3457 -0.6069
   64MPD2    H7  988   3.410   2.236  10.716  2.5684  1.1915  0.7183
   65MPD2     C  989   4.406   1.843  15.409  0.3342  0.0577  0.3078
   65MPD2    C1  990   4.503   1.846  15.317 -0.4637 -0.1382 -0.0632
   65MPD2    C2  991   4.551   1.731  15.258 -0.1010  0.3799 -0.0889
   65MPD2    C3  992   4.491   1.613  15.293  0.5753 -0.4025 -0.2250
   65MPD2    C4  993   4.391   1.614  15.385  0.6601  0.5704  0.2252
   65MPD2    C5  994   4.344   1.726  15.435 -0.0386  0.0753 -0.5456
   65MPD2     H  995   4.634   1.739  15.190 -0.6161  0.3545 -0.7201
   65MPD2    H1  996   4.335   1.529  15.423  0.4541  0.8082  0.4472
   65MPD2    H2  997   4.349   1.931  15.437  0.9441  0.4689  0.2596
   65MPD2    H3  998   4.250   1.725  15.489  1.0299  0.7269  1.3423
   65MPD2     N  999   4.526   1.489  15.226 -0.1341 -0.2083 -0.1913
   65MPD2    H5 1000   4.460   1.414  15.246 -0.5890  0.2748  0.1048
   65MPD2    N1 1001   4.554   1.965  15.265  0.2467 -0.3331 -0.1582
   65MPD2    H7 1002   4.617   1.956  15.186  0.6268 -0.2374  0.1355
   66TCq2    C1 1003   4.537   2.096  15.315  0.1083  0.4768 -0.7454
   66TCq2    O2 1004   4.465   2.132  15.408  0.1102 -0.0493  0.4853
   66TCq2    C2 1005   4.595   2.198  15.233  0.4237  1.2135 -0.1046
   66TCq2    C3 1006   4.664   2.172  15.117  0.4040  0.8416 -0.2940
   66TCq2    C4 1007   4.719   2.267  15.040 -0.1486 -1.1899  0.2181
   66TCq2    C5 1008   4.708   2.395  15.084 -0.2615  0.1327  0.1277
   66TCq2    C6 1009   4.667   2.418  15.215 -0.0825  0.1409  0.0285
   66TCq2    C7 1010   4.609   2.321  15.295  0.1946  0.3171  0.0029
   66TCq2    C8 1011   4.666   2.559  15.252 -0.4715 -0.2663 -0.6139
   66TCq2    O4 1012   4.690   2.638  15.163  0.1297 -0.0198  0.8241
   66TCq2    C9 1013   0.060   2.239  14.916 -0.1930 -0.1197  0.4946
   66TCq2    O5 1014   0.060   2.124  14.869 -0.2165  0.5504 -0.3023
   66TCq2    O6 1015   0.108   2.338  14.856  0.3211  0.2563 -0.0127
   66TCq2    H2 1016   4.664   2.073  15.075  0.5847  0.9858 -0.6331
   66TCq2    H3 1017   0.024   2.467  15.014  1.6492 -0.6772  0.4380
   66TCq2    H4 1018   4.567   2.349  15.391  0.8483 -1.6115  0.8504
   67MPD2     C 1019   4.678   1.577  13.780  0.1451  0.0320 -0.3179
   67MPD2    C1 1020   4.668   1.696  13.851 -0.1205  0.1317  0.3385
   67MPD2    C2 1021   4.583   1.798  13.802  0.7140 -0.0917  0.4679
   67MPD2    C3 1022   4.518   1.781  13.682  0.0997  0.3031 -0.0416
   67MPD2    C4 1023   4.543   1.666  13.612  0.1279 -0.4041 -0.8936
   67MPD2    C5 1024   4.615   1.566  13.661 -0.7786  0.1603 -0.7330
   67MPD2     H 1025   4.573   1.892  13.855  3.0559  0.5303 -0.2005
   67MPD2    H1 1026   4.487   1.648  13.521  1.1295 -0.7834 -1.4296
   67MPD2    H2 1027   0.009   1.494  13.819  0.2710  0.5852  0.6682
   67MPD2    H3 1028   4.622   1.477  13.600 -1.0896 -1.6627  1.9443
   67MPD2     N 1029   4.423   1.866  13.627  0.0522 -0.7606  0.4441
   67MPD2    H5 1030   4.372   1.837  13.544  0.0891  0.6516 -0.0800
   67MPD2    N1 1031   0.007   1.702  13.977 -0.4314  0.0124 -0.3579
   67MPD2    H7 1032   0.046   1.614  14.011 -0.0306  0.1290 -0.5161
   68TCq2    C1 1033   0.032   1.814  14.055  0.1629  0.0069 -0.0208
   68TCq2    O2 1034   4.723   1.932  14.042 -0.0816 -0.0318 -0.5068
   68TCq2    C2 1035   0.115   1.789  14.173  0.2882 -0.5131 -0.5265
   68TCq2    C3 1036   0.140   1.899  14.246 -0.9490 -0.0409  0.1147
   68TCq2    C4 1037   0.196   1.874  14.367  0.6369 -0.1773 -0.4332
   68TCq2    C5 1038   0.226   1.749  14.414 -0.2425  0.3766  0.5511
   68TCq2    C6 1039   0.206   1.641  14.332 -0.9181  0.3313 -0.3391
   68TCq2    C7 1040   0.134   1.663  14.217  0.3484  0.3341  0.5279
   68TCq2    C8 1041   0.216   1.507  14.392 -0.2455 -0.1442 -0.2411
   68TCq2    O4 1042   0.198   1.417  14.305  0.1733 -0.3022  0.4485
   68TCq2    C9 1043   0.235   1.989  14.446  0.6576 -0.1692 -0.5623
   68TCq2    O5 1044   0.182   2.100  14.420  0.2368 -0.1134 -0.3440
   68TCq2    O6 1045   0.265   1.966  14.564  0.0590 -0.2737 -0.7638
   68TCq2    H2 1046   0.127   2.000  14.208  0.7564  0.4353  0.8287
   68TCq2    H3 1047   0.284   1.744  14.506 -1.1771  0.7155  1.1663
   68TCq2    H4 1048   0.113   1.579  14.151  1.9431  0.3580 -0.0182
   69TMC2    C1 1049   1.715   2.585  12.128 -0.1148  0.3109  0.0802
   69TMC2    C2 1050   1.653   2.713  12.111  1.1706 -0.1358 -0.7584
   69TMC2    C3 1051   1.670   2.789  11.995 -0.0568 -0.1736 -0.2081
   69TMC2    C4 1052   1.806   2.548  12.033  0.1465  0.0027  0.4242
   69TMC2    C5 1053   1.816   2.622  11.913  0.4654  0.5142  1.0091
   69TMC2    C6 1054   1.751   2.742  11.895  0.8180  0.1650  0.1522
   69TMC2     C 1055   1.724   2.526  12.264 -0.1814 -0.0975  0.3213
   69TMC2     O 1056   1.636   2.556  12.347  0.7776  0.3276  0.5459
   69TMC2     H 1057   1.593   2.743  12.196 -0.3843  0.1754 -1.9607
   69TMC2    H1 1058   1.835   2.444  12.029 -0.2068 -0.1105  0.8382
   69TMC2    H2 1059   1.770   2.795  11.802  1.7647 -1.6542 -0.7011
   69TMC2    C7 1060   1.927   2.585  11.825  0.1704 -0.4173 -0.5708
   69TMC2    C8 1061   1.638   2.928  11.997 -0.0337  0.7694 -0.5663
   69TMC2    O1 1062   2.030   2.560  11.888  0.3034  0.6446  0.3274
   69TMC2    O2 1063   1.554   2.978  12.067 -0.0957 -0.4020  0.1779
   69TMC2    O5 1064   1.748   2.988  11.954  0.8734 -0.6781  0.3336
   69TMC2    H5 1065   1.814   2.936  11.903  1.6380 -0.5560  1.2182
   70MPD2     C 1066   1.991   2.326  12.398 -0.0757  0.0313  0.0105
   70MPD2    C1 1067   1.871   2.378  12.388 -0.8624 -0.3187 -0.1159
   70MPD2    C2 1068   1.787   2.360  12.497  0.2148 -0.5848  0.1238
   70MPD2    C3 1069   1.835   2.303  12.610  0.0014  0.0674  0.0048
   70MPD2    C4 1070   1.965   2.253  12.608  0.2506 -0.0355 -0.3469
   70MPD2    C5 1071   2.047   2.266  12.502 -0.2084  0.2956 -0.1190
   70MPD2     H 1072   1.686   2.397  12.492  0.6698  0.7645  0.9721
   70MPD2    H1 1073   2.006   2.189  12.685 -1.0750 -1.0296 -0.4777
   70MPD2    H2 1074   2.057   2.353  12.316  0.6489  1.5113  1.0988
   70MPD2    H3 1075   2.148   2.228  12.490 -0.1567  0.7720 -1.1670
   70MPD2     N 1076   1.756   2.267  12.719  0.0270 -0.0366 -0.5327
   70MPD2    H5 1077   1.805   2.237  12.803 -1.7621 -0.4848  0.3383
   70MPD2    N1 1078   1.838   2.453  12.277  0.7252  0.2788 -0.2237
   70MPD2    H7 1079   1.911   2.459  12.207  1.5508  0.7744  0.6730
   71TMC2    C1 1080   4.395   2.587   1.808  0.5611  0.6035 -0.0603
   71TMC2    C2 1081   4.470   2.468   1.823  0.5111  0.0299 -0.3465
   71TMC2    C3 1082   4.399   2.350   1.827 -0.1318 -0.4152 -0.8854
   71TMC2    C4 1083   4.265   2.583   1.774 -0.4077 -0.9310 -0.0784
   71TMC2    C5 1084   4.203   2.468   1.757 -0.3336  0.6806 -0.7305
   71TMC2    C6 1085   4.265   2.347   1.790  0.1740  0.6245 -0.2387
   71TMC2     C 1086   4.475   2.715   1.801 -0.0365 -0.6895 -0.1703
   71TMC2     O 1087   4.435   2.809   1.731  0.6766  0.2836 -0.0739
   71TMC2     H 1088   4.577   2.462   1.837  0.1054  1.7388  3.2521
   71TMC2    H1 1089   4.216   2.679   1.761 -1.1346 -1.2126  0.5536
   71TMC2    H2 1090   4.213   2.252   1.776  0.8499 -0.0189  1.6882
   71TMC2    C7 1091   4.061   2.454   1.758 -0.3770  0.4511 -0.1102
   71TMC2    C8 1092   4.458   2.235   1.885 -0.1658 -0.0060 -0.0053
   71TMC2    O1 1093   4.009   2.350   1.797  0.2924  0.2618  0.2065
   71TMC2    O2 1094   4.402   2.123   1.884  0.4137 -0.3989  0.4727
   71TMC2    O5 1095   4.521   2.286   1.994 -0.1237 -0.3332 -0.0692
   71TMC2    H5 1096   4.542   2.382   1.993  2.8932 -1.0007 -0.5061
   72MPD2     C 1097   0.172   2.978   1.907  0.2767 -0.2312 -0.1561
   72MPD2    C1 1098   0.089   2.986   1.796 -0.3656 -0.0979 -0.4167
   72MPD2    C2 1099   4.706   2.901   1.791  0.3430 -0.5291 -0.2438
   72MPD2    C3 1100   4.694   2.796   1.880 -0.3506 -1.0497  0.1023
   72MPD2    C4 1101   0.055   2.788   1.988 -0.6970 -0.1667 -0.0588
   72MPD2    C5 1102   0.147   2.884   2.002  0.2120  0.4699  0.0427
   72MPD2     H 1103   4.640   2.914   1.705 -1.5949 -3.7762  0.7564
   72MPD2    H1 1104   0.045   2.713   2.065 -0.3820 -0.2184 -0.0695
   72MPD2    H2 1105   0.264   3.035   1.913 -0.5838  0.9923  1.3490
   72MPD2    H3 1106   0.223   2.876   2.078 -1.4271  1.4023  1.7741
   72MPD2     N 1107   4.591   2.706   1.879  0.4825  0.7108  0.1695
   72MPD2    H5 1108   4.585   2.633   1.949  0.4642 -0.4623 -1.0453
   72MPD2    N1 1109   0.095   3.067   1.686  0.1986 -0.6086  0.0917
   72MPD2    H7 1110   0.037   3.058   1.603 -0.3268 -1.5202  0.5708
   73TMC2    C1 1111   4.157   4.677  13.504 -0.7849 -0.5597 -0.2704
   73TMC2    C2 1112   4.116   0.062  13.570 -0.2300 -0.1066 -0.1968
   73TMC2    C3 1113   4.190   0.116  13.658 -0.2088  0.7663 -0.8975
   73TMC2    C4 1114   4.269   4.614  13.551  0.0106  0.2767 -0.1657
   73TMC2    C5 1115   4.345   4.667  13.649 -0.5472 -0.7262 -0.3036
   73TMC2    C6 1116   4.309   0.059  13.707  0.2668  0.0897  0.0665
   73TMC2     C 1117   4.158   4.693  13.363 -1.1597  0.0670 -0.1794
   73TMC2     O 1118   4.210   0.068  13.328  0.0753 -0.3419 -0.2164
   73TMC2     H 1119   4.029   0.107  13.524 -0.1817  0.6296  0.4371
   73TMC2    H1 1120   4.311   4.535  13.491 -0.7335 -1.5616  1.7051
   73TMC2    H2 1121   4.376   0.110  13.775 -0.4419 -1.3151  1.8323
   73TMC2    C7 1122   4.485   4.674  13.609 -0.5121 -0.1640 -0.2993
   73TMC2    C8 1123   4.127   0.198  13.753 -0.2055  0.1351 -0.3836
   73TMC2    O1 1124   4.565   4.674  13.703 -0.0439 -0.1889  0.4227
   73TMC2    O2 1125   4.031   0.269  13.725  0.5919 -0.6603  0.2201
   73TMC2    O5 1126   4.144   0.142  13.878 -0.1417 -1.1041  0.4640
   73TMC2    H5 1127   4.204   0.065  13.885 -2.0423 -2.7232 -1.1606
   74MPD2     C 1128   4.318   4.499  12.919 -0.2616  0.2566  0.6272
   74MPD2    C1 1129   4.330   4.629  12.965  1.0230 -0.1323  0.1848
   74MPD2    C2 1130   4.286   4.653  13.091 -0.1294  0.2239  0.1046
   74MPD2    C3 1131   4.225   4.553  13.170 -0.5357  0.1275 -0.1044
   74MPD2    C4 1132   4.218   4.427  13.123  0.0219 -0.0531 -0.3381
   74MPD2    C5 1133   4.273   4.397  12.998 -0.5997 -0.3133 -0.2577
   74MPD2     H 1134   4.276   0.033  13.111 -0.8468  0.6007 -2.2868
   74MPD2    H1 1135   4.173   4.350  13.186 -0.8948  0.4130 -0.4306
   74MPD2    H2 1136   4.356   4.469  12.822 -1.2833  0.7817  0.0629
   74MPD2    H3 1137   4.276   4.292  12.971  0.1993  0.2833 -2.4344
   74MPD2     N 1138   4.173   4.575  13.301 -0.3496 -0.1488 -0.3216
   74MPD2    H5 1139   4.141   4.493  13.352 -0.5058 -0.3607 -0.7529
   74MPD2    N1 1140   4.390   4.718  12.872 -0.4086 -0.3365 -0.1249
   74MPD2    H7 1141   4.397   4.689  12.775  2.2233  0.5018 -0.1854
   75TCq2    C1 1142   4.393   1.991  13.673 -0.1962  0.0087  0.1413
   75TCq2    O2 1143   4.424   2.046  13.779  0.0200 -0.9374 -0.4746
   75TCq2    C2 1144   4.309   2.065  13.584  0.3100 -0.1790  0.1791
   75TCq2    C3 1145   4.287   2.195  13.616 -0.2679  0.1915  0.4364
   75TCq2    C4 1146   4.241   2.284  13.530 -0.4786  0.4824 -0.5708
   75TCq2    C5 1147   4.206   2.241  13.406 -0.6647  0.8063  0.7737
   75TCq2    C6 1148   4.229   2.112  13.372 -0.0462 -0.2956  1.1636
   75TCq2    C7 1149   4.277   2.017  13.457  0.2611 -0.1009 -0.3365
   75TCq2    C8 1150   4.165   2.059  13.251  0.2687  0.1277  0.6733
   75TCq2    O4 1151   4.205   1.952  13.212  0.1173 -0.8234  0.8508
   75TCq2    C9 1152   4.224   2.426  13.572  0.0565  0.1751 -0.1178
   75TCq2    O5 1153   4.160   2.499  13.494  0.5679  0.3061 -0.1567
   75TCq2    O6 1154   4.263   2.467  13.681  0.0581  0.1123  0.4249
   75TCq2    H2 1155   4.324   2.245  13.705 -1.5762 -1.2703  1.8065
   75TCq2    H3 1156   4.171   2.312  13.332  1.1667  0.5325 -0.3295
   75TCq2    H4 1157   4.287   1.915  13.421  2.4343  0.6939 -2.0355
   76MPD2     C 1158   3.185   2.120  11.673 -0.1592 -0.6996  0.6518
   76MPD2    C1 1159   3.057   2.074  11.648 -0.3054 -0.1926 -0.0921
   76MPD2    C2 1160   3.028   1.947  11.620  0.4325  0.1662  0.0730
   76MPD2    C3 1161   3.127   1.854  11.621  0.7989 -0.1012  0.7424
   76MPD2    C4 1162   3.259   1.900  11.628  0.1278  0.0611 -0.0444
   76MPD2    C5 1163   3.288   2.030  11.659 -0.2233 -0.7206 -0.0921
   76MPD2     H 1164   2.922   1.927  11.606  0.3177  0.3092  0.7101
   76MPD2    H1 1165   3.339   1.829  11.619  0.1908 -0.1212  2.0095
   76MPD2    H2 1166   3.206   2.224  11.693 -0.1517 -0.8792  1.6105
   76MPD2    H3 1167   3.389   2.069  11.661 -0.5585  0.1766 -0.6544
   76MPD2     N 1168   3.096   1.717  11.604  0.1404  0.2290 -0.5405
   76MPD2    H5 1169   3.180   1.660  11.615 -1.0063 -1.2306  0.6796
   76MPD2    N1 1170   2.953   2.173  11.656  0.0391 -0.4488  0.0716
   76MPD2    H7 1171   2.984   2.269  11.663 -1.0357 -0.0017 -1.3553
   77TCq2    C1 1172   2.975   1.659  11.582  0.7307 -0.0421 -1.0171
   77TCq2    O2 1173   2.873   1.721  11.553 -0.1739 -0.1609 -0.6399
   77TCq2    C2 1174   2.969   1.514  11.572 -0.2394  0.1760  0.0486
   77TCq2    C3 1175   2.866   1.471  11.498  0.2661 -0.3961 -0.1372
   77TCq2    C4 1176   2.845   1.331  11.502 -0.4242  0.0381 -0.3524
   77TCq2    C5 1177   2.920   1.244  11.582  0.0793 -0.9674 -0.9346
   77TCq2    C6 1178   3.013   1.304  11.668  0.5970  1.0210  0.2287
   77TCq2    C7 1179   3.035   1.443  11.664 -0.3555  0.2992  0.0717
   77TCq2    C8 1180   3.087   1.205  11.740 -0.4257  0.1821 -0.3166
   77TCq2    O4 1181   3.018   1.114  11.782 -0.2247 -0.8232 -1.1064
   77TCq2    C9 1182   2.757   1.277  11.403 -0.0746  0.5549 -0.3632
   77TCq2    O5 1183   2.776   1.159  11.361 -0.9336 -0.1365 -0.1926
   77TCq2    O6 1184   2.664   1.355  11.364 -0.0420  0.0316  0.2726
   77TCq2    H2 1185   2.807   1.532  11.431 -1.0918 -1.3607  0.1800
   77TCq2    H3 1186   2.913   1.137  11.566  0.5767 -1.1472  0.0990
   77TCq2    H4 1187   3.098   1.490  11.738  0.4921  0.0272 -0.4698
   78MPD1     C 1188   3.912   2.600   1.334  0.3749  0.0277 -0.2716
   78MPD1    C1 1189   3.783   2.614   1.287  0.3146 -0.1592 -0.2045
   78MPD1    C2 1190   3.759   2.654   1.155 -0.5430 -0.2713  0.4581
   78MPD1    C3 1191   3.864   2.684   1.074  0.4504 -0.3309  0.4913
   78MPD1    C4 1192   3.991   2.683   1.125 -0.1268 -0.1019 -0.1671
   78MPD1    C5 1193   4.017   2.636   1.252  0.1580  0.3507 -0.6329
   78MPD1     H 1194   3.659   2.659   1.113 -0.4020 -1.2715  0.0137
   78MPD1    H1 1195   4.075   2.702   1.058  0.1622  1.3404  0.5898
   78MPD1    H2 1196   3.938   2.556   1.430  1.0156 -0.0993 -0.4999
   78MPD1    H3 1197   4.113   2.611   1.296 -0.4809 -1.6181 -0.3874
   78MPD1     N 1198   3.855   2.723   0.939  0.0244  0.1433  0.0834
   78MPD1    H5 1199   3.940   2.747   0.889  1.6904 -0.8867  2.4372
   78MPD1    N1 1200   3.678   2.574   1.363  0.6574 -0.3307 -0.1850
   78MPD1    H6 1201   3.704   2.569   1.461 -2.1436  1.3627  0.6554
   78MPD1    H7 1202   3.594   2.632   1.353 -0.5976 -1.8442  1.6543
   79TCq2    C1 1203   3.736   2.735   0.866  0.8566 -0.2530 -0.2462
   79TCq2    O2 1204   3.620   2.709   0.895 -0.1152 -0.1804 -0.0479
   79TCq2    C2 1205   3.752   2.809   0.741 -0.1116  0.6231  0.1214
   79TCq2    C3 1206   3.657   2.796   0.641 -0.3968 -0.0221  0.0290
   79TCq2    C4 1207   3.698   2.852   0.518  0.4785  0.9265  0.5222
   79TCq2    C5 1208   3.814   2.911   0.501  0.2920 -1.3292 -0.4691
   79TCq2    C6 1209   3.904   2.931   0.605 -0.6689 -0.6999 -0.9806
   79TCq2    C7 1210   3.868   2.886   0.730 -0.1527  1.0161  0.2850
   79TCq2    C8 1211   4.052   2.949   0.586  0.2016 -0.2263  0.8824
   79TCq2    O4 1212   4.127   2.936   0.680  0.0981  0.6421 -0.2914
   79TCq2    C9 1213   3.611   2.836   0.401 -0.2775 -0.3354 -0.2273
   79TCq2    O5 1214   3.493   2.795   0.414 -0.0917  0.2463 -0.1929
   79TCq2    O6 1215   3.649   2.896   0.297  0.5302 -0.1765 -0.2940
   79TCq2    H2 1216   3.566   2.738   0.649 -1.3268  1.3894 -0.3672
   79TCq2    H3 1217   3.830   2.955   0.403  0.1878  0.9809  0.5438
   79TCq2    H4 1218   3.935   2.904   0.813  0.3387 -1.4245  0.4343
   80MPD2     C 1219   2.363   1.491  12.134  0.3212  0.2876 -0.5291
   80MPD2    C1 1220   2.240   1.530  12.107 -0.6489  0.7020  0.4462
   80MPD2    C2 1221   2.154   1.542  12.212  0.1867  0.0040 -0.3484
   80MPD2    C3 1222   2.185   1.502  12.338 -0.1852  0.5052 -0.1168
   80MPD2    C4 1223   2.316   1.461  12.365  0.1128 -0.6407 -0.5705
   80MPD2    C5 1224   2.404   1.467  12.258  0.3975 -0.0710  0.4985
   80MPD2     H 1225   2.060   1.591  12.191  0.9258  2.2310  1.5518
   80MPD2    H1 1226   2.346   1.447  12.468  0.2925 -1.4754 -0.7296
   80MPD2    H2 1227   2.446   1.493  12.064  2.2092  1.0078  1.7247
   80MPD2    H3 1228   2.507   1.440  12.277  0.9492  2.8116  1.6467
   80MPD2     N 1229   2.095   1.506  12.450  0.6023  0.4478  0.3662
   80MPD2    H5 1230   2.124   1.462  12.537 -0.7702 -1.2308 -0.0149
   80MPD2    N1 1231   2.185   1.563  11.979  0.1625  0.5161  0.3813
   80MPD2    H7 1232   2.090   1.599  11.969 -0.5460 -0.5912  2.9453
   81TCq2    C1 1233   2.247   1.524  11.860  0.0702  0.2727 -0.0268
   81TCq2    O2 1234   2.354   1.466  11.836  0.2923 -0.0120 -0.3538
   81TCq2    C2 1235   2.164   1.532  11.743  1.3053  0.3967 -0.2068
   81TCq2    C3 1236   2.224   1.577  11.636  0.1215 -0.5620 -0.3497
   81TCq2    C4 1237   2.153   1.576  11.520 -0.9142 -1.1577  0.4475
   81TCq2    C5 1238   2.021   1.548  11.514 -0.6582 -0.1914 -0.1703
   81TCq2    C6 1239   1.959   1.514  11.636 -0.0627 -1.0716 -0.1066
   81TCq2    C7 1240   2.030   1.504  11.750 -0.2835  0.5823  0.0456
   81TCq2    C8 1241   1.853   1.416  11.608 -0.1721 -0.0831 -0.3407
   81TCq2    O4 1242   1.760   1.443  11.529  0.4927  0.3607 -0.0524
   81TCq2    C9 1243   2.227   1.602  11.398  0.1817  0.0524  0.1824
   81TCq2    O5 1244   2.351   1.602  11.411  0.0139  0.0551 -0.5100
   81TCq2    O6 1245   2.168   1.602  11.284 -0.5193 -0.0464  0.0996
   81TCq2    H2 1246   2.330   1.598  11.642 -0.0467  0.0938  0.3150
   81TCq2    H3 1247   1.966   1.546  11.421 -3.1923  0.9375  1.2847
   81TCq2    H4 1248   1.988   1.464  11.842 -0.7643 -1.3536 -1.0084
   82MPD2     C 1249   0.077   1.389  10.837  0.2671 -0.1369 -0.3246
   82MPD2    C1 1250   0.087   1.285  10.752 -0.3725  0.9518  0.0139
   82MPD2    C2 1251   0.191   1.195  10.775  0.3165  0.6195  0.0469
   82MPD2    C3 1252   0.281   1.220  10.882 -0.4993  0.3698  0.9656
   82MPD2    C4 1253   0.271   1.332  10.954 -0.3372  0.1810  0.0055
   82MPD2    C5 1254   0.171   1.415  10.933 -0.4274 -0.6354  0.1388
   82MPD2     H 1255   0.198   1.115  10.703  4.1122  0.4589  0.6136
   82MPD2    H1 1256   0.339   1.361  11.033  0.1752 -1.3350  0.1297
   82MPD2    H2 1257   4.707   1.440  10.831 -0.0954 -0.5562  1.7794
   82MPD2    H3 1258   0.151   1.507  10.986 -1.2375 -0.7575  0.0385
   82MPD2     N 1259   0.390   1.130  10.909 -0.2891 -0.0012 -0.3402
   82MPD2    H5 1260   0.442   1.149  10.994  0.0257 -0.7407 -0.3609
   82MPD2    N1 1261   4.718   1.278  10.657  0.1987  0.1128 -0.4185
   82MPD2    H7 1262   4.654   1.356  10.649  1.4233  1.1312 -0.3399
   83TCq2    C1 1263   0.425   1.017  10.837 -0.1024 -1.3649  0.2363
   83TCq2    O2 1264   0.387   0.983  10.726  0.4016 -0.3172 -0.0167
   83TCq2    C2 1265   0.530   0.944  10.899  0.0409  0.2494 -0.2811
   83TCq2    C3 1266   0.622   1.001  10.983 -1.2675  0.1629  0.3725
   83TCq2    C4 1267   0.696   0.915  11.064 -0.1297  0.2155 -0.1651
   83TCq2    C5 1268   0.699   0.775  11.043  0.3529  0.2138 -0.1611
   83TCq2    C6 1269   0.614   0.724  10.954 -0.5737 -0.6231 -0.9455
   83TCq2    C7 1270   0.523   0.803  10.883 -0.4983  0.2013 -0.0346
   83TCq2    C8 1271   0.565   0.587  10.980 -0.0238  0.1412 -0.2562
   83TCq2    O4 1272   0.590   0.540  11.086  0.2087 -0.2089  0.1505
   83TCq2    C9 1273   0.783   0.980  11.160 -0.4853 -0.0217  0.2259
   83TCq2    O5 1274   0.756   1.103  11.185 -0.0866 -0.0298 -0.1537
   83TCq2    O6 1275   0.892   0.919  11.175 -0.6210 -0.1636  0.6481
   83TCq2    H2 1276   0.646   1.106  10.969  3.5276 -1.1580 -1.4610
   83TCq2    H3 1277   0.771   0.712  11.095  0.9564  0.4814 -0.6619
   83TCq2    H4 1278   0.454   0.762  10.810 -4.0097  1.3826  2.5999
   84TCq2    C1 1279   1.202   4.520  10.200  0.7212  0.4001 -0.2497
   84TCq2    O2 1280   1.120   4.441  10.252 -0.5110 -0.1460  0.0149
   84TCq2    C2 1281   1.311   4.579  10.273  0.1853 -0.5212  0.3746
   84TCq2    C3 1282   1.431   4.604  10.210 -0.4360  0.1878 -0.0770
   84TCq2    C4 1283   1.522   4.667  10.287  0.5306 -0.0035 -0.0594
   84TCq2    C5 1284   1.507   4.706  10.419  0.4996 -0.5731 -0.6220
   84TCq2    C6 1285   1.384   4.679  10.474 -0.3051  0.4265  0.0187
   84TCq2    C7 1286   1.285   4.621  10.397  0.3090 -0.0343  0.2002
   84TCq2    C8 1287   1.356   4.724  10.611 -0.4320 -0.1939  0.0750
   84TCq2    O4 1288   1.425   0.092  10.649  0.4079  0.1256  0.0662
   84TCq2    C9 1289   1.648   4.690  10.227 -0.6463  0.4321 -0.0408
   84TCq2    O5 1290   1.742   4.699  10.309 -0.1551 -0.1786 -0.5976
   84TCq2    O6 1291   1.653   4.670  10.106 -0.5780  0.5361 -0.0026
   84TCq2    H2 1292   1.453   4.557  10.114  0.1655 -0.4636  0.3735
   84TCq2    H3 1293   1.583   0.039  10.469 -0.5632  0.8034 -0.6231
   84TCq2    H4 1294   1.184   4.603  10.432  0.0003 -2.1154 -1.7690
   85MPD2     C 1295   2.332   2.896  16.137  0.0577 -0.4540  1.0455
   85MPD2    C1 1296   2.272   2.888  16.013 -0.0567 -0.4393 -0.1071
   85MPD2    C2 1297   2.308   2.977  15.909 -0.4423  0.2358 -0.0557
   85MPD2    C3 1298   2.411   3.071  15.927  0.2800  0.4991  0.4137
   85MPD2    C4 1299   2.470   3.083  16.051 -0.4090  0.0332 -0.0298
   85MPD2    C5 1300   2.422   2.998  16.158 -0.3113  0.1084 -1.1237
   85MPD2     H 1301   2.259   2.981  15.812  2.5390  0.1240 -1.5704
   85MPD2    H1 1302   2.555   3.147  16.069  0.0766 -1.1229  1.7809
   85MPD2    H2 1303   2.304   2.829  16.217 -2.6380 -1.7522 -0.9781
   85MPD2    H3 1304   2.466   3.013  16.256 -0.8197  0.9667 -1.0233
   85MPD2     N 1305   2.457   3.139  15.808  0.1639 -0.3574 -0.3504
   85MPD2    H5 1306   2.395   3.143  15.728  1.3796 -1.6924 -1.3475
   85MPD2    N1 1307   2.176   2.788  15.985 -0.7555  0.4659 -0.5720
   85MPD2    H7 1308   2.132   2.788  15.894 -0.2081 -0.3850 -0.8364
   86TCq2    C1 1309   2.589   3.187  15.793 -0.3226 -0.9823 -0.5355
   86TCq2    O2 1310   2.684   3.177  15.869 -0.0302  0.4122 -0.3641
   86TCq2    C2 1311   2.617   3.252  15.668  0.5975 -0.4584 -0.6146
   86TCq2    C3 1312   2.521   3.327  15.601  0.7472 -0.2863  0.2117
   86TCq2    C4 1313   2.557   3.414  15.508 -0.0187 -1.1703  0.5247
   86TCq2    C5 1314   2.692   3.417  15.460  0.2806  0.2717 -0.2975
   86TCq2    C6 1315   2.789   3.350  15.532  0.4230 -0.2589 -0.8109
   86TCq2    C7 1316   2.751   3.278  15.639  0.6920 -0.4127  0.1157
   86TCq2    C8 1317   2.928   3.347  15.498  0.7916 -0.2757 -0.1754
   86TCq2    O4 1318   2.999   3.298  15.585  0.4408  0.2479 -0.0006
   86TCq2    C9 1319   2.468   3.515  15.473 -0.5223 -0.2941  0.4967
   86TCq2    O5 1320   2.359   3.533  15.538  0.3483 -0.2982 -0.4102
   86TCq2    O6 1321   2.504   3.576  15.372 -0.4975 -0.3898 -0.3704
   86TCq2    H2 1322   2.419   3.330  15.639  0.4665  0.1463 -0.5840
   86TCq2    H3 1323   2.710   3.490  15.381  1.1801  0.5306  0.1437
   86TCq2    H4 1324   2.823   3.237  15.709 -0.7375 -1.9376  0.7057
   87MPD2     C 1325   4.682   2.042   0.865  0.0714 -0.5023  0.6623
   87MPD2    C1 1326   4.574   1.967   0.912 -0.5819  0.2535 -1.0450
   87MPD2    C2 1327   4.455   2.037   0.946 -0.4247 -0.2929 -0.1678
   87MPD2    C3 1328   4.455   2.172   0.947  0.0630  0.1813 -0.1274
   87MPD2    C4 1329   4.567   2.243   0.900  0.1043  0.6702 -0.4372
   87MPD2    C5 1330   4.677   2.178   0.854 -0.6154  0.7304 -0.5402
   87MPD2     H 1331   4.365   1.977   0.962 -0.0398 -0.9643 -0.5100
   87MPD2    H1 1332   4.568   2.351   0.889 -2.0371  0.6980 -0.3807
   87MPD2    H2 1333   0.047   1.986   0.844  0.1481 -0.5235  1.0429
   87MPD2    H3 1334   0.041   2.232   0.828  0.7599 -1.5051 -0.4876
   87MPD2     N 1335   4.339   2.246   0.984  0.2957 -0.0256 -0.1712
   87MPD2    H5 1336   4.342   2.346   0.967 -2.1595 -0.7744 -4.8897
   87MPD2    N1 1337   4.578   1.824   0.912  0.1790  0.4342  0.4103
   87MPD2    H7 1338   4.666   1.790   0.875  0.0113  0.3428  0.0977
   88TCq2    C1 1339   4.486   1.739   0.974  0.1607 -0.4892 -0.4483
   88TCq2    O2 1340   4.396   1.759   1.059 -0.7038  0.0469 -0.6607
   88TCq2    C2 1341   4.496   1.596   0.941  0.0243  0.7200 -0.6619
   88TCq2    C3 1342   4.398   1.509   0.992  0.0011  0.0727 -0.1446
   88TCq2    C4 1343   4.398   1.377   0.948  0.0705 -0.1112  0.5476
   88TCq2    C5 1344   4.483   1.329   0.850 -0.1047  0.1576 -0.2408
   88TCq2    C6 1345   4.562   1.425   0.792  1.0363  0.5509 -0.4473
   88TCq2    C7 1346   4.578   1.553   0.841  0.4499  0.2536  0.4665
   88TCq2    C8 1347   4.656   1.371   0.689 -0.7845 -0.3173  0.3166
   88TCq2    O4 1348   4.714   1.453   0.612 -0.4583  1.1535  0.5944
   88TCq2    C9 1349   4.297   1.293   1.009 -0.5534 -0.1397 -0.5303
   88TCq2    O5 1350   4.230   1.345   1.104  0.0911  0.0507 -0.6606
   88TCq2    O6 1351   4.291   1.175   0.969 -0.0475 -0.0366 -0.1616
   88TCq2    H2 1352   4.329   1.545   1.067  0.0245  0.6961 -0.4196
   88TCq2    H3 1353   4.486   1.226   0.816  0.0747  0.3872 -0.9226
   88TCq2    H4 1354   4.644   1.626   0.794  0.0555  1.1106  1.2488
   89MPD2     C 1355   1.077   4.489   1.960 -0.3136  0.1129  0.7310
   89MPD2    C1 1356   0.985   4.597   1.964 -0.2562 -0.0743 -0.1726
   89MPD2    C2 1357   1.034   4.726   1.957  0.8475  0.2210 -0.6652
   89MPD2    C3 1358   1.168   0.026   1.943 -0.3600  0.7728  0.0483
   89MPD2    C4 1359   1.259   4.636   1.949  0.0502 -0.0548  0.1794
   89MPD2    C5 1360   1.212   4.507   1.966 -0.3601 -0.6956 -0.0607
   89MPD2     H 1361   0.974   0.089   1.970  1.5525  0.5854  0.0764
   89MPD2    H1 1362   1.366   4.653   1.955  0.8355 -4.0203 -2.1990
   89MPD2    H2 1363   1.043   4.388   1.980  0.0034 -0.3093 -0.8205
   89MPD2    H3 1364   1.286   4.429   1.985  1.0817  0.4949 -0.7494
   89MPD2     N 1365   1.207   0.162   1.921  0.4485  0.9885 -0.3286
   89MPD2    H5 1366   1.137   0.234   1.905 -1.0889 -1.0830 -3.0447
   89MPD2    N1 1367   0.839   4.575   1.970 -0.6904 -0.0079 -0.9792
   89MPD2    H7 1368   0.780   4.657   1.983 -1.2828 -0.3308 -1.5810
   90TCq2    C1 1369   1.338   0.201   1.895 -0.3603  1.2270  0.0565
   90TCq2    O2 1370   1.443   0.143   1.871  0.3376  0.7356  0.3440
   90TCq2    C2 1371   1.341   0.340   1.851  1.3068 -0.2656  0.4527
   90TCq2    C3 1372   1.230   0.386   1.787 -0.3875  0.7974 -0.1445
   90TCq2    C4 1373   1.234   0.515   1.748  0.2960 -1.0820  0.8927
   90TCq2    C5 1374   1.337   0.597   1.793 -0.1635  0.1670  0.3040
   90TCq2    C6 1375   1.433   0.550   1.882 -0.6307  0.7389  0.0984
   90TCq2    C7 1376   1.451   0.415   1.889 -0.0979  0.4369  0.4981
   90TCq2    C8 1377   1.550   0.628   1.914  0.6020  0.2279 -0.4030
   90TCq2    O4 1378   1.614   0.581   2.005 -0.0901  0.2947 -0.3740
   90TCq2    C9 1379   1.134   0.570   1.669  0.0663 -0.1611 -0.3866
   90TCq2    O5 1380   1.014   0.524   1.664 -0.4330  0.1538  0.1126
   90TCq2    O6 1381   1.164   0.675   1.608 -0.6038  0.0693  0.1308
   90TCq2    H2 1382   1.161   0.319   1.737  1.3827 -0.8201 -0.3849
   90TCq2    H3 1383   1.322   0.699   1.760 -2.7198 -0.0371  0.8507
   90TCq2    H4 1384   1.519   0.371   1.960 -0.3093  1.4523  1.3173
   91TMC2    C1 1385   2.019   4.071  16.091  0.4400 -1.1184 -0.1667
   91TMC2    C2 1386   2.026   4.107  16.222  0.3044 -0.3118 -0.5338
   91TMC2    C3 1387   1.922   4.062  16.299  0.4770 -0.3104  0.1002
   91TMC2    C4 1388   1.913   3.996  16.033  0.5554 -0.0222 -0.4288
   91TMC2    C5 1389   1.815   3.956  16.113  0.7065  0.7754 -0.6521
   91TMC2    C6 1390   1.821   3.988  16.246 -0.1361 -0.3802 -0.2912
   91TMC2     C 1391   2.119   4.119  15.997  0.0648 -0.1648 -0.1139
   91TMC2     O 1392   2.088   4.135  15.876  0.3448 -0.4126  0.1462
   91TMC2     H 1393   2.100   4.178  16.259  1.4821 -1.3911 -0.8294
   91TMC2    H1 1394   1.921   3.959  15.931  0.1044 -2.1573  0.3137
   91TMC2    H2 1395   1.742   3.956  16.313 -1.2559  0.5784 -1.1574
   91TMC2    C7 1396   1.733   3.844  16.086  0.1355  0.3450  0.3555
   91TMC2    C8 1397   1.940   4.069  16.439  0.2139  0.1783  0.1994
   91TMC2    O1 1398   1.658   3.807  16.175 -0.1403  0.6744  0.8567
   91TMC2    O2 1399   1.849   4.055  16.519  0.2544 -0.1344  0.0200
   91TMC2    O5 1400   2.063   4.035  16.472 -0.0267 -0.0263 -0.5934
   91TMC2    H5 1401   2.128   4.042  16.399 -2.3638  0.0864 -2.6727
   92MPD2     C 1402   2.363   4.214  15.866  0.3935  0.3739  0.2152
   92MPD2    C1 1403   2.360   4.182  16.003  0.2926 -0.9786  0.0938
   92MPD2    C2 1404   2.471   4.203  16.077  0.8926  0.3009  0.1518
   92MPD2    C3 1405   2.591   4.217  16.019 -0.3258 -0.5076 -0.4337
   92MPD2    C4 1406   2.601   4.232  15.887 -0.0370 -0.7060 -0.6168
   92MPD2    C5 1407   2.485   4.237  15.808  0.1304  0.8811 -0.2410
   92MPD2     H 1408   2.456   4.194  16.184  1.7674 -0.9763  0.1610
   92MPD2    H1 1409   2.693   4.225  15.831  0.7003  1.1430  0.3491
   92MPD2    H2 1410   2.279   4.220  15.798 -0.4374  1.4400  1.3261
   92MPD2    H3 1411   2.504   4.248  15.702  1.8255 -0.1302 -0.0542
   92MPD2     N 1412   2.706   4.200  16.102 -0.3791 -0.1098  0.3501
   92MPD2    H5 1413   2.695   4.199  16.202  1.5039 -0.4842  0.5654
   92MPD2    N1 1414   2.237   4.144  16.067  0.5924 -0.2838 -0.1629
   92MPD2    H7 1415   2.254   4.113  16.162 -0.3705 -0.6466 -0.1095
   93MPD2     C 1416   4.077   3.995  13.492 -0.2188 -0.4666  0.2774
   93MPD2    C1 1417   4.010   4.076  13.591  0.4876  0.1764  0.1626
   93MPD2    C2 1418   3.869   4.070  13.605 -0.0657 -1.1182 -0.3807
   93MPD2    C3 1419   3.797   3.990  13.520  0.4505 -0.2868  0.0075
   93MPD2    C4 1420   3.864   3.902  13.433 -0.2822 -0.4658 -0.0376
   93MPD2    C5 1421   4.001   3.903  13.418 -0.2450  0.2086 -0.4565
   93MPD2     H 1422   3.825   4.136  13.679 -0.5335 -2.0086  0.1320
   93MPD2    H1 1423   3.814   3.842  13.358 -0.7273 -0.3157  0.1348
   93MPD2    H2 1424   4.185   3.985  13.480 -0.2844 -0.6036 -0.2048
   93MPD2    H3 1425   4.053   3.833  13.354  0.8727  0.3425  0.3049
   93MPD2     N 1426   3.660   4.005  13.506 -0.7372  0.0853 -0.1208
   93MPD2    H5 1427   3.610   3.941  13.446 -0.4523  1.2182 -1.5621
   93MPD2    N1 1428   4.081   4.149  13.688 -0.0047 -0.3855 -0.4365
   93MPD2    H7 1429   4.032   4.204  13.757  0.7843  0.0912 -0.2595
   94TCq2    C1 1430   4.217   4.144  13.699 -0.8036  0.5328 -0.8280
   94TCq2    O2 1431   4.296   4.059  13.656 -0.0731 -0.0576  0.5693
   94TCq2    C2 1432   4.272   4.242  13.791  0.5910 -0.4364  0.3643
   94TCq2    C3 1433   4.195   4.354  13.823  0.3727 -0.0297 -0.4549
   94TCq2    C4 1434   4.263   4.451  13.894  0.3521 -0.8895 -0.2658
   94TCq2    C5 1435   4.394   4.429  13.933  0.1785  0.1730 -0.2073
   94TCq2    C6 1436   4.461   4.317  13.901 -0.4702  0.0970  0.8779
   94TCq2    C7 1437   4.401   4.222  13.824  0.2640  0.1467 -0.5240
   94TCq2    C8 1438   4.606   4.318  13.907  0.1561 -0.0684  0.6772
   94TCq2    O4 1439   4.664   4.279  13.808 -0.6942 -0.3931  0.1895
   94TCq2    C9 1440   4.212   4.577  13.924 -0.8592 -0.0698 -0.1993
   94TCq2    O5 1441   4.292   4.673  13.959 -0.3917 -0.4935  0.2859
   94TCq2    O6 1442   4.092   4.597  13.890 -0.0311 -0.5666  0.3182
   94TCq2    H2 1443   4.088   4.363  13.812  0.4233  1.5992  0.2813
   94TCq2    H3 1444   4.445   4.511  13.983 -1.1777 -0.1740  1.7314
   94TCq2    H4 1445   4.457   4.136  13.788  3.9130  2.0170  0.6635
   95TMC2    C1 1446   3.897   0.970  15.624 -0.6365  0.6726 -0.3425
   95TMC2    C2 1447   3.786   0.939  15.556 -0.2262 -0.3523 -0.0321
   95TMC2    C3 1448   3.670   0.941  15.625 -0.4593 -0.9272  0.4224
   95TMC2    C4 1449   3.892   1.012  15.755  0.0550 -0.1938  0.1357
   95TMC2    C5 1450   3.766   1.019  15.824 -0.1849  0.2599  0.3063
   95TMC2    C6 1451   3.657   0.970  15.758 -0.0636  0.0912 -0.6396
   95TMC2     C 1452   4.022   0.945  15.561 -0.0903  0.1819 -0.9478
   95TMC2     O 1453   4.124   1.010  15.587  0.6156 -0.1063 -0.0479
   95TMC2     H 1454   3.789   0.896  15.457 -2.1150  0.5593 -0.4792
   95TMC2    H1 1455   3.982   1.044  15.806  1.3961 -1.1112 -1.6592
   95TMC2    H2 1456   3.565   0.951  15.811  0.6302 -0.6812  0.3087
   95TMC2    C7 1457   3.765   1.026  15.972  0.9298 -0.4221  0.3483
   95TMC2    C8 1458   3.541   0.904  15.563 -0.1186 -0.2449  0.0175
   95TMC2    O1 1459   3.878   1.033  16.028 -0.0450  0.5162  0.6257
   95TMC2    O2 1460   3.448   0.850  15.618  0.1781 -0.8300  0.3650
   95TMC2    O5 1461   3.540   0.969  15.445  0.3836 -0.7787  0.0754
   95TMC2    H5 1462   3.601   1.045  15.449  0.8167 -1.1464  0.4769
   96MPD2     C 1463   4.254   0.735  15.145 -0.2686  0.0628  0.4290
   96MPD2    C1 1464   4.267   0.864  15.194  0.7805 -0.4797 -0.3457
   96MPD2    C2 1465   4.202   0.901  15.310  0.2152  0.1122 -0.2628
   96MPD2    C3 1466   4.103   0.819  15.359  0.3776  0.4145  0.0927
   96MPD2    C4 1467   4.083   0.694  15.300 -0.1555 -0.5564  0.0524
   96MPD2    C5 1468   4.162   0.652  15.198 -0.0769 -0.1311 -0.7153
   96MPD2     H 1469   4.214   1.000  15.352 -1.3261 -0.0376  0.5185
   96MPD2    H1 1470   4.009   0.622  15.333 -0.2193 -0.8775 -0.7861
   96MPD2    H2 1471   4.316   0.696  15.065 -1.0763 -1.3328  0.4922
   96MPD2    H3 1472   4.147   0.550  15.163  1.0307 -1.3949  2.4985
   96MPD2     N 1473   4.004   0.849  15.461  0.0774  0.0421  0.6460
   96MPD2    H5 1474   3.930   0.780  15.469  0.5763 -0.4268  1.2837
   96MPD2    N1 1475   4.346   0.955  15.124 -0.3361 -0.7483  0.0838
   96MPD2    H7 1476   4.392   0.909  15.047  0.6202  1.2915 -0.5438
   97MPD2     C 1477   0.707   3.534   0.778 -0.3328  0.6314  0.2514
   97MPD2    C1 1478   0.841   3.561   0.810  1.1320 -0.5647 -0.1222
   97MPD2    C2 1479   0.933   3.566   0.710  0.2498 -0.2083 -0.7563
   97MPD2    C3 1480   0.903   3.539   0.577 -0.1029 -0.1773 -0.2236
   97MPD2    C4 1481   0.764   3.519   0.544 -0.3702  0.3546  0.0489
   97MPD2    C5 1482   0.676   3.518   0.643 -0.0956 -0.7530  0.0628
   97MPD2     H 1483   1.038   3.577   0.735  0.4700  0.0951 -1.8027
   97MPD2    H1 1484   0.729   3.495   0.444 -1.0617  1.2687  0.0753
   97MPD2    H2 1485   0.624   3.529   0.848 -0.2868  1.5441  0.3773
   97MPD2    H3 1486   0.570   3.513   0.618 -0.9212  0.4860  3.3834
   97MPD2     N 1487   1.007   3.549   0.475  0.1102 -0.2043  0.1285
   97MPD2    H5 1488   0.984   3.516   0.382 -1.9852  0.2883  0.4776
   97MPD2    N1 1489   0.872   3.576   0.950 -0.0472 -0.1515  0.1885
   97MPD2    H7 1490   0.797   3.551   1.014  2.8180 -0.5528  3.4190
   98TCq2    C1 1491   1.141   3.570   0.496  0.2793  0.1680  0.4117
   98TCq2    O2 1492   1.207   3.612   0.595  0.2834 -0.0433 -0.2425
   98TCq2    C2 1493   1.215   3.569   0.370 -0.0178 -0.2743 -0.2985
   98TCq2    C3 1494   1.156   3.510   0.260  0.4528 -0.1367  0.6850
   98TCq2    C4 1495   1.212   3.533   0.135  0.2033  0.3434 -0.7706
   98TCq2    C5 1496   1.328   3.607   0.123 -0.5556 -0.3814  0.2732
   98TCq2    C6 1497   1.378   3.670   0.235  1.0430 -0.2993  0.2941
   98TCq2    C7 1498   1.323   3.650   0.357 -0.2135 -0.1171 -0.4106
   98TCq2    C8 1499   1.471   3.780   0.215 -0.3607  0.0728 -0.2756
   98TCq2    O4 1500   1.530   3.833   0.308  0.2904  0.1451 -0.0947
   98TCq2    C9 1501   1.163   3.450   0.029  1.2650 -0.3933  0.5225
   98TCq2    O5 1502   1.239   3.432  17.634  0.1160 -0.5885  0.2997
   98TCq2    O6 1503   1.057   3.380   0.052  0.2552  0.5969 -0.1608
   98TCq2    H2 1504   1.075   3.439   0.266 -0.5557  0.9275 -0.3151
   98TCq2    H3 1505   1.366   3.620   0.022 -0.3960 -0.6191  0.3027
   98TCq2    H4 1506   1.368   3.706   0.438  0.7775  2.1011 -2.5133
   99MPD2     C 1507   4.667   0.470   1.844 -0.3741  0.4956  0.6062
   99MPD2    C1 1508   0.070   0.515   1.873 -0.2713  0.2238  0.2641
   99MPD2    C2 1509   0.181   0.464   1.812 -0.1939  0.8049 -0.6858
   99MPD2    C3 1510   0.170   0.358   1.720 -0.1497  0.4218 -0.2527
   99MPD2    C4 1511   0.047   0.294   1.703 -0.2876 -0.1534  0.6451
   99MPD2    C5 1512   4.661   0.355   1.757  0.8947  0.1825 -0.0883
   99MPD2     H 1513   0.277   0.511   1.834 -1.1904  1.6363  1.8268
   99MPD2    H1 1514   0.045   0.199   1.651  3.4499 -1.3508  2.6570
   99MPD2    H2 1515   4.572   0.519   1.860 -0.0143  1.3286  0.1891
   99MPD2    H3 1516   4.569   0.301   1.738  1.1347 -0.6905  1.2479
   99MPD2     N 1517   0.280   0.308   1.647 -0.4770 -0.0430 -0.5940
   99MPD2    H5 1518   0.366   0.361   1.657 -2.0869  2.3056  0.7769
   99MPD2    N1 1519   0.093   0.640   1.938 -0.2889  0.4456  0.0970
   99MPD2    H7 1520   0.177   0.689   1.910 -0.0367  0.5735  1.1006
  100TCq2    C1 1521   0.002   0.695   2.025 -0.5918  0.8522 -0.4806
  100TCq2    O2 1522   4.622   0.642   2.063 -0.4096  0.3660 -0.5817
  100TCq2    C2 1523   0.012   0.839   2.047 -0.3379 -0.3663  0.0745
  100TCq2    C3 1524   0.133   0.899   2.039  0.1759  0.1159 -0.6417
  100TCq2    C4 1525   0.136   1.037   2.055  0.4972  0.3729  0.3082
  100TCq2    C5 1526   0.022   1.109   2.071 -0.3098  0.0886 -0.3977
  100TCq2    C6 1527   4.629   1.042   2.060 -0.3271  0.2713  0.4279
  100TCq2    C7 1528   4.625   0.906   2.053  0.0532 -0.7359 -0.4668
  100TCq2    C8 1529   4.500   1.119   2.060 -0.1537  0.2843  0.1596
  100TCq2    O4 1530   4.499   1.241   2.091 -0.2172 -0.2536 -0.0206
  100TCq2    C9 1531   0.262   1.104   2.057  0.5704  0.5494 -0.2848
  100TCq2    O5 1532   0.364   1.038   2.025  0.2669  0.1650 -0.4725
  100TCq2    O6 1533   0.264   1.225   2.077  0.0190 -0.0822  0.7045
  100TCq2    H2 1534   0.226   0.843   2.048  0.0806 -0.1343 -1.2180
  100TCq2    H3 1535   0.033   1.215   2.093  3.6761 -0.2647 -0.6414
  100TCq2    H4 1536   4.532   0.855   2.074 -0.8548 -0.0359 -2.7273
  101MPD2     C 1537   0.740   1.959  13.373  0.3222  1.3538  0.2163
  101MPD2    C1 1538   0.651   1.886  13.301  0.0728  0.4629 -0.3860
  101MPD2    C2 1539   0.569   1.793  13.369 -0.0156  0.6789  0.6659
  101MPD2    C3 1540   0.603   1.757  13.503 -0.6106 -0.1709  0.1900
  101MPD2    C4 1541   0.710   1.821  13.567 -0.1252 -1.1469 -0.6283
  101MPD2    C5 1542   0.769   1.929  13.504  0.0850 -0.4546  0.0041
  101MPD2     H 1543   0.496   1.737  13.312 -0.3997  0.0231  1.8101
  101MPD2    H1 1544   0.744   1.792  13.665 -0.4548 -1.9208 -0.7478
  101MPD2    H2 1545   0.802   2.032  13.322  1.1854  0.0948 -0.5241
  101MPD2    H3 1546   0.846   1.979  13.562  0.8370  0.1555 -1.5263
  101MPD2     N 1547   0.545   1.654  13.577  0.4012  0.0556  0.1542
  101MPD2    H5 1548   0.599   1.616  13.654 -2.4499 -0.3298  1.9644
  101MPD2    N1 1549   0.642   1.919  13.169 -0.0651  0.1295 -1.3373
  101MPD2    H7 1550   0.689   2.003  13.138 -0.0964 -0.2858 -2.5219
  102TCq2    C1 1551   0.817   2.114  12.793 -0.8047 -0.3532  0.9783
  102TCq2    O2 1552   0.929   2.099  12.842 -0.4140 -0.3471  0.3342
  102TCq2    C2 1553   0.705   2.114  12.875  0.0117 -0.4427 -0.5747
  102TCq2    C3 1554   0.602   2.186  12.830 -0.4069  0.2325  0.3784
  102TCq2    C4 1555   0.474   2.139  12.866 -0.7526  0.1929  0.0289
  102TCq2    C5 1556   0.449   2.029  12.934  0.1467 -0.1507 -0.4576
  102TCq2    C6 1557   0.561   1.951  12.965 -0.1286 -0.2667 -0.3165
  102TCq2    C7 1558   0.689   1.995  12.933  0.1481 -0.5925  0.2624
  102TCq2    C8 1559   0.547   1.874  13.085 -0.4776 -0.5648  0.4200
  102TCq2    O4 1560   0.456   1.795  13.096 -0.0366  0.0102  0.5789
  102TCq2    C9 1561   0.364   2.222  12.827 -0.1792 -0.3677  0.9091
  102TCq2    O5 1562   0.391   2.286  12.720  0.3962 -0.6980 -0.6609
  102TCq2    O6 1563   0.275   2.238  12.916  0.2320  0.1370  0.4637
  102TCq2    H2 1564   0.616   2.281  12.781  0.6163  0.3194  0.8330
  102TCq2    H3 1565   0.351   1.999  12.970 -0.1920  0.3123 -0.9905
  102TCq2    H4 1566   0.783   1.948  12.960  0.1973 -0.3715  0.4723
  103TMC2    C1 1567   3.862   1.208  12.082  0.3142 -0.2134 -0.4408
  103TMC2    C2 1568   3.961   1.144  12.158  0.4031 -0.3052 -0.0507
  103TMC2    C3 1569   4.031   1.208  12.250 -0.8354 -0.9715  0.7555
  103TMC2    C4 1570   3.848   1.341  12.098 -0.4564  0.7149  0.2657
  103TMC2    C5 1571   3.925   1.403  12.193 -0.5990  0.0160  0.0843
  103TMC2    C6 1572   4.013   1.341  12.280  0.6612 -0.7094 -0.0182
  103TMC2     C 1573   3.754   1.119  12.042  0.3652  0.4348  0.0775
  103TMC2     O 1574   3.771   0.999  12.058  0.0317 -0.0522 -0.1275
  103TMC2     H 1575   3.980   1.039  12.141 -3.8951 -1.0558 -0.2100
  103TMC2    H1 1576   3.771   1.394  12.043 -0.4532 -0.4752 -0.8953
  103TMC2    H2 1577   4.070   1.396  12.354 -1.9858  2.2387 -0.1808
  103TMC2    C7 1578   3.912   1.548  12.221  0.5247 -0.5604  0.2783
  103TMC2    C8 1579   4.085   1.118  12.347  0.1883  0.1125  0.1708
  103TMC2    O1 1580   3.948   1.603  12.326 -0.1410  0.2899 -0.1048
  103TMC2    O2 1581   4.095   0.999  12.337  0.4392 -0.2324  0.2292
  103TMC2    O5 1582   4.136   1.188  12.448  0.2584  0.0691  0.5650
  103TMC2    H5 1583   4.196   1.142  12.511  0.5968  0.2909  0.4042
  104MPD2     C 1584   3.484   1.000  11.984 -0.2027 -0.5090 -0.0019
  104MPD2    C1 1585   3.523   1.122  11.941 -0.0718 -0.6061 -0.0874
  104MPD2    C2 1586   3.436   1.203  11.872  0.2067 -0.2577 -0.3215
  104MPD2    C3 1587   3.309   1.156  11.850 -1.0352 -0.4781 -0.2749
  104MPD2    C4 1588   3.280   1.026  11.881  0.8751  0.3091  0.2813
  104MPD2    C5 1589   3.358   0.949  11.955  0.5239  0.4912  0.0654
  104MPD2     H 1590   3.468   1.301  11.839  2.0127  0.2520  2.8437
  104MPD2    H1 1591   3.187   0.980  11.850 -0.5627  3.4051  0.0524
  104MPD2    H2 1592   3.558   0.938  12.032  1.4092  1.4775  0.1050
  104MPD2    H3 1593   3.329   0.848  11.985 -1.0566  1.6799  2.5969
  104MPD2     N 1594   3.215   1.238  11.774 -0.4120  0.0293 -0.0589
  104MPD2    H5 1595   3.238   1.330  11.738 -0.8871 -0.0681 -0.6137
  104MPD2    N1 1596   3.649   1.178  11.973 -0.5151 -0.6184 -0.1951
  104MPD2    H7 1597   3.646   1.276  11.951 -3.1948 -0.8337 -0.7597
  105MPD2     C 1598   0.932   1.334  17.157  0.2276 -0.1808  0.6112
  105MPD2    C1 1599   0.810   1.385  17.139 -0.2352 -0.0651  0.1562
  105MPD2    C2 1600   0.724   1.395  17.250  0.4181 -0.1219  0.6951
  105MPD2    C3 1601   0.763   1.343  17.369  0.0425  0.5573  0.1948
  105MPD2    C4 1602   0.889   1.286  17.386  0.5114  0.4114 -0.0769
  105MPD2    C5 1603   0.973   1.294  17.280 -0.0355 -0.0962  0.1462
  105MPD2     H 1604   0.621   1.429  17.250 -0.3300 -2.4295  0.5922
  105MPD2    H1 1605   0.934   1.243  17.475  1.7394  0.4770 -0.6708
  105MPD2    H2 1606   0.998   1.308  17.075 -1.0410 -1.0253 -0.1390
  105MPD2    H3 1607   1.064   1.235  17.288 -0.7940 -1.3581 -0.6679
  105MPD2     N 1608   0.667   1.351  17.476 -0.0425  0.1962 -0.2302
  105MPD2    H5 1609   0.577   1.388  17.447 -1.1436 -2.3888 -0.1035
  105MPD2    N1 1610   0.770   1.431  17.015  0.0319  0.0572 -0.6060
  105MPD2    H7 1611   0.683   1.483  17.005  0.6309  0.8919 -1.5713
  106TCq2    C1 1612   0.683   1.310  17.605 -0.1643 -0.1173 -0.1013
  106TCq2    O2 1613   0.772   1.246  17.655  0.3845 -0.5737  0.0406
  106TCq2    C2 1614   0.569   1.329  17.699 -0.0384 -0.2111 -0.2717
  106TCq2    C3 1615   0.483   1.431  17.664 -0.6103 -0.2772 -0.4766
  106TCq2    C4 1616   0.360   1.443   0.029 -0.4989  0.8734 -0.5305
  106TCq2    C5 1617   0.328   1.358   0.131 -0.0693 -0.5613 -0.3156
  106TCq2    C6 1618   0.415   1.253   0.160  1.1295 -0.3076 -0.1733
  106TCq2    C7 1619   0.539   1.246   0.101 -0.0391  0.1805 -0.0770
  106TCq2    C8 1620   0.378   1.154   0.268  0.4084  0.0095 -0.1392
  106TCq2    O4 1621   0.448   1.054   0.277 -0.0778  0.2230  0.0904
  106TCq2    C9 1622   0.254   1.526  17.675  0.4700  0.1269 -0.3133
  106TCq2    O5 1623   0.144   1.526   0.019 -0.5277 -0.1417  0.0318
  106TCq2    O6 1624   0.282   1.596  17.576 -0.6348  0.0567  0.4262
  106TCq2    H2 1625   0.497   1.496  17.579  1.0194 -1.0861 -0.8105
  106TCq2    H3 1626   0.227   1.370   0.169 -0.3842  0.1995 -1.4097
  106TCq2    H4 1627   0.602   1.163   0.130  1.0466  0.5289 -1.4282
  107TMC2    C1 1628   0.987   0.578  11.271  0.3133  0.4312 -0.5583
  107TMC2    C2 1629   1.024   0.667  11.175 -0.2580 -0.0525 -0.1709
  107TMC2    C3 1630   1.049   0.622  11.055  0.1802 -0.6307 -0.0779
  107TMC2    C4 1631   0.967   0.447  11.251 -0.0978 -0.1342 -0.3287
  107TMC2    C5 1632   0.998   0.404  11.130 -0.3819 -0.9804 -0.0511
  107TMC2    C6 1633   1.033   0.489  11.027  0.4188  0.4072  0.5798
  107TMC2     C 1634   0.962   0.620  11.403 -0.2336 -1.0120 -0.3584
  107TMC2     O 1635   0.944   0.537  11.490 -0.6439 -0.2668  0.1825
  107TMC2     H 1636   1.063   0.765  11.202 -1.9801 -0.2474  3.0983
  107TMC2    H1 1637   0.931   0.371  11.321 -0.2060 -0.3869 -0.6583
  107TMC2    H2 1638   1.054   0.444  10.930  0.7293  0.8659  0.4363
  107TMC2    C7 1639   1.005   0.260  11.114 -0.2605  0.0521  0.6634
  107TMC2    C8 1640   1.076   0.714  10.940  0.6101  0.0811  0.6031
  107TMC2    O1 1641   0.959   0.193  11.207  0.0138 -0.6047 -0.0591
  107TMC2    O2 1642   1.111   0.681  10.829  0.5064  0.6903 -0.7259
  107TMC2    O5 1643   1.006   0.827  10.963 -0.1035 -0.0169 -0.0608
  107TMC2    H5 1644   0.966   0.826  11.052 -0.9942  1.2946 -0.4428
  108MPD2     C 1645   0.900   0.969  11.516  0.2024  0.5523  0.2744
  108MPD2    C1 1646   0.920   0.837  11.534 -1.0190 -0.9374 -0.4446
  108MPD2    C2 1647   0.924   0.785  11.659 -0.5962 -0.1233  0.2754
  108MPD2    C3 1648   0.877   0.862  11.766  0.0725 -0.3140 -0.1934
  108MPD2    C4 1649   0.859   0.996  11.753  0.0330 -0.3514  0.2981
  108MPD2    C5 1650   0.881   1.046  11.630 -0.3360 -0.2027  0.0956
  108MPD2     H 1651   0.944   0.678  11.662 -0.2060 -0.0225  1.2800
  108MPD2    H1 1652   0.833   1.055  11.840  0.3344 -1.7292  1.3286
  108MPD2    H2 1653   0.905   1.019  11.420  0.8602  0.5753  0.3182
  108MPD2    H3 1654   0.858   1.148  11.602 -1.7696 -0.3637  0.7473
  108MPD2     N 1655   0.833   0.809  11.888 -0.3587 -0.2873 -0.1261
  108MPD2    H5 1656   0.781   0.873  11.948 -0.6128  0.3045 -0.9818
  108MPD2    N1 1657   0.950   0.757  11.414 -0.7322  0.0651  0.3689
  108MPD2    H7 1658   0.941   0.806  11.325  2.4240 -1.6435 -0.8685
  109MPD2     C 1659   4.678   2.797   1.186  0.5619 -0.6337  0.4888
  109MPD2    C1 1660   0.077   2.851   1.160 -0.4278 -0.2771  0.1737
  109MPD2    C2 1661   0.179   2.852   1.251 -0.0833  0.3877 -0.3223
  109MPD2    C3 1662   0.157   2.794   1.380  0.2785 -0.1831  0.1857
  109MPD2    C4 1663   0.037   2.732   1.397 -0.2396 -0.7584 -0.0682
  109MPD2    C5 1664   4.660   2.740   1.310 -0.5399 -0.6630  0.3699
  109MPD2     H 1665   0.268   2.907   1.225 -0.1102  0.6068  0.0449
  109MPD2    H1 1666   0.008   2.688   1.492  0.9572 -0.6549  0.3506
  109MPD2    H2 1667   4.598   2.780   1.115 -0.9391  2.6476  1.3793
  109MPD2    H3 1668   4.558   2.708   1.331 -0.8471 -0.7431 -1.2481
  109MPD2     N 1669   0.267   2.799   1.473  0.0470 -0.4815  0.2560
  109MPD2    H5 1670   0.348   2.851   1.443 -0.6095  1.2478  1.4655
  109MPD2    N1 1671   0.096   2.892   1.025 -0.4210  0.5503 -0.7711
  109MPD2    H7 1672   0.011   2.881   0.971 -1.5047 -1.1621  1.2651
  110TCq2    C1 1673   0.263   2.736   1.599  0.2235  0.2737 -0.3609
  110TCq2    O2 1674   0.186   2.650   1.633  0.3901  0.1801  0.0042
  110TCq2    C2 1675   0.362   2.790   1.692 -0.5203  0.3443  0.7303
  110TCq2    C3 1676   0.412   2.694   1.781  0.0585 -0.6334 -0.4800
  110TCq2    C4 1677   0.526   2.723   1.853  0.0167  0.0032  0.1553
  110TCq2    C5 1678   0.592   2.845   1.833  0.9604 -0.3878 -1.1837
  110TCq2    C6 1679   0.551   2.928   1.731 -0.3824 -0.6439  0.8319
  110TCq2    C7 1680   0.435   2.898   1.658 -0.5498 -0.4419  0.5203
  110TCq2    C8 1681   0.636   3.047   1.699 -0.6617  0.5909 -0.9804
  110TCq2    O4 1682   0.598   3.115   1.604  0.6799 -0.1351 -0.1915
  110TCq2    C9 1683   0.577   2.636   1.960  0.2191 -0.2192  0.7246
  110TCq2    O5 1684   0.542   2.517   1.954  0.4465 -0.2724 -0.4715
  110TCq2    O6 1685   0.666   2.679   2.037  0.3354 -0.5351 -0.3124
  110TCq2    H2 1686   0.373   2.594   1.801  0.2180 -0.5291  0.3526
  110TCq2    H3 1687   0.674   2.868   1.901  0.7302  0.0747 -1.0593
  110TCq2    H4 1688   0.391   2.974   1.595 -1.8521 -2.2233 -0.7362
  111TMC2    C1 1689   1.555   2.351  11.286 -0.0473  0.5469  0.6519
  111TMC2    C2 1690   1.637   2.295  11.197  0.1575  0.0351 -0.0977
  111TMC2    C3 1691   1.757   2.241  11.236  0.5496 -0.5765 -0.2972
  111TMC2    C4 1692   1.583   2.345  11.418  0.3264 -0.3900  0.8948
  111TMC2    C5 1693   1.700   2.301  11.457 -0.0737  0.4470 -0.3197
  111TMC2    C6 1694   1.795   2.241  11.372  0.0257 -0.0730 -0.1493
  111TMC2     C 1695   1.426   2.397  11.233 -0.3988 -0.5769  0.1933
  111TMC2     O 1696   1.408   2.407  11.115  0.4816 -1.0717 -0.3654
  111TMC2     H 1697   1.611   2.296  11.092 -0.7848 -1.8676  0.1255
  111TMC2    H1 1698   1.527   2.404  11.491  1.6551 -1.2286  2.5708
  111TMC2    H2 1699   1.873   2.176  11.410  0.1405 -1.0062 -1.9570
  111TMC2    C7 1700   1.707   2.270  11.599  0.1873 -0.6035  0.1406
  111TMC2    C8 1701   1.845   2.181  11.137  0.6108  0.0290  0.0853
  111TMC2    O1 1702   1.604   2.244  11.661 -0.2796  0.5129 -0.6247
  111TMC2    O2 1703   1.964   2.172  11.151  0.0612 -0.0650 -0.3354
  111TMC2    O5 1704   1.774   2.096  11.061  0.3000  0.8354 -0.0212
  111TMC2    H5 1705   1.681   2.087  11.091  1.4586 -2.4420  2.5574
  112MPD2     C 1706   0.938   2.507  11.357  0.4293 -0.1100  1.0186
  112MPD2    C1 1707   0.991   2.498  11.227 -0.3312  0.0777 -0.1733
  112MPD2    C2 1708   1.123   2.456  11.220 -0.1068 -0.4821  0.7696
  112MPD2    C3 1709   1.200   2.423  11.335 -0.4965 -0.4883  0.4449
  112MPD2    C4 1710   1.135   2.425  11.451  0.1110  0.0615  0.3482
  112MPD2    C5 1711   1.010   2.476  11.466 -0.1847 -0.7240  0.5359
  112MPD2     H 1712   1.172   2.459  11.123  0.1401  2.2269  0.9762
  112MPD2    H1 1713   1.186   2.386  11.538  1.8261  0.0002 -0.7087
  112MPD2    H2 1714   0.839   2.547  11.375  0.8573  1.1362  0.5633
  112MPD2    H3 1715   0.958   2.488  11.561 -0.7652 -1.7820  0.3613
  112MPD2     N 1716   1.330   2.385  11.335  0.2218  0.1647  0.3241
  112MPD2    H5 1717   1.366   2.365  11.427  0.8833 -2.0202 -0.4027
  112MPD2    N1 1718   0.914   2.537  11.111 -0.7448 -0.2901  0.8537
  112MPD2    H7 1719   0.949   2.503  11.022  1.4443 -0.6840  1.8756
  113MPD2     C 1720   4.313   0.125   0.751 -0.3651 -0.7886 -0.1895
  113MPD2    C1 1721   4.277   0.247   0.818 -0.8854  0.1130  0.9082
  113MPD2    C2 1722   4.154   0.299   0.786 -0.6431  0.5557 -0.7254
  113MPD2    C3 1723   4.062   0.231   0.704  0.5077 -0.4375 -0.4604
  113MPD2    C4 1724   4.108   0.120   0.640  0.0332  0.4871  0.1601
  113MPD2    C5 1725   4.229   0.062   0.665 -0.1795 -0.2282  0.3877
  113MPD2     H 1726   4.134   0.398   0.824 -0.7778  0.3333 -0.2084
  113MPD2    H1 1727   4.041   0.075   0.568 -0.9470 -3.1198  3.3078
  113MPD2    H2 1728   4.413   0.085   0.759 -0.9941 -2.0297  1.4207
  113MPD2    H3 1729   4.255   4.702   0.604 -0.8190 -0.5849  0.6182
  113MPD2     N 1730   3.933   0.282   0.673  0.1818 -0.8567  0.5574
  113MPD2    H5 1731   3.879   0.242   0.597  1.0065 -1.1388  0.1147
  113MPD2    N1 1732   4.356   0.321   0.908  0.2622  0.0443  0.1677
  113MPD2    H7 1733   4.324   0.416   0.927  2.3660  0.9860 -1.0034
  114TCq2    C1 1734   3.862   0.361   0.760 -0.2872  0.1665  0.2659
  114TCq2    O2 1735   3.878   0.369   0.881 -0.0900 -0.3102  1.0378
  114TCq2    C2 1736   3.741   0.414   0.697  0.2626  0.5248  0.4054
  114TCq2    C3 1737   3.733   0.419   0.561 -0.6459 -0.4407  0.6873
  114TCq2    C4 1738   3.625   0.485   0.516 -0.6133 -0.2134 -0.4349
  114TCq2    C5 1739   3.518   0.531   0.594 -0.7170 -0.6810 -0.2276
  114TCq2    C6 1740   3.535   0.521   0.731  0.4419  0.1327 -0.1191
  114TCq2    C7 1741   3.649   0.465   0.787  0.4613 -0.3692 -0.3676
  114TCq2    C8 1742   3.420   0.555   0.808 -0.0963 -0.0295 -0.0066
  114TCq2    O4 1743   3.324   0.606   0.750 -0.1629  0.0258  0.5276
  114TCq2    C9 1744   3.625   0.501   0.369 -0.1971  0.1133  0.6733
  114TCq2    O5 1745   3.516   0.535   0.318  0.3581  0.0302 -0.1577
  114TCq2    O6 1746   3.724   0.471   0.297 -0.3000  0.0478 -0.4206
  114TCq2    H2 1747   3.806   0.375   0.494 -2.6052 -2.1374 -0.3379
  114TCq2    H3 1748   3.442   0.592   0.547 -0.6821  0.3093  0.9961
  114TCq2    H4 1749   3.677   0.461   0.891 -1.9282 -0.3097  0.2619
  115TMC2    C1 1750   0.191   3.182  17.425 -0.5287 -0.6357  0.1335
  115TMC2    C2 1751   0.290   3.125  17.352 -0.1858  0.3505 -0.1020
  115TMC2    C3 1752   0.415   3.183  17.351  0.9997 -0.1525  0.6589
  115TMC2    C4 1753   0.202   3.300  17.484 -0.2438  0.2019  0.5126
  115TMC2    C5 1754   0.327   3.348  17.483  0.0379  0.0735 -0.7549
  115TMC2    C6 1755   0.441   3.289  17.437  0.1418  0.2501  0.5379
  115TMC2     C 1756   0.055   3.132  17.421  0.2461  0.1381  0.2194
  115TMC2     O 1757   0.041   3.039  17.341 -0.4676 -0.8117  0.1651
  115TMC2     H 1758   0.275   3.028  17.305 -1.6713  0.6959 -0.3277
  115TMC2    H1 1759   0.130   3.365  17.533  0.3785  1.8774 -0.7656
  115TMC2    H2 1760   0.540   3.330  17.456  0.4106  0.2437 -0.8856
  115TMC2    C7 1761   0.335   3.493  17.505 -0.7112  0.6640 -0.2479
  115TMC2    C8 1762   0.528   3.099  17.316  0.5177 -0.6059 -0.3238
  115TMC2    O1 1763   0.262   3.542  17.591 -0.1559 -0.1056  0.0724
  115TMC2    O2 1764   0.634   3.117  17.371 -0.1124  0.1786 -0.0517
  115TMC2    O5 1765   0.492   3.003  17.225  0.3504 -0.0553  0.1255
  115TMC2    H5 1766   0.423   3.021  17.158  0.4182 -0.8269 -0.1514
  116MPD2     C 1767   4.292   3.052  17.521  0.4260 -0.3534 -0.2111
  116MPD2    C1 1768   4.392   2.971  17.466 -0.1751 -0.2306  0.7342
  116MPD2    C2 1769   4.527   3.006  17.483  0.6538  0.0523  0.6615
  116MPD2    C3 1770   4.558   3.131  17.533 -0.1246  0.4168 -0.0455
  116MPD2    C4 1771   4.459   3.213  17.599  0.4284 -0.8737  0.2508
  116MPD2    C5 1772   4.324   3.174  17.583  0.9614  0.6755 -0.2450
  116MPD2     H 1773   4.600   2.938  17.440 -0.2823 -1.5541  1.6336
  116MPD2    H1 1774   4.479   3.307  17.648 -2.7926  1.1888 -2.3933
  116MPD2    H2 1775   4.186   3.032  17.510  0.2564  0.2492  0.2939
  116MPD2    H3 1776   4.256   3.231  17.644  1.1985  1.3974 -0.6554
  116MPD2     N 1777   4.690   3.187  17.510 -0.3587 -0.3021  0.4985
  116MPD2    H5 1778   4.723   3.257  17.576 -1.4251 -0.2616  0.9976
  116MPD2    N1 1779   4.341   2.859  17.394 -0.5566  0.0215 -0.3221
  116MPD2    H7 1780   4.241   2.846  17.382 -0.4969  4.0388 -4.7747
  117TMC2    C1 1781   3.374   4.299  14.002 -0.4431  0.1081 -0.1752
  117TMC2    C2 1782   3.356   4.340  14.130 -0.3736  0.5858  0.1179
  117TMC2    C3 1783   3.460   4.407  14.186 -0.9364  0.1941  0.3654
  117TMC2    C4 1784   3.480   4.342  13.929  0.3841 -0.0905  0.5018
  117TMC2    C5 1785   3.587   4.407  13.987 -0.5810 -0.1289 -0.2806
  117TMC2    C6 1786   3.575   4.447  14.119  0.0166 -0.1258 -0.4914
  117TMC2     C 1787   3.251   4.310  13.922  0.1625 -0.1436  0.0656
  117TMC2     O 1788   3.215   4.215  13.859  0.6008  0.0005  0.1785
  117TMC2     H 1789   3.267   4.303  14.179 -1.7308  0.8761 -2.1173
  117TMC2    H1 1790   3.473   4.325  13.822  1.5963  1.1854  0.2201
  117TMC2    H2 1791   3.659   4.494  14.168  0.4226 -0.9527 -0.3984
  117TMC2    C7 1792   3.681   4.472  13.896 -0.1116  0.6326  0.6605
  117TMC2    C8 1793   3.458   4.418  14.328 -0.1532  0.0756  0.3288
  117TMC2    O1 1794   3.749   4.559  13.945 -0.3375  0.5696 -0.4359
  117TMC2    O2 1795   3.415   4.332  14.405  0.1241  0.2946 -0.2855
  117TMC2    O5 1796   3.471   4.547  14.357 -0.0479 -0.3859 -0.4555
  117TMC2    H5 1797   3.458   4.613  14.285  2.5973  0.6230 -0.0196
  118MPD2     C 1798   3.749   4.465  13.542 -0.3572 -0.1655  0.3060
  118MPD2    C1 1799   3.715   4.520  13.664 -0.1950 -0.5297  0.4833
  118MPD2    C2 1800   3.705   4.659  13.665  0.2203 -0.4102 -0.1957
  118MPD2    C3 1801   3.736   0.005  13.558 -0.3192 -0.0390 -0.3961
  118MPD2    C4 1802   3.763   4.674  13.442  0.2129 -0.1499  0.6217
  118MPD2    C5 1803   3.768   4.537  13.430  0.1401  0.0360  0.3708
  118MPD2     H 1804   3.673   4.706  13.758  0.1768  1.3127 -1.0834
  118MPD2    H1 1805   3.776   0.011  13.355  1.4828 -1.7215 -0.3274
  118MPD2    H2 1806   3.768   4.358  13.541  0.6460  0.0108  0.0337
  118MPD2    H3 1807   3.786   4.489  13.335 -2.3730  1.0472 -0.6307
  118MPD2     N 1808   3.729   0.147  13.560  0.8470 -0.3575 -0.1747
  118MPD2    H5 1809   3.761   0.196  13.477  0.9766  1.5326  0.9784
  118MPD2    N1 1810   3.678   4.431  13.767 -0.8804  0.0343  0.2950
  118MPD2    H7 1811   3.663   4.331  13.753 -0.8121  0.2254 -1.1260
  119MPD2     C 1812   1.979   1.448  13.616  0.3380 -0.0883 -0.4085
  119MPD2    C1 1813   1.843   1.468  13.633  0.4305 -0.3301 -0.3814
  119MPD2    C2 1814   1.765   1.491  13.520 -0.4222  0.1494 -0.2748
  119MPD2    C3 1815   1.820   1.500  13.393 -0.1165 -0.7105  0.5336
  119MPD2    C4 1816   1.954   1.473  13.374  0.4687 -0.3037 -0.2688
  119MPD2    C5 1817   2.026   1.451  13.485 -0.6426  0.2844  0.1222
  119MPD2     H 1818   1.659   1.483  13.541 -0.3003  0.7933  0.5653
  119MPD2    H1 1819   2.000   1.464  13.277 -0.2538  0.6543 -0.7018
  119MPD2    H2 1820   2.044   1.422  13.698 -0.4522 -0.1444  0.2006
  119MPD2    H3 1821   2.132   1.435  13.469  0.1615  1.4356  4.0722
  119MPD2     N 1822   1.748   1.500  13.270 -1.0783 -0.3829 -0.0941
  119MPD2    H5 1823   1.806   1.474  13.191 -0.9642 -1.5432  0.3796
  119MPD2    N1 1824   1.794   1.434  13.761 -0.0137 -0.1708 -0.2338
  119MPD2    H7 1825   1.851   1.368  13.813  0.1495  1.6142  1.8377
  120TCq2    C1 1826   1.612   1.510  13.259  0.8664  0.9487  0.1517
  120TCq2    O2 1827   1.527   1.528  13.347 -0.0558  0.2869  0.0705
  120TCq2    C2 1828   1.572   1.501  13.124  0.0314 -0.6334  0.2956
  120TCq2    C3 1829   1.632   1.401  13.047  0.8298  0.3072 -0.4504
  120TCq2    C4 1830   1.564   1.358  12.934 -0.0027 -0.2321 -0.3238
  120TCq2    C5 1831   1.440   1.403  12.897 -0.2525 -0.1370 -0.4462
  120TCq2    C6 1832   1.377   1.489  12.988  0.0119  0.5916 -0.8566
  120TCq2    C7 1833   1.443   1.536  13.099  0.0032  0.7343 -0.2826
  120TCq2    C8 1834   1.248   1.440  13.015 -0.0066 -0.2550 -0.9324
  120TCq2    O4 1835   1.175   1.410  12.925  0.2919  0.0950  0.0693
  120TCq2    C9 1836   1.624   1.245  12.874  0.8599 -0.1384 -0.4096
  120TCq2    O5 1837   1.543   1.166  12.812 -0.2793  0.7134  0.6637
  120TCq2    O6 1838   1.733   1.209  12.923 -0.1018 -0.1269  0.5203
  120TCq2    H2 1839   1.724   1.352  13.077  0.3149  0.4875  1.3693
  120TCq2    H3 1840   1.391   1.374  12.805 -0.5354  0.6222 -0.5339
  120TCq2    H4 1841   1.393   1.596  13.174  1.1553  1.4483 -0.0808
  121TMC2    C1 1842   3.758   2.755  14.195 -0.0488  0.5615 -0.9829
  121TMC2    C2 1843   3.863   2.683  14.212  0.3836 -0.1742  0.5836
  121TMC2    C3 1844   3.838   2.552  14.229  0.1352  0.0173 -0.2279
  121TMC2    C4 1845   3.629   2.707  14.186 -0.7534 -0.0997  0.1939
  121TMC2    C5 1846   3.608   2.578  14.227 -0.6720 -0.6097  0.4002
  121TMC2    C6 1847   3.718   2.495  14.253  0.3923 -0.0865  0.2364
  121TMC2     C 1848   3.776   2.898  14.196 -0.0757  0.4192 -0.2251
  121TMC2     O 1849   3.859   2.943  14.276  0.4918 -0.1045  0.3962
  121TMC2     H 1850   3.964   2.722  14.214  0.4120 -0.0771 -1.7850
  121TMC2    H1 1851   3.552   2.781  14.167 -1.6848 -0.9182  0.7790
  121TMC2    H2 1852   3.708   2.390  14.279  0.9699 -1.0120 -3.2825
  121TMC2    C7 1853   3.479   2.523  14.248 -0.4367  0.2694 -0.4167
  121TMC2    C8 1854   3.959   2.476  14.246 -0.3316  0.0708 -0.0064
  121TMC2    O1 1855   3.475   2.400  14.264  0.1660  0.3159  0.5433
  121TMC2    O2 1856   4.052   2.528  14.303  0.3646 -0.0070 -0.4924
  121TMC2    O5 1857   3.953   2.380  14.153  0.3358 -0.1244  0.3088
  121TMC2    H5 1858   3.866   2.367  14.109  0.5430 -2.8215  0.7008
  122MPD2     C 1859   3.794   3.192  14.133  0.1765  0.8232 -0.2375
  122MPD2    C1 1860   3.729   3.096  14.060 -0.7788  0.3412 -0.3745
  122MPD2    C2 1861   3.667   3.139  13.947  0.2959  0.4671  0.2667
  122MPD2    C3 1862   3.681   3.272  13.904 -0.8224 -0.2748 -0.7277
  122MPD2    C4 1863   3.760   3.358  13.971 -0.0500 -0.3579  0.3291
  122MPD2    C5 1864   3.804   3.320  14.093  0.8140  0.8417 -0.0556
  122MPD2     H 1865   3.610   3.065  13.892 -1.4045 -0.4973  3.3384
  122MPD2    H1 1866   3.754   3.464  13.946  0.1814 -0.3021  0.5085
  122MPD2    H2 1867   3.836   3.166  14.230 -0.3152 -1.8322 -0.7342
  122MPD2    H3 1868   3.844   3.401  14.153  3.6316 -2.4079  2.4170
  122MPD2     N 1869   3.626   3.329  13.785  0.6429 -0.3249  0.7581
  122MPD2    H5 1870   3.651   3.426  13.767 -2.9723  0.5887  0.5896
  122MPD2    N1 1871   3.711   2.962  14.094  0.2056 -0.1822  0.0602
  122MPD2    H7 1872   3.670   2.898  14.027 -1.6307 -0.7744  1.7438
  123MPD2     C 1873   1.202   0.916   9.230  0.2026  0.0702 -0.0857
  123MPD2    C1 1874   1.258   1.027   9.290  0.0924 -0.2354 -0.2433
  123MPD2    C2 1875   1.390   1.014   9.321  0.1169  0.0475  0.1654
  123MPD2    C3 1876   1.462   0.905   9.277  0.2384  0.4525 -0.0227
  123MPD2    C4 1877   1.406   0.794   9.208 -0.3790  0.3672 -0.1640
  123MPD2    C5 1878   1.271   0.806   9.191 -0.0269 -0.2431  0.0548
  123MPD2     H 1879   1.437   1.083   9.390 -0.3637  1.6101 -1.0495
  123MPD2    H1 1880   1.456   0.704   9.175 -2.5335 -0.7072 -0.4676
  123MPD2    H2 1881   1.096   0.909   9.208 -0.0705 -1.8084  1.9118
  123MPD2    H3 1882   1.214   0.728   9.142 -1.1916  1.3728 -1.1703
  123MPD2     N 1883   1.602   0.911   9.302  0.5308 -0.2221  0.7410
  123MPD2    H5 1884   1.637   0.987   9.359 -0.0084  1.0671 -0.6351
  123MPD2    N1 1885   1.175   1.135   9.339 -0.0071  0.1227  0.0088
  123MPD2    H7 1886   1.079   1.140   9.305 -0.6667 -1.7292  1.6016
  124TCq2    C1 1887   1.682   0.800   9.297 -0.1067 -0.2867 -0.3914
  124TCq2    O2 1888   1.644   0.680   9.284 -0.1500 -0.3924  0.2363
  124TCq2    C2 1889   1.811   0.818   9.357  0.3878 -0.2378  0.8341
  124TCq2    C3 1890   1.845   0.952   9.378  0.5819 -0.1893 -0.1969
  124TCq2    C4 1891   1.940   0.966   9.473  0.3554  0.2298 -0.2223
  124TCq2    C5 1892   2.003   0.857   9.533 -0.4214  0.6521 -0.0249
  124TCq2    C6 1893   1.962   0.730   9.511  0.0395  0.0819 -0.3451
  124TCq2    C7 1894   1.861   0.707   9.420  0.4709 -0.1823 -0.2103
  124TCq2    C8 1895   1.990   0.622   9.602  0.3485  0.4135 -0.6461
  124TCq2    O4 1896   1.917   0.528   9.607 -0.2837  0.2396 -0.3601
  124TCq2    C9 1897   1.974   1.102   9.509  0.1595  0.4531 -0.3508
  124TCq2    O5 1898   2.022   1.134   9.619  0.6276  0.2359  0.3452
  124TCq2    O6 1899   1.954   1.192   9.424 -0.5913  0.3961 -0.0967
  124TCq2    H2 1900   1.793   1.037   9.336  0.4228  0.7472  1.9189
  124TCq2    H3 1901   2.090   0.877   9.595  0.1908  0.6415 -0.8831
  124TCq2    H4 1902   1.822   0.608   9.399  0.2921  0.3346 -2.3475
  125TMC2    C1 1903   2.523   4.242   9.300  0.1110 -0.1869 -0.8274
  125TMC2    C2 1904   2.448   4.130   9.288  0.4818 -0.9897 -0.4264
  125TMC2    C3 1905   2.512   4.006   9.280  0.2941 -0.4116  0.3278
  125TMC2    C4 1906   2.659   4.231   9.277  0.3289  0.1242  0.8149
  125TMC2    C5 1907   2.720   4.110   9.263 -0.1216  0.2325  0.3170
  125TMC2    C6 1908   2.648   3.990   9.267 -0.5407  1.0651  0.0157
  125TMC2     C 1909   2.460   4.373   9.309  0.2910  0.5977 -0.2647
  125TMC2     O 1910   2.540   4.469   9.303 -0.1130 -0.4864 -0.2819
  125TMC2     H 1911   2.340   4.139   9.286  0.5122 -0.5182  0.0231
  125TMC2    H1 1912   2.725   4.317   9.275  1.5867 -0.8174  0.9246
  125TMC2    H2 1913   2.689   3.892   9.288  1.1078  1.7644  0.0542
  125TMC2    C7 1914   2.867   4.103   9.266 -0.1532  0.7196 -0.3739
  125TMC2    C8 1915   2.426   3.887   9.262 -1.1804  0.3442  0.3973
  125TMC2    O1 1916   2.929   4.208   9.279  0.0687 -0.0138  0.0061
  125TMC2    O2 1917   2.471   3.776   9.285  0.9210  0.2205 -0.1943
  125TMC2    O5 1918   2.347   3.918   9.159  0.3997  0.3063 -0.5000
  125TMC2    H5 1919   2.326   4.012   9.140  2.2383  0.6971 -0.5388
  126MPD1     C 1920   2.060   4.693   9.367 -0.5415 -0.1839  1.0787
  126MPD1    C1 1921   2.013   4.565   9.348  0.3208 -0.6606  0.0345
  126MPD1    C2 1922   2.104   4.464   9.315 -0.2648  0.1799  0.4158
  126MPD1    C3 1923   2.240   4.485   9.325  0.3969  0.0301  0.6352
  126MPD1    C4 1924   2.283   4.612   9.351  0.9736  0.0209 -0.0640
  126MPD1    C5 1925   2.193   4.718   9.365  0.1754  0.5133 -0.1728
  126MPD1     H 1926   2.058   4.367   9.297 -2.7753  0.9160  2.9327
  126MPD1    H1 1927   2.390   4.630   9.346  0.7490  1.0311 -1.4541
  126MPD1    H2 1928   1.989   0.048   9.386  0.2526  0.6999  0.2739
  126MPD1    H3 1929   2.239   0.090   9.377 -0.9397  0.7601  2.0089
  126MPD1     N 1930   2.322   4.370   9.316  0.6633 -0.7500 -0.2938
  126MPD1    H5 1931   2.276   4.283   9.296 -2.7199  0.1498  3.6398
  126MPD1    N1 1932   1.879   4.566   9.323  0.5307 -0.7494 -0.7230
  126MPD1    H6 1933   1.825   4.628   9.384 -0.5590  0.6813 -3.1425
  126MPD1    H7 1934   1.844   4.471   9.328  0.0691 -0.4068  2.9454
  127MPD2     C 1935   4.011   1.904   9.109  1.0966  0.6052  0.2333
  127MPD2    C1 1936   3.987   1.908   9.246  0.4850  0.0355  0.0874
  127MPD2    C2 1937   4.010   2.034   9.305 -0.1882  0.0152 -0.1257
  127MPD2    C3 1938   4.057   2.144   9.237  0.5324  0.3216  0.9946
  127MPD2    C4 1939   4.084   2.138   9.099 -0.0004  0.3636  0.0056
  127MPD2    C5 1940   4.054   2.015   9.039 -0.3361 -0.1307 -0.1329
  127MPD2     H 1941   3.979   2.056   9.406 -0.1059  2.1459 -0.5591
  127MPD2    H1 1942   4.135   2.221   9.051 -0.6510  1.9745  2.0556
  127MPD2    H2 1943   4.006   1.807   9.060 -2.2589  1.2737 -0.7744
  127MPD2    H3 1944   4.076   2.008   8.933 -1.5895 -0.2181 -0.3920
  127MPD2     N 1945   4.071   2.261   9.314 -0.1227 -0.3951 -0.5144
  127MPD2    H5 1946   4.067   2.257   9.416 -0.1801 -1.2367 -0.5501
  127MPD2    N1 1947   3.927   1.798   9.310  0.0076  0.2701  0.7276
  127MPD2    H7 1948   3.923   1.710   9.259  0.3913 -0.2945  1.6679
  128TCq2    C1 1949   3.875   1.796   9.438 -0.0956  0.2558  0.1616
  128TCq2    O2 1950   3.857   1.900   9.504  0.7740  0.2556 -0.0975
  128TCq2    C2 1951   3.797   1.676   9.471 -0.2489 -0.6704  0.1804
  128TCq2    C3 1952   3.800   1.641   9.603 -0.2814 -0.2008  0.4375
  128TCq2    C4 1953   3.698   1.569   9.654  0.9564  0.6683  0.1685
  128TCq2    C5 1954   3.597   1.516   9.572  0.3572  0.7433 -0.0360
  128TCq2    C6 1955   3.594   1.558   9.436 -0.0733  0.2127  0.0353
  128TCq2    C7 1956   3.700   1.633   9.385 -0.0248  1.0543 -0.4892
  128TCq2    C8 1957   3.495   1.509   9.342  0.4679 -0.5690  0.3514
  128TCq2    O4 1958   3.516   1.529   9.223  0.2233 -0.7939  0.7438
  128TCq2    C9 1959   3.701   1.539   9.792 -0.2259 -0.0734 -0.0945
  128TCq2    O5 1960   3.612   1.455   9.838  0.4952  0.7278  0.4125
  128TCq2    O6 1961   3.802   1.572   9.855  0.0476  0.0275  0.3901
  128TCq2    H2 1962   3.877   1.675   9.672 -0.1912  0.9892 -0.2531
  128TCq2    H3 1963   3.519   1.462   9.623 -2.1651  2.2680 -2.2727
  128TCq2    H4 1964   3.693   1.676   9.285  0.0534 -0.5406 -1.1923
  129MPD2     C 1965   1.014   3.218   0.629 -0.1953  0.0780  0.1955
  129MPD2    C1 1966   1.122   3.243   0.711  0.2276 -0.0657 -0.1164
  129MPD2    C2 1967   1.246   3.255   0.651 -0.3685 -0.2930  0.4349
  129MPD2    C3 1968   1.257   3.237   0.514  0.7858 -0.0152 -0.9508
  129MPD2    C4 1969   1.148   3.225   0.431  0.2587 -0.2189  0.3266
  129MPD2    C5 1970   1.023   3.218   0.492  0.7519  0.1188 -0.5949
  129MPD2     H 1971   1.329   3.254   0.722  0.2300 -2.2078 -0.3039
  129MPD2    H1 1972   1.149   3.220   0.323  1.0971  0.6036  0.3004
  129MPD2    H2 1973   0.910   3.214   0.660 -0.4959  0.0848 -0.8393
  129MPD2    H3 1974   0.929   3.201   0.440  0.0259 -3.0120  1.7618
  129MPD2     N 1975   1.380   3.247   0.454 -0.3360 -0.7940  0.2776
  129MPD2    H5 1976   1.460   3.271   0.512 -0.4268  1.3686 -0.5091
  129MPD2    N1 1977   1.113   3.249   0.852  0.1726 -0.1266 -0.4388
  129MPD2    H7 1978   1.204   3.254   0.897 -0.3452 -3.1408  0.9629
  130TCq2    C1 1979   0.995   3.237   0.925 -0.9015  0.2147  0.5316
  130TCq2    O2 1980   0.880   3.204   0.893 -0.0073  0.3735 -0.0207
  130TCq2    C2 1981   1.021   3.224   1.070 -0.5385 -0.0821 -0.2387
  130TCq2    C3 1982   1.123   3.291   1.126 -0.3174 -0.1615 -1.0626
  130TCq2    C4 1983   1.151   3.263   1.254 -0.4312  0.0264  0.2287
  130TCq2    C5 1984   1.086   3.168   1.330  0.1458  0.6084 -0.6237
  130TCq2    C6 1985   0.989   3.100   1.265 -0.7607 -0.6686  0.0571
  130TCq2    C7 1986   0.949   3.130   1.137 -0.3028 -0.2499 -0.2778
  130TCq2    C8 1987   0.889   3.014   1.337  0.8673  0.0753  0.4807
  130TCq2    O4 1988   0.785   2.992   1.280 -0.7211 -0.2904  0.4983
  130TCq2    C9 1989   1.269   3.319   1.319 -0.7609  0.1063 -0.4260
  130TCq2    O5 1990   1.278   3.313   1.445 -0.5649  0.6447 -0.1903
  130TCq2    O6 1991   1.361   3.354   1.244 -0.2241 -0.3273  0.2211
  130TCq2    H2 1992   1.187   3.361   1.075  1.3640 -1.5332 -0.8426
  130TCq2    H3 1993   1.118   3.149   1.432  1.2441 -1.9291 -1.4472
  130TCq2    H4 1994   0.874   3.075   1.082  0.8203 -1.3907 -0.6526
  131MPD2     C 1995   1.549   2.037   9.509 -0.2438 -0.0060 -0.5447
  131MPD2    C1 1996   1.598   1.908   9.534  0.4665  0.2855 -1.2791
  131MPD2    C2 1997   1.506   1.801   9.509  0.2761  0.7267 -0.3414
  131MPD2    C3 1998   1.380   1.824   9.451  0.7520 -0.3481  0.6387
  131MPD2    C4 1999   1.351   1.954   9.401  0.5351  0.0796  0.1020
  131MPD2    C5 2000   1.432   2.058   9.447  0.2954  0.2840 -0.4548
  131MPD2     H 2001   1.532   1.700   9.537  0.7035  0.7718 -0.5870
  131MPD2    H1 2002   1.259   1.980   9.349 -1.0123  0.3071  2.9577
  131MPD2    H2 2003   1.613   2.121   9.532 -1.3155  0.5955  0.2336
  131MPD2    H3 2004   1.425   2.162   9.415 -1.5305  0.8213  1.6382
  131MPD2     N 2005   1.288   1.718   9.437 -0.2030  0.3451 -0.0197
  131MPD2    H5 2006   1.334   1.634   9.469  0.5481  0.2412 -1.3749
  131MPD2    N1 2007   1.729   1.896   9.590 -0.3745  0.1591 -0.3772
  131MPD2    H7 2008   1.771   1.979   9.631  0.6793 -0.2972 -0.5180
  132TCq2    C1 2009   2.187   1.997   9.771  0.8720 -0.7177 -0.1764
  132TCq2    O2 2010   2.159   2.106   9.727  0.2370 -0.6807 -0.7106
  132TCq2    C2 2011   2.120   1.883   9.724 -0.0767 -0.3017  0.3006
  132TCq2    C3 2012   2.187   1.762   9.733 -0.0349  0.4500  0.1611
  132TCq2    C4 2013   2.116   1.648   9.694  0.3908  0.0709  0.5103
  132TCq2    C5 2014   1.985   1.655   9.648  0.6170 -0.1749 -0.1699
  132TCq2    C6 2015   1.927   1.781   9.636  0.7180  0.3142  0.2007
  132TCq2    C7 2016   1.995   1.898   9.670  0.9007 -0.1775 -0.0325
  132TCq2    C8 2017   1.796   1.778   9.574 -0.1400  0.0229 -0.6465
  132TCq2    O4 2018   1.774   1.679   9.506  0.3776 -0.0661  0.2370
  132TCq2    C9 2019   2.187   1.524   9.697 -0.6783 -0.3112  0.1439
  132TCq2    O5 2020   2.312   1.537   9.713  0.9609 -0.0844  1.3316
  132TCq2    O6 2021   2.128   1.422   9.659  0.4848 -0.2813 -0.0479
  132TCq2    H2 2022   2.292   1.753   9.758  0.3810  0.7307 -1.5082
  132TCq2    H3 2023   1.940   1.567   9.604 -0.3599  0.5432 -0.5754
  132TCq2    H4 2024   1.943   1.993   9.660 -0.4261 -0.8409  0.4174
  133MPD2     C 2025   0.236   0.480   9.113  0.7695 -1.2362  0.7580
  133MPD2    C1 2026   0.227   0.587   9.029  0.5886 -0.7118 -0.1688
  133MPD2    C2 2027   0.218   0.712   9.080 -0.5592 -0.5160  0.2298
  133MPD2    C3 2028   0.231   0.728   9.222  0.4328 -0.5692  0.1035
  133MPD2    C4 2029   0.256   0.622   9.301  0.2115 -0.1682  0.5875
  133MPD2    C5 2030   0.250   0.495   9.249  0.7734  0.1857  0.2820
  133MPD2     H 2031   0.219   0.800   9.017  0.7646  0.1008  1.1258
  133MPD2    H1 2032   0.286   0.628   9.405  1.9616  1.4740 -0.0138
  133MPD2    H2 2033   0.256   0.377   9.082  1.7375 -1.2254  1.3581
  133MPD2    H3 2034   0.274   0.403   9.301 -0.7643 -0.3571  0.0278
  133MPD2     N 2035   0.229   0.853   9.287 -0.4097 -1.2682 -0.1614
  133MPD2    H5 2036   0.235   0.851   9.389  2.6394  2.0851 -0.2907
  133MPD2    N1 2037   0.229   0.553   8.890  0.2357 -0.2856  0.2764
  133MPD2    H7 2038   0.239   0.452   8.881  0.8282 -0.1593 -0.5148
  134TCq2    C1 2039   0.227   0.645   8.788  0.5179 -0.6379  0.4158
  134TCq2    O2 2040   0.209   0.769   8.796 -0.9369 -0.0771  0.2105
  134TCq2    C2 2041   0.270   0.592   8.659  0.0816 -0.3580 -0.0349
  134TCq2    C3 2042   0.243   0.670   8.547  0.6573  0.0122 -0.8822
  134TCq2    C4 2043   0.239   0.612   8.426  0.1653  0.0716  0.0322
  134TCq2    C5 2044   0.273   0.481   8.410 -0.2246  0.0129 -0.1128
  134TCq2    C6 2045   0.307   0.405   8.521 -0.8621 -0.5097  0.3808
  134TCq2    C7 2046   0.310   0.459   8.641 -0.6425 -1.3068  0.0836
  134TCq2    C8 2047   0.354   0.272   8.513  0.4092 -0.5812  0.5332
  134TCq2    O4 2048   0.422   0.221   8.603  0.2067 -0.5737 -0.2301
  134TCq2    C9 2049   0.212   0.696   8.311  0.1233 -0.2146 -0.2400
  134TCq2    O5 2050   0.212   0.643   8.196 -0.0221 -0.2048 -0.2400
  134TCq2    O6 2051   0.169   0.809   8.334 -0.0261 -0.3116 -0.3180
  134TCq2    H2 2052   0.219   0.775   8.562  0.6361 -0.0778 -0.3005
  134TCq2    H3 2053   0.266   0.443   8.309 -1.9750 -0.1570  0.0729
  134TCq2    H4 2054   0.317   0.385   8.720 -1.4034 -0.2934  1.1027
  135MPD2     C 2055   3.537   3.863   9.469  0.0410 -0.4401  0.6061
  135MPD2    C1 2056   3.575   3.731   9.452 -0.1690 -0.0988 -0.0632
  135MPD2    C2 2057   3.693   3.703   9.381 -0.1283 -0.6578  0.5735
  135MPD2    C3 2058   3.757   3.798   9.299  0.3101 -0.1588 -0.1943
  135MPD2    C4 2059   3.714   3.927   9.312  0.1373 -0.2594  0.7583
  135MPD2    C5 2060   3.610   3.961   9.397  0.0410 -0.1247  1.1535
  135MPD2     H 2061   3.727   3.600   9.377 -0.2429 -0.7801  2.7390
  135MPD2    H1 2062   3.756   4.009   9.254 -2.0684 -0.7080 -1.4814
  135MPD2    H2 2063   3.450   3.897   9.524  0.1349  0.9333 -0.0820
  135MPD2    H3 2064   3.583   4.066   9.400 -0.3762 -0.1967 -0.2002
  135MPD2     N 2065   3.858   3.776   9.199  0.5937  0.0254  0.0669
  135MPD2    H5 2066   3.899   3.860   9.161 -1.7249  0.3653 -1.7014
  135MPD2    N1 2067   3.509   3.628   9.526  0.4790 -0.3581  0.3268
  135MPD2    H7 2068   3.560   3.540   9.531  3.0417  1.0032 -1.5648
  136TCq2    C1 2069   3.400   3.645   9.610  0.4497 -0.4193 -0.0760
  136TCq2    O2 2070   3.323   3.741   9.610 -0.0703 -0.5158  0.0303
  136TCq2    C2 2071   3.364   3.523   9.688  0.6002 -0.2671  0.3835
  136TCq2    C3 2072   3.255   3.525   9.773  0.3972 -0.3371 -0.3223
  136TCq2    C4 2073   3.223   3.419   9.854  0.4583 -0.4163  0.5587
  136TCq2    C5 2074   3.311   3.319   9.869 -0.0713  0.1483 -0.7967
  136TCq2    C6 2075   3.413   3.311   9.780 -0.4657  0.1509 -0.0056
  136TCq2    C7 2076   3.437   3.409   9.683  0.2746  0.3267 -0.3024
  136TCq2    C8 2077   3.472   3.176   9.763 -0.2707 -0.1109  0.6858
  136TCq2    O4 2078   3.588   3.167   9.725 -0.5002  0.1963  0.4082
  136TCq2    C9 2079   3.116   3.439   9.949 -0.0483  0.1656 -0.1651
  136TCq2    O5 2080   3.062   3.556   9.951 -0.2298  0.2069 -0.0268
  136TCq2    O6 2081   3.093   3.346  10.032  0.5513 -0.0291  0.3149
  136TCq2    H2 2082   3.192   3.613   9.780  1.8404  0.5597  1.6220
  136TCq2    H3 2083   3.300   3.252   9.954  1.7797  0.1425 -0.5652
  136TCq2    H4 2084   3.522   3.387   9.620 -1.4002  0.2083 -2.5277
  137MPD2     C 2085   3.336   2.306   9.111 -0.3752 -0.6711 -0.2900
  137MPD2    C1 2086   3.328   2.354   9.239  0.0872  0.1449 -0.8408
  137MPD2    C2 2087   3.276   2.274   9.342  0.0963  0.0631 -0.3186
  137MPD2    C3 2088   3.237   2.148   9.319 -0.0900  0.3854 -0.1521
  137MPD2    C4 2089   3.248   2.094   9.192 -0.5426  0.5159  0.2615
  137MPD2    C5 2090   3.304   2.173   9.094 -0.5866  0.7392 -0.1240
  137MPD2     H 2091   3.279   2.316   9.442 -1.5449 -1.3334  0.3100
  137MPD2    H1 2092   3.225   1.993   9.161 -0.7983  0.6762 -0.0734
  137MPD2    H2 2093   3.383   2.361   9.030 -1.4966  2.4112  1.1754
  137MPD2    H3 2094   3.318   2.120   9.000 -2.0690  0.5010 -0.2076
  137MPD2     N 2095   3.178   2.075   9.426  0.2378 -0.0253 -0.0033
  137MPD2    H5 2096   3.191   2.123   9.514 -1.7796  0.0980  0.2194
  137MPD2    N1 2097   3.377   2.485   9.256  0.5634  0.5661  0.1347
  137MPD2    H7 2098   3.410   2.537   9.176 -2.1212  2.4895  0.2698
  138TCq2    C1 2099   3.368   2.558   9.369  0.1342 -0.1641  0.3073
  138TCq2    O2 2100   3.313   2.522   9.475 -0.1342  0.0677  0.6297
  138TCq2    C2 2101   3.409   2.701   9.359 -0.2890 -0.5949 -0.9281
  138TCq2    C3 2102   3.487   2.731   9.254 -0.1452 -0.5581 -0.5394
  138TCq2    C4 2103   3.504   2.864   9.219 -0.0912 -0.3187 -0.6933
  138TCq2    C5 2104   3.439   2.967   9.282 -0.4083 -0.5724 -0.4780
  138TCq2    C6 2105   3.353   2.925   9.385  0.2753  0.0182 -0.3358
  138TCq2    C7 2106   3.340   2.796   9.427  0.0371 -0.1485  0.6481
  138TCq2    C8 2107   3.285   3.027   9.454 -0.4461  0.1674  1.0940
  138TCq2    O4 2108   3.315   3.141   9.425  0.2840 -0.4202 -0.0386
  138TCq2    C9 2109   3.604   2.894   9.110  0.5674 -0.3287  0.2075
  138TCq2    O5 2110   3.665   2.809   9.038  0.1471 -0.8128  0.3506
  138TCq2    O6 2111   3.610   3.019   9.087  0.1167 -0.1897  0.2327
  138TCq2    H2 2112   3.543   2.662   9.192 -2.2062 -0.2112 -2.8141
  138TCq2    H3 2113   3.450   3.073   9.260  1.2560 -0.8216 -0.8428
  138TCq2    H4 2114   3.286   2.763   9.514 -0.4221  0.4610  0.5940
  139TMC2    C1 2115   3.370   0.961  13.083 -0.1828 -0.8886  0.1078
  139TMC2    C2 2116   3.390   1.008  12.953 -0.0142  0.0099 -0.3678
  139TMC2    C3 2117   3.338   1.131  12.925  0.2365  0.2131 -0.0388
  139TMC2    C4 2118   3.289   1.027  13.171  0.3450 -0.5911  0.5600
  139TMC2    C5 2119   3.238   1.148  13.136  0.9705 -0.3924 -0.2652
  139TMC2    C6 2120   3.270   1.204  13.019 -0.2521 -0.1569 -0.1152
  139TMC2     C 2121   3.461   0.864  13.127 -0.2231  0.3902  0.6328
  139TMC2     O 2122   3.579   0.874  13.100  0.4661  0.3295 -0.2111
  139TMC2     H 2123   3.449   0.955  12.879  1.5430  1.7730 -0.4023
  139TMC2    H1 2124   3.282   0.994  13.274 -1.3932 -0.1474  0.5836
  139TMC2    H2 2125   3.223   1.297  12.989 -0.0902 -0.5716 -1.6541
  139TMC2    C7 2126   3.144   1.226  13.212  0.1301  0.2373  0.2389
  139TMC2    C8 2127   3.380   1.204  12.809 -0.4547  0.5648 -0.6181
  139TMC2    O1 2128   3.106   1.335  13.172 -0.0911  0.7016 -0.3816
  139TMC2    O2 2129   3.411   1.323  12.813 -0.1646 -0.5766 -0.1298
  139TMC2    O5 2130   3.410   1.114  12.716 -0.2739 -0.1119  0.0173
  139TMC2    H5 2131   3.352   1.036  12.723  0.4654 -0.7688 -1.1274
  140MPD2     C 2132   3.383   0.541  13.260  0.1763  0.5813  0.0889
  140MPD2    C1 2133   3.460   0.635  13.207  0.2298 -0.3717  0.0095
  140MPD2    C2 2134   3.597   0.611  13.194  0.4269 -0.6463  0.8298
  140MPD2    C3 2135   3.647   0.487  13.230  0.4843  0.4552  0.2093
  140MPD2    C4 2136   3.561   0.386  13.281 -0.3215 -0.3306  0.5878
  140MPD2    C5 2137   3.428   0.418  13.307 -0.4802 -0.5308  0.0847
  140MPD2     H 2138   3.665   0.684  13.154 -1.2948 -0.4223 -1.6874
  140MPD2    H1 2139   3.589   0.286  13.312 -0.9947 -0.8093 -0.3354
  140MPD2    H2 2140   3.278   0.556  13.280  0.1850 -0.7877  1.1350
  140MPD2    H3 2141   3.369   0.352  13.369  0.0168 -2.3930 -1.4566
  140MPD2     N 2142   3.775   0.463  13.192  0.3089  0.1418  0.3808
  140MPD2    H5 2143   3.830   0.519  13.128 -0.8151  0.0761 -0.6356
  140MPD2    N1 2144   3.394   0.759  13.184  0.2344  0.1010  0.4754
  140MPD2    H7 2145   3.296   0.757  13.210  0.5575 -5.0460  1.3176
  141TCq2    C1 2146   3.847   2.141  13.468 -0.2248  0.1241 -0.2133
  141TCq2    O2 2147   3.831   2.230  13.389 -0.4224  0.3350 -0.1265
  141TCq2    C2 2148   3.900   2.186  13.595 -0.3701  0.4540 -0.2981
  141TCq2    C3 2149   3.923   2.090  13.685 -0.1261 -0.2833  0.3467
  141TCq2    C4 2150   3.984   2.133  13.796  0.2908  0.9343 -0.2031
  141TCq2    C5 2151   4.014   2.267  13.818  0.1832 -0.6245  0.4383
  141TCq2    C6 2152   3.964   2.362  13.738  0.1720  0.2933  0.1067
  141TCq2    C7 2153   3.915   2.323  13.612  0.1669  0.9111 -0.0883
  141TCq2    C8 2154   3.956   2.502  13.772 -0.2985  0.0891 -0.3340
  141TCq2    O4 2155   3.894   2.582  13.702  0.0220 -0.4292 -0.0347
  141TCq2    C9 2156   4.030   2.045  13.900  0.7315  0.4195 -0.2122
  141TCq2    O5 2157   4.125   2.088  13.969 -0.4131  0.4483 -0.1323
  141TCq2    O6 2158   4.010   1.926  13.877  0.1649 -0.1165 -0.5331
  141TCq2    H2 2159   3.912   1.984  13.668 -0.9403 -0.4533  1.8687
  141TCq2    H3 2160   4.053   2.290  13.916 -1.2413 -0.6628  1.0124
  141TCq2    H4 2161   3.874   2.394  13.541 -2.2017 -0.4111 -0.0277
  142MPD2     C 2162   0.946   0.076  10.422 -0.4129  1.0873  0.0509
  142MPD2    C1 2163   0.985   0.082  10.294 -0.0735 -0.5771  0.3393
  142MPD2    C2 2164   1.088   0.170  10.265  0.2775  0.6654  0.0480
  142MPD2    C3 2165   1.165   0.230  10.363  0.1566 -0.6208 -0.3043
  142MPD2    C4 2166   1.121   0.220  10.492 -0.6380  0.1682  0.5801
  142MPD2    C5 2167   1.020   0.134  10.517 -0.5451  0.3003  0.5496
  142MPD2     H 2168   1.122   0.182  10.162 -0.7866 -1.6512 -0.5631
  142MPD2    H1 2169   1.178   0.271  10.569  0.9510 -1.0283  0.2040
  142MPD2    H2 2170   0.867   0.005  10.444 -0.7083  0.7820 -1.9253
  142MPD2    H3 2171   0.987   0.137  10.621  1.1575  2.0974  1.0421
  142MPD2     N 2172   1.301   0.270  10.349  0.6272 -0.2194  0.7206
  142MPD2    H5 2173   1.343   0.305  10.434 -0.1713 -0.4278  1.2032
  142MPD2    N1 2174   0.899   0.013  10.197 -0.0081  0.3490  0.8507
  142MPD2    H7 2175   0.829   4.675  10.235 -0.9936  1.3727  0.7511
  143TCq2    C1 2176   1.378   0.284  10.232  0.6430 -0.2058 -0.0494
  143TCq2    O2 2177   1.335   0.262  10.116 -0.2577 -0.2079 -0.0140
  143TCq2    C2 2178   1.521   0.322  10.250 -0.1786  0.1483  0.3188
  143TCq2    C3 2179   1.566   0.314  10.375  0.1493 -0.2308  0.4879
  143TCq2    C4 2180   1.707   0.323  10.403 -0.2314 -0.5112  0.1207
  143TCq2    C5 2181   1.797   0.335  10.294  0.2376 -0.2196  0.2426
  143TCq2    C6 2182   1.742   0.345  10.162 -0.1416 -0.4956  0.1883
  143TCq2    C7 2183   1.607   0.335  10.138 -0.3707 -0.5071  0.4196
  143TCq2    C8 2184   1.832   0.378  10.049  0.1626 -0.2767 -0.5742
  143TCq2    O4 2185   1.789   0.377   9.934  0.2102  0.0037 -0.1391
  143TCq2    C9 2186   1.749   0.318  10.546 -0.5984  0.1515  0.2714
  143TCq2    O5 2187   1.870   0.348  10.558 -0.2174 -0.0096  0.1341
  143TCq2    O6 2188   1.667   0.297  10.638  0.1182 -0.4644 -0.5738
  143TCq2    H2 2189   1.510   0.290  10.464 -0.7118  0.6082  0.1686
  143TCq2    H3 2190   1.904   0.334  10.312  0.2425  0.3719  0.2503
  143TCq2    H4 2191   1.563   0.342  10.039 -1.2488  1.3869  0.9394
  144MPD2     C 2192   3.534   0.070   0.756 -0.8470 -0.2545  0.4372
  144MPD2    C1 2193   3.620   0.005   0.669  0.7126  0.1874 -0.3931
  144MPD2    C2 2194   3.735   4.686   0.719 -0.2543  0.0416  0.2778
  144MPD2    C3 2195   3.780   4.725   0.842  0.4211 -0.1914  0.1775
  144MPD2    C4 2196   3.697   0.071   0.923  0.4099  0.5026  0.3082
  144MPD2    C5 2197   3.567   0.096   0.886 -0.5284  0.8744 -0.1185
  144MPD2     H 2198   3.810   4.649   0.649  0.1656 -2.1449  1.9017
  144MPD2    H1 2199   3.725   0.096   1.024  0.4727  0.0520  0.4043
  144MPD2    H2 2200   3.436   0.107   0.728 -0.3335  0.4198 -0.4610
  144MPD2    H3 2201   3.491   0.146   0.945 -1.6924  0.7492 -1.5118
  144MPD2     N 2202   3.906   4.683   0.888  0.5582 -0.2743 -0.1587
  144MPD2    H5 2203   3.943   0.019   0.959  1.3495 -0.3478 -0.4958
  144MPD2    N1 2204   3.581   4.699   0.533  0.4502  0.1492 -0.0271
  144MPD2    H7 2205   3.643   4.650   0.470  0.6513 -0.3786  0.5877
  145TCq2    C1 2206   3.989   4.591   0.836  0.0074 -0.6160 -0.4643
  145TCq2    O2 2207   3.967   4.506   0.759 -0.0476 -0.2888  0.0077
  145TCq2    C2 2208   4.114   4.577   0.910  0.4397 -1.1745 -0.3873
  145TCq2    C3 2209   4.211   4.497   0.845 -0.3446 -0.5804 -0.2484
  145TCq2    C4 2210   4.345   4.515   0.874  0.0644 -0.8117  0.9706
  145TCq2    C5 2211   4.388   4.607   0.958 -0.0781  0.1465  0.1040
  145TCq2    C6 2212   4.292   4.687   1.024 -0.3847  0.4337 -0.4467
  145TCq2    C7 2213   4.154   4.666   1.005  0.2075  0.1886  0.4781
  145TCq2    C8 2214   4.347   0.051   1.122 -0.2824  0.0423  0.1522
  145TCq2    O4 2215   4.463   0.047   1.155 -0.1372 -0.7302  0.0245
  145TCq2    C9 2216   4.438   4.430   0.795  0.3966  1.0354 -0.6707
  145TCq2    O5 2217   4.561   4.468   0.798 -0.0943  0.5219  0.4011
  145TCq2    O6 2218   4.388   4.332   0.736  0.4293 -0.0248  0.3189
  145TCq2    H2 2219   4.187   4.445   0.753 -3.2030 -0.4162  0.4141
  145TCq2    H3 2220   4.495   4.621   0.967 -0.2856  0.2932  2.4571
  145TCq2    H4 2221   4.081   4.704   1.075  0.0602  1.1446 -0.1850
  146TMC2    C1 2222   0.751   2.912  12.159 -0.1835 -0.1724  0.4272
  146TMC2    C2 2223   0.648   2.893  12.073 -0.2864 -0.0659  0.4490
  146TMC2    C3 2224   0.666   2.802  11.970  0.2451  0.1667 -0.0103
  146TMC2    C4 2225   0.861   2.833  12.158 -0.4702 -0.5684 -0.1233
  146TMC2    C5 2226   0.874   2.738  12.054  0.6620  0.1442  0.0274
  146TMC2    C6 2227   0.772   2.717  11.961 -0.3050 -0.1593 -0.1774
  146TMC2     C 2228   0.741   3.020  12.256 -0.6063  0.3631  0.2133
  146TMC2     O 2229   0.679   3.123  12.229  0.0493  0.2633 -0.4416
  146TMC2     H 2230   0.573   2.971  12.062 -2.5343 -2.1494  0.9120
  146TMC2    H1 2231   0.944   2.851  12.226  1.5003 -0.3744 -2.6038
  146TMC2    H2 2232   0.771   2.646  11.880 -0.1852  1.8517 -1.9246
  146TMC2    C7 2233   0.976   2.639  12.053 -0.4098 -0.2236 -0.4988
  146TMC2    C8 2234   0.560   2.769  11.877 -0.4814 -0.0379 -1.0768
  146TMC2    O1 2235   0.983   2.563  11.958 -0.3957 -0.0839  0.2155
  146TMC2    O2 2236   0.586   2.751  11.760 -0.0616  0.2505  0.0752
  146TMC2    O5 2237   0.445   2.801  11.933 -0.2251  0.4044  0.4008
  146TMC2    H5 2238   0.446   2.807  12.030 -2.0632 -1.4435  0.5355
  147MPD2     C 2239   1.356   2.402  12.307 -0.2122  0.4165  0.4172
  147MPD2    C1 2240   1.279   2.476  12.393  0.1059 -0.3858 -0.3251
  147MPD2    C2 2241   1.177   2.548  12.343  0.1075 -0.3648 -0.0070
  147MPD2    C3 2242   1.149   2.540  12.211  0.3776 -0.6415 -0.2631
  147MPD2    C4 2243   1.227   2.468  12.125  0.0938 -0.4929 -0.0080
  147MPD2    C5 2244   1.332   2.402  12.173 -0.2503 -0.7798 -0.2844
  147MPD2     H 2245   1.124   2.619  12.405 -0.6031 -1.0669  0.1892
  147MPD2    H1 2246   1.218   2.482  12.018 -2.0534 -1.2444  0.0631
  147MPD2    H2 2247   1.444   2.344  12.335 -1.2089 -0.1854  2.3009
  147MPD2    H3 2248   1.379   2.337  12.100 -2.3476 -1.2421 -1.2130
  147MPD2     N 2249   1.036   2.621  12.176 -0.7878 -0.5978  0.0621
  147MPD2    H5 2250   0.992   2.669  12.254 -0.5812  0.3267 -0.3982
  147MPD2    N1 2251   1.329   2.479  12.527  0.1079  0.0809 -0.2970
  147MPD2    H7 2252   1.417   2.434  12.549  0.2416  0.3061 -0.3779
  148MPD2     C 2253   1.246   1.585  10.349 -0.0387  0.7274  0.2883
  148MPD2    C1 2254   1.247   1.443  10.340 -0.0765 -0.2572 -0.6318
  148MPD2    C2 2255   1.150   1.367  10.399 -0.2277 -0.5849 -0.4192
  148MPD2    C3 2256   1.045   1.440  10.457 -0.2491 -0.3236 -0.2646
  148MPD2    C4 2257   1.040   1.579  10.459  0.1147  0.0927  0.1607
  148MPD2    C5 2258   1.144   1.651  10.410  0.4150 -0.2472  0.1680
  148MPD2     H 2259   1.155   1.259  10.388  1.6018 -0.2155 -3.2376
  148MPD2    H1 2260   0.954   1.624  10.508  0.2333 -0.3862  0.8113
  148MPD2    H2 2261   1.317   1.648  10.296 -0.2606  1.1382  0.4790
  148MPD2    H3 2262   1.144   1.758  10.427 -2.1638  0.0422 -1.6097
  148MPD2     N 2263   0.933   1.367  10.507 -0.0039  0.0352 -1.4224
  148MPD2    H5 2264   0.854   1.418  10.547  0.1493 -1.1470  0.3623
  148MPD2    N1 2265   1.344   1.369  10.270  0.2797  0.2169  0.3519
  148MPD2    H7 2266   1.321   1.270  10.281  1.3612 -0.1412 -0.6070
  149TCq2    C1 2267   1.451   1.411  10.199 -1.1221  0.7743 -0.5585
  149TCq2    O2 2268   1.514   1.520  10.197 -0.0039  0.3393 -0.6208
  149TCq2    C2 2269   1.506   1.296  10.124  0.1483 -0.9108  0.3264
  149TCq2    C3 2270   1.619   1.324  10.048  0.0389 -0.1542 -0.2321
  149TCq2    C4 2271   1.657   1.227   9.956  0.2164 -0.3966  0.4770
  149TCq2    C5 2272   1.574   1.119   9.933 -0.3245  0.0107  0.1332
  149TCq2    C6 2273   1.468   1.096  10.012 -0.1193 -0.0251  0.3030
  149TCq2    C7 2274   1.435   1.176  10.115 -0.1962  0.7056  0.3316
  149TCq2    C8 2275   1.369   0.998   9.973  0.3198  0.3645 -0.1725
  149TCq2    O4 2276   1.290   0.948  10.050  0.5695  0.1829 -0.0859
  149TCq2    C9 2277   1.742   1.272   9.850  0.5546  0.0549  0.1437
  149TCq2    O5 2278   1.791   1.181   9.771 -0.2549  0.2725  0.1667
  149TCq2    O6 2279   1.780   1.393   9.864 -0.0411 -0.5326 -0.0882
  149TCq2    H2 2280   1.668   1.420  10.056 -0.9154  0.3087  0.0812
  149TCq2    H3 2281   1.593   1.055   9.847  0.4267 -1.9157  1.7141
  149TCq2    H4 2282   1.352   1.140  10.174  0.3909  1.8147  1.8374
  150MPD2     C 2283   2.436   0.907  11.739 -0.0606  0.3905  0.5073
  150MPD2    C1 2284   2.420   1.038  11.699  0.1205  0.2866  0.0549
  150MPD2    C2 2285   2.491   1.146  11.751  0.2563 -0.2709 -0.0661
  150MPD2    C3 2286   2.573   1.118  11.860  0.4673 -0.3293 -0.4971
  150MPD2    C4 2287   2.592   0.980  11.899  0.0467  0.7829  0.2973
  150MPD2    C5 2288   2.517   0.880  11.844 -0.5089  0.1381  0.1786
  150MPD2     H 2289   2.477   1.247  11.713  1.7202  0.1983  0.6306
  150MPD2    H1 2290   2.658   0.955  11.981  1.3625 -0.6241 -1.1989
  150MPD2    H2 2291   2.372   0.827  11.702 -0.1844 -0.1159  1.8070
  150MPD2    H3 2292   2.523   0.779  11.885  1.5823 -0.7086 -2.2130
  150MPD2     N 2293   2.643   1.236  11.909  0.3321 -0.0306 -0.0993
  150MPD2    H5 2294   2.628   1.317  11.850  3.1133  1.1050  0.7308
  150MPD2    N1 2295   2.315   1.055  11.610  0.4618  0.0507 -0.1259
  150MPD2    H7 2296   2.272   0.966  11.589 -2.4739  1.8248 -1.5716
  151TCq2    C1 2297   2.733   1.240  12.011  0.6417 -0.1905 -0.1120
  151TCq2    O2 2298   2.766   1.146  12.084 -0.0387 -0.1159  0.0728
  151TCq2    C2 2299   2.800   1.368  12.015  0.0498 -0.1546 -0.4170
  151TCq2    C3 2300   2.741   1.482  11.969 -0.3881  0.1172 -0.9555
  151TCq2    C4 2301   2.825   1.590  11.943 -0.9660 -0.4345 -0.0367
  151TCq2    C5 2302   2.958   1.589  11.968  0.0798 -0.0900  0.0614
  151TCq2    C6 2303   3.003   1.475  12.026  0.0599  0.5300 -0.0163
  151TCq2    C7 2304   2.926   1.359  12.052 -0.0661  0.2774  0.0754
  151TCq2    C8 2305   3.143   1.471  12.068 -0.9404  0.2775 -1.0179
  151TCq2    O4 2306   3.195   1.582  12.064  0.5830 -0.5692  0.0751
  151TCq2    C9 2307   2.760   1.701  11.874  0.3565  0.0479 -0.4457
  151TCq2    O5 2308   2.663   1.679  11.802 -0.4597  0.4353 -0.4425
  151TCq2    O6 2309   2.796   1.818  11.906 -0.2103 -0.5428  0.0469
  151TCq2    H2 2310   2.635   1.487  11.946 -0.6185  2.5519  0.5816
  151TCq2    H3 2311   3.009   1.681  11.941  2.1473 -1.8191 -1.9699
  151TCq2    H4 2312   2.962   1.275  12.111 -1.4988 -2.4268 -2.8998
  152MPD2     C 2313   2.796   0.579  12.170  0.2750 -0.1131  0.4491
  152MPD2    C1 2314   2.734   0.692  12.208 -0.5483 -0.0184  0.1820
  152MPD2    C2 2315   2.595   0.698  12.186  0.3749 -0.4078  0.5663
  152MPD2    C3 2316   2.527   0.594  12.133 -0.0950  0.1029  0.2368
  152MPD2    C4 2317   2.594   0.480  12.094 -0.3405 -0.0588 -0.1289
  152MPD2    C5 2318   2.728   0.473  12.115 -0.0972 -0.2132 -0.4359
  152MPD2     H 2319   2.536   0.784  12.218  2.0461  0.0303  2.5224
  152MPD2    H1 2320   2.529   0.398  12.066 -0.5694  0.1724 -0.2772
  152MPD2    H2 2321   2.902   0.573  12.190  0.1564 -1.3356  0.7169
  152MPD2    H3 2322   2.782   0.383  12.088  0.7934  0.2089 -0.0511
  152MPD2     N 2323   2.385   0.616  12.132 -0.4692  0.2363 -0.1043
  152MPD2    H5 2324   2.346   0.707  12.155  1.7960  0.7483  1.6687
  152MPD2    N1 2325   2.820   0.796  12.264 -0.1730  0.3068 -0.1457
  152MPD2    H7 2326   2.918   0.768  12.271 -0.4232 -1.0463 -2.0687
  153TCq2    C1 2327   2.780   0.910  12.331  0.0846  0.1861 -0.6375
  153TCq2    O2 2328   2.670   0.964  12.335 -0.0824 -0.1046 -0.4305
  153TCq2    C2 2329   2.893   0.963  12.403  0.7130  0.4814  0.1240
  153TCq2    C3 2330   2.984   0.884  12.474 -0.1052  0.4298 -0.9577
  153TCq2    C4 2331   3.079   0.946  12.545 -0.2430 -0.7988 -0.0352
  153TCq2    C5 2332   3.082   1.083  12.553 -0.1006  0.0632 -0.0703
  153TCq2    C6 2333   2.990   1.163  12.481  0.2845 -0.4833 -0.6911
  153TCq2    C7 2334   2.893   1.100  12.407 -1.1093  1.1517 -0.0290
  153TCq2    C8 2335   3.029   1.298  12.447  0.5379 -0.1314 -0.6776
  153TCq2    O4 2336   2.942   1.360  12.388 -0.4261  0.1420  0.1874
  153TCq2    C9 2337   3.153   0.858  12.636 -0.4213 -0.2257 -0.4487
  153TCq2    O5 2338   3.262   0.898  12.686  0.4855 -0.3496 -0.2150
  153TCq2    O6 2339   3.086   0.754  12.676  0.1313  0.0856 -0.0065
  153TCq2    H2 2340   2.966   0.777  12.476 -1.8854  0.6943 -3.0484
  153TCq2    H3 2341   3.152   1.134  12.618  0.6314  0.6570 -1.3093
  153TCq2    H4 2342   2.825   1.157  12.346  1.0796  1.6249 -2.0109
  154MPD2     C 2343   4.342   1.357   0.358 -0.3803  0.0600 -0.0825
  154MPD2    C1 2344   4.373   1.254   0.442  0.9440 -0.1550  0.2373
  154MPD2    C2 2345   4.291   1.231   0.554 -0.1882  0.1449 -0.5730
  154MPD2    C3 2346   4.183   1.303   0.579  0.1610  0.2321  0.4162
  154MPD2    C4 2347   4.145   1.399   0.486  0.3223  0.4613 -0.2258
  154MPD2    C5 2348   4.225   1.428   0.376  0.5013 -0.3098 -1.0950
  154MPD2     H 2349   4.315   1.159   0.631 -0.7017 -0.6578 -1.1558
  154MPD2    H1 2350   4.054   1.456   0.498  0.0067  0.1979 -1.4256
  154MPD2    H2 2351   4.411   1.385   0.279  0.5261  1.9348  1.3548
  154MPD2    H3 2352   4.221   1.516   0.313  1.7277  1.2316  1.0026
  154MPD2     N 2353   4.105   1.275   0.696 -0.1408  0.3531 -0.0526
  154MPD2    H5 2354   4.135   1.190   0.742  0.2644  1.6338  2.0287
  154MPD2    N1 2355   4.493   1.183   0.414  0.1962  0.0134 -0.5674
  154MPD2    H7 2356   4.537   1.219   0.331  0.9319  1.5042  0.4661
  155TCq2    C1 2357   4.534   1.063   0.467  0.2225  0.2810 -0.4179
  155TCq2    O2 2358   4.481   1.006   0.559 -0.5208 -0.3260  0.2919
  155TCq2    C2 2359   4.633   0.989   0.390 -0.1926  0.6774  0.8153
  155TCq2    C3 2360   4.652   0.857   0.428  0.4880 -0.0053 -0.0044
  155TCq2    C4 2361   0.016   0.779   0.352 -0.3849  0.5388  0.3193
  155TCq2    C5 2362   0.067   0.830   0.235  0.1859  0.3054 -0.2831
  155TCq2    C6 2363   0.043   0.959   0.196 -0.2779  0.5287 -0.3428
  155TCq2    C7 2364   4.687   1.037   0.279 -0.5810 -0.1511  0.2997
  155TCq2    C8 2365   0.117   1.011   0.080  0.6270 -0.5750 -0.2505
  155TCq2    O4 2366   0.086   1.123   0.044  0.4072 -0.0066 -0.1669
  155TCq2    C9 2367   0.040   0.645   0.393 -0.4604 -0.2285  0.2166
  155TCq2    O5 2368   0.141   0.591   0.340  0.1535 -0.7839 -0.1234
  155TCq2    O6 2369   4.673   0.588   0.455 -0.0056 -0.0787  0.0154
  155TCq2    H2 2370   4.596   0.818   0.512  0.7538 -0.9679 -0.2758
  155TCq2    H3 2371   0.114   0.763   0.163 -0.4601  0.1410 -0.5559
  155TCq2    H4 2372   4.670   1.139   0.247 -0.2792 -0.2376 -0.1481
  156MPD2     C 2373   3.074   3.019  12.126 -0.1071 -0.0214  0.5580
  156MPD2    C1 2374   2.940   3.036  12.114 -0.0669  0.5214  0.2809
  156MPD2    C2 2375   2.872   3.123  12.195 -1.5845  0.2671  0.3876
  156MPD2    C3 2376   2.929   3.175  12.307 -0.1077  0.2395 -0.0162
  156MPD2    C4 2377   3.060   3.140  12.334 -0.4966  0.0972 -0.2354
  156MPD2    C5 2378   3.134   3.070  12.241 -0.3277 -0.5576  0.1301
  156MPD2     H 2379   2.769   3.147  12.172 -1.7241 -0.9692 -0.3275
  156MPD2    H1 2380   3.109   3.167  12.427  1.4464  3.2321 -2.1783
  156MPD2    H2 2381   3.130   2.972  12.046  2.0614  0.4275  1.8032
  156MPD2    H3 2382   3.241   3.063  12.256 -0.3394  2.4789  1.8245
  156MPD2     N 2383   2.848   3.255  12.381  0.3033 -0.3756 -0.5923
  156MPD2    H5 2384   2.751   3.250  12.352  0.8180 -3.2013 -1.8357
  156MPD2    N1 2385   2.881   2.989  11.992 -0.5795 -0.0685 -0.0163
  156MPD2    H7 2386   2.938   2.967  11.911 -0.5759 -0.5219  0.1096
  157TCq2    C1 2387   2.749   2.992  11.965 -0.6996  0.2419 -0.5331
  157TCq2    O2 2388   2.650   3.021  12.033 -0.0047  0.7866  0.0693
  157TCq2    C2 2389   2.715   2.937  11.839 -0.3666  0.7414  0.3954
  157TCq2    C3 2390   2.788   2.838  11.778  0.6045 -0.3165 -0.3822
  157TCq2    C4 2391   2.767   2.809  11.646  0.2065  1.1052  0.4340
  157TCq2    C5 2392   2.693   2.895  11.569  0.1325  0.1554 -0.9048
  157TCq2    C6 2393   2.622   2.994  11.632 -0.0473 -0.1484  0.7975
  157TCq2    C7 2394   2.635   3.014  11.767 -0.1360  0.9510  0.5934
  157TCq2    C8 2395   2.544   3.091  11.556  0.8025  0.1377  0.5636
  157TCq2    O4 2396   2.484   3.175  11.621  0.1562  0.4164  0.1368
  157TCq2    C9 2397   2.841   2.704  11.591  0.2357  0.3344 -0.2237
  157TCq2    O5 2398   2.819   2.690  11.467 -0.3932  0.4638  0.2722
  157TCq2    O6 2399   2.950   2.678  11.650 -0.3140  0.1734  0.3627
  157TCq2    H2 2400   2.855   2.776  11.836  0.5838  0.2434  0.2423
  157TCq2    H3 2401   2.690   2.886  11.461  1.5159  0.1157 -0.9422
  157TCq2    H4 2402   2.595   3.105  11.812 -1.5768 -0.0166  1.2509
  158TMC2    C1 2403   3.620   2.323  13.833  0.2642  0.2684  0.6307
  158TMC2    C2 2404   3.629   2.458  13.857 -0.5491 -0.8317  0.6139
  158TMC2    C3 2405   3.619   2.541  13.751  0.0060  0.4898 -0.5625
  158TMC2    C4 2406   3.594   2.270  13.709 -0.4260  0.0775 -0.0408
  158TMC2    C5 2407   3.588   2.351  13.607  0.2227 -0.7259 -0.0406
  158TMC2    C6 2408   3.605   2.485  13.627  0.1123  0.1497  0.0241
  158TMC2     C 2409   3.686   2.252  13.935  0.3863  0.2900 -0.0033
  158TMC2     O 2410   3.766   2.312  14.004  0.3823 -0.1028 -0.9808
  158TMC2     H 2411   3.638   2.495  13.959 -2.4776  1.0985  0.0860
  158TMC2    H1 2412   3.601   2.163  13.702  0.9590 -0.0594  3.0342
  158TMC2    H2 2413   3.573   2.541  13.540  3.1466  1.1616 -0.4560
  158TMC2    C7 2414   3.507   2.326  13.492 -0.3030  0.8374  0.2698
  158TMC2    C8 2415   3.602   2.686  13.769 -1.0547  0.2018 -0.0854
  158TMC2    O1 2416   3.542   2.385  13.390 -0.2830 -0.7383  0.1857
  158TMC2    O2 2417   3.645   2.737  13.872 -0.2062  0.5395 -0.8969
  158TMC2    O5 2418   3.561   2.746  13.654 -0.1308 -0.0805 -0.9098
  158TMC2    H5 2419   3.496   2.698  13.599  1.0348 -2.2914 -0.3330
  159MPD2     C 2420   3.755   1.807  14.220  0.1407 -0.1226  0.1285
  159MPD2    C1 2421   3.670   1.784  14.124  0.1965  0.0503 -0.6399
  159MPD2    C2 2422   3.632   1.888  14.037  0.6200 -0.0020  0.1974
  159MPD2    C3 2423   3.682   2.015  14.042  0.2314 -0.3991 -0.4448
  159MPD2    C4 2424   3.770   2.033  14.143 -0.0989 -0.5377  0.1743
  159MPD2    C5 2425   3.810   1.938  14.233 -0.5862  0.2077  0.3027
  159MPD2     H 2426   3.573   1.866  13.949  1.4307  3.3772 -1.1835
  159MPD2    H1 2427   3.824   2.127  14.152 -0.1637 -0.0934 -4.1788
  159MPD2    H2 2428   3.802   1.731  14.282 -1.5640 -0.3122  1.1734
  159MPD2    H3 2429   3.890   1.956  14.304  0.3446  0.7526 -0.8837
  159MPD2     N 2430   3.637   2.118  13.950  0.0331 -0.9364 -0.2931
  159MPD2    H5 2431   3.562   2.091  13.887 -0.4845  1.7914 -0.8489
  159MPD2    N1 2432   3.608   1.658  14.106 -0.1451  0.4789  0.1020
  159MPD2    H7 2433   3.602   1.600  14.190 -0.2327  0.1547 -0.1260
  160TMC2    C1 2434   2.194   1.490   1.599  0.1636  0.1735  0.4663
  160TMC2    C2 2435   2.139   1.465   1.475  0.4896  0.2865 -0.1105
  160TMC2    C3 2436   2.209   1.514   1.363 -0.2424  0.7051 -1.1276
  160TMC2    C4 2437   2.315   1.552   1.617 -0.1631  0.3161 -0.1680
  160TMC2    C5 2438   2.380   1.604   1.502 -0.0356  0.0559  0.1726
  160TMC2    C6 2439   2.328   1.584   1.378 -0.1581  0.7923  0.2850
  160TMC2     C 2440   2.129   1.442   1.724  0.0469  0.2593  0.4550
  160TMC2     O 2441   2.173   1.482   1.828  0.1418 -0.1346  0.0669
  160TMC2     H 2442   2.054   1.401   1.456  0.0226  1.0536 -0.6172
  160TMC2    H1 2443   2.349   1.573   1.718  0.0815 -1.3531  0.0901
  160TMC2    H2 2444   2.373   1.627   1.289  0.0806  0.5479  0.2881
  160TMC2    C7 2445   2.497   1.687   1.528 -0.3828  0.6472 -0.7265
  160TMC2    C8 2446   2.163   1.501   1.224 -1.1196 -0.9076 -1.0162
  160TMC2    O1 2447   2.490   1.761   1.630  0.3821 -0.1573 -0.0409
  160TMC2    O2 2448   2.241   1.486   1.129  0.2747 -0.6282 -0.2085
  160TMC2    O5 2449   2.033   1.526   1.211 -0.1762  0.0820 -0.1042
  160TMC2    H5 2450   1.997   1.575   1.288  2.4091  1.5342  0.1587
  161MPD2     C 2451   1.923   1.330   1.913  0.6579  0.1450  0.1403
  161MPD2    C1 2452   1.903   1.364   1.784  0.1915  0.7196  0.3818
  161MPD2    C2 2453   1.780   1.336   1.721  0.3212  0.1982 -0.0350
  161MPD2    C3 2454   1.671   1.282   1.788  0.1011  0.7188  1.5439
  161MPD2    C4 2455   1.691   1.249   1.921  0.2257  0.0656  0.3676
  161MPD2    C5 2456   1.818   1.265   1.980  0.0365  0.1806  0.0955
  161MPD2     H 2457   1.763   1.355   1.615 -1.5190 -0.8109  0.0981
  161MPD2    H1 2458   1.611   1.205   1.979 -0.1864 -1.8351 -1.6602
  161MPD2    H2 2459   2.016   1.357   1.960  0.7586  0.3021 -0.1466
  161MPD2    H3 2460   1.835   1.248   2.086  1.0428 -1.4776 -0.3251
  161MPD2     N 2461   1.546   1.267   1.729  0.1838  0.4698 -0.1015
  161MPD2    H5 2462   1.463   1.254   1.785 -0.3935 -1.1794 -1.3338
  161MPD2    N1 2463   1.995   1.425   1.691  0.0752  0.5978 -0.0993
  161MPD2    H7 2464   1.970   1.419   1.593 -1.1660  0.1379  0.2389
  162TMC2    C1 2465   0.732   2.568   0.310 -0.3357  0.0078 -0.4683
  162TMC2    C2 2466   0.721   2.559   0.181  0.5224  0.1813  0.5411
  162TMC2    C3 2467   0.599   2.582   0.117 -0.3373  0.2676 -0.1649
  162TMC2    C4 2468   0.623   2.595   0.391 -0.2885 -0.4234  0.6142
  162TMC2    C5 2469   0.501   2.608   0.321  0.4787  0.4638  0.6913
  162TMC2    C6 2470   0.487   2.616   0.184 -0.8802 -0.0487  0.3467
  162TMC2     C 2471   0.870   2.558   0.367  1.1703 -0.2122  0.0696
  162TMC2     O 2472   0.963   2.565   0.290  0.3902  0.0198  0.5400
  162TMC2     H 2473   0.808   2.539   0.120  0.7043  0.2345  0.7853
  162TMC2    H1 2474   0.637   2.604   0.498 -0.5824  0.4077  0.5778
  162TMC2    H2 2475   0.396   2.632   0.129  1.6320  0.8938 -3.5136
  162TMC2    C7 2476   0.373   2.617   0.396  0.1570 -0.1548  0.0610
  162TMC2    C8 2477   0.591   2.538  17.685 -0.2135  0.4663 -0.2904
  162TMC2    O1 2478   0.271   2.624   0.328 -0.0675 -0.4118 -0.3829
  162TMC2    O2 2479   0.675   2.562  17.603  0.0930 -0.1722  0.2062
  162TMC2    O5 2480   0.476   2.468  17.667 -0.6051 -0.2056 -0.3671
  162TMC2    H5 2481   0.438   2.432   0.045 -0.3071 -0.1486 -0.2048
  163MPD2     C 2482   1.183   2.532   0.780  0.2424 -0.4264  0.1396
  163MPD2    C1 2483   1.216   2.549   0.651  0.3292  0.6309 -0.6249
  163MPD2    C2 2484   1.103   2.557   0.561 -0.6946 -0.5140  0.2290
  163MPD2    C3 2485   0.976   2.530   0.602 -0.4017  0.4830  1.0786
  163MPD2    C4 2486   0.952   2.505   0.729  0.6775 -0.2053 -0.0229
  163MPD2    C5 2487   1.055   2.507   0.818  1.3926 -0.4883 -0.2609
  163MPD2     H 2488   1.126   2.596   0.462  1.8296  0.8026  1.3546
  163MPD2    H1 2489   0.849   2.494   0.760  0.9747 -2.1341  0.3004
  163MPD2    H2 2490   1.256   2.538   0.860  0.4258 -0.4220 -0.0253
  163MPD2    H3 2491   1.036   2.487   0.923 -2.7110  1.5973 -0.5886
  163MPD2     N 2492   0.869   2.536   0.509 -0.0590  0.5669  0.4484
  163MPD2    H5 2493   0.782   2.507   0.554 -1.4150  2.4551 -0.9578
  163MPD2    N1 2494   1.352   2.555   0.607  0.2330  0.1944 -0.5203
  163MPD2    H7 2495   1.412   2.595   0.679 -0.4286 -0.9502  0.6684
  164TCq2    C1 2496   1.418   1.282  10.644 -0.4038  0.4740 -0.2664
  164TCq2    O2 2497   1.330   1.254  10.723 -0.9998  0.5671 -0.0159
  164TCq2    C2 2498   1.465   1.418  10.639 -0.7899 -0.3759  1.0034
  164TCq2    C3 2499   1.569   1.467  10.562 -0.0474  0.0912  0.5762
  164TCq2    C4 2500   1.583   1.605  10.551  0.6876  0.0950  0.2599
  164TCq2    C5 2501   1.487   1.686  10.600  0.7929  0.2909 -0.1724
  164TCq2    C6 2502   1.382   1.641  10.674  0.0929  0.6845  0.4108
  164TCq2    C7 2503   1.378   1.505  10.697 -0.7760 -0.0434  0.0574
  164TCq2    C8 2504   1.279   1.724  10.738  0.1969  1.2955 -0.3981
  164TCq2    O4 2505   1.188   1.661  10.800  0.1639  0.4770 -0.1488
  164TCq2    C9 2506   1.697   1.656  10.480  0.0051  0.7422  0.1668
  164TCq2    O5 2507   1.682   1.775  10.440  0.2127 -0.0018 -0.4355
  164TCq2    O6 2508   1.800   1.581  10.468  0.0018  0.0330 -0.1331
  164TCq2    H2 2509   1.646   1.410  10.511 -0.8480  0.1976 -0.7587
  164TCq2    H3 2510   1.518   1.789  10.586  1.5511  0.3816  2.0964
  164TCq2    H4 2511   1.280   1.469  10.729 -0.5388 -2.0221 -1.4114
  165MPD2     C 2512   1.742   4.298   1.589 -0.2330 -0.0029 -0.0642
  165MPD2    C1 2513   1.839   4.236   1.508 -0.2085  0.2299  0.6726
  165MPD2    C2 2514   1.956   4.308   1.480  0.0146  0.4399  0.1540
  165MPD2    C3 2515   1.961   4.441   1.511  0.6530  0.5241  0.0262
  165MPD2    C4 2516   1.859   4.502   1.579  0.1690  0.0300  0.7449
  165MPD2    C5 2517   1.756   4.428   1.632 -0.8806 -0.0951 -0.8962
  165MPD2     H 2518   2.035   4.258   1.426 -0.2972  0.7040 -0.5455
  165MPD2    H1 2519   1.866   4.607   1.606 -0.0902  0.3640 -0.4888
  165MPD2    H2 2520   1.667   4.231   1.631  1.0735  0.1641  2.5759
  165MPD2    H3 2521   1.687   4.474   1.702  0.3842  0.0368  0.2565
  165MPD2     N 2522   2.077   4.521   1.485 -0.6627  0.5033 -0.0368
  165MPD2    H5 2523   2.070   4.622   1.495 -0.5227  0.4937  0.1660
  165MPD2    N1 2524   1.823   4.103   1.478  0.1809  0.0441 -0.2362
  165MPD2    H7 2525   1.762   4.046   1.535  1.1080  0.0043  0.7166
  166TCq2    C1 2526   2.202   4.473   1.449  0.5168 -0.0277 -0.2928
  166TCq2    O2 2527   2.244   4.358   1.453  0.1557  0.1625  0.0035
  166TCq2    C2 2528   2.296   4.583   1.408 -0.0732  0.0189 -0.2197
  166TCq2    C3 2529   2.251   4.699   1.344 -0.9225 -0.1868  0.0925
  166TCq2    C4 2530   2.347   0.069   1.324  0.4522 -0.4186 -0.4514
  166TCq2    C5 2531   2.480   0.054   1.351 -0.3678  0.4497  0.0344
  166TCq2    C6 2532   2.517   4.663   1.404  0.6805  0.2332  0.4560
  166TCq2    C7 2533   2.429   4.563   1.435  0.9176  0.0825  1.2728
  166TCq2    C8 2534   2.654   4.643   1.433  0.2081  0.8820 -0.5546
  166TCq2    O4 2535   2.734   0.013   1.408 -0.1498  0.8152  0.3324
  166TCq2    C9 2536   2.304   0.194   1.277  0.7608 -0.7419  1.6383
  166TCq2    O5 2537   2.185   0.230   1.298 -0.3726  0.4904  0.1891
  166TCq2    O6 2538   2.388   0.275   1.234  0.8471 -0.2431  0.3062
  166TCq2    H2 2539   2.149   4.711   1.307 -1.5652 -0.6912  1.6746
  166TCq2    H3 2540   2.550   0.132   1.323  1.6554 -0.9953  1.1122
  166TCq2    H4 2541   2.449   4.467   1.481 -0.3476 -1.3368 -1.1624
  167TMC2    C1 2542   0.688   1.498  12.823 -0.3575  0.8214 -0.5723
  167TMC2    C2 2543   0.622   1.527  12.946  0.8970  0.0828 -0.6623
  167TMC2    C3 2544   0.631   1.422  13.040 -0.1395 -0.0574 -0.1451
  167TMC2    C4 2545   0.728   1.368  12.789  0.5681  0.8131  0.7115
  167TMC2    C5 2546   0.728   1.273  12.884  0.9219 -0.5061  0.2283
  167TMC2    C6 2547   0.676   1.298  13.007 -0.5579  0.7394 -0.1139
  167TMC2     C 2548   0.699   1.610  12.734 -0.4554  0.1541  0.3953
  167TMC2     O 2549   0.624   1.703  12.752  0.5793  0.7725 -0.3797
  167TMC2     H 2550   0.597   1.629  12.974  0.1650 -0.8008  1.9181
  167TMC2    H1 2551   0.736   1.346  12.683 -0.7343 -0.5040  0.8993
  167TMC2    H2 2552   0.667   1.214  13.074  0.2986  1.6871  1.1922
  167TMC2    C7 2553   0.772   1.134  12.856 -0.1882 -0.0482  0.0383
  167TMC2    C8 2554   0.555   1.429  13.161 -0.6798  0.1646 -0.4011
  167TMC2    O1 2555   0.762   1.050  12.941 -0.5191  0.2353  0.7004
  167TMC2    O2 2556   0.558   1.327  13.226  0.1780 -0.2932  0.3479
  167TMC2    O5 2557   0.449   1.506  13.131  0.3977  0.4628  0.1134
  167TMC2    H5 2558   0.483   1.597  13.112  0.5864  0.7981  2.0206
  168MPD2     C 2559   0.744   1.780  12.502 -0.2781  0.5783 -0.9277
  168MPD2    C1 2560   0.797   1.653  12.513 -0.4342 -0.5576  0.0852
  168MPD2    C2 2561   0.861   1.603  12.402  0.2838 -0.1959  0.8588
  168MPD2    C3 2562   0.847   1.654  12.277 -1.0402 -0.0807 -0.0857
  168MPD2    C4 2563   0.792   1.779  12.265  0.2186 -1.3143 -1.0057
  168MPD2    C5 2564   0.745   1.841  12.380  0.4178  0.1593 -0.1955
  168MPD2     H 2565   0.918   1.512  12.414  0.5502 -0.1680 -0.1764
  168MPD2    H1 2566   0.776   1.823  12.168 -1.0852 -0.8886 -0.5896
  168MPD2    H2 2567   0.703   1.839  12.584  0.6935 -1.2308  0.8615
  168MPD2    H3 2568   0.707   1.941  12.364 -3.2719 -1.3257 -0.7748
  168MPD2     N 2569   0.884   1.579  12.162  0.3026 -0.0195  0.1378
  168MPD2    H5 2570   0.919   1.486  12.182  0.9682  0.2521  0.2331
  168MPD2    N1 2571   0.783   1.578  12.634 -0.4553  0.1035  0.6808
  168MPD2    H7 2572   0.830   1.489  12.643  0.0927  0.2570 -0.5887
  169MPD1     C 2573   4.375   0.148   9.871  0.4250  0.2279 -0.0496
  169MPD1    C1 2574   4.324   0.021   9.857 -0.3803  0.0155  0.2207
  169MPD1    C2 2575   4.185   0.006   9.827  0.0626  0.1994  0.2817
  169MPD1    C3 2576   4.100   0.112   9.805  0.3731 -0.1395  0.5281
  169MPD1    C4 2577   4.162   0.236   9.804 -0.3789  0.2364  0.1850
  169MPD1    C5 2578   4.297   0.255   9.824 -0.3279  0.1451 -0.2470
  169MPD1     H 2579   4.141   4.633   9.824 -1.3096  0.7421  2.3481
  169MPD1    H1 2580   4.101   0.325   9.796 -0.8091  0.0344  1.2412
  169MPD1    H2 2581   4.477   0.162   9.905  0.2394  0.2742  0.4976
  169MPD1    H3 2582   4.339   0.354   9.833  1.1683 -0.4237 -0.9113
  169MPD1     N 2583   3.965   0.085   9.777 -0.3270  0.6312  0.4293
  169MPD1    H5 2584   3.929   4.722   9.810  0.2508 -0.1419 -1.0214
  169MPD1    N1 2585   4.396   4.642   9.913 -0.2593 -0.0225  0.3777
  169MPD1    H6 2586   4.360   4.551   9.886 -1.9218  0.9939 -0.8469
  169MPD1    H7 2587   4.494   4.636   9.887 -0.2760  1.2467  0.0223
  170MPD1     C 2588   2.335   3.880  12.672  0.1752  0.0685  0.2278
  170MPD1    C1 2589   2.244   3.980  12.672 -0.3261  0.0771  0.4814
  170MPD1    C2 2590   2.200   4.016  12.795 -0.1192  0.3562  0.1915
  170MPD1    C3 2591   2.217   3.942  12.907  0.5298 -0.4878  0.2120
  170MPD1    C4 2592   2.308   3.837  12.902  0.4919 -0.1909  0.9388
  170MPD1    C5 2593   2.362   3.808  12.784 -0.0789 -0.5164 -0.0953
  170MPD1     H 2594   2.138   4.105  12.796  0.5919  0.8558 -0.4940
  170MPD1    H1 2595   2.333   3.780  12.991 -0.0364 -1.5485  0.2145
  170MPD1    H2 2596   2.389   3.873  12.579  2.9303  0.5266  1.7677
  170MPD1    H3 2597   2.438   3.731  12.779 -1.8626 -2.2245 -0.7681
  170MPD1     N 2598   2.161   3.966  13.034 -0.3241 -0.1936  0.2319
  170MPD1    H5 2599   2.192   3.907  13.111  1.4454  0.1208 -0.2378
  170MPD1    N1 2600   2.233   4.067  12.569 -0.5048  0.9768  0.2957
  170MPD1    H6 2601   2.239   4.022  12.478 -1.6031 -2.5751  2.0008
  170MPD1    H7 2602   2.138   4.103  12.573 -1.5339 -1.8019  0.1517
  171MPD1     C 2603   4.624   4.424  15.638  0.6502  0.2978  0.5235
  171MPD1    C1 2604   4.706   4.433  15.751 -0.4166 -0.1452 -0.6067
  171MPD1    C2 2605   0.118   4.428  15.727  0.0937 -0.5871  0.0309
  171MPD1    C3 2606   0.169   4.434  15.600  0.2976  0.0029  0.0758
  171MPD1    C4 2607   0.085   4.424  15.488  0.1941 -0.6883  0.0356
  171MPD1    C5 2608   4.676   4.418  15.507 -0.0449  0.3100 -0.7022
  171MPD1     H 2609   0.191   4.441  15.806 -0.0773  1.6079 -0.1615
  171MPD1    H1 2610   0.125   4.423  15.387  1.1499  3.3720  0.3802
  171MPD1    H2 2611   4.517   4.446  15.635  0.0361 -2.6023  1.0949
  171MPD1    H3 2612   4.613   4.415  15.419 -0.7584  0.8386 -0.2043
  171MPD1     N 2613   0.306   4.437  15.576  0.3651  0.3697 -0.5270
  171MPD1    H5 2614   0.347   4.416  15.485  0.0275  0.3409 -0.6702
  171MPD1    N1 2615   4.642   4.437  15.879  0.6403 -0.3280 -0.6932
  171MPD1    H6 2616   4.543   4.462  15.878  0.6844 -0.0507  1.2919
  171MPD1    H7 2617   4.695   4.469  15.960 -0.6713  2.6754 -0.9999
  172MPD1     C 2618   4.257   4.674   0.219  0.2884 -0.4913 -0.2402
  172MPD1    C1 2619   4.147   0.021   0.195 -0.9270 -0.3958  0.2719
  172MPD1    C2 2620   4.150   0.151   0.237  0.3236  0.0378 -0.6697
  172MPD1    C3 2621   4.244   0.198   0.323  0.2743  0.4910 -0.4203
  172MPD1    C4 2622   4.349   0.115   0.363 -0.0629 -0.0160 -0.5182
  172MPD1    C5 2623   4.357   4.721   0.299  0.0657  0.2405 -0.1148
  172MPD1     H 2624   4.064   0.212   0.212  1.7651  1.5614 -2.0000
  172MPD1    H1 2625   4.440   0.147   0.414  0.9831  0.5357 -2.7458
  172MPD1    H2 2626   4.268   4.580   0.166  1.9964 -1.9190  2.6752
  172MPD1    H3 2627   4.447   4.662   0.305  0.4999  0.7168 -1.8305
  172MPD1     N 2628   4.247   0.332   0.365 -0.5570 -0.0846 -0.1368
  172MPD1    H5 2629   4.325   0.357   0.426 -1.1672 -0.8599  0.9636
  172MPD1    N1 2630   4.059   4.713   0.084 -0.1382  0.0296 -0.4487
  172MPD1    H6 2631   4.028   4.617   0.071  0.4539 -0.4648  1.7704
  172MPD1    H7 2632   3.979   0.050   0.088 -0.7903 -0.8975  1.1431
  173MPD1     C 2633   1.746   0.124  14.490 -0.2028  0.0555 -0.4044
  173MPD1    C1 2634   1.637   0.105  14.568 -0.3815 -0.0559  0.0352
  173MPD1    C2 2635   1.564   4.714  14.548  0.3358 -0.2948  0.1299
  173MPD1    C3 2636   1.593   4.637  14.438  0.4848 -0.1654 -0.3604
  173MPD1    C4 2637   1.705   4.657  14.364  0.4302 -0.4778  0.5372
  173MPD1    C5 2638   1.792   0.027  14.408 -0.8086  0.6129 -0.2154
  173MPD1     H 2639   1.480   4.691  14.612 -0.9863 -0.8352 -1.8242
  173MPD1    H1 2640   1.742   4.579  14.298 -1.2077 -0.6398 -0.1704
  173MPD1    H2 2641   1.814   0.207  14.505  0.1092 -0.6244  1.8272
  173MPD1    H3 2642   1.892   0.039  14.368  0.5550 -0.1248  2.9412
  173MPD1     N 2643   1.519   4.523  14.421 -0.0881 -0.1191  0.2557
  173MPD1    H5 2644   1.459   4.496  14.498  0.8939 -0.8116  0.7864
  173MPD1    N1 2645   1.607   0.196  14.674  0.3168  0.4830  0.1102
  173MPD1    H6 2646   1.511   0.186  14.704  0.5906 -1.2694  0.4302
  173MPD1    H7 2647   1.610   0.296  14.653 -1.4779  0.2227 -1.4526
  174MPD1     C 2648   1.381   3.835  13.669  0.1454 -1.0677  0.0749
  174MPD1    C1 2649   1.309   3.788  13.778  0.5014  0.0201 -0.2672
  174MPD1    C2 2650   1.296   3.871  13.882  0.0839  0.0388 -0.2364
  174MPD1    C3 2651   1.338   4.005  13.883 -0.4867 -0.0903 -0.2550
  174MPD1    C4 2652   1.393   4.050  13.767 -0.0227 -0.0889  0.3990
  174MPD1    C5 2653   1.418   3.969  13.661  0.5764  0.0993  0.4643
  174MPD1     H 2654   1.244   3.831  13.969 -1.0244 -0.5568 -1.1681
  174MPD1    H1 2655   1.426   4.154  13.761 -1.5343  0.3482 -0.3371
  174MPD1    H2 2656   1.402   3.765  13.588  1.2256  1.4016 -1.7685
  174MPD1    H3 2657   1.468   4.010  13.574 -2.2549  1.3411 -0.5834
  174MPD1     N 2658   1.340   4.095  13.996  0.5974 -0.4146  0.4386
  174MPD1    H5 2659   1.381   4.186  13.977 -1.1313  0.4169  0.6962
  174MPD1    N1 2660   1.276   3.652  13.797 -0.0532  0.3592  0.4164
  174MPD1    H6 2661   1.242   3.608  13.712  1.2955 -0.4530  0.2922
  174MPD1    H7 2662   1.198   3.649  13.862 -0.7827  1.2857 -0.4086
  175MPD1     C 2663   4.045   0.610  15.694 -0.2467  0.1070 -0.1101
  175MPD1    C1 2664   3.915   0.622  15.725 -0.1667  1.2301  0.8652
  175MPD1    C2 2665   3.877   0.667  15.853  0.4048 -0.7654 -0.6509
  175MPD1    C3 2666   3.977   0.676  15.948  0.3018 -0.2670  0.5133
  175MPD1    C4 2667   4.108   0.651  15.920  0.5668  0.7330  0.3119
  175MPD1    C5 2668   4.135   0.619  15.793  0.5176  0.2821  0.4588
  175MPD1     H 2669   3.770   0.684  15.860  0.0100 -2.5309 -2.2181
  175MPD1    H1 2670   4.193   0.666  15.986  0.1499 -1.3116  1.3166
  175MPD1    H2 2671   4.077   0.584  15.594  1.5637 -0.9904  0.7494
  175MPD1    H3 2672   4.236   0.616  15.755  0.6910  0.3437  0.9247
  175MPD1     N 2673   3.951   0.690  16.086 -0.4834 -0.3008 -0.4706
  175MPD1    H5 2674   4.028   0.706  16.150 -0.3740  0.2078 -0.7293
  175MPD1    N1 2675   3.815   0.616  15.628 -0.6784 -0.2269 -0.3699
  175MPD1    H6 2676   3.839   0.553  15.552  1.3795  0.6648 -0.4448
  175MPD1    H7 2677   3.723   0.595  15.667 -0.4324  1.5071  1.1819
  176MPD1     C 2678   1.488   1.681  16.928  0.7978 -0.0400 -0.5168
  176MPD1    C1 2679   1.409   1.653  16.815 -0.2549  0.6126 -0.4237
  176MPD1    C2 2680   1.349   1.755  16.748  0.3429 -0.6256  0.0384
  176MPD1    C3 2681   1.366   1.884  16.797  0.3309  0.1008 -0.1252
  176MPD1    C4 2682   1.443   1.915  16.903 -0.2122 -0.0489 -0.2921
  176MPD1    C5 2683   1.506   1.809  16.964 -0.0027 -0.0348  0.4450
  176MPD1     H 2684   1.291   1.731  16.660  0.6511 -0.3145 -0.2509
  176MPD1    H1 2685   1.466   2.014  16.941 -1.7509  0.0452  0.4006
  176MPD1    H2 2686   1.546   1.605  16.979  1.3053  1.2777  0.8678
  176MPD1    H3 2687   1.572   1.826  17.049  0.8008 -2.3266  0.2575
  176MPD1     N 2688   1.299   1.993  16.727  0.3742  0.4713  0.3908
  176MPD1    H5 2689   1.264   1.975  16.634  0.1850  2.3253  0.1112
  176MPD1    N1 2690   1.423   1.525  16.761 -0.1463  0.4437  0.1816
  176MPD1    H6 2691   1.355   1.493  16.693 -0.1255 -0.2168  0.4692
  176MPD1    H7 2692   1.430   1.455  16.835 -1.6245  0.4392  0.3310
  177MPD1     C 2693   4.409   2.226  10.113 -0.1124 -0.9263 -0.6600
  177MPD1    C1 2694   4.290   2.177  10.062  0.4280  0.5848 -0.4155
  177MPD1    C2 2695   4.256   2.220   9.939  0.6119  0.2972 -0.4384
  177MPD1    C3 2696   4.319   2.326   9.879 -0.4855  0.0348  0.5340
  177MPD1    C4 2697   4.435   2.372   9.932 -0.3351  0.5662 -0.0440
  177MPD1    C5 2698   4.475   2.326  10.052 -0.1186 -0.3066  0.0712
  177MPD1     H 2699   4.165   2.176   9.901  0.2167 -0.9461  1.9148
  177MPD1    H1 2700   4.488   2.454   9.885 -0.5397  0.1941 -0.9157
  177MPD1    H2 2701   4.453   2.183  10.202 -1.0860 -1.1572 -0.2908
  177MPD1    H3 2702   4.565   2.368  10.095  0.7059 -0.2729 -1.6902
  177MPD1     N 2703   4.262   2.373   9.763 -0.2321  0.5022  0.0247
  177MPD1    H5 2704   4.200   2.313   9.710  0.3716  1.7845 -2.1615
  177MPD1    N1 2705   4.237   2.057  10.123 -0.7225  0.8495 -0.7365
  177MPD1    H6 2706   4.136   2.055  10.132 -0.5543 -1.8918  0.2636
  177MPD1    H7 2707   4.268   2.050  10.219 -1.4145 -0.1476 -0.5901
  178MPD1     C 2708   1.579   3.580  17.470 -0.1089 -0.0911  0.1030
  178MPD1    C1 2709   1.493   3.535  17.369 -0.4947 -0.1057 -0.3802
  178MPD1    C2 2710   1.545   3.505  17.246 -0.3123 -0.1702  0.1907
  178MPD1    C3 2711   1.682   3.514  17.225 -0.3085  0.2559 -0.5723
  178MPD1    C4 2712   1.768   3.546  17.332 -0.3557  0.4523  0.8162
  178MPD1    C5 2713   1.717   3.573  17.454 -0.0283 -0.3637 -0.5044
  178MPD1     H 2714   1.479   3.477  17.165  0.8931 -0.0867 -0.8116
  178MPD1    H1 2715   1.873   3.536  17.308 -1.5864 -1.3700 -3.8009
  178MPD1    H2 2716   1.545   3.619  17.565 -2.6955  2.3567 -1.8191
  178MPD1    H3 2717   1.791   3.595  17.530 -2.0506  1.7509  0.8923
  178MPD1     N 2718   1.749   3.482  17.106 -0.1666 -0.5766  0.1006
  178MPD1    H5 2719   1.848   3.503  17.106  0.2065 -2.3289  3.0771
  178MPD1    N1 2720   1.348   3.536  17.384  0.0493  0.2356 -0.7634
  178MPD1    H6 2721   1.301   3.468  17.325  1.3922 -1.7745  0.4772
  178MPD1    H7 2722   1.313   3.520  17.479 -1.0915 -1.4184 -1.4613
  179MPD1     C 2723   1.998   1.144  15.527  0.2978 -0.1191  0.4882
  179MPD1    C1 2724   1.891   1.205  15.470  0.0492 -0.2945  0.1231
  179MPD1    C2 2725   1.764   1.189  15.527 -0.4180 -0.6124  0.5349
  179MPD1    C3 2726   1.747   1.070  15.597 -0.8453  0.4680 -0.4798
  179MPD1    C4 2727   1.856   1.007  15.650  0.0281 -0.2478 -0.5188
  179MPD1    C5 2728   1.982   1.049  15.622  0.0970  0.0230  0.5488
  179MPD1     H 2729   1.686   1.256  15.494 -0.6036  0.5144  3.2877
  179MPD1    H1 2730   1.833   0.921  15.711  0.0117  1.5627  2.0594
  179MPD1    H2 2731   2.099   1.173  15.500  0.3892 -1.7194 -0.8788
  179MPD1    H3 2732   2.068   1.010  15.675 -1.2743 -2.3655  1.0149
  179MPD1     N 2733   1.619   1.021  15.635  0.1504  0.0597  0.2801
  179MPD1    H5 2734   1.626   0.971  15.723  0.6257 -1.5284 -0.6670
  179MPD1    N1 2735   1.913   1.315  15.393  0.0839  0.6343  0.0426
  179MPD1    H6 2736   1.825   1.340  15.348 -0.0916  0.5210  0.3230
  179MPD1    H7 2737   1.991   1.310  15.328  1.2164 -0.8534  1.5099
  180MPD1     C 2738   2.460   3.055  14.693 -0.4202 -0.2086 -0.1352
  180MPD1    C1 2739   2.420   3.118  14.574  0.2824 -0.4917  0.1479
  180MPD1    C2 2740   2.322   3.057  14.501  1.3011 -0.1333 -0.2739
  180MPD1    C3 2741   2.249   2.956  14.551 -0.3815  0.5025 -0.2524
  180MPD1    C4 2742   2.279   2.901  14.673 -0.9810 -0.0194 -0.1436
  180MPD1    C5 2743   2.390   2.948  14.742 -0.5749 -0.4670  0.3567
  180MPD1     H 2744   2.298   3.100  14.405  0.9740  1.7125  0.6418
  180MPD1    H1 2745   2.221   2.820  14.718 -2.5792  1.4655  0.4873
  180MPD1    H2 2746   2.556   3.079  14.735 -0.5209 -1.3561  0.7633
  180MPD1    H3 2747   2.407   2.902  14.838 -1.8353 -1.3285  0.1620
  180MPD1     N 2748   2.136   2.908  14.471 -0.2110 -0.2524 -0.1379
  180MPD1    H5 2749   2.116   2.952  14.382 -0.1074 -0.4735 -0.2719
  180MPD1    N1 2750   2.506   3.219  14.517  0.5837 -0.1489  0.3133
  180MPD1    H6 2751   2.472   3.290  14.453  0.6561  0.1923  0.6546
  180MPD1    H7 2752   2.565   3.265  14.586  1.9922 -2.0271  0.3575
  181MPD1     C 2753   2.584   3.819   9.993 -0.3972 -1.0475  0.6102
  181MPD1    C1 2754   2.578   3.958  10.006 -0.3150  0.6926 -0.1972
  181MPD1    C2 2755   2.692   4.025  10.031 -0.2003  0.5474 -0.2457
  181MPD1    C3 2756   2.819   3.960  10.015  0.4408 -0.4351 -0.5662
  181MPD1    C4 2757   2.822   3.824   9.987  0.2877  0.4683  0.2472
  181MPD1    C5 2758   2.707   3.758   9.987 -0.4749  0.3181 -0.1377
  181MPD1     H 2759   2.672   4.131  10.041  0.3518  0.6214  0.0778
  181MPD1    H1 2760   2.913   3.771   9.964  0.2164  0.0022  1.0340
  181MPD1    H2 2761   2.492   3.762   9.986 -0.7390 -0.3824 -0.3438
  181MPD1    H3 2762   2.709   3.655   9.953 -1.9496  0.7056 -1.3757
  181MPD1     N 2763   2.945   4.019  10.035  0.2623 -0.0173 -0.4301
  181MPD1    H5 2764   3.027   3.961  10.050  0.4125  0.6255  1.2399
  181MPD1    N1 2765   2.450   4.021   9.998  0.3463  0.0428  0.1027
  181MPD1    H6 2766   2.378   3.949   9.998 -1.2353  1.6396  0.4848
  181MPD1    H7 2767   2.425   4.080  10.077 -1.0088 -0.0051 -0.2936
  182MPD1     C 2768   0.388   3.929   0.782  0.7486 -0.1108 -0.2584
  182MPD1    C1 2769   0.267   3.892   0.736 -0.5489  0.8535 -0.2209
  182MPD1    C2 2770   0.182   3.829   0.829 -0.1345  0.3833  0.4023
  182MPD1    C3 2771   0.207   3.800   0.957 -0.0622 -0.6358  0.4915
  182MPD1    C4 2772   0.333   3.836   0.999  1.1615  0.4063 -0.5873
  182MPD1    C5 2773   0.416   3.899   0.914  0.5715 -0.1778 -0.1542
  182MPD1     H 2774   0.080   3.813   0.799  0.4327 -1.6335 -0.4326
  182MPD1    H1 2775   0.356   3.829   1.105 -3.2372  0.1473  0.3507
  182MPD1    H2 2776   0.451   3.997   0.727  2.0338 -0.7612  0.4068
  182MPD1    H3 2777   0.510   3.938   0.951 -0.3648  1.1414  0.8302
  182MPD1     N 2778   0.124   3.732   1.049  0.3034 -0.4624  0.3848
  182MPD1    H5 2779   0.154   3.716   1.144 -2.9023 -0.1355  1.4585
  182MPD1    N1 2780   0.216   3.932   0.610  0.0623 -0.2308  0.4781
  182MPD1    H6 2781   0.291   3.948   0.543 -0.8599  1.5370 -0.1406
  182MPD1    H7 2782   0.138   3.884   0.565 -0.4282  0.6161  0.4078
  183MPD1     C 2783   0.505   4.102   8.870 -0.5041  0.2841  0.0285
  183MPD1    C1 2784   0.492   4.211   8.953 -0.6068  0.2496 -0.0029
  183MPD1    C2 2785   0.382   4.213   9.035  0.7321 -0.2577  0.5794
  183MPD1    C3 2786   0.293   4.114   9.050 -0.1383  0.7194 -0.5284
  183MPD1    C4 2787   0.311   4.001   8.971 -0.4599  0.0047 -0.1728
  183MPD1    C5 2788   0.419   3.999   8.880  0.0578 -0.1245  0.7324
  183MPD1     H 2789   0.358   4.303   9.091 -4.0948  0.3511 -2.5564
  183MPD1    H1 2790   0.253   3.910   8.983 -2.6613  1.3814 -0.3568
  183MPD1    H2 2791   0.586   4.091   8.798 -1.8306 -1.2202 -1.2290
  183MPD1    H3 2792   0.437   3.909   8.822 -0.8952  1.3852 -1.8846
  183MPD1     N 2793   0.198   4.126   9.155  0.2017 -0.2427 -0.0962
  183MPD1    H5 2794   0.199   4.214   9.206  2.9390 -1.1009  1.3349
  183MPD1    N1 2795   0.576   4.321   8.928 -0.0672 -0.0747 -0.4618
  183MPD1    H6 2796   0.610   4.368   9.012 -0.3524 -0.0982 -0.3310
  183MPD1    H7 2797   0.655   4.304   8.867  0.1085  2.2512 -0.8859
  184MPD1     C 2798   3.399   1.703   9.779 -0.4119  0.4466  0.5504
  184MPD1    C1 2799   3.334   1.695   9.658 -0.1539 -0.1851 -0.4203
  184MPD1    C2 2800   3.382   1.773   9.557 -0.8462  0.9084 -0.6610
  184MPD1    C3 2801   3.474   1.876   9.579  0.0403 -0.7050  0.1776
  184MPD1    C4 2802   3.524   1.890   9.707 -0.8954 -0.3498  0.7577
  184MPD1    C5 2803   3.483   1.808   9.805 -0.5467  0.2965  0.2742
  184MPD1     H 2804   3.330   1.776   9.463 -1.6846  0.3028 -0.2190
  184MPD1    H1 2805   3.583   1.977   9.735  0.2297 -0.7728 -0.2779
  184MPD1    H2 2806   3.386   1.628   9.857  3.5666  1.3700  2.1128
  184MPD1    H3 2807   3.531   1.818   9.901  1.9976 -2.2419 -0.7125
  184MPD1     N 2808   3.527   1.959   9.481 -0.2736  0.3065 -0.1550
  184MPD1    H5 2809   3.585   2.034   9.518 -1.9750  0.5562  2.0245
  184MPD1    N1 2810   3.255   1.584   9.624  0.1319  0.7509 -0.1576
  184MPD1    H6 2811   3.187   1.606   9.552  2.0939 -0.7818 -2.4816
  184MPD1    H7 2812   3.198   1.554   9.703  0.8284 -2.0618 -0.7187
  185MPD1     C 2813   3.981   2.224   8.511 -0.5085  0.7214  0.3651
  185MPD1    C1 2814   3.879   2.129   8.531  0.1687 -0.1510 -0.0028
  185MPD1    C2 2815   3.830   2.120   8.656 -0.4566  0.0220 -0.4268
  185MPD1    C3 2816   3.883   2.193   8.759  0.0450  0.2796  0.2443
  185MPD1    C4 2817   3.977   2.289   8.737  0.0346 -0.1844  0.0963
  185MPD1    C5 2818   4.036   2.300   8.615 -0.2397 -0.9799  0.7588
  185MPD1     H 2819   3.746   2.054   8.674 -2.0504  1.8031 -1.3187
  185MPD1    H1 2820   4.011   2.360   8.812 -0.1562 -1.1533  1.1043
  185MPD1    H2 2821   4.016   2.245   8.410  0.1606 -2.0196  0.0314
  185MPD1    H3 2822   4.122   2.366   8.608 -1.1860  0.0804 -0.8145
  185MPD1     N 2823   3.820   2.198   8.889 -0.8990  0.4082  0.0163
  185MPD1    H5 2824   3.856   2.271   8.949 -0.5317  0.5661 -0.3938
  185MPD1    N1 2825   3.810   2.057   8.434  0.3027  0.1957 -0.2699
  185MPD1    H6 2826   3.873   2.027   8.359  1.5989  1.2459  0.3946
  185MPD1    H7 2827   3.766   1.973   8.472 -0.7738  1.0214  0.3007
  186MPD1     C 2828   2.342   1.023  15.782 -0.5309 -0.1979 -0.3978
  186MPD1    C1 2829   2.280   1.011  15.904  0.1829  0.2800  0.3079
  186MPD1    C2 2830   2.197   1.113  15.948 -0.2030 -0.1551  0.4799
  186MPD1    C3 2831   2.193   1.237  15.885  0.8424 -0.0149 -0.2626
  186MPD1    C4 2832   2.264   1.250  15.763  0.0183  0.6492 -0.6052
  186MPD1    C5 2833   2.337   1.141  15.712  0.0590  0.8854  0.2514
  186MPD1     H 2834   2.142   1.087  16.038  0.1171 -1.0407  0.4285
  186MPD1    H1 2835   2.265   1.339  15.701 -0.4482 -0.1170 -1.6933
  186MPD1    H2 2836   2.392   0.940  15.733  0.9300  0.7840 -0.5986
  186MPD1    H3 2837   2.411   1.149  15.633 -1.4415  0.3328 -1.2002
  186MPD1     N 2838   2.130   1.350  15.937 -0.3006 -0.4808  0.0823
  186MPD1    H5 2839   2.144   1.440  15.891  0.7760 -0.1659  1.0437
  186MPD1    N1 2840   2.281   0.885  15.967 -0.4120  0.3376  0.4688
  186MPD1    H6 2841   2.255   0.893  16.065 -3.4548  2.4500 -0.5313
  186MPD1    H7 2842   2.374   0.844  15.965 -0.3664  0.6637 -3.0572
  187MPD1     C 2843   0.542   3.712   0.330  0.4728 -0.0931 -0.5790
  187MPD1    C1 2844   0.511   3.594   0.263 -0.7604 -0.1158 -0.8800
  187MPD1    C2 2845   0.585   3.552   0.152 -0.6337 -0.0305 -0.2497
  187MPD1    C3 2846   0.687   3.627   0.106 -0.0333  0.0886  0.0712
  187MPD1    C4 2847   0.719   3.748   0.171 -0.2972 -0.6913 -0.1426
  187MPD1    C5 2848   0.648   3.791   0.282 -0.0851 -0.5035 -0.2205
  187MPD1     H 2849   0.565   3.453   0.112  0.0961 -1.0548  1.9549
  187MPD1    H1 2850   0.812   3.802   0.159  0.1698 -2.0946 -2.8316
  187MPD1    H2 2851   0.481   3.756   0.408  1.7594 -1.4200  1.1902
  187MPD1    H3 2852   0.663   3.889   0.325  0.4198 -0.8752  0.4531
  187MPD1     N 2853   0.767   3.594  17.699 -0.0921  0.0875 -0.1442
  187MPD1    H5 2854   0.830   3.666  17.665  0.6119 -0.8164 -0.7302
  187MPD1    N1 2855   0.398   3.524   0.303  0.4217 -0.1089  0.2006
  187MPD1    H6 2856   0.378   3.505   0.401  0.4956  2.1289  0.6427
  187MPD1    H7 2857   0.400   3.430   0.264 -1.8785 -0.1743  0.2631
  188MPD1     C 2858   1.405   2.775   9.971  0.4908 -0.0759  0.0156
  188MPD1    C1 2859   1.282   2.795   9.914  0.0796 -0.3762 -0.2564
  188MPD1    C2 2860   1.194   2.690   9.921  0.0496 -0.1999 -0.4583
  188MPD1    C3 2861   1.229   2.567   9.990 -1.0808  0.1442 -0.0857
  188MPD1    C4 2862   1.350   2.556  10.043 -0.2314 -0.4719 -0.1899
  188MPD1    C5 2863   1.443   2.663  10.030  0.2991  0.2297  0.0668
  188MPD1     H 2864   1.097   2.695   9.873 -0.5441 -1.8621  0.5327
  188MPD1    H1 2865   1.389   2.457  10.062  0.6463 -0.2761 -0.9272
  188MPD1    H2 2866   1.474   2.855   9.997 -1.9256  2.1293 -0.3474
  188MPD1    H3 2867   1.545   2.648  10.062 -1.0596 -3.3387  2.7485
  188MPD1     N 2868   1.149   2.457   9.990  0.4839 -1.0751 -0.4457
  188MPD1    H5 2869   1.181   2.379  10.046  0.7135  1.2146  2.5824
  188MPD1    N1 2870   1.250   2.910   9.840 -0.2978 -0.1802  0.2708
  188MPD1    H6 2871   1.327   2.959   9.795 -1.5954  2.1029  0.5032
  188MPD1    H7 2872   1.181   2.899   9.766  1.8179  0.8309 -1.8584
  189MPD1     C 2873   2.186   3.891   0.966  0.2171 -0.2038 -0.0795
  189MPD1    C1 2874   2.175   3.826   0.845 -0.4700  0.4281  0.6912
  189MPD1    C2 2875   2.179   3.895   0.728  0.1724  0.1612  0.6099
  189MPD1    C3 2876   2.173   4.035   0.727  0.3037 -0.5310  0.5968
  189MPD1    C4 2877   2.183   4.100   0.850  0.0870 -0.2863 -0.3210
  189MPD1    C5 2878   2.199   4.028   0.968  0.2744 -0.1996 -0.6002
  189MPD1     H 2879   2.186   3.837   0.637 -0.0659 -0.7021  1.1493
  189MPD1    H1 2880   2.192   4.207   0.868 -0.4511 -0.3806  0.4758
  189MPD1    H2 2881   2.195   3.832   1.057 -0.2883  0.2632  0.2722
  189MPD1    H3 2882   2.207   4.078   1.064  0.4435 -1.1915 -0.0994
  189MPD1     N 2883   2.169   4.098   0.604 -0.4672  0.9534  0.0319
  189MPD1    H5 2884   2.175   4.042   0.519  0.9612  1.5058 -0.2288
  189MPD1    N1 2885   2.194   3.686   0.843 -0.2596  0.0892 -0.2990
  189MPD1    H6 2886   2.147   3.636   0.918  2.9663 -0.0788  1.6030
  189MPD1    H7 2887   2.167   3.643   0.755  0.2412 -0.6563 -0.0820
  190MPD1     C 2888   1.377   2.427  14.950 -0.5753 -0.8293  0.5757
  190MPD1    C1 2889   1.497   2.477  14.895 -0.3206 -0.1928  0.2699
  190MPD1    C2 2890   1.599   2.512  14.978 -0.5874 -0.8318 -0.3383
  190MPD1    C3 2891   1.588   2.504  15.117 -1.0820 -0.5737  0.6265
  190MPD1    C4 2892   1.468   2.455  15.162  0.3163  0.1201  0.3654
  190MPD1    C5 2893   1.366   2.411  15.088  0.0073  0.1754 -0.2892
  190MPD1     H 2894   1.692   2.552  14.937 -2.0761  0.3946 -2.4910
  190MPD1    H1 2895   1.451   2.438  15.268  1.0088 -0.3773  0.3998
  190MPD1    H2 2896   1.298   2.390  14.886  0.5170 -1.9095 -0.1611
  190MPD1    H3 2897   1.279   2.370  15.138  0.1655 -0.0911 -0.2363
  190MPD1     N 2898   1.697   2.538  15.193 -0.2740  0.1749 -0.3530
  190MPD1    H5 2899   1.775   2.579  15.143 -1.0611  1.8573 -0.2223
  190MPD1    N1 2900   1.511   2.468  14.755  0.8504  0.2489 -0.1727
  190MPD1    H6 2901   1.424   2.498  14.710  0.6322 -1.1166 -0.6556
  190MPD1    H7 2902   1.586   2.520  14.710 -1.6472  3.0948 -1.0967
  191MPD1     C 2903   0.936   3.973  12.494 -0.2519 -0.5757 -0.8461
  191MPD1    C1 2904   0.912   3.966  12.358 -0.2946 -0.4994 -0.7220
  191MPD1    C2 2905   0.939   4.083  12.284  0.3406 -0.5129 -0.5382
  191MPD1    C3 2906   1.002   4.193  12.345 -0.3076  0.3315  0.2914
  191MPD1    C4 2907   1.018   4.190  12.478  0.3885 -0.4081  0.8140
  191MPD1    C5 2908   0.992   4.082  12.555  0.4530 -1.2379 -0.3435
  191MPD1     H 2909   0.918   4.086  12.178 -1.3003 -1.0430 -0.2285
  191MPD1    H1 2910   1.046   4.281  12.530  0.5701  0.4842 -0.8454
  191MPD1    H2 2911   0.918   3.891  12.562 -1.4601  0.7203  0.3841
  191MPD1    H3 2912   1.023   4.087  12.659  0.4542  2.4409 -0.5242
  191MPD1     N 2913   1.004   4.309  12.263  0.1464  0.3483 -0.5288
  191MPD1    H5 2914   0.981   4.294  12.165  2.4889 -1.4924 -0.7859
  191MPD1    N1 2915   0.835   3.860  12.311 -0.1504 -0.5646  0.4370
  191MPD1    H6 2916   0.858   3.768  12.348  0.7354 -0.2206  0.7464
  191MPD1    H7 2917   0.847   3.858  12.210 -0.6295 -0.4456  0.3773
  192MPD1     C 2918   0.307   0.130  12.009  0.4211  0.7646  0.5965
  192MPD1    C1 2919   0.336   4.722  12.023 -0.0150 -0.2054 -0.1094
  192MPD1    C2 2920   0.465   4.676  12.016  0.4575 -0.9303 -0.2355
  192MPD1    C3 2921   0.572   0.037  12.010  0.1975  0.8788 -0.9228
  192MPD1    C4 2922   0.544   0.178  12.019  0.0718 -0.1015 -0.5098
  192MPD1    C5 2923   0.416   0.216  12.003 -0.1567  0.4023 -0.2556
  192MPD1     H 2924   0.484   4.570  12.012  0.9464 -0.9401  3.0553
  192MPD1    H1 2925   0.630   0.244  12.006  1.4891 -1.3762  2.3028
  192MPD1    H2 2926   0.210   0.178  12.001  0.8690  1.3953 -1.0641
  192MPD1    H3 2927   0.403   0.323  11.990  1.4488  0.8423  1.6726
  192MPD1     N 2928   0.709   0.005  11.999  0.0918 -0.2303 -0.5119
  192MPD1    H5 2929   0.773   0.084  12.006  1.2674 -0.9812 -2.9325
  192MPD1    N1 2930   0.230   4.629  12.009  0.2090 -0.5567 -0.2517
  192MPD1    H6 2931   0.253   4.539  12.051 -0.5204  0.0088  1.3090
  192MPD1    H7 2932   0.138   4.659  12.040  0.9697  1.3337  0.1360
  193MPD1     C 2933   0.572   4.452  16.020  0.1497 -0.0409  0.5759
  193MPD1    C1 2934   0.488   4.542  16.080 -0.3322 -0.0747  0.4936
  193MPD1    C2 2935   0.515   4.578  16.208  0.5250  0.2743  0.2354
  193MPD1    C3 2936   0.634   4.546  16.275 -0.6124  0.0481 -0.8170
  193MPD1    C4 2937   0.718   4.468  16.208 -0.3470  0.6003 -0.6492
  193MPD1    C5 2938   0.687   4.416  16.084  0.0861  0.5412 -1.0180
  193MPD1     H 2939   0.431   4.625  16.258  0.0727 -0.5995  0.2792
  193MPD1    H1 2940   0.816   4.441  16.245 -1.4041  0.1205  1.7658
  193MPD1    H2 2941   0.556   4.403  15.924 -1.9419 -2.0017  1.9157
  193MPD1    H3 2942   0.770   4.369  16.032  0.8420 -1.0167  1.6072
  193MPD1     N 2943   0.672   4.601  16.397  0.0023  0.4134 -0.6403
  193MPD1    H5 2944   0.749   4.552  16.442 -0.8732 -1.6486 -1.3973
  193MPD1    N1 2945   0.358   4.568  16.027  0.1700 -0.0827 -0.2191
  193MPD1    H6 2946   0.322   4.661  16.045 -0.0181 -0.2127  0.0835
  193MPD1    H7 2947   0.368   4.556  15.927  0.7611 -0.4942 -0.1069
  194MPD1     C 2948   2.866   2.766  16.076  0.8489 -0.2284  0.3725
  194MPD1    C1 2949   2.818   2.784  16.206 -0.6231  0.9124 -0.6262
  194MPD1    C2 2950   2.868   2.708  16.307 -0.0397  0.2508 -0.9184
  194MPD1    C3 2951   2.987   2.643  16.294 -1.3953  0.1477 -0.4870
  194MPD1    C4 2952   3.052   2.639  16.175  0.4914 -0.3890 -0.4549
  194MPD1    C5 2953   2.984   2.694  16.066  0.4191  0.0589  0.0770
  194MPD1     H 2954   2.804   2.703  16.395  1.9352 -1.0860  0.4472
  194MPD1    H1 2955   3.152   2.601  16.160  0.7620 -0.0660  0.5358
  194MPD1    H2 2956   2.829   2.827  15.994 -2.6932 -0.6360  1.6759
  194MPD1    H3 2957   3.042   2.700  15.975 -0.7501  1.0620 -0.6067
  194MPD1     N 2958   3.037   2.578  16.408  0.9706  0.0656 -0.2101
  194MPD1    H5 2959   3.122   2.524  16.394  1.4880  1.4635 -2.3452
  194MPD1    N1 2960   2.699   2.851  16.224 -0.4745 -0.2528  0.0033
  194MPD1    H6 2961   2.699   2.921  16.150 -0.5405 -0.2822 -0.0252
  194MPD1    H7 2962   2.687   2.883  16.319 -1.4448 -0.1350 -0.1664
  195MPD1     C 2963   1.184   2.845  17.592  0.6588  0.3296 -0.2529
  195MPD1    C1 2964   1.196   2.812  17.463 -0.2653 -0.0395  0.1582
  195MPD1    C2 2965   1.085   2.760  17.396 -0.1982  0.8230  0.3189
  195MPD1    C3 2966   0.967   2.731  17.463  0.2924  0.0367 -0.0146
  195MPD1    C4 2967   0.962   2.745  17.601  0.1228  0.6770  0.1113
  195MPD1    C5 2968   1.069   2.815  17.664 -0.4642 -0.3393 -0.7638
  195MPD1     H 2969   1.088   2.731  17.292  0.3725  2.1952 -0.0526
  195MPD1    H1 2970   0.877   2.707  17.656  0.4515 -0.0101  0.1408
  195MPD1    H2 2971   1.261   2.901  17.642  0.3324  1.6813 -1.2707
  195MPD1    H3 2972   1.073   2.826   0.067 -0.4754  0.8129 -0.8842
  195MPD1     N 2973   0.848   2.686  17.398  0.0552 -0.0764  0.2647
  195MPD1    H5 2974   0.762   2.663  17.448  0.1759  1.0776  0.9900
  195MPD1    N1 2975   1.309   2.868  17.397  0.4489 -0.9146  0.2238
  195MPD1    H6 2976   1.394   2.873  17.453  0.1173  0.4221  0.6026
  195MPD1    H7 2977   1.326   2.817  17.311  0.7972 -0.9496  0.3142
  196MPD1     C 2978   4.468   3.155   0.778  0.0613 -0.3028  0.1316
  196MPD1    C1 2979   4.419   3.108   0.905 -0.5256 -0.4061 -0.4837
  196MPD1    C2 2980   4.504   3.113   1.013 -0.3609  0.5253  0.2861
  196MPD1    C3 2981   4.621   3.189   1.010 -0.0369 -0.2938 -0.0464
  196MPD1    C4 2982   4.664   3.238   0.885  0.1277 -0.1901 -1.1069
  196MPD1    C5 2983   4.585   3.225   0.780  0.2530 -0.4166  0.1128
  196MPD1     H 2984   4.479   3.064   1.106 -1.4863  3.0759  1.3168
  196MPD1    H1 2985   0.035   3.283   0.867  0.2974 -0.4728 -0.9090
  196MPD1    H2 2986   4.408   3.153   0.687  0.4173 -1.5418 -0.0678
  196MPD1    H3 2987   4.623   3.268   0.688  0.5243 -0.6411  0.1207
  196MPD1     N 2988   4.716   3.189   1.109  0.0536 -0.5843  0.2549
  196MPD1    H5 2989   0.076   3.239   1.092 -0.4160  0.2456  0.2807
  196MPD1    N1 2990   4.315   3.012   0.899 -0.0911  0.1634  0.1650
  196MPD1    H6 2991   4.244   3.025   0.970 -0.2917 -0.4009  0.0672
  196MPD1    H7 2992   4.256   3.018   0.816 -0.9790 -1.9025  0.6418
  197MPD1     C 2993   3.662   1.676  17.503  0.0966  0.0285 -0.0944
  197MPD1    C1 2994   3.628   1.782  17.422 -0.1001  0.4193  0.7452
  197MPD1    C2 2995   3.636   1.766  17.283  0.7577 -0.3299  0.0635
  197MPD1    C3 2996   3.655   1.638  17.225  0.0656 -0.5013 -0.4584
  197MPD1    C4 2997   3.672   1.533  17.312 -0.6951  0.8585 -0.6267
  197MPD1    C5 2998   3.688   1.553  17.447  0.1650 -0.0854  0.3139
  197MPD1     H 2999   3.635   1.855  17.221 -1.3541 -1.3359 -1.3418
  197MPD1    H1 3000   3.695   1.435  17.272 -0.2299 -0.0582  1.8422
  197MPD1    H2 3001   3.684   1.692  17.608 -1.3930 -1.3964  0.4356
  197MPD1    H3 3002   3.729   1.479  17.515  0.5771 -1.9704 -1.9499
  197MPD1     N 3003   3.666   1.619  17.086  0.0615 -0.1324 -0.1609
  197MPD1    H5 3004   3.653   1.524  17.055  1.4794  0.6766 -3.2059
  197MPD1    N1 3005   3.611   1.908  17.475 -0.1950 -0.3357 -0.2195
  197MPD1    H6 3006   3.582   1.914  17.572  1.7046  0.8650  0.2675
  197MPD1    H7 3007   3.540   1.959  17.422  0.3874  0.7105  0.0128
  198MPD1     C 3008   0.830   3.527  14.905 -0.2194  0.6931 -0.0298
  198MPD1    C1 3009   0.865   3.409  14.952  0.2839  0.1573  0.6811
  198MPD1    C2 3010   0.992   3.393  15.010 -0.1371  0.0183 -0.1184
  198MPD1    C3 3011   1.075   3.504  15.027  1.1441  0.7918 -0.0687
  198MPD1    C4 3012   1.033   3.628  14.990  0.7223  0.8813  0.7593
  198MPD1    C5 3013   0.906   3.635  14.934  0.3781  0.0054  0.4289
  198MPD1     H 3014   1.017   3.308  15.073  1.4727  1.8377  1.6886
  198MPD1    H1 3015   1.080   3.725  15.005  1.5026  0.2606  2.3192
  198MPD1    H2 3016   0.734   3.532  14.855 -0.5398 -0.1087  0.5068
  198MPD1    H3 3017   0.859   3.731  14.918 -0.6244 -0.6635 -0.6993
  198MPD1     N 3018   1.189   3.493  15.113  0.4242  0.5784  0.0617
  198MPD1    H5 3019   1.211   3.404  15.156  2.2921  1.2545  0.4817
  198MPD1    N1 3020   0.792   3.294  14.927  0.0544  0.0237 -0.3823
  198MPD1    H6 3021   0.692   3.308  14.913 -0.1915 -1.6688 -0.3269
  198MPD1    H7 3022   0.810   3.220  14.995  0.4933 -0.8037 -1.4049
  199MPD1     C 3023   2.885   3.456   9.341 -0.0323  0.0543 -0.0642
  199MPD1    C1 3024   2.773   3.535   9.311 -0.3017  0.0929 -0.7741
  199MPD1    C2 3025   2.755   3.639   9.406  0.0663  0.2910 -0.6814
  199MPD1    C3 3026   2.847   3.667   9.508  1.0496  0.1413  0.5657
  199MPD1    C4 3027   2.964   3.595   9.528 -0.9276 -0.1012  0.2032
  199MPD1    C5 3028   2.977   3.494   9.435 -0.2005  0.1804  0.0674
  199MPD1     H 3029   2.663   3.694   9.388  0.6994  1.5128 -0.2061
  199MPD1    H1 3030   3.042   3.608   9.602  0.9808  3.3602 -2.3992
  199MPD1    H2 3031   2.917   3.366   9.289 -0.5394  0.2587 -0.7189
  199MPD1    H3 3032   3.066   3.432   9.432 -1.6431 -1.9518  0.8786
  199MPD1     N 3033   2.832   3.778   9.596 -0.0273  0.4933 -0.4488
  199MPD1    H5 3034   2.918   3.813   9.636  0.0661 -1.5577  1.1414
  199MPD1    N1 3035   2.695   3.510   9.196 -0.8082  0.2759  0.0842
  199MPD1    H6 3036   2.721   3.420   9.157 -1.0812 -0.1141  0.8151
  199MPD1    H7 3037   2.596   3.508   9.218 -0.8299 -1.0952 -0.1528
  200MPD1     C 3038   2.687   0.343  15.250  0.1932  0.3407 -0.2097
  200MPD1    C1 3039   2.609   0.343  15.133 -0.9792 -0.1160 -0.4530
  200MPD1    C2 3040   2.626   0.440  15.032 -0.4629  0.0407  0.0170
  200MPD1    C3 3041   2.726   0.537  15.052 -0.2674  0.0619  0.0034
  200MPD1    C4 3042   2.798   0.538  15.169 -0.0716 -0.2255 -0.0170
  200MPD1    C5 3043   2.784   0.435  15.260  0.0105  0.5804  0.2193
  200MPD1     H 3044   2.567   0.433  14.941 -1.1782  1.9005  0.3461
  200MPD1    H1 3045   2.883   0.604  15.187 -0.2119  0.1760 -0.8571
  200MPD1    H2 3046   2.682   0.265  15.325  1.3975  1.3665  0.9238
  200MPD1    H3 3047   2.843   0.440  15.351  0.9263 -0.4658 -0.3120
  200MPD1     N 3048   2.745   0.633  14.949 -0.2177 -0.3017 -0.0969
  200MPD1    H5 3049   2.682   0.629  14.869  0.5437  1.8734 -0.8120
  200MPD1    N1 3050   2.507   0.249  15.115  0.2798  0.2327  0.6097
  200MPD1    H6 3051   2.515   0.166  15.174 -2.0538 -0.7927 -0.5335
  200MPD1    H7 3052   2.476   0.231  15.020  0.6302 -1.2223  0.7682
  201MPD1     C 3053   4.511   4.364  13.350  0.3927  0.5353  0.9000
  201MPD1    C1 3054   4.643   4.323  13.331 -0.0970  0.6561  0.3969
  201MPD1    C2 3055   4.674   4.184  13.346  0.1723 -0.1727 -0.0421
  201MPD1    C3 3056   4.571   4.095  13.366 -0.3930  0.6046  0.7211
  201MPD1    C4 3057   4.443   4.141  13.387 -0.5090  0.6886  0.1292
  201MPD1    C5 3058   4.416   4.273  13.380  1.0997 -0.4447 -0.1778
  201MPD1     H 3059   0.051   4.151  13.342  0.2841  0.1956 -0.2286
  201MPD1    H1 3060   4.359   4.075  13.407 -2.3813  2.7090 -1.1231
  201MPD1    H2 3061   4.477   4.466  13.343 -2.9008 -0.6242 -0.1874
  201MPD1    H3 3062   4.312   4.301  13.389  0.8612 -1.8857  1.7582
  201MPD1     N 3063   4.598   3.950  13.377  0.4387 -0.1774 -1.2402
  201MPD1    H5 3064   4.698   3.934  13.381  0.4689  0.6903  1.5877
  201MPD1    N1 3065   0.022   4.425  13.339  0.2226 -0.2429  0.1366
  201MPD1    H6 3066   4.713   4.512  13.300  0.9758 -1.3999 -3.1189
  201MPD1    H7 3067   0.110   4.409  13.291  0.2758 -0.7095  0.3950
  202MPD1     C 3068   0.321   3.229   8.964  0.8047  1.1806  0.0625
  202MPD1    C1 3069   0.379   3.130   9.035  0.0108 -0.5578 -0.5124
  202MPD1    C2 3070   0.371   3.133   9.174  0.7231 -0.1606 -0.7552
  202MPD1    C3 3071   0.274   3.201   9.240 -0.2447 -0.2748  0.5721
  202MPD1    C4 3072   0.200   3.290   9.165 -0.0194 -0.2177  1.1080
  202MPD1    C5 3073   0.229   3.307   9.030 -0.8320 -0.1345 -0.0049
  202MPD1     H 3074   0.432   3.060   9.227  1.1322  0.7202 -0.0097
  202MPD1    H1 3075   0.121   3.350   9.207  0.8604  0.9658  1.0985
  202MPD1    H2 3076   0.343   3.251   8.860 -3.7414 -0.4183 -1.2356
  202MPD1    H3 3077   0.161   3.375   8.981  1.7844  3.9519  1.9559
  202MPD1     N 3078   0.243   3.184   9.382  0.2800  0.1366 -0.4020
  202MPD1    H5 3079   0.187   3.257   9.426  1.5641 -0.2318  1.8567
  202MPD1    N1 3080   0.488   3.054   8.984  0.2777 -0.1216 -0.2024
  202MPD1    H6 3081   0.496   2.975   9.048  0.8194 -1.0234 -1.3941
  202MPD1    H7 3082   0.468   3.020   8.891 -0.2557 -3.1826  1.0064
  203MPD1     C 3083   3.119   4.672  13.068 -0.6190 -0.4699  0.3415
  203MPD1    C1 3084   3.066   4.548  13.105 -0.3957  0.1809 -0.1268
  203MPD1    C2 3085   3.129   4.436  13.047 -0.1774 -0.5906  0.2685
  203MPD1    C3 3086   3.231   4.442  12.960 -0.7341 -1.0239  0.2423
  203MPD1    C4 3087   3.280   4.568  12.930 -0.3232 -0.0767  0.3482
  203MPD1    C5 3088   3.226   4.677  12.989  0.0177  0.5655 -0.1642
  203MPD1     H 3089   3.092   4.337  13.069  1.6457 -1.5134 -0.8275
  203MPD1    H1 3090   3.370   4.573  12.869 -2.3444 -0.5909 -2.6806
  203MPD1    H2 3091   3.098   0.045  13.107 -0.4231  0.4549 -1.9106
  203MPD1    H3 3092   3.283   0.044  12.985  1.2463 -0.2594 -1.7594
  203MPD1     N 3093   3.289   4.322  12.911  0.6935  0.0667 -0.3458
  203MPD1    H5 3094   3.254   4.238  12.956  0.1608  0.4843  0.0247
  203MPD1    N1 3095   2.954   4.532  13.193  0.1111 -0.0294  0.1915
  203MPD1    H6 3096   2.916   4.620  13.229 -1.0268  0.8284 -3.0705
  203MPD1    H7 3097   2.982   4.461  13.260 -1.1270 -1.0920 -0.4252
  204MPD1     C 3098   2.680   0.647   0.039 -0.2418 -0.0454 -0.1413
  204MPD1    C1 3099   2.773   0.628  17.646 -0.3378  0.4638  0.2914
  204MPD1    C2 3100   2.782   0.502  17.593  0.0945 -0.7690  0.1638
  204MPD1    C3 3101   2.707   0.396  17.633  0.1402 -0.3357  0.4142
  204MPD1    C4 3102   2.605   0.421   0.019  0.0681 -0.0492  0.1009
  204MPD1    C5 3103   2.596   0.543   0.081 -0.2405 -0.4265  0.4772
  204MPD1     H 3104   2.860   0.489  17.519  0.1460  3.8254 -0.5898
  204MPD1    H1 3105   2.544   0.338   0.051 -0.6510  1.1006  1.7497
  204MPD1    H2 3106   2.671   0.743   0.089 -1.0680  0.7279 -1.7656
  204MPD1    H3 3107   2.521   0.551   0.158  0.3973 -1.4243  1.2041
  204MPD1     N 3108   2.730   0.272  17.575 -0.4602  0.8722 -0.0162
  204MPD1    H5 3109   2.805   0.274  17.505 -1.4815  2.3736 -1.0666
  204MPD1    N1 3110   2.838   0.738  17.590 -0.1379 -0.0753  0.3836
  204MPD1    H6 3111   2.934   0.719  17.564  0.8302  0.2269  3.7348
  204MPD1    H7 3112   2.837   0.811  17.662  1.8291  1.7056 -1.3860
  205MPD1     C 3113   2.637   3.100  17.083 -0.0062 -0.4268 -0.0537
  205MPD1    C1 3114   2.627   3.237  17.064 -0.0243 -0.2473  0.4392
  205MPD1    C2 3115   2.687   3.311  17.166  0.0418 -0.2858 -0.3281
  205MPD1    C3 3116   2.715   3.262  17.294 -0.2711 -0.2073 -0.0404
  205MPD1    C4 3117   2.734   3.130  17.299  0.7587  0.3947 -0.3778
  205MPD1    C5 3118   2.696   3.049  17.196  0.6088 -0.1586  0.3810
  205MPD1     H 3119   2.693   3.419  17.157  1.6868 -0.3969 -0.5925
  205MPD1    H1 3120   2.763   3.082  17.392 -1.7108 -0.2966  0.0544
  205MPD1    H2 3121   2.594   3.030  17.013  0.5949  2.2606 -3.0966
  205MPD1    H3 3122   2.693   2.941  17.202 -0.7115 -0.0895  0.8425
  205MPD1     N 3123   2.746   3.339  17.414 -0.7613 -0.3570 -0.2597
  205MPD1    H5 3124   2.772   3.294  17.501  0.5918  2.4731  0.8160
  205MPD1    N1 3125   2.588   3.298  16.946 -0.4990  0.6789  0.0087
  205MPD1    H6 3126   2.503   3.253  16.912  0.2700 -0.7979  0.0445
  205MPD1    H7 3127   2.559   3.391  16.974 -1.9360 -0.4501  2.3246
  206MPD1     C 3128   3.785   2.439  16.558  0.6649  0.8514  0.2549
  206MPD1    C1 3129   3.651   2.410  16.570  0.1058 -0.2060  0.7050
  206MPD1    C2 3130   3.576   2.403  16.450 -0.8681  0.3156 -0.1508
  206MPD1    C3 3131   3.631   2.395  16.323 -0.6045  0.9287  0.4168
  206MPD1    C4 3132   3.767   2.406  16.313 -0.0426 -0.2638 -0.8659
  206MPD1    C5 3133   3.839   2.438  16.425 -0.1553  1.0700  0.0096
  206MPD1     H 3134   3.470   2.384  16.462 -0.8227 -0.0870 -0.3892
  206MPD1    H1 3135   3.815   2.414  16.216 -0.2066 -1.4758 -1.0524
  206MPD1    H2 3136   3.844   2.447  16.649  1.2847 -0.7629 -0.0128
  206MPD1    H3 3137   3.942   2.467  16.412  0.7482 -2.1973 -0.1607
  206MPD1     N 3138   3.558   2.375  16.204  0.1980 -0.4146 -0.1036
  206MPD1    H5 3139   3.610   2.345  16.123  1.7816 -0.4750  0.9352
  206MPD1    N1 3140   3.592   2.430  16.699  0.3210 -0.2453  0.4310
  206MPD1    H6 3141   3.508   2.374  16.712 -0.7089  0.6109 -2.4777
  206MPD1    H7 3142   3.649   2.420  16.782 -0.4963 -3.0318  0.6411
  207MPD1     C 3143   0.797   0.186   9.204 -0.2103  0.1348 -0.2222
  207MPD1    C1 3144   0.824   0.058   9.221  0.0388 -0.7271  0.0512
  207MPD1    C2 3145   0.808   0.004   9.346  0.2006 -0.4652  0.1115
  207MPD1    C3 3146   0.777   0.081   9.453 -0.2389 -0.3934 -1.0935
  207MPD1    C4 3147   0.757   0.215   9.442  0.6940  0.3005  0.1736
  207MPD1    C5 3148   0.768   0.268   9.314  0.0338  0.0325 -0.3376
  207MPD1     H 3149   0.834   4.625   9.356  0.0567 -0.6866 -1.8880
  207MPD1    H1 3150   0.732   0.276   9.529 -2.6472  0.5563 -0.9730
  207MPD1    H2 3151   0.793   0.229   9.104  1.0839 -1.2447 -0.8489
  207MPD1    H3 3152   0.755   0.373   9.295  2.5140  0.3482 -0.2867
  207MPD1     N 3153   0.767   0.036   9.592 -0.3665 -0.5982  0.1153
  207MPD1    H5 3154   0.758   0.103   9.668  0.1294 -1.2991  0.7913
  207MPD1    N1 3155   0.842   4.696   9.111  0.1835  0.3136  0.0700
  207MPD1    H6 3156   0.860   0.017   9.022  0.0268  0.8606  0.3290
  207MPD1    H7 3157   0.907   4.618   9.118 -1.2981 -0.9542 -0.3716
  208MPD1     C 3158   4.181   3.781   0.296 -0.7052  0.5847  0.1986
  208MPD1    C1 3159   4.210   3.797   0.432  0.0718  0.1782 -0.2355
  208MPD1    C2 3160   4.106   3.774   0.520  0.1512  0.6862 -0.2866
  208MPD1    C3 3161   3.980   3.726   0.479 -0.7384 -0.6666  0.7235
  208MPD1    C4 3162   3.962   3.694   0.348  0.2251 -0.6974  0.5031
  208MPD1    C5 3163   4.058   3.735   0.259  0.6240 -0.0420  0.0965
  208MPD1     H 3164   4.113   3.800   0.625  0.6290 -1.3920  0.2053
  208MPD1    H1 3165   3.864   3.681   0.305  0.8819 -1.9104 -0.6105
  208MPD1    H2 3166   4.257   3.797   0.220 -2.8784 -2.2813 -2.5693
  208MPD1    H3 3167   4.028   3.726   0.155 -1.7504 -0.8472  0.8500
  208MPD1     N 3168   3.878   3.710   0.578 -0.3724 -0.0493 -0.1649
  208MPD1    H5 3169   3.907   3.739   0.671  3.3393 -0.8211 -1.1041
  208MPD1    N1 3170   4.326   3.863   0.472  0.3596 -0.1561 -0.0018
  208MPD1    H6 3171   4.358   3.835   0.564  0.7258 -0.0240 -0.0900
  208MPD1    H7 3172   4.404   3.843   0.410  0.7894  1.3979  0.0379
  209MPD1     C 3173   0.981   2.908  10.185 -0.6773 -0.6594 -0.2352
  209MPD1    C1 3174   1.095   2.977  10.224  0.2708  0.3318 -0.1615
  209MPD1    C2 3175   1.087   3.110  10.252  0.2363  0.0502 -0.3461
  209MPD1    C3 3176   0.963   3.181  10.243 -0.1658 -0.4114 -0.5154
  209MPD1    C4 3177   0.851   3.110  10.211 -0.7146  0.6940 -1.1728
  209MPD1    C5 3178   0.862   2.973  10.184 -0.0559  1.0612  0.1475
  209MPD1     H 3179   1.165   3.167  10.302 -1.2492  1.9378 -0.1429
  209MPD1    H1 3180   0.751   3.151  10.202  0.3420  3.2587 -1.1199
  209MPD1    H2 3181   0.979   2.800  10.171  1.4685 -1.0240  2.3542
  209MPD1    H3 3182   0.778   2.916  10.147 -0.3154  0.7944  1.1306
  209MPD1     N 3183   0.961   3.320  10.272  0.0140  0.1291 -0.4483
  209MPD1    H5 3184   1.042   3.355  10.322  1.6429 -2.1379 -1.5403
  209MPD1    N1 3185   1.211   2.908  10.264 -0.4162  0.5276 -0.2057
  209MPD1    H6 3186   1.288   2.975  10.260  0.5626 -0.6058 -0.4220
  209MPD1    H7 3187   1.240   2.832  10.203  1.4767  1.0895 -0.0151
  210MPD1     C 3188   1.294   4.011  10.907  0.6289 -0.4380 -0.6608
  210MPD1    C1 3189   1.335   3.894  10.861 -0.1772  0.1161  0.1922
  210MPD1    C2 3190   1.256   3.837  10.763 -0.7194 -0.3151 -0.7441
  210MPD1    C3 3191   1.148   3.903  10.708 -0.4084 -0.0112 -1.0970
  210MPD1    C4 3192   1.125   4.028  10.750 -0.3723 -0.7558 -0.8837
  210MPD1    C5 3193   1.193   4.079  10.849  0.6168  0.8953 -0.1918
  210MPD1     H 3194   1.266   3.733  10.731 -0.8304 -1.0820  1.7120
  210MPD1    H1 3195   1.051   4.091  10.700 -0.3358 -0.5582 -0.6893
  210MPD1    H2 3196   1.346   4.064  10.986 -0.0921  1.0909 -1.1944
  210MPD1    H3 3197   1.156   4.172  10.892 -0.1057  1.6376 -2.4269
  210MPD1     N 3198   1.067   3.844  10.608 -0.3041  0.3281  0.8147
  210MPD1    H5 3199   0.997   3.903  10.565  0.3073 -0.1288 -0.8525
  210MPD1    N1 3200   1.447   3.827  10.918  0.1982 -0.0174 -0.0368
  210MPD1    H6 3201   1.481   3.763  10.846 -0.3238  1.0267 -1.2088
  210MPD1    H7 3202   1.530   3.886  10.917 -1.3317  2.1686  1.8987
  211MPD1     C 3203   3.658   3.892  15.946 -0.2447  0.0658 -0.1795
  211MPD1    C1 3204   3.538   3.887  15.873 -0.5593  0.1421 -1.0222
  211MPD1    C2 3205   3.425   3.948  15.927  0.8012  0.0528  0.4636
  211MPD1    C3 3206   3.428   4.029  16.037  0.4378 -0.5857 -0.9289
  211MPD1    C4 3207   3.545   4.028  16.117  0.0923 -0.3535 -0.5816
  211MPD1    C5 3208   3.657   3.959  16.064  0.9212  0.3319  0.0389
  211MPD1     H 3209   3.334   3.939  15.869  0.1892  2.2412  1.0723
  211MPD1    H1 3210   3.558   4.076  16.213  1.5212 -0.1039 -0.9071
  211MPD1    H2 3211   3.738   3.825  15.917  0.5143  1.3010 -0.9707
  211MPD1    H3 3212   3.742   3.950  16.131  1.2719  2.3860 -0.1297
  211MPD1     N 3213   3.312   4.105  16.066 -0.0150  0.4442  0.4430
  211MPD1    H5 3214   3.233   4.090  16.004 -0.7676  1.5600  1.1377
  211MPD1    N1 3215   3.530   3.800  15.759  0.0394  0.3787 -0.2023
  211MPD1    H6 3216   3.464   3.833  15.689  0.5027  1.3275 -0.2011
  211MPD1    H7 3217   3.618   3.776  15.713  0.3614  3.5961 -1.2939
  212MPD1     C 3218   2.987   2.220  16.164 -0.2723  0.3058  0.3510
  212MPD1    C1 3219   2.900   2.318  16.212 -0.1135  0.0894 -0.1238
  212MPD1    C2 3220   2.838   2.291  16.333  0.2302  0.4078 -0.4593
  212MPD1    C3 3221   2.890   2.198  16.421 -0.9651  0.1391  0.3268
  212MPD1    C4 3222   2.992   2.118  16.371  0.5194  0.4180  0.2294
  212MPD1    C5 3223   3.031   2.121  16.242 -0.0881 -0.5735  0.1476
  212MPD1     H 3224   2.754   2.350  16.367 -1.1688 -1.8410  0.0292
  212MPD1    H1 3225   3.026   2.035  16.433  3.0426 -0.0454 -1.8064
  212MPD1    H2 3226   3.013   2.233  16.060 -1.0138  0.0858  0.1380
  212MPD1    H3 3227   3.110   2.055  16.209 -1.2850 -0.9917 -1.9011
  212MPD1     N 3228   2.835   2.158  16.547  0.1626  1.2655  0.1730
  212MPD1    H5 3229   2.896   2.098  16.601  0.2754  0.8239 -0.4339
  212MPD1    N1 3230   2.852   2.407  16.120  0.3862  0.3469 -0.5055
  212MPD1    H6 3231   2.918   2.420  16.044  2.5642  0.0211  1.3356
  212MPD1    H7 3232   2.824   2.495  16.162  0.4813 -0.2290  0.7599
  213MPD1     C 3233   0.312   2.965  15.161  0.6316 -0.5426 -0.6839
  213MPD1    C1 3234   0.339   2.868  15.064 -0.6122 -0.5800  0.5003
  213MPD1    C2 3235   0.416   2.913  14.955 -0.2390 -0.0331 -0.0186
  213MPD1    C3 3236   0.433   3.047  14.932  0.6169  0.1525 -0.3623
  213MPD1    C4 3237   0.390   3.136  15.025 -0.2831 -0.3063 -0.4029
  213MPD1    C5 3238   0.335   3.097  15.134 -0.0545 -0.3921  0.2373
  213MPD1     H 3239   0.446   2.839  14.881 -0.6733  1.2627 -1.4817
  213MPD1    H1 3240   0.424   3.239  15.021  0.6525 -0.5385  1.7002
  213MPD1    H2 3241   0.280   2.947  15.263 -0.4092 -1.8319 -1.2363
  213MPD1    H3 3242   0.325   3.167  15.216  0.8859 -1.1575  1.0118
  213MPD1     N 3243   0.505   3.083  14.817  0.2869  0.7943 -0.0644
  213MPD1    H5 3244   0.536   3.006  14.757  1.1893  0.9354  0.2159
  213MPD1    N1 3245   0.332   2.733  15.101  0.2445  0.1049 -0.0140
  213MPD1    H6 3246   0.254   2.721  15.165 -0.5260  1.9292 -0.6199
  213MPD1    H7 3247   0.309   2.669  15.025 -1.3529 -1.6091  1.8939
  214MPD1     C 3248   0.698   2.554  14.189 -0.0948 -0.5082 -0.1003
  214MPD1    C1 3249   0.645   2.656  14.112  0.0609 -0.3788  0.2395
  214MPD1    C2 3250   0.623   2.780  14.173  0.4660 -0.3571 -0.6486
  214MPD1    C3 3251   0.638   2.802  14.308  0.1404 -0.1744  0.1955
  214MPD1    C4 3252   0.677   2.692  14.378  0.0687 -0.4815 -0.7044
  214MPD1    C5 3253   0.707   2.576  14.320 -0.5784 -0.5128 -0.1934
  214MPD1     H 3254   0.581   2.858  14.109 -2.0040 -1.1305  0.0027
  214MPD1    H1 3255   0.690   2.694  14.486  0.9308 -2.9125 -0.7584
  214MPD1    H2 3256   0.733   2.467  14.136  0.9424 -0.3218  0.2812
  214MPD1    H3 3257   0.745   2.494  14.380  0.5791 -0.9763 -1.5387
  214MPD1     N 3258   0.601   2.924  14.377 -0.3192  0.1172 -0.9359
  214MPD1    H5 3259   0.613   2.932  14.477 -0.6817 -0.4603 -0.8405
  214MPD1    N1 3260   0.640   2.646  13.971 -0.1431  0.1900 -0.5392
  214MPD1    H6 3261   0.581   2.704  13.911  1.5423 -0.2717 -2.6550
  214MPD1    H7 3262   0.623   2.548  13.949 -0.5092  0.4955 -1.6428
  215MPD1     C 3263   0.929   3.195  10.613 -0.3774 -0.1051 -0.2700
  215MPD1    C1 3264   1.046   3.233  10.682 -0.8109 -0.6747  0.0568
  215MPD1    C2 3265   1.038   3.352  10.753  0.0880 -0.1803 -0.1438
  215MPD1    C3 3266   0.929   3.434  10.749  0.0711 -0.5455 -0.5895
  215MPD1    C4 3267   0.822   3.395  10.682  0.0450 -0.4582  0.2428
  215MPD1    C5 3268   0.816   3.272  10.616  0.1494  0.1957 -0.1400
  215MPD1     H 3269   1.125   3.378  10.813  0.6284  0.6980 -1.3137
  215MPD1    H1 3270   0.735   3.456  10.662 -0.2235 -0.5161  1.2723
  215MPD1    H2 3271   0.913   3.102  10.559  2.1061 -0.5917 -0.1653
  215MPD1    H3 3272   0.728   3.248  10.557 -0.5980 -2.0934  1.9212
  215MPD1     N 3273   0.936   3.554  10.825  0.3011 -0.2264 -0.3761
  215MPD1    H5 3274   1.017   3.566  10.884 -0.4556  0.8271  0.4610
  215MPD1    N1 3275   1.155   3.145  10.696  0.3525  0.1524  0.3506
  215MPD1    H6 3276   1.167   3.077  10.620 -1.4891 -3.0150  2.8735
  215MPD1    H7 3277   1.245   3.190  10.707 -0.1598  1.2474  0.1059
  216MPD1     C 3278   3.076   1.619  16.201 -0.0507 -0.3007  0.5475
  216MPD1    C1 3279   3.075   1.482  16.226  0.2305 -0.3484  0.2052
  216MPD1    C2 3280   3.057   1.437  16.358  0.4695  0.5754 -0.1693
  216MPD1    C3 3281   3.031   1.530  16.458 -0.3279  0.6719  0.0633
  216MPD1    C4 3282   3.003   1.662  16.427 -0.0418  0.2906  0.0989
  216MPD1    C5 3283   3.031   1.706  16.299  0.0741 -0.2192  0.0640
  216MPD1     H 3284   3.077   1.335  16.387  1.4897  0.9579  0.4730
  216MPD1    H1 3285   2.959   1.730  16.499 -2.8359  0.5117 -1.7700
  216MPD1    H2 3286   3.110   1.649  16.102 -0.1543 -1.9541  0.0148
  216MPD1    H3 3287   3.026   1.813  16.279 -0.5194 -0.3985 -0.7558
  216MPD1     N 3288   3.017   1.481  16.587 -0.0997  0.4128  0.1795
  216MPD1    H5 3289   3.046   1.386  16.604 -2.3565 -0.6367 -1.9308
  216MPD1    N1 3290   3.116   1.396  16.118 -0.1979 -0.2748 -0.0291
  216MPD1    H6 3291   3.090   1.299  16.129 -1.5336  0.3895  2.6926
  216MPD1    H7 3292   3.097   1.432  16.025 -1.6758 -0.3752  0.2330
  217MPD1     C 3293   4.042   4.238   8.574 -0.2143 -0.2328  0.0724
  217MPD1    C1 3294   4.119   4.131   8.534  0.1028 -0.1431 -0.5130
  217MPD1    C2 3295   4.149   4.041   8.640 -0.1920 -0.0972  0.2168
  217MPD1    C3 3296   4.121   4.074   8.775  0.4828 -0.3376  0.0181
  217MPD1    C4 3297   4.054   4.191   8.806 -0.2345  0.3579  0.5568
  217MPD1    C5 3298   4.021   4.275   8.708  0.3149 -0.0620 -0.0392
  217MPD1     H 3299   4.194   3.945   8.617  1.8924  1.9489 -4.4444
  217MPD1    H1 3300   4.033   4.206   8.911  1.5474  1.4339  0.7643
  217MPD1    H2 3301   4.008   4.304   8.495 -0.6867  2.9462  2.9181
  217MPD1    H3 3302   3.971   4.370   8.723 -1.7195 -1.1245 -0.1588
  217MPD1     N 3303   4.138   3.990   8.885  0.5778 -0.2049  0.4615
  217MPD1    H5 3304   4.092   4.007   8.974  0.0809 -0.4070  0.2464
  217MPD1    N1 3305   4.137   4.103   8.402  0.0386  0.0551  0.1321
  217MPD1    H6 3306   4.200   4.024   8.393  0.6915  0.6435 -0.4783
  217MPD1    H7 3307   4.180   4.182   8.355 -0.2235  0.1048 -0.0235
  218MPD1     C 3308   0.010   4.484  12.994  0.8944  0.4232  0.0701
  218MPD1    C1 3309   0.147   4.507  12.977  0.0821 -0.0233  0.6103
  218MPD1    C2 3310   0.215   4.406  12.917 -0.7485 -0.9728 -0.4378
  218MPD1    C3 3311   0.155   4.286  12.879  0.6880 -0.2591  0.3074
  218MPD1    C4 3312   0.022   4.268  12.899  0.4591  0.3952 -0.7962
  218MPD1    C5 3313   4.676   4.369  12.959  0.4062  0.4811 -0.1499
  218MPD1     H 3314   0.321   4.413  12.897 -0.8185 -2.0507 -1.2243
  218MPD1    H1 3315   4.689   4.180  12.880  0.1435  0.3085  0.6267
  218MPD1    H2 3316   4.676   4.555  13.051 -1.2230 -1.4177  0.1270
  218MPD1    H3 3317   4.571   4.351  12.981  0.8085 -0.9809  0.6063
  218MPD1     N 3318   0.234   4.186  12.829 -0.4571  0.0022 -0.4117
  218MPD1    H5 3319   0.335   4.198  12.833 -0.4854  0.5473 -1.2784
  218MPD1    N1 3320   0.217   4.608  13.049  0.5105  0.6307 -0.1130
  218MPD1    H6 3321   0.307   4.626  13.005  1.6508 -1.3351  1.4282
  218MPD1    H7 3322   0.164   4.693  13.069 -0.7065 -0.9605  3.3692
  219MPD1     C 3323   0.401   3.969  11.839  0.4595 -0.0084  0.7473
  219MPD1    C1 3324   0.291   3.998  11.914 -0.0597 -0.2765 -0.1507
  219MPD1    C2 3325   0.300   3.995  12.052 -0.6017  0.1748  0.1547
  219MPD1    C3 3326   0.414   3.965  12.125  0.3295 -0.2575  0.5704
  219MPD1    C4 3327   0.528   3.941  12.053 -0.0216 -0.0792  0.0721
  219MPD1    C5 3328   0.520   3.936  11.914 -0.8115  0.6091 -0.7389
  219MPD1     H 3329   0.214   4.033  12.105 -0.6169 -0.4278  0.5601
  219MPD1    H1 3330   0.621   3.919  12.106 -0.5134 -1.8332  0.2275
  219MPD1    H2 3331   0.390   3.991  11.733 -0.9746 -3.5852  0.1257
  219MPD1    H3 3332   0.615   3.931  11.862  0.4181  2.5923  1.2941
  219MPD1     N 3333   0.414   3.941  12.265 -1.0872  0.4383 -0.1056
  219MPD1    H5 3334   0.502   3.904  12.300 -1.2509  1.4291  1.3735
  219MPD1    N1 3335   0.187   4.072  11.846 -0.4462 -0.5208  0.1900
  219MPD1    H6 3336   0.180   4.031  11.753 -0.1654  0.8868 -0.4496
  219MPD1    H7 3337   0.099   4.076  11.898 -0.8600 -1.1089 -0.4624
  220MPD1     C 3338   0.352   0.100   9.421  0.5350 -0.2528  0.4173
  220MPD1    C1 3339   0.278   4.711   9.444  0.6119 -0.5787  0.0524
  220MPD1    C2 3340   0.288   4.651   9.566  0.6481  0.0452 -0.6594
  220MPD1    C3 3341   0.361   4.707   9.666  0.0991  0.3848  0.1861
  220MPD1    C4 3342   0.417   0.105   9.650 -1.3935 -0.5358  0.7367
  220MPD1    C5 3343   0.418   0.166   9.523 -0.1783  0.0258  0.5869
  220MPD1     H 3344   0.236   4.556   9.578  0.5447  0.3830  1.4878
  220MPD1    H1 3345   0.471   0.151   9.731  1.3011  2.0587 -2.5095
  220MPD1    H2 3346   0.356   0.155   9.328 -0.7839 -0.1882  0.4008
  220MPD1    H3 3347   0.468   0.261   9.507 -0.3252  0.0801  0.4485
  220MPD1     N 3348   0.364   4.637   9.789 -0.4120 -0.0660 -0.5127
  220MPD1    H5 3349   0.324   4.544   9.779 -2.2920  0.6718  0.2471
  220MPD1    N1 3350   0.220   4.637   9.338 -0.1612  0.5278 -0.0818
  220MPD1    H6 3351   0.197   4.700   9.262  0.1507  0.0078 -0.6102
  220MPD1    H7 3352   0.142   4.574   9.356  0.2024  0.0811 -0.0441
  221MPD1     C 3353   2.873   3.752  15.725  0.1091  0.0462  0.9849
  221MPD1    C1 3354   2.887   3.854  15.813 -0.2448  0.3969  0.2525
  221MPD1    C2 3355   2.983   3.849  15.905 -0.0516 -0.7854 -0.0085
  221MPD1    C3 3356   3.073   3.744  15.902 -0.2872 -0.1917  0.4859
  221MPD1    C4 3357   3.067   3.646  15.811 -0.6938 -0.5642 -0.3409
  221MPD1    C5 3358   2.969   3.650  15.719  0.2768 -0.2275  0.3490
  221MPD1     H 3359   2.994   3.938  15.966 -0.5577 -2.4129  2.4184
  221MPD1    H1 3360   3.141   3.567  15.803  0.4125  0.5916 -1.4612
  221MPD1    H2 3361   2.791   3.750  15.654  1.1927  0.9398 -0.2742
  221MPD1    H3 3362   2.960   3.565  15.653  0.8534 -0.9836  1.2320
  221MPD1     N 3363   3.175   3.736  16.008 -0.3426 -0.0771 -0.1697
  221MPD1    H5 3364   3.261   3.688  15.985 -0.4505 -0.4814  0.2654
  221MPD1    N1 3365   2.779   3.953  15.826 -0.7103 -0.3905  0.1268
  221MPD1    H6 3366   2.818   4.043  15.852 -1.6661 -0.2780  1.1849
  221MPD1    H7 3367   2.719   3.966  15.744 -2.4531 -2.0898  1.1424
  222MPD1     C 3368   1.959   3.324   0.856  0.5438 -0.0358  0.0375
  222MPD1    C1 3369   1.842   3.250   0.882 -0.2736 -0.0650  0.7679
  222MPD1    C2 3370   1.833   3.120   0.830  0.7705  0.2617 -0.4817
  222MPD1    C3 3371   1.939   3.068   0.755  0.6156 -0.6014  0.7227
  222MPD1    C4 3372   2.050   3.142   0.744  0.0815 -0.5520  0.2974
  222MPD1    C5 3373   2.060   3.271   0.781  0.0954  0.0873  0.6143
  222MPD1     H 3374   1.745   3.057   0.841  0.3671  1.0658  0.9032
  222MPD1    H1 3375   2.126   3.101   0.678 -0.1772  0.1947 -0.4709
  222MPD1    H2 3376   1.978   3.418   0.907  1.9588  0.5847 -1.6591
  222MPD1    H3 3377   2.151   3.323   0.752  1.5353 -2.6463  0.2229
  222MPD1     N 3378   1.936   2.935   0.699 -0.1349 -0.4325 -0.3511
  222MPD1    H5 3379   2.007   2.898   0.638  1.5713  0.9943  0.7569
  222MPD1    N1 3380   1.757   3.296   0.985  0.0739 -0.0051  0.0344
  222MPD1    H6 3381   1.759   3.396   1.001  1.6525  0.0441 -0.4486
  222MPD1    H7 3382   1.664   3.258   0.995  0.0265  0.5264  1.5146
  223MPD1     C 3383   1.354   2.159   0.811  0.4417  0.9091 -0.7542
  223MPD1    C1 3384   1.403   2.259   0.892 -0.6303  0.0756  0.1201
  223MPD1    C2 3385   1.522   2.317   0.855  0.4984  0.2125 -0.1156
  223MPD1    C3 3386   1.572   2.304   0.727 -0.4135 -0.3317  0.3777
  223MPD1    C4 3387   1.516   2.208   0.645 -0.4699 -0.2587 -0.2098
  223MPD1    C5 3388   1.415   2.132   0.694  0.1741 -0.5568  0.1620
  223MPD1     H 3389   1.570   2.386   0.923  2.1149 -0.7435 -0.2808
  223MPD1    H1 3390   1.560   2.191   0.547  1.5577 -0.5152  0.7436
  223MPD1    H2 3391   1.262   2.108   0.837  1.1055  0.1451  0.1107
  223MPD1    H3 3392   1.380   2.056   0.626  0.5061  0.7970 -1.5099
  223MPD1     N 3393   1.682   2.381   0.692 -0.0135 -0.0718 -0.0642
  223MPD1    H5 3394   1.726   2.431   0.769 -1.9264  1.5398 -0.0055
  223MPD1    N1 3395   1.356   2.278   1.026 -0.2152  0.2431 -0.1973
  223MPD1    H6 3396   1.256   2.262   1.035 -0.5546  2.4491  0.0252
  223MPD1    H7 3397   1.368   2.369   1.070  1.6006 -0.2369  0.2975
  224MPD1     C 3398   4.496   4.250   9.062 -0.0148  0.4311  0.4594
  224MPD1    C1 3399   4.416   4.293   9.166 -0.3983 -0.0105  0.0172
  224MPD1    C2 3400   4.351   4.214   9.255 -0.1562 -0.0943  0.3816
  224MPD1    C3 3401   4.365   4.075   9.235 -0.0787  0.4202  0.6463
  224MPD1    C4 3402   4.439   4.029   9.130 -0.0001 -0.6547  0.5795
  224MPD1    C5 3403   4.501   4.111   9.041 -0.6439 -0.4110  0.4615
  224MPD1     H 3404   4.284   4.268   9.321  1.5861  1.4430  0.8934
  224MPD1    H1 3405   4.437   3.921   9.124 -1.7971 -0.4894 -1.7445
  224MPD1    H2 3406   4.531   4.324   8.990 -1.6929  0.9424  0.1819
  224MPD1    H3 3407   4.553   4.074   8.953 -1.3141 -1.0951  0.3479
  224MPD1     N 3408   4.301   3.980   9.321  0.0925 -1.3211  0.2037
  224MPD1    H5 3409   4.336   3.885   9.325 -0.5704 -1.4759  2.3222
  224MPD1    N1 3410   4.379   4.432   9.165 -0.0480  0.3181 -0.0466
  224MPD1    H6 3411   4.376   4.472   9.258 -2.8851  2.0712 -0.9228
  224MPD1    H7 3412   4.449   4.480   9.109 -0.4865  1.1575  0.1241
  225MPD1     C 3413   0.384   0.332  12.441 -0.8177  0.3612  0.1230
  225MPD1    C1 3414   0.372   0.216  12.369 -0.1626 -0.3157  0.0022
  225MPD1    C2 3415   0.247   0.173  12.335  0.1236 -0.3843 -0.1019
  225MPD1    C3 3416   0.148   0.268  12.326  0.4974  0.0515 -0.5092
  225MPD1    C4 3417   0.155   0.390  12.391 -0.3598 -0.7298 -0.0291
  225MPD1    C5 3418   0.277   0.414  12.452  0.9770 -0.2408 -0.4920
  225MPD1     H 3419   0.215   0.076  12.299  0.7268 -0.4617 -0.4252
  225MPD1    H1 3420   0.067   0.450  12.408  0.0966 -0.8672  2.9574
  225MPD1    H2 3421   0.477   0.365  12.486  0.2625 -1.3503 -0.8742
  225MPD1    H3 3422   0.285   0.503  12.513 -2.2044  0.9331 -1.7543
  225MPD1     N 3423   0.017   0.243  12.263 -0.5082  0.2952  0.2736
  225MPD1    H5 3424   4.673   0.315  12.280  0.2727  0.8643  1.0906
  225MPD1    N1 3425   0.479   0.125  12.360 -0.3588  0.2343  0.0811
  225MPD1    H6 3426   0.475   0.067  12.277 -0.1360  0.9869 -0.4511
  225MPD1    H7 3427   0.564   0.181  12.349  0.9115 -1.2250  2.4927
  226MPD1     C 3428   4.527   1.263   9.476 -0.0309 -0.5904 -0.1359
  226MPD1    C1 3429   4.468   1.197   9.370  0.3571  0.8848  0.5113
  226MPD1    C2 3430   4.480   1.061   9.362  0.1441 -0.3018  0.2317
  226MPD1    C3 3431   4.566   0.990   9.445 -0.2417 -0.1204 -0.0120
  226MPD1    C4 3432   4.631   1.059   9.545  0.1251 -0.3331  0.7178
  226MPD1    C5 3433   4.616   1.195   9.555  0.6726 -0.2348  0.5186
  226MPD1     H 3434   4.423   1.004   9.291  0.7650 -1.9750  1.0889
  226MPD1    H1 3435   4.697   1.012   9.617 -0.5646  0.2213  1.7119
  226MPD1    H2 3436   4.506   1.368   9.489 -0.0944 -0.9848  2.9863
  226MPD1    H3 3437   4.673   1.235   9.638  1.3606  1.1329 -0.6223
  226MPD1     N 3438   4.576   0.846   9.428 -0.3395 -0.3979  0.1230
  226MPD1    H5 3439   4.524   0.810   9.349  0.6388  1.4980 -1.3919
  226MPD1    N1 3440   4.356   1.259   9.307 -0.2629 -0.0351 -0.9503
  226MPD1    H6 3441   4.363   1.226   9.211  1.9949 -2.3001  0.0236
  226MPD1    H7 3442   4.373   1.359   9.295  0.6489  0.0898  1.5357
  227MPD1     C 3443   4.630   0.537   8.675 -0.2325  0.5659 -0.8686
  227MPD1    C1 3444   4.622   0.652   8.748 -0.0848 -0.1658 -0.2429
  227MPD1    C2 3445   4.629   0.645   8.883  0.1034  0.3001 -0.5272
  227MPD1    C3 3446   4.621   0.526   8.949  0.0215 -0.2692  0.2211
  227MPD1    C4 3447   4.626   0.412   8.879  0.0958 -0.3092 -0.1058
  227MPD1    C5 3448   4.636   0.416   8.740  0.7777 -0.4779 -0.1510
  227MPD1     H 3449   4.606   0.738   8.935  0.9113 -0.7031  1.6504
  227MPD1    H1 3450   4.623   0.309   8.914  0.7642 -0.8778 -1.6775
  227MPD1    H2 3451   4.645   0.545   8.568 -0.8939  0.3391 -0.9789
  227MPD1    H3 3452   4.655   0.333   8.673  0.0950  0.1923 -1.1756
  227MPD1     N 3453   4.624   0.525   9.092  0.1702 -0.1447  0.9350
  227MPD1    H5 3454   4.633   0.618   9.131  0.5730  1.4006 -2.9304
  227MPD1    N1 3455   4.608   0.771   8.685 -0.2216 -0.7426  0.3252
  227MPD1    H6 3456   4.629   0.779   8.586 -1.0556  0.5566  0.2512
  227MPD1    H7 3457   4.673   0.833   8.733 -1.5519  1.7758 -1.1172
  228MPD1     C 3458   2.148   2.582  12.608 -0.3857 -0.1896 -0.2899
  228MPD1    C1 3459   2.062   2.664  12.529  0.2069  0.0908  0.1721
  228MPD1    C2 3460   1.936   2.696  12.577 -0.4824  0.3138 -0.1051
  228MPD1    C3 3461   1.884   2.638  12.695 -0.1645 -0.7013  1.1248
  228MPD1    C4 3462   1.968   2.557  12.767 -0.2080 -0.0990  0.0408
  228MPD1    C5 3463   2.094   2.529  12.720  0.6527  0.4652  0.7751
  228MPD1     H 3464   1.879   2.762  12.513 -2.1662 -1.2017 -0.1454
  228MPD1    H1 3465   1.929   2.500  12.850 -0.8282 -0.2216 -0.3302
  228MPD1    H2 3466   2.247   2.549  12.579  0.1811  0.1471  1.2602
  228MPD1    H3 3467   2.163   2.472  12.780 -0.8169 -0.7354  1.3243
  228MPD1     N 3468   1.753   2.649  12.720  0.9094 -0.4241  0.2515
  228MPD1    H5 3469   1.695   2.672  12.640  0.3016  2.2751  1.4826
  228MPD1    N1 3470   2.121   2.730  12.417  0.9344 -0.0101 -0.3929
  228MPD1    H6 3471   2.179   2.661  12.369  1.1404  1.4309 -2.1990
  228MPD1    H7 3472   2.049   2.753  12.349 -0.0378 -0.8718  0.3379
  229MPD1     C 3473   0.954   1.636  14.481 -0.2132  0.0640 -0.1104
  229MPD1    C1 3474   1.004   1.733  14.563  0.1669 -0.0456  0.6485
  229MPD1    C2 3475   1.106   1.687  14.649 -0.5006  0.5213  0.2106
  229MPD1    C3 3476   1.142   1.553  14.645 -0.1710 -0.5313 -0.0819
  229MPD1    C4 3477   1.093   1.463  14.554  0.2174 -0.0439  0.4321
  229MPD1    C5 3478   0.997   1.508  14.475  0.6479  0.2028  0.1516
  229MPD1     H 3479   1.150   1.757  14.718  0.2291  0.7490 -0.4831
  229MPD1    H1 3480   1.118   1.357  14.562  1.6668  0.2502 -0.1948
  229MPD1    H2 3481   0.876   1.669  14.413 -0.7588  0.7195  0.8388
  229MPD1    H3 3482   0.943   1.432  14.420 -1.5435  1.0907  1.0740
  229MPD1     N 3483   1.233   1.499  14.736 -0.2849  0.1129  0.2518
  229MPD1    H5 3484   1.243   1.397  14.733 -0.3144  0.1826 -2.1584
  229MPD1    N1 3485   0.958   1.868  14.550  0.3822  0.0694 -0.0325
  229MPD1    H6 3486   0.863   1.881  14.516 -0.1604  0.9538  1.8332
  229MPD1    H7 3487   0.969   1.922  14.636 -1.7873 -0.7870  0.7794
  230MPD1     C 3488   1.676   1.788  15.592 -0.1398  0.1026  0.4203
  230MPD1    C1 3489   1.592   1.856  15.508 -0.3476 -0.4291 -0.4728
  230MPD1    C2 3490   1.537   1.788  15.397  0.3667  0.2615  0.3118
  230MPD1    C3 3491   1.581   1.661  15.361  0.0870 -0.2515  0.2310
  230MPD1    C4 3492   1.684   1.611  15.441  0.0547  0.3488  0.7246
  230MPD1    C5 3493   1.728   1.670  15.554  0.5435 -0.6119  0.3856
  230MPD1     H 3494   1.470   1.843  15.332  0.0290 -1.4088 -0.7256
  230MPD1    H1 3495   1.735   1.519  15.416 -0.4662 -0.1310  1.4246
  230MPD1    H2 3496   1.701   1.825  15.691  1.3868  1.3585 -0.4478
  230MPD1    H3 3497   1.808   1.635  15.619  1.3990 -2.1633 -1.5065
  230MPD1     N 3498   1.531   1.593  15.245 -0.5915  0.2313 -0.3358
  230MPD1    H5 3499   1.476   1.646  15.178 -1.1594 -1.5680 -1.2962
  230MPD1    N1 3500   1.536   1.977  15.554 -0.1025 -0.0377  0.0713
  230MPD1    H6 3501   1.594   2.030  15.618  2.3605 -0.8122 -1.5342
  230MPD1    H7 3502   1.521   2.043  15.478  0.9814 -1.8272 -1.6847
  231MPD1     C 3503   4.716   3.263  15.306  0.7293 -0.1698  0.3260
  231MPD1    C1 3504   4.687   3.286  15.175  0.0478 -0.2841  0.9090
  231MPD1    C2 3505   0.053   3.358  15.115 -0.2107  0.0359 -0.2152
  231MPD1    C3 3506   0.158   3.422  15.175 -0.3538  0.4084  0.0555
  231MPD1    C4 3507   0.194   3.382  15.302  0.9357  0.4685  0.4444
  231MPD1    C5 3508   0.104   3.303  15.371  0.2008  0.1373  0.9753
  231MPD1     H 3509   0.028   3.393  15.015  1.3127 -2.0242 -1.3027
  231MPD1    H1 3510   0.284   3.414  15.352  0.5295  1.5278  0.4844
  231MPD1    H2 3511   4.640   3.219  15.368  0.8516 -1.3908 -0.3977
  231MPD1    H3 3512   0.121   3.299  15.478  2.7794 -0.7378  0.5421
  231MPD1     N 3513   0.237   3.508  15.092 -0.3769  0.0856 -0.4940
  231MPD1    H5 3514   0.204   3.524  14.998  0.7091  1.9803 -0.5634
  231MPD1    N1 3515   4.580   3.226  15.107  0.5067 -0.0569 -0.6825
  231MPD1    H6 3516   4.499   3.209  15.166  1.0737 -1.5121 -0.3380
  231MPD1    H7 3517   4.566   3.272  15.017  0.0488 -0.2249 -0.6987
  232MPD1     C 3518   2.359   2.545   0.590  0.4437 -1.2473 -0.5618
  232MPD1    C1 3519   2.330   2.465   0.488 -0.4334  0.1756 -0.3341
  232MPD1    C2 3520   2.241   2.362   0.506  0.1197 -0.1965  0.1888
  232MPD1    C3 3521   2.178   2.344   0.625  0.4220 -0.0292  0.5778
  232MPD1    C4 3522   2.201   2.435   0.722  0.4287 -0.7415  0.6612
  232MPD1    C5 3523   2.294   2.535   0.707 -0.4262  0.2527 -0.5373
  232MPD1     H 3524   2.220   2.295   0.424  1.5444 -1.0510  0.5258
  232MPD1    H1 3525   2.147   2.428   0.816  1.0855 -2.0006  0.9455
  232MPD1    H2 3526   2.434   2.622   0.578 -0.9075 -0.0988 -1.6468
  232MPD1    H3 3527   2.314   2.598   0.793 -0.7838 -0.2249 -0.0980
  232MPD1     N 3528   2.086   2.238   0.641  0.5923 -0.7066 -0.1492
  232MPD1    H5 3529   2.089   2.167   0.568  3.8845 -2.7475  1.9746
  232MPD1    N1 3530   2.421   2.471   0.379  0.3669 -0.4649  0.0025
  232MPD1    H6 3531   2.376   2.453   0.289  0.8448 -1.3164 -0.0707
  232MPD1    H7 3532   2.471   2.559   0.385  1.4957 -1.1994  1.3609
  233MPD1     C 3533   3.485   4.684   2.084  0.0021 -0.7986  1.1382
  233MPD1    C1 3534   3.616   4.638   2.099  0.4766 -0.2619  0.1773
  233MPD1    C2 3535   3.656   4.516   2.042 -0.4198 -0.2011  0.0030
  233MPD1    C3 3536   3.563   4.444   1.971 -1.2083 -0.0529 -0.3790
  233MPD1    C4 3537   3.439   4.490   1.951  0.2376 -0.3765 -0.5578
  233MPD1    C5 3538   3.398   4.612   2.005  0.3928  0.4834  0.2859
  233MPD1     H 3539   3.759   4.480   2.051  0.0844  0.5476 -2.7858
  233MPD1    H1 3540   3.363   4.432   1.899 -0.3766  0.0734 -0.1705
  233MPD1    H2 3541   3.450   0.051   2.127 -0.6471  0.4656 -2.1335
  233MPD1    H3 3542   3.296   4.645   1.993  0.3672 -0.7303 -2.8699
  233MPD1     N 3543   3.594   4.328   1.900 -0.1238 -0.0228  0.0875
  233MPD1    H5 3544   3.522   4.290   1.840 -0.5306  2.5758 -1.0801
  233MPD1    N1 3545   3.712   4.722   2.157 -0.2004  0.3702  0.0479
  233MPD1    H6 3546   3.674   0.063   2.224  0.0300  0.6656 -0.1131
  233MPD1    H7 3547   3.795   4.679   2.197  0.6196 -0.4230 -2.4787
  234MPD1     C 3548   4.441   2.142   9.478  0.5293 -0.4760  0.6036
  234MPD1    C1 3549   4.487   2.193   9.598  0.0295 -0.4632  1.1454
  234MPD1    C2 3550   4.527   2.325   9.589 -0.0523 -0.6189 -0.0331
  234MPD1    C3 3551   4.514   2.395   9.474  0.5708 -0.2725  0.2964
  234MPD1    C4 3552   4.467   2.339   9.360 -0.0169 -0.3671  0.1074
  234MPD1    C5 3553   4.427   2.207   9.360  0.2306 -0.2667  0.4989
  234MPD1     H 3554   4.567   2.374   9.677  1.8484 -0.6766 -0.8720
  234MPD1    H1 3555   4.463   2.381   9.260 -2.3415 -1.6518 -0.3510
  234MPD1    H2 3556   4.418   2.036   9.473 -0.1646 -0.1692 -2.3199
  234MPD1    H3 3557   4.387   2.164   9.270  1.6802 -2.2999  0.8439
  234MPD1     N 3558   4.559   2.531   9.478  0.4624  0.5896  0.2571
  234MPD1    H5 3559   4.622   2.550   9.556  0.4805 -0.9204  0.6072
  234MPD1    N1 3560   4.519   2.114   9.709  0.2156 -0.8475 -0.4172
  234MPD1    H6 3561   4.456   2.035   9.717  0.8787 -1.2744  0.6057
  234MPD1    H7 3562   4.532   2.162   9.798  0.2566 -1.1367 -0.2666
  235MPD1     C 3563   0.411   1.196   9.031 -0.0670 -0.3669  0.4901
  235MPD1    C1 3564   0.490   1.102   9.096  0.1111  0.3014  0.0435
  235MPD1    C2 3565   0.604   1.147   9.160 -0.4768 -0.0447  0.7785
  235MPD1    C3 3566   0.631   1.280   9.170 -0.0229  0.2333 -0.1710
  235MPD1    C4 3567   0.548   1.377   9.108 -0.3625  0.6626 -0.3704
  235MPD1    C5 3568   0.437   1.328   9.039  0.1455 -0.0792  1.0593
  235MPD1     H 3569   0.674   1.078   9.205  1.9998  1.5890 -0.5773
  235MPD1    H1 3570   0.567   1.483   9.098 -1.3447  0.9198  0.4784
  235MPD1    H2 3571   0.320   1.173   8.978  0.2039 -0.3239  0.0023
  235MPD1    H3 3572   0.375   1.398   8.983 -1.5792 -1.2073  1.5714
  235MPD1     N 3573   0.743   1.319   9.241 -0.4203  0.7517 -0.3096
  235MPD1    H5 3574   0.801   1.244   9.277 -1.3540  1.1172  1.9365
  235MPD1    N1 3575   0.467   0.967   9.076 -0.4957  0.2238 -0.0321
  235MPD1    H6 3576   0.499   0.917   9.159 -0.5046 -2.2987 -1.5481
  235MPD1    H7 3577   0.367   0.957   9.088 -0.3073 -1.7232  0.0134
  236MPD1     C 3578   0.030   1.389  10.118  0.3734  0.3077 -0.1754
  236MPD1    C1 3579   0.128   1.474  10.169  0.1977 -0.9282  0.7461
  236MPD1    C2 3580   0.235   1.422  10.237  0.0145 -0.1121 -0.6279
  236MPD1    C3 3581   0.250   1.281  10.247 -0.0765  0.4895 -0.3972
  236MPD1    C4 3582   0.160   1.195  10.182  0.0440 -0.5692 -0.5184
  236MPD1    C5 3583   0.053   1.254  10.121  0.5675  0.4133 -0.6884
  236MPD1     H 3584   0.314   1.494  10.256  0.9595 -0.4325 -3.3049
  236MPD1    H1 3585   0.175   1.088  10.180  3.3340 -0.1263  0.4807
  236MPD1    H2 3586   4.662   1.426  10.078  1.1212  2.3880  0.0093
  236MPD1    H3 3587   4.709   1.193  10.064  2.1580 -0.6858 -1.4905
  236MPD1     N 3588   0.363   1.227  10.313  0.4973 -0.2691  0.1462
  236MPD1    H5 3589   0.369   1.127  10.325  0.0397 -0.2536  0.5028
  236MPD1    N1 3590   0.108   1.609  10.164  0.3732 -0.1589  0.1876
  236MPD1    H6 3591   0.052   1.631  10.082  2.7597  0.6331 -1.2370
  236MPD1    H7 3592   0.189   1.670  10.170 -0.7168  1.3036 -0.0405
  237MPD1     C 3593   0.700   0.021  15.302  0.2194  0.1425  0.0347
  237MPD1    C1 3594   0.676   4.712  15.169  0.1549 -0.7210 -0.2455
  237MPD1    C2 3595   0.540   4.704  15.124 -0.3665 -0.1243 -0.1898
  237MPD1    C3 3596   0.434   0.011  15.210 -0.7125 -0.3873 -0.6438
  237MPD1    C4 3597   0.466   0.030  15.342 -0.6322  0.1715 -0.0981
  237MPD1    C5 3598   0.594   0.035  15.391  0.3545  0.1810  0.7048
  237MPD1     H 3599   0.515   4.688  15.020  2.2756  2.6492 -1.2548
  237MPD1    H1 3600   0.385   0.047  15.412  0.5582  0.7411  1.1297
  237MPD1    H2 3601   0.797   0.029  15.350 -1.1213  1.4393  2.4774
  237MPD1    H3 3602   0.626   0.028  15.494 -1.1277 -0.1070  1.1447
  237MPD1     N 3603   0.299   0.012  15.176  0.1289  0.0048 -0.0954
  237MPD1    H5 3604   0.236   0.043  15.250  0.0805  0.6389 -0.4010
  237MPD1    N1 3605   0.783   4.689  15.083  0.4512  0.0463 -0.8414
  237MPD1    H6 3606   0.747   4.687  14.988 -3.3880  2.4562  0.5682
  237MPD1    H7 3607   0.864   0.025  15.090  2.1862 -2.0547 -2.3344
  238MPD1     C 3608   2.345   2.927  15.099  0.2690  0.5230  0.3249
  238MPD1    C1 3609   2.267   2.817  15.133  0.3413  0.4243  0.7022
  238MPD1    C2 3610   2.132   2.822  15.113 -0.1027  0.4908 -0.1326
  238MPD1    C3 3611   2.068   2.940  15.076  0.3009 -0.0782 -0.3198
  238MPD1    C4 3612   2.149   3.046  15.044 -0.2949 -0.3893  0.3126
  238MPD1    C5 3613   2.285   3.041  15.057  0.1993 -0.1126  0.0913
  238MPD1     H 3614   2.081   2.732  15.144  0.2903 -0.2029 -1.5201
  238MPD1    H1 3615   2.099   3.134  15.007 -2.5900 -0.8881  2.2242
  238MPD1    H2 3616   2.453   2.921  15.101  0.3089  0.7034 -1.3208
  238MPD1    H3 3617   2.342   3.129  15.029  1.3344 -1.6826 -2.5733
  238MPD1     N 3618   1.932   2.958  15.048 -0.5563 -0.9166 -0.4362
  238MPD1    H5 3619   1.898   3.048  15.018  0.9701 -0.3355 -0.3910
  238MPD1    N1 3620   2.333   2.692  15.160  0.0974  0.3960 -0.1264
  238MPD1    H6 3621   2.427   2.703  15.197  0.1644 -1.7283  0.3107
  238MPD1    H7 3622   2.281   2.626  15.218  1.7251 -0.0741  0.7785
  239MPD1     C 3623   2.696   3.711  14.718 -0.4545  0.1080  0.0145
  239MPD1    C1 3624   2.751   3.739  14.599 -0.3603  0.1948 -0.0278
  239MPD1    C2 3625   2.674   3.779  14.491 -0.5335 -0.5277  0.7486
  239MPD1    C3 3626   2.536   3.793  14.512 -0.5451 -0.5532  0.2567
  239MPD1    C4 3627   2.477   3.769  14.634  0.6109 -1.0717 -0.4493
  239MPD1    C5 3628   2.556   3.707  14.730  0.0417 -0.2452 -0.8451
  239MPD1     H 3629   2.727   3.814  14.403  1.1554 -0.3069  1.8419
  239MPD1    H1 3630   2.370   3.786  14.638  0.6475 -0.7788 -0.7047
  239MPD1    H2 3631   2.761   3.679  14.799  1.0412  0.7803 -0.9130
  239MPD1    H3 3632   2.512   3.679  14.826  1.9171 -1.1553 -0.2446
  239MPD1     N 3633   2.456   3.855  14.415  0.2264  0.2915  0.0638
  239MPD1    H5 3634   2.359   3.879  14.433  0.4938  0.3093  1.5455
  239MPD1    N1 3635   2.888   3.748  14.584  0.1004 -0.1881  0.1200
  239MPD1    H6 3636   2.924   3.695  14.504  1.7955  0.7793  0.2290
  239MPD1    H7 3637   2.938   3.717  14.667  2.8602 -0.1700 -1.5368
  240MPD1     C 3638   1.757   4.110  13.995 -0.7744 -1.1298 -0.8661
  240MPD1    C1 3639   1.699   4.000  13.938  0.1051 -0.2795  0.5117
  240MPD1    C2 3640   1.661   3.891  14.016  0.0599 -0.3834 -0.5841
  240MPD1    C3 3641   1.668   3.904  14.149 -0.3887  0.2172  0.1475
  240MPD1    C4 3642   1.721   4.019  14.204  0.4711  0.1543 -0.4704
  240MPD1    C5 3643   1.770   4.119  14.131 -0.0846 -0.2950 -0.0304
  240MPD1     H 3644   1.619   3.799  13.979 -1.1472  0.4373 -1.2650
  240MPD1    H1 3645   1.723   4.038  14.310 -1.8254  0.9726 -0.5825
  240MPD1    H2 3646   1.772   4.203  13.940 -1.4930 -0.0455  0.7648
  240MPD1    H3 3647   1.787   4.217  14.175 -2.2225 -0.1936  0.6058
  240MPD1     N 3648   1.600   3.808  14.225  0.1518  0.2112 -0.1687
  240MPD1    H5 3649   1.533   3.747  14.178  0.9200  1.0779 -2.3829
  240MPD1    N1 3650   1.719   3.973  13.801 -0.1438 -0.4324 -0.5151
  240MPD1    H6 3651   1.703   4.058  13.748  0.0408 -0.9777 -1.4530
  240MPD1    H7 3652   1.654   3.906  13.759  1.0679 -1.4322 -0.8091
  241MPD1     C 3653   1.629   3.191  15.121  0.3184 -0.2964 -0.4007
  241MPD1    C1 3654   1.724   3.263  15.054 -0.4977  0.0762 -0.0230
  241MPD1    C2 3655   1.681   3.314  14.935 -0.0146  0.6244 -0.7687
  241MPD1    C3 3656   1.553   3.324  14.895 -0.0006 -0.0423 -0.7991
  241MPD1    C4 3657   1.453   3.255  14.964  0.5991  0.7472  1.4887
  241MPD1    C5 3658   1.495   3.190  15.079 -0.3319  0.3221 -0.6951
  241MPD1     H 3659   1.764   3.348  14.875  0.4260 -0.1070 -0.5637
  241MPD1    H1 3660   1.352   3.251  14.924  0.6771  0.0588  1.3710
  241MPD1    H2 3661   1.658   3.132  15.208  0.2485  0.4045  0.1029
  241MPD1    H3 3662   1.430   3.134  15.145  0.1416 -1.1482 -1.4851
  241MPD1     N 3663   1.512   3.391  14.769  0.0990  0.1419  0.1855
  241MPD1    H5 3664   1.413   3.392  14.746  0.0520  2.9490  0.4765
  241MPD1    N1 3665   1.858   3.241  15.074 -0.4049 -0.4207  0.6361
  241MPD1    H6 3666   1.880   3.241  15.173  1.8596  0.0453  0.1287
  241MPD1    H7 3667   1.914   3.315  15.032 -0.4621  0.2994  1.8400
  242MPD1     C 3668   0.782   2.585  16.087  0.3819 -0.0837  0.3770
  242MPD1    C1 3669   0.917   2.573  16.107  0.5749 -0.5243  0.0134
  242MPD1    C2 3670   0.988   2.503  16.011  0.0003 -0.0114  0.2477
  242MPD1    C3 3671   0.925   2.453  15.896  0.6014  0.4618 -0.4016
  242MPD1    C4 3672   0.788   2.456  15.897 -0.2492 -0.0050 -0.7329
  242MPD1    C5 3673   0.712   2.525  15.994 -0.2111  0.4683  0.4838
  242MPD1     H 3674   1.097   2.508  16.009  0.0780 -0.7747  2.2424
  242MPD1    H1 3675   0.727   2.412  15.818 -0.2038  1.4035 -1.5505
  242MPD1    H2 3676   0.733   2.651  16.157  0.5150 -2.0643  2.3413
  242MPD1    H3 3677   0.604   2.531  15.992 -0.3447 -1.5828  0.8074
  242MPD1     N 3678   0.989   2.388  15.791  0.2783 -0.3054 -0.1653
  242MPD1    H5 3679   0.930   2.359  15.714 -0.5833  1.7610 -0.2708
  242MPD1    N1 3680   0.978   2.651  16.206  0.0543  1.2470  0.6053
  242MPD1    H6 3681   1.067   2.611  16.236 -1.5599 -3.1065 -0.2979
  242MPD1    H7 3682   0.915   2.665  16.284 -1.3430 -0.5612 -0.1828
  243MPD1     C 3683   2.287   0.787  17.669 -0.0087  0.7377  0.2428
  243MPD1    C1 3684   2.395   0.759  17.584 -0.1854  0.6422  0.5057
  243MPD1    C2 3685   2.392   0.633  17.518 -0.5371  0.4321 -0.2900
  243MPD1    C3 3686   2.313   0.525  17.561 -0.8773  0.7758 -0.6831
  243MPD1    C4 3687   2.216   0.554  17.653  0.9387  0.3856 -0.2078
  243MPD1    C5 3688   2.202   0.681  17.700 -0.7454  0.1105 -1.0658
  243MPD1     H 3689   2.464   0.606  17.442 -0.9058 -0.1335 -0.4347
  243MPD1    H1 3690   2.141   0.485  17.690  1.2937 -0.1577 -0.5107
  243MPD1    H2 3691   2.263   0.881   0.012 -1.2938  0.6507 -0.2309
  243MPD1    H3 3692   2.122   0.693   0.068  0.6073  2.2384  0.0383
  243MPD1     N 3693   2.343   0.396  17.508 -0.8092  0.2790 -1.0796
  243MPD1    H5 3694   2.422   0.384  17.445 -0.4550 -0.1850 -0.5446
  243MPD1    N1 3695   2.473   0.867  17.535  0.0386 -0.3154  0.1767
  243MPD1    H6 3696   2.500   0.943  17.597  1.6363  1.0875 -2.2472
  243MPD1    H7 3697   2.560   0.846  17.487 -0.0623 -1.5396  0.5362
  244MPD1     C 3698   2.434   4.319   0.274  0.2833 -0.5261 -0.3321
  244MPD1    C1 3699   2.451   4.449   0.301  0.6896  0.1169 -0.0618
  244MPD1    C2 3700   2.461   4.535   0.187 -0.5019  0.3201 -0.0270
  244MPD1    C3 3701   2.453   4.489   0.054 -0.3750 -0.8218 -0.9312
  244MPD1    C4 3702   2.438   4.358   0.036  0.0872  0.1844 -0.2119
  244MPD1    C5 3703   2.432   4.273   0.143 -0.2811  0.3624 -0.2981
  244MPD1     H 3704   2.456   4.641   0.211  3.6462  0.8552 -1.5068
  244MPD1    H1 3705   2.404   4.313  17.648  1.8492 -1.5519 -0.0246
  244MPD1    H2 3706   2.418   4.249   0.356 -0.5657 -0.0691 -0.1032
  244MPD1    H3 3707   2.435   4.168   0.116  1.2516 -0.4209  2.9110
  244MPD1     N 3708   2.440   4.588  17.655 -0.1898  0.2809 -0.3073
  244MPD1    H5 3709   2.459   4.685  17.678 -1.6689  1.3531 -3.7209
  244MPD1    N1 3710   2.439   4.499   0.426  0.3430 -0.0185 -0.2873
  244MPD1    H6 3711   2.505   4.575   0.443 -0.6204  0.4174  1.5830
  244MPD1    H7 3712   2.449   4.429   0.499 -0.2286  1.6168  1.3745
  245MPD1     C 3713   4.331   1.151  13.478  0.2978 -0.1718  0.4652
  245MPD1    C1 3714   4.241   1.250  13.459  0.3834 -0.2275  0.2565
  245MPD1    C2 3715   4.295   1.360  13.399  0.0409  0.0288  0.6573
  245MPD1    C3 3716   4.425   1.370  13.365 -0.4612  0.0714 -0.0134
  245MPD1    C4 3717   4.511   1.267  13.389  0.5157 -0.2761 -0.6332
  245MPD1    C5 3718   4.466   1.155  13.449  0.7098 -0.4726  0.0879
  245MPD1     H 3719   4.231   1.439  13.362 -1.4371 -1.5394 -0.1636
  245MPD1    H1 3720   4.615   1.284  13.361  0.4433 -0.7986 -1.2235
  245MPD1    H2 3721   4.299   1.059  13.526  1.4933 -0.6394  0.3755
  245MPD1    H3 3722   4.527   1.070  13.473  0.8323 -0.0732  1.1917
  245MPD1     N 3723   4.463   1.486  13.299  0.3885  0.1513 -0.4072
  245MPD1    H5 3724   4.383   1.536  13.262 -0.3925 -1.9907 -1.6080
  245MPD1    N1 3725   4.106   1.227  13.462 -0.1424  0.3515 -0.6609
  245MPD1    H6 3726   4.049   1.309  13.482  0.7018  0.8807 -0.4323
  245MPD1    H7 3727   4.077   1.158  13.532 -1.7708 -0.1717 -1.8424
  246MPD1     C 3728   0.284   4.541   8.281  0.5497 -1.0180 -0.1772
  246MPD1    C1 3729   0.236   4.638   8.204 -0.0693  0.4613  0.7515
  246MPD1    C2 3730   0.248   0.044   8.241  0.2401 -0.1037 -0.0792
  246MPD1    C3 3731   0.300   0.079   8.364  0.2090  0.3466  0.0348
  246MPD1    C4 3732   0.328   4.714   8.460  0.4321 -0.1418  0.5182
  246MPD1    C5 3733   0.316   4.581   8.409  0.5477 -0.2260  0.2942
  246MPD1     H 3734   0.209   0.125   8.180  0.3215  0.4938  0.6535
  246MPD1    H1 3735   0.375   4.720   8.558 -0.6563  1.8393  0.9128
  246MPD1    H2 3736   0.266   4.439   8.250 -2.1716 -0.6499  0.2409
  246MPD1    H3 3737   0.336   4.496   8.473 -0.9392 -1.8204 -1.3783
  246MPD1     N 3738   0.305   0.218   8.398 -0.2777 -0.2830 -0.0389
  246MPD1    H5 3739   0.255   0.276   8.332  2.5770  3.4827  1.0728
  246MPD1    N1 3740   0.197   4.607   8.073  0.1531  0.4104 -0.1509
  246MPD1    H6 3741   0.174   4.509   8.058 -1.0401  0.6861 -0.1262
  246MPD1    H7 3742   0.118   4.660   8.038 -0.7214  1.5135  3.4932
  247MPD1     C 3743   3.524   1.093  16.411  0.3503 -0.3881  0.6128
  247MPD1    C1 3744   3.432   1.121  16.313  0.2331  0.0341  0.1067
  247MPD1    C2 3745   3.463   1.103  16.181  0.4333  0.3776 -1.1993
  247MPD1    C3 3746   3.592   1.056  16.152  0.0900 -0.4334  0.4971
  247MPD1    C4 3747   3.681   1.023  16.254 -0.0452 -0.7969 -0.1714
  247MPD1    C5 3748   3.643   1.034  16.384 -0.1014  0.4143  0.7316
  247MPD1     H 3749   3.403   1.151  16.104 -1.8081 -0.9228 -0.2232
  247MPD1    H1 3750   3.779   0.983  16.234 -0.4399 -1.2980 -1.1402
  247MPD1    H2 3751   3.495   1.103  16.515 -2.3723 -0.4777 -0.1220
  247MPD1    H3 3752   3.707   0.999  16.464 -0.1728 -1.7069 -0.1426
  247MPD1     N 3753   3.632   1.049  16.018 -0.2602 -0.9083 -0.4244
  247MPD1    H5 3754   3.561   1.061  15.947  0.9136  0.6626 -1.3226
  247MPD1    N1 3755   3.303   1.174  16.352 -0.1583 -0.2916  0.0639
  247MPD1    H6 3756   3.270   1.139  16.441  0.8016  0.4825  0.7297
  247MPD1    H7 3757   3.237   1.140  16.282  1.8641 -1.7833 -1.1104
  248MPD1     C 3758   0.507   1.039  17.473 -0.1319 -0.3662  0.6536
  248MPD1    C1 3759   0.523   0.920  17.537 -0.9114 -0.6589  0.4346
  248MPD1    C2 3760   0.417   0.879  17.612  0.2568 -0.6817  0.6501
  248MPD1    C3 3761   0.315   0.963  17.643  0.3514  0.7222 -0.6456
  248MPD1    C4 3762   0.304   1.088  17.579  0.0794  0.4557 -0.3847
  248MPD1    C5 3763   0.401   1.120  17.490  0.0808  0.0707  0.3824
  248MPD1     H 3764   0.414   0.783  17.662  3.2564 -2.9513 -3.4813
  248MPD1    H1 3765   0.230   1.167  17.592  0.9343  1.2380 -0.2985
  248MPD1    H2 3766   0.578   1.075  17.399 -1.3599  1.0905  0.1840
  248MPD1    H3 3767   0.388   1.209  17.428 -0.4062  0.9940  1.8267
  248MPD1     N 3768   0.216   0.924   0.027 -0.4101  0.4659 -0.6658
  248MPD1    H5 3769   0.229   0.833   0.070  0.4983  1.4332  1.0889
  248MPD1    N1 3770   0.631   0.834  17.524 -0.1213 -0.2842 -0.4062
  248MPD1    H6 3771   0.719   0.879  17.499  0.3368 -1.2019 -0.4760
  248MPD1    H7 3772   0.654   0.779  17.606 -0.4038  1.8782  1.1231
  249MPD1     C 3773   1.413   3.668  10.309  0.2191  0.1493  0.1144
  249MPD1    C1 3774   1.360   3.799  10.316 -0.3826  0.1349  0.2867
  249MPD1    C2 3775   1.241   3.824  10.247  0.2902 -0.3530  0.4529
  249MPD1    C3 3776   1.185   3.731  10.158  0.2317  0.4573  0.2414
  249MPD1    C4 3777   1.244   3.604  10.150 -0.0289 -0.1737 -0.0468
  249MPD1    C5 3778   1.349   3.576  10.232 -0.0148  0.0737  0.1075
  249MPD1     H 3779   1.201   3.925  10.243 -0.0065 -0.4655  0.5116
  249MPD1    H1 3780   1.194   3.521  10.101  0.6885  0.9361 -2.6648
  249MPD1    H2 3781   1.486   3.630  10.380  0.6704  0.1598 -0.3397
  249MPD1    H3 3782   1.383   3.474  10.244 -1.1870 -0.4762 -1.2388
  249MPD1     N 3783   1.077   3.777  10.082  0.3189  0.2989  0.3856
  249MPD1    H5 3784   1.066   3.878  10.087  0.0956  0.1962  1.8027
  249MPD1    N1 3785   1.399   3.884  10.427  0.0385  0.4130 -0.3291
  249MPD1    H6 3786   1.339   3.865  10.507 -0.5316 -1.0095 -1.0899
  249MPD1    H7 3787   1.494   3.876  10.461 -0.5584  0.0720  1.2605
  250MPD2     C 3788   2.870   0.160  13.324 -0.3271 -0.0072  0.6441
  250MPD2    C1 3789   2.872   0.196  13.194 -0.4319  0.0964 -0.1594
  250MPD2    C2 3790   2.786   0.127  13.108 -1.0074 -0.0717 -0.2336
  250MPD2    C3 3791   2.709   0.023  13.146  0.5258  0.1093 -0.0666
  250MPD2    C4 3792   2.725   4.713  13.274  0.1358 -0.8133  0.3200
  250MPD2    C5 3793   2.801   0.056  13.362  0.6915 -0.4600 -0.5650
  250MPD2     H 3794   2.790   0.151  13.002  2.8011 -1.2821 -0.3338
  250MPD2    H1 3795   2.668   4.633  13.320 -0.1660  0.1497  1.6487
  250MPD2    H2 3796   2.928   0.210  13.401  1.3762  1.9358 -1.8999
  250MPD2    H3 3797   2.799   0.028  13.467 -0.5421 -3.3977 -1.4009
  250MPD2     N 3798   2.634   4.663  13.062  0.4772 -0.2332  0.3280
  250MPD2    H5 3799   2.610   4.569  13.090 -1.0907  0.6440  1.9736
  250MPD2    N1 3800   2.957   0.298  13.159  0.4665  0.4623  0.2397
  250MPD2    H7 3801   3.005   0.349  13.233 -1.1191 -1.4988  2.6139
  251TMC3    C1 3802   3.077   0.443  13.010  0.0265 -0.2235 -0.0602
  251TMC3    C2 3803   3.053   0.546  13.101 -0.2952 -0.7561  0.1180
  251TMC3    C3 3804   3.109   0.666  13.074 -0.0952  0.3716  0.5214
  251TMC3    C4 3805   3.151   0.456  12.899  0.0463 -0.3941 -0.3909
  251TMC3    C5 3806   3.204   0.579  12.877  0.2349  0.0203  0.7758
  251TMC3    C6 3807   3.176   0.686  12.957 -0.0895  0.3461  0.6668
  251TMC3     C 3808   2.993   0.323  13.028 -0.3831 -0.0768  0.4826
  251TMC3     O 3809   2.981   0.254  12.929  0.1227 -0.3721 -0.3667
  251TMC3     H 3810   2.991   0.542  13.190 -0.4545  1.9524  0.1280
  251TMC3    H1 3811   3.182   0.368  12.843 -0.1991 -1.6630  1.4666
  251TMC3    H2 3812   3.227   0.780  12.942  0.8415  0.4549  4.6862
  251TMC3    C7 3813   3.344   0.568  12.841  0.0109  0.0810 -0.1167
  251TMC3    C8 3814   3.056   0.772  13.160  0.7818 -0.1449 -0.9962
  251TMC3    O1 3815   3.388   0.454  12.862 -0.1505  0.4054 -0.0160
  251TMC3    O2 3816   3.074   0.760  13.278 -0.3527  0.0614  0.1087
  252TMC3    C1 3817   3.743   0.130   9.697  0.0770 -1.0485 -0.0315
  252TMC3    C2 3818   3.643   0.230   9.664  0.8282 -0.3073  0.1681
  252TMC3    C3 3819   3.522   0.192   9.626 -1.2432  0.3108 -0.3323
  252TMC3    C4 3820   3.718   4.722   9.681  0.5643  0.0089  0.8719
  252TMC3    C5 3821   3.593   4.690   9.639  0.1307  0.7486 -0.4596
  252TMC3    C6 3822   3.496   0.058   9.617 -0.0901  0.1420 -0.0627
  252TMC3     C 3823   3.877   0.180   9.731 -0.1815 -0.2172 -0.0534
  252TMC3     O 3824   3.881   0.301   9.724  0.1370  0.0483 -0.2383
  252TMC3     H 3825   3.681   0.329   9.641  2.2267 -1.3529 -1.9487
  252TMC3    H1 3826   3.801   4.653   9.683  0.4379 -0.1896 -0.7011
  252TMC3    H2 3827   3.396   0.028   9.588 -0.4290  0.3130  0.9142
  252TMC3    C7 3828   3.573   4.550   9.625  0.0408  0.2237 -0.3612
  252TMC3    C8 3829   3.424   0.294   9.602 -1.0875  0.3508  0.0517
  252TMC3    O1 3830   3.673   4.484   9.624  0.7784 -0.6108  0.1347
  252TMC3    O2 3831   3.337   0.279   9.516 -0.5163  0.5099  0.4894
  253MPD2     C 3832   4.288   0.186  15.252  0.0507 -0.4055  0.0455
  253MPD2    C1 3833   4.167   0.131  15.285 -0.4052 -0.1355  0.0068
  253MPD2    C2 3834   4.106   0.154  15.405  0.0015 -0.1928  0.1730
  253MPD2    C3 3835   4.163   0.242  15.493 -0.5607 -0.2030  0.1089
  253MPD2    C4 3836   4.270   0.316  15.449  0.3569 -1.5923  0.3890
  253MPD2    C5 3837   4.332   0.288  15.332  0.1838  0.2251  0.0992
  253MPD2     H 3838   4.010   0.104  15.412 -0.4154  0.4897 -0.6337
  253MPD2    H1 3839   4.311   0.402  15.499  0.3989 -1.3749 -0.0223
  253MPD2    H2 3840   4.349   0.168  15.164 -1.1339  0.0444 -0.8765
  253MPD2    H3 3841   4.417   0.343  15.291 -0.1761  0.6669 -0.0563
  253MPD2     N 3842   4.112   0.269  15.620 -0.4231  0.1290 -0.1724
  253MPD2    H5 3843   4.157   0.338  15.679 -0.7006 -0.8356  1.1662
  253MPD2    N1 3844   4.097   0.032  15.208  0.4750  0.1449 -0.0600
  253MPD2    H7 3845   4.012   4.717  15.247  1.3314 -1.6295 -0.0604
  254TMC3    C1 3846   3.953   0.287  15.792 -0.5914  0.0006  0.3171
  254TMC3    C2 3847   3.818   0.314  15.822 -0.7573 -0.2137 -0.3588
  254TMC3    C3 3848   3.781   0.321  15.958  0.4100 -0.3006  0.7395
  254TMC3    C4 3849   4.044   0.305  15.890  0.0166  0.2855  0.0730
  254TMC3    C5 3850   4.003   0.325  16.016 -0.1127 -0.5783 -0.0216
  254TMC3    C6 3851   3.873   0.324  16.059 -0.8399  0.5384 -0.2054
  254TMC3     C 3852   3.983   0.237  15.657  0.2272  0.5058  0.2186
  254TMC3     O 3853   3.891   0.207  15.583 -0.5062  0.1820  0.4583
  254TMC3     H 3854   3.747   0.305  15.741  0.6183 -0.6831 -1.5109
  254TMC3    H1 3855   4.142   0.262  15.873  0.3345  1.1110 -0.2199
  254TMC3    H2 3856   3.844   0.347  16.161  2.3953 -1.0804  1.0992
  254TMC3    C7 3857   4.098   0.358  16.123 -0.6808 -0.0935 -0.5845
  254TMC3    C8 3858   3.651   0.294  16.003 -0.6829 -0.4626 -0.1446
  254TMC3    O1 3859   4.074   0.336  16.241  0.5720  0.1422 -0.3620
  254TMC3    O2 3860   3.650   0.261  16.121  0.4042 -0.1500  0.2210
  255MPD2     C 3861   2.686   1.909  10.116  0.0154  0.2490 -0.2347
  255MPD2    C1 3862   2.725   1.980  10.007  0.7626 -0.7876  0.1980
  255MPD2    C2 3863   2.720   1.919   9.885 -0.2561  0.0455  0.1952
  255MPD2    C3 3864   2.687   1.782   9.875 -0.0256 -0.2558 -0.1685
  255MPD2    C4 3865   2.635   1.718   9.987 -0.0953 -0.3584  0.0660
  255MPD2    C5 3866   2.633   1.783  10.109  0.1059  0.4259  0.1968
  255MPD2     H 3867   2.752   1.977   9.800 -0.8032 -2.3303 -1.6125
  255MPD2    H1 3868   2.594   1.618   9.985 -0.8669 -0.0131 -1.2239
  255MPD2    H2 3869   2.687   1.946  10.218 -2.0051 -0.4046  0.0318
  255MPD2    H3 3870   2.582   1.731  10.189 -1.5981  0.8155 -0.6275
  255MPD2     N 3871   2.686   1.699   9.761  0.4665 -0.1714  0.0043
  255MPD2    H5 3872   2.633   1.613   9.768 -1.0243  0.8141  0.7501
  255MPD2    N1 3873   2.770   2.114  10.023  0.5011  0.7125 -0.1705
  255MPD2    H7 3874   2.757   2.148  10.117 -0.0486  3.3390 -1.1798
  256TMC3    C1 3875   2.873   2.323   9.963 -0.4902  0.1597  0.2891
  256TMC3    C2 3876   2.981   2.368   9.887  0.0237 -0.2425 -0.2427
  256TMC3    C3 3877   3.024   2.496   9.917  0.2303 -0.4079 -0.5898
  256TMC3    C4 3878   2.816   2.394  10.064  0.7648  0.1331  0.5480
  256TMC3    C5 3879   2.870   2.517  10.093 -0.1076  0.1401 -0.9362
  256TMC3    C6 3880   2.973   2.569  10.022 -0.3136 -0.5034  0.0316
  256TMC3     C 3881   2.821   2.190   9.920 -0.5372 -0.4535 -0.4039
  256TMC3     O 3882   2.862   2.164   9.808 -0.5528  0.7210  0.3059
  256TMC3     H 3883   3.029   2.318   9.804 -2.9581  0.9010 -2.6203
  256TMC3    H1 3884   2.727   2.359  10.115  1.1822  0.7448  1.6925
  256TMC3    H2 3885   3.019   2.663  10.048 -1.2753 -0.0258  0.0104
  256TMC3    C7 3886   2.766   2.613  10.140 -0.1196  0.1763 -0.3137
  256TMC3    C8 3887   3.145   2.538   9.855 -0.0070 -0.2745  0.9085
  256TMC3    O1 3888   2.651   2.567  10.137  0.1487  0.4044 -0.2056
  256TMC3    O2 3889   3.211   2.449   9.804 -0.1529  0.2552 -1.0615
  257MPD2     C 3890   1.984   0.076  13.303  0.5105  0.1741 -0.2372
  257MPD2    C1 3891   1.907   0.020  13.196 -0.0838 -0.4892  0.0791
  257MPD2    C2 3892   1.854   4.615  13.211  0.3250  0.0724 -0.1853
  257MPD2    C3 3893   1.892   4.542  13.320 -0.0798 -0.4187  0.1708
  257MPD2    C4 3894   1.975   4.594  13.417 -1.1401  0.2494  0.5257
  257MPD2    C5 3895   2.015   4.721  13.408  0.3852  0.0603 -0.3494
  257MPD2     H 3896   1.794   4.576  13.129 -2.0458  1.8430  0.7243
  257MPD2    H1 3897   1.998   4.539  13.508  1.9724 -0.2904 -0.5550
  257MPD2    H2 3898   2.020   0.178  13.303 -2.5662  1.2464 -1.8867
  257MPD2    H3 3899   2.084   0.029  13.483 -2.2701  0.7585  1.7538
  257MPD2     N 3900   1.855   4.400  13.328 -0.0417  0.3570  0.0069
  257MPD2    H5 3901   1.792   4.367  13.256  1.0002 -0.2874 -0.6229
  257MPD2    N1 3902   1.871   0.114  13.092 -0.0632 -0.6140  0.6897
  257MPD2    H7 3903   1.923   0.202  13.088  0.6187 -1.0461  0.0423
  258TMC3    C1 3904   1.910   4.175  13.376  0.2846  0.0371  1.0504
  258TMC3    C2 3905   1.936   4.164  13.244 -0.0029  0.0990 -0.3364
  258TMC3    C3 3906   2.009   4.056  13.206 -0.0724 -0.3948  0.3807
  258TMC3    C4 3907   1.956   4.090  13.473 -0.3677 -0.2429  0.4729
  258TMC3    C5 3908   2.022   3.981  13.429  0.4121 -0.0908 -0.0895
  258TMC3    C6 3909   2.060   3.967  13.299 -0.2166 -1.0776  0.2222
  258TMC3     C 3910   1.896   4.314  13.419  0.6503 -0.2684 -0.2654
  258TMC3     O 3911   1.932   4.330  13.536  0.9058 -0.1583 -0.0789
  258TMC3     H 3912   1.917   4.230  13.160 -0.3292  1.2073  0.6058
  258TMC3    H1 3913   1.928   4.108  13.576 -0.5678 -2.0264  0.7298
  258TMC3    H2 3914   2.115   3.878  13.270 -1.7491 -1.6822 -0.8619
  258TMC3    C7 3915   2.095   3.890  13.521 -0.2836  0.1917 -0.0804
  258TMC3    C8 3916   2.052   4.054  13.064 -0.4289  0.1872  0.2857
  258TMC3    O1 3917   2.183   3.814  13.480 -0.1736  0.0449  0.0877
  258TMC3    O2 3918   2.003   4.137  12.988 -0.5988 -0.4210 -0.1415
  259MPD2     C 3919   0.334   1.734   0.309  0.2435  0.2265  0.1058
  259MPD2    C1 3920   0.418   1.653   0.380 -0.8817 -0.4168 -0.3424
  259MPD2    C2 3921   0.550   1.629   0.328  0.1996 -0.0508 -0.0854
  259MPD2    C3 3922   0.595   1.710   0.221  0.5092  0.1505  0.0433
  259MPD2    C4 3923   0.509   1.802   0.166 -0.5765 -0.5962  0.2852
  259MPD2    C5 3924   0.374   1.804   0.199  0.0937 -0.1685 -0.2871
  259MPD2     H 3925   0.610   1.555   0.378 -0.7830 -1.8488 -1.5588
  259MPD2    H1 3926   0.531   1.863   0.079  1.4764 -2.0579 -0.2111
  259MPD2    H2 3927   0.231   1.746   0.343  0.5341  0.8881  0.7677
  259MPD2    H3 3928   0.293   1.859   0.153  1.3463  0.6807 -1.4647
  259MPD2     N 3929   0.731   1.693   0.169 -0.4848 -0.3181  0.0164
  259MPD2    H5 3930   0.777   1.613   0.213 -0.7384  0.2409  1.3054
  259MPD2    N1 3931   0.352   1.589   0.492  0.9278 -0.5705 -0.1508
  259MPD2    H7 3932   0.257   1.621   0.506 -0.3242 -4.1514 -0.4359
  260TMC3    C1 3933   0.927   1.760   0.055 -0.1814  0.4402 -0.3681
  260TMC3    C2 3934   1.007   1.866   0.045 -0.4014  0.6841  0.3072
  260TMC3    C3 3935   1.139   1.844   0.032  0.1588  0.3499 -0.1508
  260TMC3    C4 3936   0.973   1.627   0.073 -0.5861  0.0858  0.5936
  260TMC3    C5 3937   1.110   1.616   0.062  0.4508 -0.5175 -0.3144
  260TMC3    C6 3938   1.193   1.719   0.039  0.0687 -0.3572 -0.4930
  260TMC3     C 3939   0.790   1.787   0.083 -0.5064  0.4155  0.3980
  260TMC3     O 3940   0.747   1.889   0.034  0.1432  0.1844 -0.7754
  260TMC3     H 3941   0.970   1.968   0.049 -0.6990  0.6838 -2.4389
  260TMC3    H1 3942   0.905   1.542   0.079  0.9382 -1.0722  1.5531
  260TMC3    H2 3943   1.294   1.697   0.005 -0.4790 -0.8468 -1.7965
  260TMC3    C7 3944   1.157   1.481   0.030  0.0090 -0.2019  0.0240
  260TMC3    C8 3945   1.225   1.960   0.059  0.5544  0.4547  0.2100
  260TMC3    O1 3946   1.078   1.423  17.661 -0.0518 -0.0922 -0.6790
  260TMC3    O2 3947   1.176   2.073   0.021  0.6106 -0.4050 -0.1503
  261MPD2     C 3948   2.082   4.446  12.432  0.0231 -0.8278  0.3950
  261MPD2    C1 3949   2.200   4.523  12.446  0.0548 -0.2945 -0.8246
  261MPD2    C2 3950   2.240   4.593  12.336  0.3290 -0.1639  0.2606
  261MPD2    C3 3951   2.160   4.603  12.226  0.7175  0.5604  0.6017
  261MPD2    C4 3952   2.046   4.535  12.216 -0.4516 -0.8439  0.6514
  261MPD2    C5 3953   2.009   4.454  12.317  0.3406 -0.6201  0.4126
  261MPD2     H 3954   2.327   4.657  12.348 -0.9915  1.5278  0.7982
  261MPD2    H1 3955   1.973   4.550  12.137 -1.4610  1.1000  1.9584
  261MPD2    H2 3956   2.047   4.384  12.514  1.6959  0.3805  2.0238
  261MPD2    H3 3957   1.923   4.391  12.298  0.3398 -0.0714 -1.3689
  261MPD2     N 3958   2.206   4.695  12.127 -0.4248 -0.3477 -0.1527
  261MPD2    H5 3959   2.300   0.006  12.138 -0.0144 -0.8070 -1.9428
  261MPD2    N1 3960   2.284   4.533  12.560  0.1296 -0.3891 -0.0982
  261MPD2    H7 3961   2.365   4.593  12.546 -0.7597 -0.0373 -3.6222
  262TMC3    C1 3962   2.185   0.078  11.911  0.8151 -0.2258 -0.6041
  262TMC3    C2 3963   2.119   0.182  11.847 -0.3964 -0.8004  0.8540
  262TMC3    C3 3964   2.183   0.234  11.739  0.4738 -0.3717 -0.4497
  262TMC3    C4 3965   2.308   0.031  11.867  0.1963 -0.1256 -0.2110
  262TMC3    C5 3966   2.362   0.084  11.754 -0.3219 -0.2601  0.2148
  262TMC3    C6 3967   2.305   0.194  11.691 -0.2437 -0.1092 -0.2053
  262TMC3     C 3968   2.120   0.025  12.027 -0.0841  0.2362 -0.9505
  262TMC3     O 3969   1.997   0.038  12.029 -0.4547  0.1300  0.1899
  262TMC3     H 3970   2.034   0.232  11.894 -2.4759 -1.2618 -2.3852
  262TMC3    H1 3971   2.350   4.668  11.912  0.9244 -0.8445 -2.3358
  262TMC3    H2 3972   2.357   0.244  11.610  0.1651 -0.0729  0.0802
  262TMC3    C7 3973   2.490   0.028  11.717  0.8279  0.3183 -0.2877
  262TMC3    C8 3974   2.130   0.360  11.698 -0.1749 -0.0212  0.6183
  262TMC3    O1 3975   2.560   0.000  11.816 -0.0368  0.6521  0.3203
  262TMC3    O2 3976   2.220   0.436  11.665 -0.4529 -0.1039 -0.0478
  263MPD2     C 3977   3.129   3.548  11.280  0.3657 -0.0215 -0.8933
  263MPD2    C1 3978   3.188   3.669  11.297 -0.7650  1.1126 -0.1770
  263MPD2    C2 3979   3.218   3.746  11.184 -0.0467  1.1286  0.4048
  263MPD2    C3 3980   3.167   3.709  11.058 -0.4578  0.0341  0.5703
  263MPD2    C4 3981   3.095   3.593  11.041  0.3284 -0.3622  0.0549
  263MPD2    C5 3982   3.077   3.515  11.153 -0.1392  0.0966 -0.3416
  263MPD2     H 3983   3.278   3.837  11.185 -1.3219  1.9980 -3.8645
  263MPD2    H1 3984   3.049   3.562  10.948  1.3370 -0.8583 -0.2737
  263MPD2    H2 3985   3.105   3.484  11.365  1.9187 -0.6863 -0.9691
  263MPD2    H3 3986   3.030   3.421  11.124 -1.3188  0.4620  0.4075
  263MPD2     N 3987   3.186   3.804  10.952  0.3189 -0.1301 -0.1563
  263MPD2    H5 3988   3.213   3.899  10.974 -1.3456  0.2106  0.4057
  263MPD2    N1 3989   3.252   3.704  11.420  0.1438 -0.8332 -0.3186
  263MPD2    H7 3990   3.327   3.772  11.421 -1.2530  0.6760  1.6704
  264TMC3    C1 3991   3.198   3.881  10.728  0.5717  1.1469 -0.8420
  264TMC3    C2 3992   3.131   3.997  10.761  0.6618 -0.6297 -0.3295
  264TMC3    C3 3993   3.139   4.108  10.680  0.1652 -0.2474 -0.2671
  264TMC3    C4 3994   3.276   3.867  10.614 -0.1897  0.0214  0.5661
  264TMC3    C5 3995   3.274   3.973  10.531 -0.4628 -0.0314  0.0938
  264TMC3    C6 3996   3.210   4.090  10.565 -1.0647  0.2433 -0.6242
  264TMC3     C 3997   3.180   3.769  10.817  0.0550  0.0390  0.1215
  264TMC3     O 3998   3.178   3.655  10.772 -0.3167  0.5411 -0.4762
  264TMC3     H 3999   3.063   4.001  10.845 -1.1147 -0.5078 -1.7545
  264TMC3    H1 4000   3.302   3.766  10.586  0.7048 -0.3302  2.7001
  264TMC3    H2 4001   3.236   4.176  10.504 -0.1848  0.6897  0.3896
  264TMC3    C7 4002   3.379   3.988  10.430  0.1212 -0.2722 -0.0532
  264TMC3    C8 4003   3.138   4.248  10.721 -0.6146  0.2835 -0.1074
  264TMC3    O1 4004   3.366   4.075  10.346 -0.0919 -0.7640  0.2488
  264TMC3    O2 4005   3.198   4.336  10.653 -0.4483  0.1626  0.8731
  265MPD2     C 4006   0.890   3.962  15.404  0.1396  0.5003  0.3655
  265MPD2    C1 4007   0.907   4.083  15.340 -0.7667 -0.3581  0.0512
  265MPD2    C2 4008   1.000   4.089  15.240  0.2757 -0.6156  0.3159
  265MPD2    C3 4009   1.073   3.978  15.205 -0.4534  0.4040 -0.0109
  265MPD2    C4 4010   1.060   3.858  15.275  0.3619 -0.0980  0.0275
  265MPD2    C5 4011   0.962   3.854  15.373 -0.5558  0.3269  0.4683
  265MPD2     H 4012   1.001   4.176  15.175 -2.3713  0.2031  1.3752
  265MPD2    H1 4013   1.120   3.770  15.254  1.4859  0.2150  1.9245
  265MPD2    H2 4014   0.835   3.958  15.498  1.5952 -0.1471  1.1778
  265MPD2    H3 4015   0.960   3.771  15.443 -0.4959  0.4860  0.6581
  265MPD2     N 4016   1.145   3.970  15.084  0.2558  0.0667 -0.2044
  265MPD2    H5 4017   1.178   3.876  15.065 -0.4436 -0.1196 -0.5092
  265MPD2    N1 4018   0.831   4.200  15.376 -0.3756 -0.0026  0.3340
  265MPD2    H7 4019   0.860   4.284  15.326  2.1686 -0.5332  0.9239
  266TMC3    C1 4020   0.697   4.335  15.514  0.1299  0.4585  0.6860
  266TMC3    C2 4021   0.798   4.395  15.580 -0.3997  0.2568 -0.9038
  266TMC3    C3 4022   0.767   4.502  15.664 -0.3910 -0.3355 -0.2428
  266TMC3    C4 4023   0.570   4.363  15.542 -0.5329  0.1389 -0.2789
  266TMC3    C5 4024   0.539   4.471  15.623  0.0518  0.2320 -0.4640
  266TMC3    C6 4025   0.635   4.547  15.686 -0.4412  0.5188 -0.5515
  266TMC3     C 4026   0.735   4.199  15.474  0.2700 -0.0437  0.2045
  266TMC3     O 4027   0.661   4.112  15.517  0.2467 -0.1182 -0.3440
  266TMC3     H 4028   0.896   4.349  15.573  0.5313  2.0086  0.7080
  266TMC3    H1 4029   0.495   4.297  15.500  0.7394 -1.1809 -0.5025
  266TMC3    H2 4030   0.597   4.624  15.753 -1.1258 -0.4875  0.2101
  266TMC3    C7 4031   0.396   4.499  15.658  0.0132 -0.3405 -0.2796
  266TMC3    C8 4032   0.865   4.531  15.770  0.0555 -0.3526  0.0393
  266TMC3    O1 4033   0.380   4.578  15.755  0.7739 -0.3606  0.0858
  266TMC3    O2 4034   0.925   4.427  15.797 -0.0143  0.3153 -0.4582
  267MPD2     C 4035   2.721   1.665  17.644 -0.4183  0.0394 -0.2347
  267MPD2    C1 4036   2.836   1.707  17.578  0.8558  0.2145 -0.1600
  267MPD2    C2 4037   2.853   1.663  17.448  0.2396  1.4047 -0.4430
  267MPD2    C3 4038   2.763   1.588  17.379 -0.6315  0.0568 -0.5825
  267MPD2    C4 4039   2.642   1.551  17.445  0.4853  0.3917 -0.3286
  267MPD2    C5 4040   2.620   1.601  17.574  0.0471 -1.0506 -0.7490
  267MPD2     H 4041   2.949   1.688  17.403 -0.0232  0.1683 -1.7013
  267MPD2    H1 4042   2.567   1.498  17.387 -0.7555  1.7285  0.0493
  267MPD2    H2 4043   2.692   1.700   0.038  0.8042 -1.5195  0.6644
  267MPD2    H3 4044   2.532   1.587  17.635  0.7534 -0.1115  0.4854
  267MPD2     N 4045   2.785   1.544  17.255 -0.1924  0.0321  0.1451
  267MPD2    H5 4046   2.719   1.480  17.213  2.1948 -1.2031 -1.7588
  267MPD2    N1 4047   2.924   1.783  17.647 -0.5583 -0.2770 -0.0865
  267MPD2    H7 4048   2.915   1.793   0.043 -1.0084 -1.8754  0.0419
  268TMC3    C1 4049   3.093   1.952  17.665  0.3148 -0.7351 -0.4526
  268TMC3    C2 4050   3.155   2.061  17.607 -0.0260 -0.2681  0.2117
  268TMC3    C3 4051   3.259   2.122  17.675 -0.1244  0.0490  0.1921
  268TMC3    C4 4052   3.131   1.907   0.083  0.6093 -0.1567  0.1261
  268TMC3    C5 4053   3.229   1.982   0.156 -0.5241 -0.2392 -0.2539
  268TMC3    C6 4054   3.289   2.092   0.101  0.2293  0.0125 -0.0881
  268TMC3     C 4055   2.999   1.875  17.581 -0.3077  0.6708  0.0167
  268TMC3     O 4056   2.995   1.917  17.466  0.1943 -0.1341 -0.1433
  268TMC3     H 4057   3.121   2.099  17.512  0.4511 -0.3461  0.0142
  268TMC3    H1 4058   3.080   1.831   0.140 -2.1571  2.5501  1.2765
  268TMC3    H2 4059   3.361   2.155   0.152  1.7735 -1.2648 -0.6945
  268TMC3    C7 4060   3.265   1.935   0.287 -0.1578 -0.6205 -0.2228
  268TMC3    C8 4061   3.315   2.249  17.620 -1.0884 -0.5050  0.4611
  268TMC3    O1 4062   3.181   1.869   0.346  0.4222 -0.3775 -0.1430
  268TMC3    O2 4063   3.360   2.331  17.696  0.5776  0.5093 -0.0339
  269MPD2     C 4064   3.487   0.114  15.589  0.2768  0.4561  0.1966
  269MPD2    C1 4065   3.352   0.146  15.584 -0.5279 -0.1308  0.3957
  269MPD2    C2 4066   3.310   0.259  15.518  0.7461  0.4705 -0.4241
  269MPD2    C3 4067   3.387   0.332  15.437 -0.3114 -0.4724 -0.2525
  269MPD2    C4 4068   3.525   0.304  15.438 -0.3686  0.7981  0.1119
  269MPD2    C5 4069   3.568   0.199  15.512 -0.2808  0.7094 -0.0674
  269MPD2     H 4070   3.207   0.293  15.523  0.1084 -1.0755 -2.6575
  269MPD2    H1 4071   3.596   0.360  15.379  1.5542 -0.9395  0.7901
  269MPD2    H2 4072   3.534   0.032  15.642 -0.3064  3.0954  4.7476
  269MPD2    H3 4073   3.670   0.167  15.525 -0.1541  0.3344 -1.9823
  269MPD2     N 4074   3.329   0.443  15.368 -0.0081 -0.0314  0.2287
  269MPD2    H5 4075   3.231   0.466  15.368  0.5840  2.4665 -0.9881
  269MPD2    N1 4076   3.264   0.065  15.661  0.1319  0.3429 -0.4698
  269MPD2    H7 4077   3.304   4.717  15.719 -0.1086  0.0110 -0.7273
  270TMC3    C1 4078   3.065   4.698  15.727 -0.2846  0.0788  0.7483
  270TMC3    C2 4079   2.941   4.672  15.676 -0.4160  0.5808 -0.4761
  270TMC3    C3 4080   2.889   4.550  15.703  0.2921 -0.1907 -0.5452
  270TMC3    C4 4081   3.140   4.597  15.781 -0.5781 -0.6878 -0.4860
  270TMC3    C5 4082   3.087   4.471  15.787  0.4512 -0.1156  0.2113
  270TMC3    C6 4083   2.953   4.447  15.766  0.5955 -0.3156 -0.4161
  270TMC3     C 4084   3.129   0.079  15.666 -0.2001  0.7432  0.6320
  270TMC3     O 4085   3.053   0.153  15.607  0.1871  0.5239 -0.5919
  270TMC3     H 4086   2.874   0.021  15.636 -1.0012  0.2928 -0.0273
  270TMC3    H1 4087   3.243   4.603  15.817  0.0229 -2.3756 -1.9178
  270TMC3    H2 4088   2.906   4.350  15.752 -0.3547  0.3194 -1.6551
  270TMC3    C7 4089   3.182   4.371  15.747  0.7081  0.2857 -0.2074
  270TMC3    C8 4090   2.782   4.497  15.612 -0.3742  0.3028  0.2559
  270TMC3    O1 4091   3.297   4.419  15.736 -0.3660  0.6695  0.1445
  270TMC3    O2 4092   2.700   4.418  15.659 -0.0741 -0.1988 -0.1916
  271MPD2     C 4093   2.549   0.085  14.325  0.1667  0.0346  0.4504
  271MPD2    C1 4094   2.507   4.706  14.245 -0.6354  0.7530  0.0944
  271MPD2    C2 4095   2.412   0.008  14.150  0.7922  0.7024 -0.1820
  271MPD2    C3 4096   2.372   0.134  14.117  0.5156  0.5995 -0.3080
  271MPD2    C4 4097   2.417   0.237  14.197 -0.7952 -0.6168  0.6118
  271MPD2    C5 4098   2.503   0.209  14.301 -0.1360  0.6212 -0.1623
  271MPD2     H 4099   2.378   4.648  14.093 -0.6442  0.7728  0.5573
  271MPD2    H1 4100   2.401   0.342  14.175  0.5557 -0.7763 -1.1083
  271MPD2    H2 4101   2.622   0.068  14.404 -0.2023 -1.9634  0.3593
  271MPD2    H3 4102   2.545   0.289  14.361  0.0913  1.2667 -1.1754
  271MPD2     N 4103   2.281   0.160  14.015  0.3570  0.3474 -0.1245
  271MPD2    H5 4104   2.256   0.258  14.010 -0.8697  0.0477  0.1358
  271MPD2    N1 4105   2.530   4.571  14.290  0.1236 -0.3379 -0.3329
  271MPD2    H7 4106   2.570   4.551  14.382  0.9911  1.8903 -0.2096
  272TMC3    C1 4107   2.519   4.337  14.300 -0.1669  0.0184 -0.3164
  272TMC3    C2 4108   2.597   4.239  14.243 -0.7540  0.5401 -0.3084
  272TMC3    C3 4109   2.658   4.138  14.311 -0.2503  0.6124 -0.9583
  272TMC3    C4 4110   2.491   4.337  14.432 -0.2022 -0.2585  0.1535
  272TMC3    C5 4111   2.562   4.248  14.503  0.0484  1.3135  0.2656
  272TMC3    C6 4112   2.628   4.142  14.449 -0.0272  0.5418  0.3064
  272TMC3     C 4113   2.494   4.456  14.221 -0.5452 -0.9529  1.0514
  272TMC3     O 4114   2.470   4.433  14.100 -0.1457  0.1977  0.3115
  272TMC3     H 4115   2.614   4.267  14.140  1.0349 -0.6268 -0.3412
  272TMC3    H1 4116   2.431   4.411  14.483  0.5728  2.5735 -3.0586
  272TMC3    H2 4117   2.679   4.073  14.515 -0.2495 -0.2283 -0.3228
  272TMC3    C7 4118   2.553   4.255  14.644 -0.7507 -0.8259 -0.2217
  272TMC3    C8 4119   2.784   4.090  14.261 -0.6851 -0.4563 -0.0996
  272TMC3    O1 4120   2.560   4.157  14.714  0.0376  0.2692 -0.1322
  272TMC3    O2 4121   2.793   4.099  14.142  0.3879 -0.2040 -0.1042
  273MPD2     C 4122   3.960   2.415  11.603  0.4343  0.1749  0.5358
  273MPD2    C1 4123   4.057   2.510  11.623  0.1860  0.2061  0.0902
  273MPD2    C2 4124   4.079   2.605  11.524 -0.5392  0.3057  0.3807
  273MPD2    C3 4125   3.994   2.608  11.418 -0.0829  0.2656 -0.5277
  273MPD2    C4 4126   3.891   2.520  11.406  0.2722 -0.2107 -1.2084
  273MPD2    C5 4127   3.878   2.415  11.495  0.6231 -1.1180 -0.0451
  273MPD2     H 4128   4.158   2.677  11.540  0.8171 -1.3583  1.1313
  273MPD2    H1 4129   3.833   2.531  11.316 -1.4705  0.1213 -0.0391
  273MPD2    H2 4130   3.940   2.342  11.681  0.2706  0.1268  0.4500
  273MPD2    H3 4131   3.801   2.339  11.490 -0.6601  0.3580 -2.8437
  273MPD2     N 4132   4.006   2.699  11.306 -0.5436  0.1949 -0.3772
  273MPD2    H5 4133   3.929   2.692  11.240  0.2096  0.4280 -1.2674
  273MPD2    N1 4134   4.139   2.500  11.741 -0.5901  0.2622  0.0606
  273MPD2    H7 4135   4.096   2.465  11.826  1.0810  0.0230  0.8090
  274TMC3    C1 4136   4.049   2.919  11.228 -0.3580 -0.2725  0.2885
  274TMC3    C2 4137   3.955   2.896  11.132 -0.2539  0.5248 -0.5388
  274TMC3    C3 4138   3.857   2.995  11.103  0.2850  0.5171 -0.0170
  274TMC3    C4 4139   4.058   3.043  11.284 -0.2901 -0.1017 -0.2906
  274TMC3    C5 4140   3.954   3.131  11.264 -0.5456  0.5177  0.0246
  274TMC3    C6 4141   3.851   3.108  11.175  0.0635  0.8101 -0.7343
  274TMC3     C 4142   4.083   2.810  11.312  0.0199  0.1520  0.0699
  274TMC3     O 4143   4.140   2.856  11.409 -0.0294 -0.3848  0.1278
  274TMC3     H 4144   3.965   2.807  11.071 -1.6221  0.9603 -1.4218
  274TMC3    H1 4145   4.137   3.069  11.353  0.0836 -0.4214 -0.6022
  274TMC3    H2 4146   3.774   3.180  11.150 -1.6148 -0.0065  2.0981
  274TMC3    C7 4147   3.935   3.242  11.358 -0.6261 -0.1485  0.4848
  274TMC3    C8 4148   3.732   2.950  11.045  0.4670  0.2669  0.2330
  274TMC3    O1 4149   3.870   3.335  11.309  0.1114 -0.3161 -0.7221
  274TMC3    O2 4150   3.640   2.928  11.122 -0.4124  1.0742 -0.0280
  275MPD2     C 4151   3.867   0.773  13.886 -0.1058 -0.0909 -0.0394
  275MPD2    C1 4152   3.889   0.652  13.948  0.9154 -0.3220  0.1214
  275MPD2    C2 4153   3.789   0.570  13.974 -0.3058 -0.5080  0.5579
  275MPD2    C3 4154   3.657   0.595  13.951 -0.0944 -0.2109 -0.0790
  275MPD2    C4 4155   3.627   0.711  13.887  0.5508 -0.1273  0.1181
  275MPD2    C5 4156   3.731   0.799  13.851  0.2360  0.2083 -0.5987
  275MPD2     H 4157   3.819   0.495  14.045 -0.5749  0.5300  1.7584
  275MPD2    H1 4158   3.523   0.742  13.880  0.0667 -1.6379  0.8339
  275MPD2    H2 4159   3.946   0.845  13.865  0.6211 -1.2637 -1.3328
  275MPD2    H3 4160   3.715   0.890  13.795  0.1926  0.0906 -0.7772
  275MPD2     N 4161   3.548   0.532  14.015  0.0903 -0.3039 -0.0585
  275MPD2    H5 4162   3.458   0.577  14.022  0.1222 -0.2271 -0.1453
  275MPD2    N1 4163   4.019   0.609  13.987  0.5512  0.2282 -0.6915
  275MPD2    H7 4164   4.007   0.518  14.029  1.9104 -0.0049 -0.7989
  276TMC3    C1 4165   4.244   0.595  14.036 -0.5791  0.2929  0.1496
  276TMC3    C2 4166   4.207   0.467  14.071  0.7405  0.2729 -0.1527
  276TMC3    C3 4167   4.217   0.423  14.199  1.1127  0.1670 -0.1173
  276TMC3    C4 4168   4.314   0.669  14.122 -0.1838 -0.2240  0.5366
  276TMC3    C5 4169   4.328   0.615  14.246  0.2009  0.5115 -0.4389
  276TMC3    C6 4170   4.289   0.496  14.288  0.1845  0.4765  0.0343
  276TMC3     C 4171   4.141   0.669  13.972 -0.2557 -0.1455  0.1912
  276TMC3     O 4172   4.171   0.778  13.927 -0.4847  0.2194 -0.1074
  276TMC3     H 4173   4.148   0.407  14.003  0.0460 -0.6193  1.2307
  276TMC3    H1 4174   4.332   0.772  14.093  1.3579 -0.7142 -0.2577
  276TMC3    H2 4175   4.288   0.481  14.396 -0.4531  1.3902  0.1577
  276TMC3    C7 4176   4.386   0.705  14.349  0.2181 -0.5734  0.2963
  276TMC3    C8 4177   4.086   0.380  14.240  0.6591  1.1128  0.0864
  276TMC3    O1 4178   4.367   0.680  14.464 -0.3044  0.3390 -0.1774
  276TMC3    O2 4179   3.991   0.414  14.167 -0.1100 -0.6393  0.1967
  277MPD2     C 4180   1.215   4.330  13.171  0.3307 -0.3496 -0.5911
  277MPD2    C1 4181   1.085   4.373  13.145 -0.1426  0.0826  0.4771
  277MPD2    C2 4182   1.003   4.402  13.253 -0.7340  0.3034 -1.3937
  277MPD2    C3 4183   1.048   4.376  13.383  0.4388 -0.3058  0.7195
  277MPD2    C4 4184   1.172   4.324  13.399 -0.2677 -0.3042  0.3468
  277MPD2    C5 4185   1.254   4.300  13.295 -0.0147 -0.0785  0.1077
  277MPD2     H 4186   0.909   4.452  13.234  0.0821  2.4886  0.2810
  277MPD2    H1 4187   1.214   4.314  13.499 -0.5823  3.2292  0.8307
  277MPD2    H2 4188   1.286   4.315  13.091  2.7835  0.7205  1.3819
  277MPD2    H3 4189   1.354   4.261  13.311 -0.8230 -2.0205  0.3592
  277MPD2     N 4190   0.972   4.390  13.507  1.1249  0.5207  0.2163
  277MPD2    H5 4191   1.008   4.346  13.591  3.0047  1.7841  0.0759
  277MPD2    N1 4192   1.038   4.388  13.011  0.0396 -0.2854 -0.5544
  277MPD2    H7 4193   1.102   4.356  12.939  0.5918 -0.3927 -0.0134
  278TMC3    C1 4194   0.784   4.373  13.638  0.8130 -0.2087 -0.3151
  278TMC3    C2 4195   0.783   4.238  13.647  0.0486  0.0298  0.3908
  278TMC3    C3 4196   0.688   4.177  13.726  0.5963 -0.0715  0.2966
  278TMC3    C4 4197   0.688   4.445  13.707 -0.4533  0.1754 -0.6229
  278TMC3    C5 4198   0.589   4.376  13.780 -0.4032  0.0134  0.3541
  278TMC3    C6 4199   0.582   4.237  13.793 -0.0536  0.3805  0.1568
  278TMC3     C 4200   0.839   4.435  13.519 -0.7070  0.1290  0.3862
  278TMC3     O 4201   0.761   4.487  13.438 -0.3639 -0.3061  0.2458
  278TMC3     H 4202   0.856   4.180  13.592 -1.5373 -3.0168  1.5144
  278TMC3    H1 4203   0.685   4.553  13.704  1.4038  0.2305 -0.2682
  278TMC3    H2 4204   0.510   4.188  13.857 -0.1652 -1.2777 -1.2507
  278TMC3    C7 4205   0.519   4.458  13.875 -0.3400  0.7910 -0.0334
  278TMC3    C8 4206   0.675   4.034  13.709  0.2881 -0.2290 -0.6676
  278TMC3    O1 4207   0.563   4.564  13.919  0.2877 -0.1739 -0.2865
  278TMC3    O2 4208   0.774   3.982  13.662 -0.1253  0.0562  0.3956
  279MPD2     C 4209   4.341   1.107   0.088 -0.7786  0.2325  0.8967
  279MPD2    C1 4210   4.398   0.983   0.115  0.6786  0.8161  0.2685
  279MPD2    C2 4211   4.483   0.936   0.015 -0.2361  0.1397  1.1852
  279MPD2    C3 4212   4.529   1.018  17.617  1.2253 -0.8643  0.2638
  279MPD2    C4 4213   4.467   1.140  17.597 -0.4420  0.0868  0.1726
  279MPD2    C5 4214   4.379   1.186  17.688 -0.2673 -0.2174  0.0432
  279MPD2     H 4215   4.524   0.835   0.010 -1.8590 -0.5673  2.0914
  279MPD2    H1 4216   4.496   1.206  17.516  0.1996  0.0530  0.3736
  279MPD2    H2 4217   4.264   1.155   0.147 -1.4002 -0.1508  0.4020
  279MPD2    H3 4218   4.330   1.278  17.657 -0.0377  0.3621  1.4518
  279MPD2     N 4219   4.621   0.978  17.524 -0.1813  0.1552 -0.3027
  279MPD2    H5 4220   4.635   1.031  17.439 -2.5665 -1.7994 -1.9126
  279MPD2    N1 4221   4.347   0.915   0.224  0.3429 -0.3435  0.3820
  279MPD2    H7 4222   4.289   0.959   0.296  0.1164 -0.6531  0.3875
  280TMC3    C1 4223   4.305   0.742   0.370 -0.5282  0.5160 -0.1512
  280TMC3    C2 4224   4.306   0.607   0.380  0.5956 -0.2641  0.2474
  280TMC3    C3 4225   4.185   0.552   0.416 -0.2890  0.0800  0.1348
  280TMC3    C4 4226   4.206   0.822   0.420 -0.0080 -0.6793 -0.0208
  280TMC3    C5 4227   4.095   0.759   0.455 -0.1083 -0.2500 -0.4041
  280TMC3    C6 4228   4.073   0.625   0.446 -0.2957 -0.6799  0.2870
  280TMC3     C 4229   4.373   0.787   0.250  0.6408  0.1898  0.2727
  280TMC3     O 4230   4.442   0.711   0.181 -0.2564  0.3750  0.5225
  280TMC3     H 4231   4.381   0.546   0.331  2.3760  1.0106  1.4387
  280TMC3    H1 4232   4.206   0.931   0.417  0.2021 -0.6282  1.8988
  280TMC3    H2 4233   3.991   0.573   0.493 -1.2317 -0.5245 -1.1806
  280TMC3    C7 4234   4.011   0.839   0.528 -0.5065 -0.0277 -0.6254
  280TMC3    C8 4235   4.146   0.421   0.357  0.5032  0.1859  0.2560
  280TMC3    O1 4236   4.061   0.904   0.619  0.5638 -0.1831  0.0731
  280TMC3    O2 4237   4.025   0.405   0.334  0.0458 -0.1289 -0.1275
  281TMC3    C1 4238   3.953   0.323  13.127  0.0991  0.5468 -0.3064
  281TMC3    C2 4239   3.982   0.424  13.038 -0.3811  0.0645  0.7535
  281TMC3    C3 4240   4.034   0.390  12.921  0.4863 -0.5164  0.9004
  281TMC3    C4 4241   3.963   0.191  13.092 -0.0824 -0.3210 -0.0105
  281TMC3    C5 4242   4.005   0.159  12.972 -0.1392 -0.3249  0.1680
  281TMC3    C6 4243   4.052   0.256  12.885 -0.6822 -0.8609 -0.9592
  281TMC3     C 4244   3.847   0.350  13.224  0.0354 -0.0209 -0.2715
  281TMC3     O 4245   3.819   0.256  13.293 -0.5571 -0.1294 -0.4549
  281TMC3     H 4246   3.999   0.529  13.062 -1.4546  0.3263  0.3733
  281TMC3    H1 4247   3.934   0.115  13.164 -0.0636 -0.0225  0.3072
  281TMC3    H2 4248   4.071   0.236  12.780 -0.4078  0.8445 -1.2463
  281TMC3    C7 4249   3.996   0.020  12.922 -0.6697 -0.0140  0.6849
  281TMC3    C8 4250   3.980   0.462  12.810  0.0176  0.3282  0.2562
  281TMC3    O1 4251   4.049   4.711  12.819  0.0603 -0.0860 -0.0401
  281TMC3    O2 4252   4.053   0.531  12.742  0.2948  0.0274 -0.0179
  282MPD2     C 4253   0.193   1.185  14.788 -0.0879 -0.0755 -0.8320
  282MPD2    C1 4254   0.206   1.318  14.836 -0.6305 -0.2210 -0.4297
  282MPD2    C2 4255   0.224   1.420  14.749 -0.5197 -0.0063  0.3769
  282MPD2    C3 4256   0.214   1.398  14.615  0.0581  0.3086  0.2406
  282MPD2    C4 4257   0.201   1.265  14.567 -0.7330  0.1364  0.5414
  282MPD2    C5 4258   0.191   1.160  14.652 -0.0300 -0.5586  0.5627
  282MPD2     H 4259   0.226   1.525  14.778 -0.7142 -0.5237  2.2347
  282MPD2    H1 4260   0.186   1.242  14.462 -1.9866  2.0610  0.2917
  282MPD2    H2 4261   0.175   1.102  14.855  0.2395 -1.1768 -2.1329
  282MPD2    H3 4262   0.176   1.062  14.608 -0.8889 -0.6160  0.9815
  282MPD2     N 4263   0.219   1.507  14.528  0.3719 -0.8750  0.1244
  282MPD2    H5 4264   0.223   1.599  14.570 -0.7728 -0.8357  0.1450
  282MPD2    N1 4265   0.200   1.350  14.974  0.1574  0.0671  0.3915
  282MPD2    H7 4266   0.212   1.447  15.002  0.8988  0.0435  0.1508
  283TMC3    C1 4267   0.184   1.336  15.210  0.7146  0.0769 -0.1628
  283TMC3    C2 4268   0.169   1.473  15.228  0.3133  0.2740  0.4595
  283TMC3    C3 4269   0.189   1.522  15.353  0.1104  0.6410 -0.2420
  283TMC3    C4 4270   0.224   1.256  15.318  0.1424 -0.3776 -0.4045
  283TMC3    C5 4271   0.227   1.310  15.448  0.7489 -0.4660  0.0092
  283TMC3    C6 4272   0.202   1.443  15.462  0.0687 -0.4580 -0.0081
  283TMC3     C 4273   0.180   1.265  15.081  0.5477 -0.0250 -0.4842
  283TMC3     O 4274   0.154   1.147  15.078  0.0492 -0.7158 -0.7854
  283TMC3     H 4275   0.150   1.537  15.143 -2.1861  0.0200  0.8222
  283TMC3    H1 4276   0.245   1.151  15.297 -0.0528 -0.9101  2.0244
  283TMC3    H2 4277   0.218   1.488  15.559  3.1634 -1.1477 -0.2125
  283TMC3    C7 4278   0.200   1.228  15.571  0.4751 -0.3851 -0.2254
  283TMC3    C8 4279   0.167   1.663  15.386  0.0345 -0.3085  0.4903
  283TMC3    O1 4280   0.152   1.294  15.662 -0.6065 -0.0594 -0.1600
  283TMC3    O2 4281   0.140   1.690  15.502 -0.2103  0.0874 -0.0084
  284MPD2     C 4282   3.016   0.801  11.667  0.3968  0.0552 -0.3458
  284MPD2    C1 4283   3.127   0.716  11.669 -1.0356  0.3876  0.5096
  284MPD2    C2 4284   3.121   0.586  11.708  0.3531 -0.5272  0.2103
  284MPD2    C3 4285   2.995   0.542  11.763  0.3160 -0.4098 -0.3950
  284MPD2    C4 4286   2.884   0.624  11.756  0.2982 -0.2729  0.1556
  284MPD2    C5 4287   2.900   0.752  11.710 -0.8231  0.2809 -0.5463
  284MPD2     H 4288   3.207   0.520  11.704  1.1880  0.5340  0.4798
  284MPD2    H1 4289   2.786   0.581  11.775  0.2792 -1.1925 -1.9695
  284MPD2    H2 4290   3.017   0.906  11.639  0.0901  0.6794  1.9546
  284MPD2    H3 4291   2.818   0.824  11.710 -1.6685 -0.6705 -1.6726
  284MPD2     N 4292   2.986   0.405  11.795  0.0425  0.2963  0.2247
  284MPD2    H5 4293   2.892   0.367  11.791  0.1919 -0.2780  2.0433
  284MPD2    N1 4294   3.256   0.767  11.631 -0.1940  0.4302 -0.2543
  284MPD2    H7 4295   3.338   0.711  11.654  1.5300  1.5836 -3.6637
  285TMC3    C1 4296   3.413   0.896  11.533 -1.0738 -0.3335 -0.3981
  285TMC3    C2 4297   3.477   0.776  11.506 -0.5088  0.1906 -0.2557
  285TMC3    C3 4298   3.609   0.789  11.489  0.2269  0.0006 -1.2084
  285TMC3    C4 4299   3.470   1.011  11.564 -0.1998 -0.8281 -0.0045
  285TMC3    C5 4300   3.609   1.019  11.537  0.6996  0.1580 -0.0731
  285TMC3    C6 4301   3.677   0.907  11.496 -0.4735 -0.4575  0.7250
  285TMC3     C 4302   3.275   0.885  11.556 -0.2095 -0.8673 -0.0550
  285TMC3     O 4303   3.204   0.981  11.528 -0.5992 -0.0243  0.4850
  285TMC3     H 4304   3.425   0.685  11.476  4.2610 -2.3702 -0.7399
  285TMC3    H1 4305   3.408   1.096  11.590 -0.2642 -0.2977 -1.8337
  285TMC3    H2 4306   3.783   0.911  11.475  0.2252  0.7544  4.4764
  285TMC3    C7 4307   3.690   1.127  11.568  0.2953  0.1897  0.1890
  285TMC3    C8 4308   3.661   0.695  11.395  0.2451 -0.1048  1.0384
  285TMC3    O1 4309   3.639   1.234  11.551  0.5814  0.0895  0.2365
  285TMC3    O2 4310   3.577   0.647  11.320  0.6174  0.2673  0.0535
  286MPD2     C 4311   3.922   4.593   1.807  0.2890  0.3390  0.0685
  286MPD2    C1 4312   3.893   4.535   1.686  0.7082 -0.7021  0.1805
  286MPD2    C2 4313   3.967   4.430   1.640  0.4524  0.4277 -0.3695
  286MPD2    C3 4314   4.083   4.389   1.706  0.3180  0.2121 -0.4054
  286MPD2    C4 4315   4.123   4.462   1.812 -0.3892 -0.3066 -0.1065
  286MPD2    C5 4316   4.037   4.555   1.869 -0.3200 -0.0677 -0.3360
  286MPD2     H 4317   3.937   4.381   1.548 -0.1756  0.3945 -0.1483
  286MPD2    H1 4318   4.214   4.430   1.860  0.5877 -2.1532 -3.1995
  286MPD2    H2 4319   3.861   4.673   1.849 -1.6731 -0.9499 -0.3335
  286MPD2    H3 4320   4.063   4.602   1.964  2.1497 -2.4405  0.1709
  286MPD2     N 4321   4.173   4.287   1.650  0.2350 -0.6081  0.2535
  286MPD2    H5 4322   4.262   4.284   1.699  1.1987  1.9206 -1.3233
  286MPD2    N1 4323   3.771   4.567   1.617  0.7597 -0.1862  0.7696
  286MPD2    H7 4324   3.730   4.506   1.546  1.0684 -0.8004  1.1150
  287TMC3    C1 4325   4.277   4.145   1.488  0.1112 -0.2562  0.1967
  287TMC3    C2 4326   4.266   4.059   1.385 -0.3976  0.4842 -0.2077
  287TMC3    C3 4327   4.380   3.999   1.340  0.5947 -0.1840  0.6709
  287TMC3    C4 4328   4.399   4.181   1.537  0.3553  0.1364 -0.4028
  287TMC3    C5 4329   4.511   4.116   1.491  0.6060 -0.6190 -0.4924
  287TMC3    C6 4330   4.501   4.011   1.402 -0.1532 -0.3114  0.0820
  287TMC3     C 4331   4.154   4.208   1.534 -0.6048  0.0284  0.7193
  287TMC3     O 4332   4.048   4.191   1.467  0.4227 -0.3190 -0.3279
  287TMC3     H 4333   4.177   4.058   1.322 -2.9819 -1.7135  3.5431
  287TMC3    H1 4334   4.397   4.256   1.614 -0.0667 -2.5515  2.2261
  287TMC3    H2 4335   4.586   3.971   1.348  0.1348  1.9343 -1.1578
  287TMC3    C7 4336   4.624   4.136   1.565  0.1597  0.4287  1.3011
  287TMC3    C8 4337   4.367   3.913   1.224 -0.9169 -0.1602  0.7799
  287TMC3    O1 4338   4.624   4.231   1.641 -0.3949  0.4897 -0.4996
  287TMC3    O2 4339   4.270   3.837   1.211 -0.5317 -0.2145  0.5400
  288TMC3    C1 4340   1.330   4.139  14.236 -0.4539  0.2402  0.7834
  288TMC3    C2 4341   1.243   4.126  14.337  0.0092 -0.2436  0.0945
  288TMC3    C3 4342   1.248   4.216  14.440  0.3067 -0.2023 -0.0439
  288TMC3    C4 4343   1.423   4.237  14.241  0.2098 -0.4673  0.4654
  288TMC3    C5 4344   1.425   4.327  14.345  0.1072 -0.1789 -0.5491
  288TMC3    C6 4345   1.329   4.325  14.444  0.3036 -0.0302 -0.7744
  288TMC3     C 4346   1.297   4.054  14.121  0.2123  0.0727  0.2112
  288TMC3     O 4347   1.220   3.967  14.149 -0.8078  0.2111  0.6430
  288TMC3     H 4348   1.161   4.055  14.344 -0.7826  0.6132 -0.5589
  288TMC3    H1 4349   1.507   4.242  14.173 -2.0046  1.8861 -2.1510
  288TMC3    H2 4350   1.317   4.412  14.507 -0.0986  0.6554 -1.7834
  288TMC3    C7 4351   1.518   4.441  14.318 -0.0848  0.8376  0.2052
  288TMC3    C8 4352   1.196   4.192  14.572 -0.4099  0.6362 -0.1660
  288TMC3    O1 4353   1.577   4.456  14.212  0.1872 -0.3782  0.5794
  288TMC3    O2 4354   1.247   4.258  14.663 -0.4713 -0.0508  0.3986
  289MPD2     C 4355   1.121   3.125  14.394 -0.1157  0.4448 -0.0350
  289MPD2    C1 4356   1.133   3.248  14.325  0.1558 -0.1788 -0.5379
  289MPD2    C2 4357   1.039   3.278  14.226  0.2771  0.6503 -0.0099
  289MPD2    C3 4358   0.934   3.185  14.198  0.6546 -0.6194 -0.0311
  289MPD2    C4 4359   0.917   3.075  14.268  0.6464 -0.5762 -0.0174
  289MPD2    C5 4360   1.010   3.042  14.371  0.2904 -1.4289  0.0038
  289MPD2     H 4361   1.049   3.380  14.190 -0.9504 -0.3079 -3.0704
  289MPD2    H1 4362   0.844   3.008  14.226  0.5517 -0.0315 -0.7316
  289MPD2    H2 4363   1.193   3.094  14.469 -0.0900 -0.0230 -0.2555
  289MPD2    H3 4364   0.997   2.952  14.430  0.8737 -0.1286  2.1432
  289MPD2     N 4365   0.832   3.222  14.109  0.8400  0.5754 -0.2576
  289MPD2    H5 4366   0.749   3.165  14.108  1.3342 -0.1315 -1.0363
  289MPD2    N1 4367   1.228   3.336  14.372  0.0870 -0.2084  0.0551
  289MPD2    H7 4368   1.263   3.302  14.461  2.1387 -0.6818 -0.9216
  290TMC3    C1 4369   0.692   3.380  13.997 -0.7461  0.4139  0.7607
  290TMC3    C2 4370   0.662   3.515  13.986 -0.3521 -0.2418  0.0550
  290TMC3    C3 4371   0.530   3.552  13.963  1.0444 -0.8981  0.7100
  290TMC3    C4 4372   0.594   3.285  13.979  0.7287  0.2889  0.1960
  290TMC3    C5 4373   0.462   3.320  13.958 -0.1472 -0.4280 -0.4345
  290TMC3    C6 4374   0.433   3.452  13.949 -0.0716  0.2433  0.4821
  290TMC3     C 4375   0.831   3.333  14.026  0.3590 -0.8665 -1.1179
  290TMC3     O 4376   0.909   3.418  13.988  0.9592 -0.1465 -0.5258
  290TMC3     H 4377   0.740   3.590  13.993 -0.1098 -0.4435 -0.5017
  290TMC3    H1 4378   0.626   3.181  13.979  0.2682  0.1372 -2.5718
  290TMC3    H2 4379   0.330   3.482  13.935 -0.8374 -1.9223  1.4105
  290TMC3    C7 4380   0.363   3.218  13.917  0.4916  1.3726 -0.3583
  290TMC3    C8 4381   0.476   3.685  14.008  0.5123 -0.2154 -0.2096
  290TMC3    O1 4382   0.252   3.267  13.885 -0.3346  0.2247  0.3475
  290TMC3    O2 4383   0.355   3.685  14.030  0.3360  0.3799 -0.0286
  291MPD2     C 4384   0.159   2.906   0.077  0.0254  0.6551  0.0382
  291MPD2    C1 4385   0.102   2.827  17.688 -0.5100  0.6558 -0.2556
  291MPD2    C2 4386   0.171   2.791  17.580 -0.2715 -0.0371  0.3379
  291MPD2    C3 4387   0.299   2.830  17.567 -0.1437 -0.4647  0.2493
  291MPD2    C4 4388   0.348   2.922  17.647  0.7575 -0.3979 -0.5307
  291MPD2    C5 4389   0.284   2.955   0.059 -0.3462 -0.4780 -0.0952
  291MPD2     H 4390   0.124   2.721  17.511 -0.1919  1.0829 -0.8521
  291MPD2    H1 4391   0.453   2.949  17.640  0.7883 -1.1298 -2.6742
  291MPD2    H2 4392   0.106   2.946   0.164 -1.2219 -0.6620 -0.1160
  291MPD2    H3 4393   0.329   3.031   0.121  0.5417 -0.9266 -0.1919
  291MPD2     N 4394   0.387   2.789  17.465  0.2433  0.5310 -0.0414
  291MPD2    H5 4395   0.486   2.808  17.470  0.2122  0.8942 -0.9222
  291MPD2    N1 4396   4.701   2.772  17.699 -0.0662 -0.2263  0.2122
  291MPD2    H7 4397   4.676   2.722  17.614  2.1554 -0.2279 -0.4453
  292TMC3    C1 4398   4.477   2.730   0.067  0.0876 -0.2485  0.0509
  292TMC3    C2 4399   4.384   2.737   0.166 -0.9669 -0.4232 -0.3678
  292TMC3    C3 4400   4.257   2.687   0.143  0.0650  0.3947 -0.3555
  292TMC3    C4 4401   4.446   2.665  17.652 -0.4429  0.1752  0.3682
  292TMC3    C5 4402   4.318   2.619  17.634 -0.1563  0.3836  0.5053
  292TMC3    C6 4403   4.220   2.630   0.025 -0.0378  0.2579  0.0923
  292TMC3     C 4404   4.615   2.786   0.099 -0.1549 -0.2870  0.2084
  292TMC3     O 4405   4.636   2.827   0.217  0.4321  0.0802  0.1959
  292TMC3     H 4406   4.417   2.760   0.267  0.2476  2.7247 -1.4639
  292TMC3    H1 4407   4.517   2.660  17.570 -1.0118 -0.9186 -0.0573
  292TMC3    H2 4408   4.143   2.554   0.027 -1.0500  1.2239 -2.0169
  292TMC3    C7 4409   4.304   2.507  17.534  0.6669 -0.2780  0.7575
  292TMC3    C8 4410   4.183   2.647   0.262 -0.0496 -0.2617 -0.1127
  292TMC3    O1 4411   4.405   2.438  17.521  0.1542  0.5951  0.1888
  292TMC3    O2 4412   4.234   2.661   0.371  0.5773  0.2880 -0.2093
  293MPD2     C 4413   1.878   0.000  12.490  0.9392  0.4071 -0.0665
  293MPD2    C1 4414   1.831   4.628  12.574  0.7336  0.9350 -0.1719
  293MPD2    C2 4415   1.900   4.611  12.687 -0.3674  0.2654  0.3857
  293MPD2    C3 4416   2.005   4.694  12.724 -0.0385  0.4243 -0.4528
  293MPD2    C4 4417   2.051   0.051  12.631  0.3366 -0.7345 -0.6700
  293MPD2    C5 4418   1.991   0.068  12.510 -0.2301  0.3536 -0.1924
  293MPD2     H 4419   1.864   4.533  12.754  1.0404 -2.4324 -1.9869
  293MPD2    H1 4420   2.149   0.097  12.640  0.1541 -0.4853  0.0883
  293MPD2    H2 4421   1.836   0.020  12.392  0.3669  1.5166  0.4011
  293MPD2    H3 4422   2.020   0.142  12.437 -0.3119  3.6439  3.1444
  293MPD2     N 4423   2.074   4.679  12.846 -0.4140 -0.3897  0.2531
  293MPD2    H5 4424   2.050   4.598  12.902  0.6174 -1.3042 -0.6220
  293MPD2    N1 4425   1.732   4.542  12.517  0.0966  0.4874  0.2389
  293MPD2    H7 4426   1.681   4.586  12.442  1.3847 -0.0519 -0.9519
  294TMC3    C1 4427   1.562   4.381  12.500 -0.0192  0.5241  0.4119
  294TMC3    C2 4428   1.514   4.253  12.534 -0.2831  0.6455 -0.0220
  294TMC3    C3 4429   1.418   4.195  12.448  0.1119 -0.1619  0.7681
  294TMC3    C4 4430   1.521   4.454  12.396 -0.2396 -0.8359  0.2144
  294TMC3    C5 4431   1.427   4.385  12.319  0.2508  0.2421  0.2557
  294TMC3    C6 4432   1.376   4.256  12.341  0.2196 -0.3439 -0.4620
  294TMC3     C 4433   1.677   4.430  12.574 -0.1154  0.1416  0.1566
  294TMC3     O 4434   1.706   4.371  12.678 -0.0830 -0.3898  0.9489
  294TMC3     H 4435   1.543   4.203  12.625 -1.1528  0.4453  0.1469
  294TMC3    H1 4436   1.569   4.544  12.358 -1.8147  0.5374  1.4641
  294TMC3    H2 4437   1.299   4.211  12.279 -0.5170  1.6618 -1.0174
  294TMC3    C7 4438   1.382   4.458  12.205  0.8477  0.1028 -0.4297
  294TMC3    C8 4439   1.348   4.080  12.497 -0.5245 -0.3690  0.0534
  294TMC3    O1 4440   1.381   4.580  12.213  0.2719  0.3707  0.3552
  294TMC3    O2 4441   1.377   4.043  12.608  0.3971  0.1679  0.0488
  295MPD2     C 4442   1.829   3.073  17.262 -0.2842  0.2546 -0.2528
  295MPD2    C1 4443   1.915   3.069  17.369  0.1253  0.1281  0.3251
  295MPD2    C2 4444   1.858   3.121  17.482 -0.5480 -0.4299  0.0628
  295MPD2    C3 4445   1.745   3.199  17.498 -0.4882  0.1032  0.1370
  295MPD2    C4 4446   1.663   3.197  17.388 -0.7059 -0.2256 -0.1883
  295MPD2    C5 4447   1.705   3.127  17.281 -0.8337 -0.1454  0.6621
  295MPD2     H 4448   1.915   3.104  17.572 -0.3709  1.7665  0.3721
  295MPD2    H1 4449   1.563   3.236  17.404  0.2340  0.7513  3.3935
  295MPD2    H2 4450   1.849   3.027  17.166  0.5945  0.5114 -0.1951
  295MPD2    H3 4451   1.637   3.122  17.197 -0.7622 -2.6561  0.7713
  295MPD2     N 4452   1.703   3.232  17.628  0.6634 -0.1225  0.6342
  295MPD2    H5 4453   1.604   3.255  17.634  0.4143 -1.1780  0.6549
  295MPD2    N1 4454   2.050   3.026  17.365  0.3485 -0.7764  0.1089
  295MPD2    H7 4455   2.089   3.027  17.459  0.5977  0.8858 -0.0161
  296TMC3    C1 4456   1.709   3.278   0.156 -0.7235  0.6011  0.4880
  296TMC3    C2 4457   1.776   3.362   0.241 -0.5245  0.2996 -0.5230
  296TMC3    C3 4458   1.715   3.416   0.351 -0.3261 -0.7069  0.2454
  296TMC3    C4 4459   1.575   3.251   0.167  0.2513 -0.2375  0.4206
  296TMC3    C5 4460   1.518   3.296   0.282 -0.2350  0.5213 -0.4649
  296TMC3    C6 4461   1.582   3.382   0.377  0.0444  0.3105 -0.7985
  296TMC3     C 4462   1.784   3.246   0.037  0.6705  0.5260 -0.4005
  296TMC3     O 4463   1.906   3.246   0.044 -1.3772  0.2047 -0.3813
  296TMC3     H 4464   1.881   3.378   0.221 -0.2543  1.9677  2.2390
  296TMC3    H1 4465   1.521   3.181   0.104 -1.1971  2.5984 -1.4592
  296TMC3    H2 4466   1.534   3.432   0.460  0.3277  0.1206 -0.5220
  296TMC3    C7 4467   1.397   3.226   0.321 -0.3293 -0.3695  0.1325
  296TMC3    C8 4468   1.774   3.543   0.396  0.1881  0.3779 -0.8407
  296TMC3    O1 4469   1.342   3.152   0.239 -0.4827  0.2253  0.2376
  296TMC3    O2 4470   1.844   3.599   0.312  0.1028 -0.3726  0.0026
  297MPD2     C 4471   4.349   0.518  16.608  0.2903 -0.2721 -0.9589
  297MPD2    C1 4472   4.306   0.613  16.520 -0.0727  0.0608 -0.1731
  297MPD2    C2 4473   4.395   0.689  16.448  0.7407  0.4610  0.5079
  297MPD2    C3 4474   4.532   0.672  16.466 -0.6288 -0.1186  0.0106
  297MPD2    C4 4475   4.577   0.583  16.558 -0.1888  0.9973 -0.5224
  297MPD2    C5 4476   4.484   0.499  16.620  0.5446  0.6495  0.0272
  297MPD2     H 4477   4.351   0.769  16.390 -2.6108 -4.0190 -3.1326
  297MPD2    H1 4478   4.681   0.556  16.567 -0.5097 -0.7097 -1.8595
  297MPD2    H2 4479   4.286   0.454  16.669  1.0335  0.3157  0.4206
  297MPD2    H3 4480   4.519   0.421  16.687  0.7595 -0.9088 -1.9147
  297MPD2     N 4481   4.614   0.731  16.366 -0.2895  0.0489 -0.2337
  297MPD2    H5 4482   4.574   0.806  16.311  0.4226  0.7455  0.1858
  297MPD2    N1 4483   4.172   0.622  16.485  0.0825  0.1281 -0.0052
  297MPD2    H7 4484   4.143   0.680  16.408  2.1399  0.4876 -0.4938
  298TMC3    C1 4485   3.932   0.589  16.475 -0.4285 -0.2414 -0.7775
  298TMC3    C2 4486   3.942   0.616  16.346  0.2067  0.3418  0.1415
  298TMC3    C3 4487   3.824   0.660  16.282  0.1554 -0.0512  0.5589
  298TMC3    C4 4488   3.818   0.594  16.542  0.4337  0.3122 -0.5413
  298TMC3    C5 4489   3.704   0.645  16.487  0.5225  0.6992 -0.4272
  298TMC3    C6 4490   3.702   0.674  16.348  0.2090  1.0671 -0.0963
  298TMC3     C 4491   4.060   0.554  16.543  0.2231  0.3546  0.0757
  298TMC3     O 4492   4.049   0.487  16.643 -0.0966 -0.9434 -0.5407
  298TMC3     H 4493   4.027   0.585  16.286  0.3890  0.5549  0.2901
  298TMC3    H1 4494   3.823   0.591  16.650 -0.0105  2.0518 -0.4643
  298TMC3    H2 4495   3.624   0.731  16.300  0.1490  1.0969  0.0346
  298TMC3    C7 4496   3.601   0.701  16.572  0.1950 -0.1419  0.1100
  298TMC3    C8 4497   3.825   0.692  16.138 -0.2050 -0.5997  0.3354
  298TMC3    O1 4498   3.645   0.750  16.675  0.1819 -0.3374  0.4718
  298TMC3    O2 4499   3.714   0.700  16.083  0.1187 -0.1193  0.3202
  299MPD2     C 4500   0.288   4.156  10.746 -0.4854  0.2651  0.5197
  299MPD2    C1 4501   0.298   4.283  10.689  0.1753 -0.3698 -0.6957
  299MPD2    C2 4502   0.212   4.319  10.583 -0.2622 -0.1323  1.2482
  299MPD2    C3 4503   0.116   4.234  10.537 -0.2555 -0.1511 -0.0945
  299MPD2    C4 4504   0.105   4.111  10.601 -1.1081 -0.3201 -0.1315
  299MPD2    C5 4505   0.179   4.077  10.712  0.1434 -0.4318 -0.2442
  299MPD2     H 4506   0.221   4.420  10.544 -1.4086  0.3467  2.2109
  299MPD2    H1 4507   0.041   4.029  10.568 -1.4784  0.0580 -0.3563
  299MPD2    H2 4508   0.351   4.132  10.831  0.8541  1.6356 -0.0802
  299MPD2    H3 4509   0.170   3.985  10.769 -1.6552 -0.2341 -0.1791
  299MPD2     N 4510   0.023   4.249  10.435 -0.6282 -0.2332  1.2427
  299MPD2    H5 4511   4.681   4.175  10.419  0.3027 -0.5589 -1.1941
  299MPD2    N1 4512   0.383   4.375  10.749 -0.6465 -0.0108  1.1414
  299MPD2    H7 4513   0.428   4.345  10.835  0.1661 -2.9195 -0.2953
  300TMC3    C1 4514   4.622   4.384  10.277 -0.6364 -0.1759 -0.1000
  300TMC3    C2 4515   4.608   4.504  10.215  0.2823  0.0664 -1.1666
  300TMC3    C3 4516   4.488   4.561  10.198 -0.4711 -0.5150  0.1688
  300TMC3    C4 4517   4.509   4.319  10.316  0.5214  0.5946 -0.3842
  300TMC3    C5 4518   4.393   4.386  10.303 -0.6773  0.9539 -0.0032
  300TMC3    C6 4519   4.380   4.509  10.253 -0.1582 -0.7785 -0.5814
  300TMC3     C 4520   0.014   4.370  10.361 -0.0817 -0.8465  0.1806
  300TMC3     O 4521   0.087   4.469  10.364  0.0863 -0.2841 -0.0612
  300TMC3     H 4522   4.695   4.558  10.179 -0.5376  0.1997 -2.9776
  300TMC3    H1 4523   4.517   4.219  10.358  2.1908  0.5527 -0.7684
  300TMC3    H2 4524   4.280   4.549  10.239  0.8838  1.5445 -1.2014
  300TMC3    C7 4525   4.279   4.319  10.361 -0.6011  0.1799 -0.5679
  300TMC3    C8 4526   4.497   4.704  10.213 -0.0307  0.4101 -0.5510
  300TMC3    O1 4527   4.279   4.200  10.341 -0.3486 -0.8013  0.0905
  300TMC3    O2 4528   4.602   0.025  10.261  0.1963 -0.1438 -0.2505
  301MPD2     C 4529   1.094   1.954   1.863  0.6345 -0.0249  0.2980
  301MPD2    C1 4530   1.065   1.933   1.729  0.4922  0.4003  0.0613
  301MPD2    C2 4531   1.070   1.809   1.671  0.2535 -0.0963 -0.0994
  301MPD2    C3 4532   1.117   1.698   1.746  0.0502 -0.7653 -0.4111
  301MPD2    C4 4533   1.144   1.722   1.878 -0.0931  1.1762  0.3633
  301MPD2    C5 4534   1.130   1.841   1.937 -0.5293 -0.0677 -0.0773
  301MPD2     H 4535   1.047   1.796   1.566  1.4748 -1.2288 -0.2232
  301MPD2    H1 4536   1.177   1.644   1.945  1.9758  1.5848 -0.1801
  301MPD2    H2 4537   1.086   2.050   1.913 -0.0742  0.1054 -0.0717
  301MPD2    H3 4538   1.159   1.852   2.041  3.5382 -2.9875 -0.9242
  301MPD2     N 4539   1.146   1.572   1.697  0.5688 -0.2643 -0.3328
  301MPD2    H5 4540   1.186   1.509   1.765 -0.1202 -0.4050 -0.0584
  301MPD2    N1 4541   1.040   2.043   1.643  0.2051  0.2426  0.1417
  301MPD2    H7 4542   1.018   2.030   1.545 -1.2704 -1.8969  0.7409
  302TMC3    C1 4543   1.197   1.408   1.539  0.2050  0.6790 -0.1869
  302TMC3    C2 4544   1.303   1.364   1.620  0.1401  0.2055  0.1503
  302TMC3    C3 4545   1.383   1.278   1.556  0.2075 -1.3871 -0.2412
  302TMC3    C4 4546   1.165   1.352   1.419 -1.0007  0.5806  0.6894
  302TMC3    C5 4547   1.254   1.263   1.365 -0.0881  0.3091  0.3586
  302TMC3    C6 4548   1.359   1.226   1.430 -0.0107 -0.0383 -0.0915
  302TMC3     C 4549   1.140   1.538   1.565  0.3602  0.7253  0.3710
  302TMC3     O 4550   1.115   1.602   1.463  0.8293 -0.4775 -0.3010
  302TMC3     H 4551   1.328   1.411   1.715  1.1588 -1.9368  0.9386
  302TMC3    H1 4552   1.076   1.380   1.364 -1.2982  1.7834  1.7999
  302TMC3    H2 4553   1.430   1.162   1.380  1.4413  0.8279  0.8845
  302TMC3    C7 4554   1.244   1.223   1.224  0.1279  0.1504  0.3301
  302TMC3    C8 4555   1.521   1.261   1.595  0.2965  0.6168 -0.3606
  302TMC3    O1 4556   1.333   1.153   1.174 -0.1520 -0.0613  0.4260
  302TMC3    O2 4557   1.605   1.244   1.508  0.3206 -0.2397  0.0143
  303MPD2     C 4558   2.045   4.185  10.686  0.7224  0.3163  0.0453
  303MPD2    C1 4559   1.961   4.074  10.689  0.2337 -0.2329 -0.0567
  303MPD2    C2 4560   1.898   4.040  10.570  0.5067 -0.3317  0.2827
  303MPD2    C3 4561   1.910   4.113  10.452  1.1968 -0.1631 -0.0158
  303MPD2    C4 4562   1.994   4.224  10.459  0.6789 -0.1417  0.0476
  303MPD2    C5 4563   2.061   4.264  10.572 -0.3196 -0.8672 -0.6313
  303MPD2     H 4564   1.826   3.959  10.566  2.0538 -1.7378  0.5806
  303MPD2    H1 4565   2.014   4.293  10.378 -0.3446  0.7450  0.5643
  303MPD2    H2 4566   2.088   4.213  10.782 -1.2803  1.3037  0.6461
  303MPD2    H3 4567   2.122   4.353  10.578  0.8172 -1.6624 -0.4295
  303MPD2     N 4568   1.849   4.077  10.327 -0.0930  0.3117  0.6677
  303MPD2    H5 4569   1.879   4.118  10.240  1.3099 -0.8034  0.6380
  303MPD2    N1 4570   1.951   4.000  10.806  0.3107  0.1189  0.0145
  303MPD2    H7 4571   2.021   4.012  10.879  0.1852 -0.6002  0.2500
  304TMC3    C1 4572   1.918   3.807  10.934 -0.6248 -0.5445 -0.0380
  304TMC3    C2 4573   1.824   3.747  11.003 -0.5886  0.0352 -0.0499
  304TMC3    C3 4574   1.844   3.629  11.068 -0.1170  1.2788  0.1290
  304TMC3    C4 4575   2.040   3.754  10.913 -0.3879  0.8617 -0.3712
  304TMC3    C5 4576   2.054   3.622  10.966 -0.2286  0.2269 -0.4600
  304TMC3    C6 4577   1.965   3.567  11.057  0.2567  0.1595  0.1732
  304TMC3     C 4578   1.869   3.890  10.825 -0.1153  1.0238  0.3230
  304TMC3     O 4579   1.763   3.853  10.774  0.0547 -0.0345  0.1560
  304TMC3     H 4580   1.722   3.784  11.006  0.2688  2.6622 -2.2738
  304TMC3    H1 4581   2.110   3.787  10.837  0.9139 -1.2024 -0.0691
  304TMC3    H2 4582   1.983   3.470  11.101  0.5561  0.3611  0.4944
  304TMC3    C7 4583   2.090   3.523  10.870  0.2077  0.8381 -0.7721
  304TMC3    C8 4584   1.727   3.539  11.072 -0.1241  0.2728 -0.0938
  304TMC3    O1 4585   2.030   3.420  10.891 -0.3560 -0.4283  0.5009
  304TMC3    O2 4586   1.619   3.583  11.103  0.1991 -0.1800  0.2332
  305MPD2     C 4587   0.556   1.808  14.373 -0.3336 -0.3616 -0.4614
  305MPD2    C1 4588   0.555   1.675  14.388 -0.0165  0.0529  0.1700
  305MPD2    C2 4589   0.523   1.590  14.287  0.6753 -0.9096 -0.0922
  305MPD2    C3 4590   0.493   1.645  14.161 -0.2931 -0.6571  0.1032
  305MPD2    C4 4591   0.499   1.782  14.147 -0.2208 -1.3228 -0.2689
  305MPD2    C5 4592   0.530   1.859  14.249 -0.0443 -0.2760 -0.3908
  305MPD2     H 4593   0.530   1.483  14.298 -0.4683 -0.9323  0.3597
  305MPD2    H1 4594   0.499   1.836  14.052 -0.7336  0.9183  1.0083
  305MPD2    H2 4595   0.600   1.871  14.450 -2.0921 -1.0021  1.0863
  305MPD2    H3 4596   0.524   1.967  14.241 -0.1177 -0.1578  1.2880
  305MPD2     N 4597   0.462   1.577  14.047 -1.0886 -0.2741 -0.9063
  305MPD2    H5 4598   0.427   1.636  13.972  2.0302  0.2657 -1.9477
  305MPD2    N1 4599   0.594   1.640  14.517  0.0985 -0.6230  0.5530
  305MPD2    H7 4600   0.603   1.719  14.581  0.1465 -1.8037  2.0228
  306TMC3    C1 4601   0.679   1.528  14.714 -0.2488  0.5022  0.5856
  306TMC3    C2 4602   0.774   1.434  14.755 -0.3242 -1.0331  0.3300
  306TMC3    C3 4603   0.838   1.435  14.872  0.7773 -0.3012 -0.1893
  306TMC3    C4 4604   0.660   1.634  14.794  0.4331 -0.5002  0.5343
  306TMC3    C5 4605   0.722   1.641  14.917 -0.2402 -0.4179 -0.6362
  306TMC3    C6 4606   0.806   1.538  14.959  0.4142 -0.6888  0.3534
  306TMC3     C 4607   0.633   1.521  14.572  0.3019  0.1117  0.3053
  306TMC3     O 4608   0.636   1.417  14.517 -0.2961 -0.1767  0.2560
  306TMC3     H 4609   0.785   1.349  14.688 -0.6329 -0.4514 -0.4695
  306TMC3    H1 4610   0.589   1.707  14.758  0.6562 -0.2741  0.5505
  306TMC3    H2 4611   0.855   1.550  15.055  0.0125  1.4627  0.2877
  306TMC3    C7 4612   0.672   1.737  15.019 -0.2240 -0.5350  0.5436
  306TMC3    C8 4613   0.940   1.337  14.899 -0.1935 -0.0170  0.6545
  306TMC3    O1 4614   0.549   1.754  15.009  0.2323 -0.2277 -0.2321
  306TMC3    O2 4615   0.988   1.299  14.797  0.0430  0.0090 -0.0229
  307MPD2     C 4616   2.931   3.781   0.572 -0.6681 -0.4236  0.4802
  307MPD2    C1 4617   2.969   3.912   0.576  0.5520 -0.3980 -0.0473
  307MPD2    C2 4618   2.950   3.981   0.694 -0.0093 -0.4152  0.1924
  307MPD2    C3 4619   2.883   3.934   0.801 -0.1290 -0.1645  0.1033
  307MPD2    C4 4620   2.856   3.798   0.804  0.1156  0.1530 -0.1503
  307MPD2    C5 4621   2.885   3.725   0.686 -0.2228 -0.1963  0.4496
  307MPD2     H 4622   2.983   4.084   0.698  0.6202 -0.6449  0.9392
  307MPD2    H1 4623   2.818   3.739   0.886 -0.9641  0.1441 -0.6681
  307MPD2    H2 4624   2.950   3.727   0.479 -0.6248 -0.0761  0.2855
  307MPD2    H3 4625   2.868   3.618   0.689 -0.9864 -0.0958 -0.1933
  307MPD2     N 4626   2.874   4.019   0.912  0.2866 -0.0445 -0.1045
  307MPD2    H5 4627   2.916   4.111   0.910  3.5164 -1.5008 -1.1316
  307MPD2    N1 4628   3.033   3.975   0.469  1.1824 -0.0332  0.4775
  307MPD2    H7 4629   3.041   4.074   0.487 -2.0273  0.6904 -2.1805
  308TMC3    C1 4630   2.612   4.244   1.168  0.3275  0.7069 -0.6321
  308TMC3    C2 4631   2.704   4.344   1.188  0.5539 -0.3717  0.2778
  308TMC3    C3 4632   2.835   4.309   1.178 -0.0092 -0.1023 -0.2325
  308TMC3    C4 4633   2.643   4.114   1.138  0.2962 -0.2422 -0.1542
  308TMC3    C5 4634   2.775   4.091   1.116 -0.0972 -1.0990 -0.7097
  308TMC3    C6 4635   2.875   4.188   1.134 -0.1365  0.4799  0.1448
  308TMC3     C 4636   2.469   4.273   1.149  0.1813  0.2566 -0.4549
  308TMC3     O 4637   2.386   4.196   1.200  0.0155 -0.6911 -0.4186
  308TMC3     H 4638   2.686   4.447   1.215 -0.7281 -1.1290  2.2940
  308TMC3    H1 4639   2.566   4.039   1.129 -0.7840  0.8881 -0.3425
  308TMC3    H2 4640   2.979   4.176   1.104 -0.3428  3.0992 -1.5635
  308TMC3    C7 4641   2.799   3.981   1.019  0.0117  0.1615  0.0709
  308TMC3    C8 4642   2.939   4.410   1.183 -0.1818 -0.4890 -0.2473
  308TMC3    O1 4643   2.728   3.885   1.040 -0.3438  0.3596 -0.1042
  308TMC3    O2 4644   3.054   4.376   1.215  0.7692  0.3885  0.3390
  309MPD2     C 4645   2.051   4.712  17.244 -0.2112  0.5127  0.7033
  309MPD2    C1 4646   2.026   0.095  17.160 -0.3671 -0.3481 -0.2623
  309MPD2    C2 4647   1.970   0.211  17.211 -0.9404  0.3835  0.1443
  309MPD2    C3 4648   1.923   0.211  17.340 -0.4225 -0.6957 -0.8184
  309MPD2    C4 4649   1.956   0.107  17.417  0.0759  0.1324 -0.2913
  309MPD2    C5 4650   2.017   4.723  17.375  0.2195  0.9891  0.3644
  309MPD2     H 4651   1.963   0.295  17.143  2.3446 -0.8530 -1.7085
  309MPD2    H1 4652   1.921   0.097  17.519  1.0403 -0.8237 -0.0564
  309MPD2    H2 4653   2.097   4.620  17.212 -0.7372  0.0149  1.3818
  309MPD2    H3 4654   2.029   4.640  17.444 -0.9429  1.6451  1.3555
  309MPD2     N 4655   1.833   0.311  17.390  0.2281 -0.2558  0.3913
  309MPD2    H5 4656   1.814   0.315  17.489 -0.8525 -2.9888  0.2933
  309MPD2    N1 4657   2.065   0.095  17.021 -0.2423  0.0049  0.1557
  309MPD2    H7 4658   2.037   0.177  16.967  0.1280  1.8242  2.7585
  310TMC3    C1 4659   2.158   0.027  16.827 -0.0826 -0.0615 -0.1872
  310TMC3    C2 4660   2.104   0.137  16.759 -0.3920  0.3540 -0.4408
  310TMC3    C3 4661   2.164   0.177  16.640 -0.0286 -0.2678  0.0983
  310TMC3    C4 4662   2.273   4.688  16.777  0.3821  0.5441  0.2751
  310TMC3    C5 4663   2.325   0.007  16.666 -0.2137 -0.3004  0.1906
  310TMC3    C6 4664   2.277   0.113  16.592 -0.2370 -0.1519  0.1436
  310TMC3     C 4665   2.137   4.722  16.966 -0.7747  0.0591 -0.2481
  310TMC3     O 4666   2.184   4.617  17.009 -0.6810  0.5681  0.4717
  310TMC3     H 4667   2.008   0.175  16.790 -0.4493  0.6233 -0.9523
  310TMC3    H1 4668   2.305   4.598  16.830 -1.1139  1.1808  2.2473
  310TMC3    H2 4669   2.337   0.151  16.510 -0.2549 -0.6427 -0.1002
  310TMC3    C7 4670   2.458   4.687  16.635 -0.4479 -1.0377  0.2025
  310TMC3    C8 4671   2.111   0.288  16.557 -0.0653 -0.1647  0.4587
  310TMC3    O1 4672   2.505   4.722  16.529 -0.1946  0.1002 -0.8438
  310TMC3    O2 4673   2.174   0.316  16.453 -0.2580 -0.1882  0.0307
  311MPD2     C 4674   4.505   1.246  13.051  0.0235  0.1493  0.5542
  311MPD2    C1 4675   4.538   1.312  12.933  0.4854 -0.6142 -0.5539
  311MPD2    C2 4676   4.437   1.362  12.852  0.4748 -0.5169 -0.0255
  311MPD2    C3 4677   4.305   1.330  12.878 -0.0023  0.6046  0.4783
  311MPD2    C4 4678   4.274   1.254  12.986 -0.0894 -0.1705  0.1804
  311MPD2    C5 4679   4.374   1.224  13.081 -0.0779 -0.1870  0.9245
  311MPD2     H 4680   4.462   1.415  12.761 -0.6840  2.0729  1.1589
  311MPD2    H1 4681   4.173   1.248  13.024 -0.3246 -0.3204 -0.4803
  311MPD2    H2 4682   4.586   1.235  13.122 -1.1530 -1.6558  1.6388
  311MPD2    H3 4683   4.350   1.174  13.174 -2.0379  2.4783  1.8617
  311MPD2     N 4684   4.208   1.384  12.785  0.2436 -0.2756  0.1317
  311MPD2    H5 4685   4.239   1.446  12.711  0.5969 -1.2672 -0.5352
  311MPD2    N1 4686   4.669   1.345  12.903  0.5899  0.2509 -0.3531
  311MPD2    H7 4687   4.681   1.404  12.821  3.4477  0.4886  0.2351
  312TMC3    C1 4688   3.998   1.455  12.707  0.5161 -0.5490  0.0781
  312TMC3    C2 4689   3.868   1.407  12.671  0.6510  0.1875  0.2512
  312TMC3    C3 4690   3.780   1.501  12.625  0.2906  0.4832  0.2327
  312TMC3    C4 4691   4.035   1.591  12.704 -0.0985  0.2383  0.0966
  312TMC3    C5 4692   3.939   1.675  12.651  0.1171  0.5746  0.7483
  312TMC3    C6 4693   3.823   1.628  12.610  0.1544 -0.7755  0.6070
  312TMC3     C 4694   4.075   1.359  12.787 -0.3245  0.6833 -0.2057
  312TMC3     O 4695   4.009   1.267  12.834  0.0082  0.8038  0.0360
  312TMC3     H 4696   3.838   1.303  12.678  0.2395  0.2648 -0.3621
  312TMC3    H1 4697   4.134   1.629  12.726 -0.2294  0.3154  0.5648
  312TMC3    H2 4698   3.754   1.703  12.572  1.1561 -1.3424 -2.3782
  312TMC3    C7 4699   3.943   1.820  12.667  0.9577 -0.5361  1.2825
  312TMC3    C8 4700   3.651   1.456  12.580  0.4026 -0.4027 -0.9287
  312TMC3    O1 4701   3.869   1.886  12.594  0.3528 -0.2221  0.6277
  312TMC3    O2 4702   3.633   1.336  12.586  0.2123  0.3954 -0.1505
  313MPD2     C 4703   3.424   0.429  10.856 -0.2860  0.0602  0.5209
  313MPD2    C1 4704   3.530   0.510  10.861 -0.2655  0.0272 -0.0379
  313MPD2    C2 4705   3.642   0.475  10.781 -0.0097  0.7716  0.2202
  313MPD2    C3 4706   3.651   0.354  10.716 -0.3060 -0.4196 -0.1159
  313MPD2    C4 4707   3.536   0.280  10.706  0.3518 -0.3774  0.5884
  313MPD2    C5 4708   3.422   0.316  10.781 -0.0896 -0.1976 -0.7537
  313MPD2     H 4709   3.723   0.547  10.778 -0.4872  1.2376 -1.5277
  313MPD2    H1 4710   3.536   0.190  10.646 -1.3380  0.0673 -0.0747
  313MPD2    H2 4711   3.337   0.453  10.916  1.7422  2.0046  2.7231
  313MPD2    H3 4712   3.332   0.257  10.769 -0.2203  0.5967 -3.5185
  313MPD2     N 4713   3.763   0.325  10.641  0.0084 -0.2729 -0.2746
  313MPD2    H5 4714   3.831   0.400  10.639 -1.5193  1.0933 -1.4794
  313MPD2    N1 4715   3.538   0.624  10.944  0.0612 -0.1132 -0.0849
  313MPD2    H7 4716   3.628   0.672  10.946  0.0164 -0.0318 -0.0154
  314TMC3    C1 4717   3.436   0.808  11.061 -1.1462  0.4163 -0.2451
  314TMC3    C2 4718   3.560   0.843  11.102  0.1827  0.3708 -0.4889
  314TMC3    C3 4719   3.583   0.972  11.132 -0.5034  0.1533 -0.2277
  314TMC3    C4 4720   3.336   0.906  11.039  0.4324 -0.4385 -0.0072
  314TMC3    C5 4721   3.368   1.033  11.077 -0.1901 -0.9326  0.4790
  314TMC3    C6 4722   3.485   1.068  11.134 -0.8013  0.5417  0.3491
  314TMC3     C 4723   3.424   0.679  11.003 -0.0345  0.0890  0.1725
  314TMC3     O 4724   3.307   0.640  10.998  0.1493  0.0647 -0.0423
  314TMC3     H 4725   3.635   0.765  11.107 -0.3648 -0.1844 -1.0080
  314TMC3    H1 4726   3.236   0.886  11.003  0.2529  1.2309 -0.4081
  314TMC3    H2 4727   3.507   1.171  11.156  2.9129 -0.2899  0.5808
  314TMC3    C7 4728   3.320   1.136  10.993  0.2409 -0.0728 -0.4024
  314TMC3    C8 4729   3.720   1.015  11.143  0.2124 -0.0519 -0.3340
  314TMC3    O1 4730   3.301   1.252  11.033  0.1578 -0.0667 -0.5215
  314TMC3    O2 4731   3.732   1.138  11.128  0.4699  0.1674  0.1811
  315MPD2     C 4732   3.242   0.395  17.580  0.0566 -0.0472 -0.4621
  315MPD2    C1 4733   3.274   0.399   0.006  0.2956 -0.3238 -1.1963
  315MPD2    C2 4734   3.263   0.513   0.076 -0.0088 -0.1812 -1.1051
  315MPD2    C3 4735   3.209   0.629   0.019  0.2491  0.3068 -0.3697
  315MPD2    C4 4736   3.162   0.619  17.595 -0.2781 -0.0308 -0.4506
  315MPD2    C5 4737   3.186   0.505  17.521  0.3088  0.2497  0.6939
  315MPD2     H 4738   3.306   0.516   0.175 -1.2868  0.8379 -0.5914
  315MPD2    H1 4739   3.124   0.706  17.541  1.0754  0.5987 -0.4090
  315MPD2    H2 4740   3.246   0.299  17.529  1.0711 -1.2431  1.8754
  315MPD2    H3 4741   3.161   0.501  17.416 -3.3212  0.3172  1.5521
  315MPD2     N 4742   3.217   0.747   0.098  0.4927 -0.0054 -0.0757
  315MPD2    H5 4743   3.287   0.749   0.171  1.3910  0.9844 -0.9598
  315MPD2    N1 4744   3.333   0.287   0.078 -0.3358 -0.0085 -0.0485
  315MPD2    H7 4745   3.358   0.302   0.175  2.8804 -0.0840 -0.8530
  316TMC3    C1 4746   3.186   0.979   0.150 -0.1113 -0.2886  0.8764
  316TMC3    C2 4747   3.229   0.963   0.271  0.6545 -0.0915 -0.1295
  316TMC3    C3 4748   3.248   1.071   0.352 -0.0803 -0.0097 -0.1951
  316TMC3    C4 4749   3.165   1.107   0.098 -0.0999 -0.3740  0.3894
  316TMC3    C5 4750   3.207   1.214   0.170 -0.0368  0.9149  0.0030
  316TMC3    C6 4751   3.242   1.200   0.302  0.2266  0.9280  0.0357
  316TMC3     C 4752   3.158   0.867   0.061 -0.5654  0.0906  0.1239
  316TMC3     O 4753   3.080   0.886  17.670  0.0303  0.3830  0.6638
  316TMC3     H 4754   3.240   0.870   0.325  0.5697  1.2794  2.2215
  316TMC3    H1 4755   3.134   1.115  17.699  1.0174 -1.7111 -0.0573
  316TMC3    H2 4756   3.262   1.290   0.359  1.3114  0.5522  0.2385
  316TMC3    C7 4757   3.248   1.333   0.098  0.5141  0.5203  0.1145
  316TMC3    C8 4758   3.329   1.059   0.469 -0.5509  0.2949 -0.1932
  316TMC3    O1 4759   3.280   1.420   0.174 -0.0114  0.0470  0.1647
  316TMC3    O2 4760   3.307   1.144   0.554 -0.1379  0.0638 -0.0996
  317MPD2     C 4761   0.749   3.179  12.504  1.2464  0.9078  0.0624
  317MPD2    C1 4762   0.804   3.053  12.493 -0.3167  0.2137  0.0720
  317MPD2    C2 4763   0.860   2.995  12.604  0.5336 -0.3325 -0.0789
  317MPD2    C3 4764   0.881   3.074  12.721 -0.0644  0.3228  0.4265
  317MPD2    C4 4765   0.830   3.201  12.725 -0.8659 -0.1522 -0.4957
  317MPD2    C5 4766   0.762   3.252  12.618  0.8845  0.8294 -0.6645
  317MPD2     H 4767   0.899   2.894  12.605 -0.5117 -0.7503 -0.7862
  317MPD2    H1 4768   0.840   3.264  12.812 -1.5406  0.3206 -0.7649
  317MPD2    H2 4769   0.679   3.211  12.429 -0.6317  0.1301  1.4921
  317MPD2    H3 4770   0.705   3.343  12.632 -0.1534  0.1432 -0.4682
  317MPD2     N 4771   0.956   3.008  12.821  0.1504  0.5042 -0.3597
  317MPD2    H5 4772   0.979   2.912  12.801 -1.8207 -0.1804  0.6936
  317MPD2    N1 4773   0.791   2.973  12.376 -0.0631  0.0256 -0.1693
  317MPD2    H7 4774   0.822   2.877  12.382  3.7519  1.2868  0.0855
  318TMC3    C1 4775   1.055   2.951  13.027  0.4340 -1.2925  0.9640
  318TMC3    C2 4776   0.985   2.830  13.035 -0.4421  0.0054  0.1733
  318TMC3    C3 4777   1.018   2.739  13.130  0.1131  0.3095  1.1515
  318TMC3    C4 4778   1.148   2.985  13.121  0.1599 -0.6076 -0.1603
  318TMC3    C5 4779   1.183   2.888  13.214  0.4188  0.0126 -0.0252
  318TMC3    C6 4780   1.119   2.767  13.218  0.3652 -0.4527 -0.1529
  318TMC3     C 4781   1.003   3.059  12.942 -0.8176 -0.1227 -0.6289
  318TMC3     O 4782   1.004   3.174  12.983 -0.0031  0.3560 -0.1674
  318TMC3     H 4783   0.897   2.810  12.974  0.9126  0.9346 -2.0772
  318TMC3    H1 4784   1.196   3.081  13.106  0.4819 -0.8074 -0.3826
  318TMC3    H2 4785   1.144   2.686  13.285 -1.0556 -1.0121 -0.2904
  318TMC3    C7 4786   1.303   2.912  13.294 -0.1352 -0.0662  0.0586
  318TMC3    C8 4787   0.923   2.642  13.186 -0.2236 -0.3939 -0.2075
  318TMC3    O1 4788   1.339   3.028  13.315 -0.4285 -0.0364 -0.2804
  318TMC3    O2 4789   0.960   2.567  13.275 -0.1335  0.3016 -0.2086
  319MPD2     C 4790   1.789   4.486  16.444 -0.1515  0.6571  0.0971
  319MPD2    C1 4791   1.687   4.397  16.479 -0.0353 -0.3717  0.4934
  319MPD2    C2 4792   1.632   4.317  16.374 -0.5453 -0.4639  0.8206
  319MPD2    C3 4793   1.674   4.336  16.244 -0.8191 -0.0040 -0.4840
  319MPD2    C4 4794   1.769   4.432  16.216  0.1148  0.2742 -0.0440
  319MPD2    C5 4795   1.831   4.504  16.311  0.7323 -0.5184  0.3606
  319MPD2     H 4796   1.551   4.248  16.394  0.8217 -1.9105  1.4563
  319MPD2    H1 4797   1.803   4.442  16.113  1.0277 -1.4790  0.0964
  319MPD2    H2 4798   1.830   4.552  16.519 -2.1265  0.8470  1.0191
  319MPD2    H3 4799   1.910   4.575  16.290  0.5630  0.0346  1.6544
  319MPD2     N 4800   1.619   4.258  16.135  0.6054  0.3115 -0.2861
  319MPD2    H5 4801   1.667   4.277  16.048 -2.5474  1.2123 -1.8526
  319MPD2    N1 4802   1.652   4.395  16.616  0.2764  0.1342 -0.2170
  319MPD2    H7 4803   1.712   4.450  16.677 -0.9905  1.6215 -0.3137
  320TMC3    C1 4804   1.496   4.110  16.016 -0.2559  0.9366 -0.2934
  320TMC3    C2 4805   1.470   4.204  15.918  0.1574 -0.4518 -0.1888
  320TMC3    C3 4806   1.383   4.173  15.817  0.5263 -0.8795  0.3130
  320TMC3    C4 4807   1.430   3.991  16.022  0.1787 -0.2940  0.2946
  320TMC3    C5 4808   1.352   3.962  15.911 -0.0500  0.3155 -0.0276
  320TMC3    C6 4809   1.323   4.046  15.810  0.0572 -0.4766 -0.0617
  320TMC3     C 4810   1.521   4.163  16.146 -0.0514 -0.5852  0.0832
  320TMC3     O 4811   1.457   4.115  16.236 -0.8943 -0.0970  0.2280
  320TMC3     H 4812   1.522   4.298  15.918  1.3488 -1.1072  0.3720
  320TMC3    H1 4813   1.437   3.929  16.111  0.8179  1.7289  1.6418
  320TMC3    H2 4814   1.268   4.003  15.727 -0.9067  0.0315  0.3189
  320TMC3    C7 4815   1.327   3.818  15.897  0.5828 -0.3024 -0.4310
  320TMC3    C8 4816   1.332   4.294  15.758  0.4378 -0.5569  0.2255
  320TMC3    O1 4817   1.277   3.779  15.792  0.5452 -0.0249  0.5228
  320TMC3    O2 4818   1.337   4.392  15.831 -0.3679 -0.0373 -0.3522
  321TMC3    C1 4819   1.545   4.327  16.808 -0.0604  0.1277 -1.0989
  321TMC3    C2 4820   1.522   4.212  16.869  0.2090 -0.0902 -0.6351
  321TMC3    C3 4821   1.535   4.201  17.002 -0.1177 -0.2417  0.1417
  321TMC3    C4 4822   1.559   4.443  16.876 -0.5366 -0.3902  0.0033
  321TMC3    C5 4823   1.549   4.438  17.012  0.1559 -0.2032 -0.6142
  321TMC3    C6 4824   1.522   4.320  17.074  0.1057  0.4016 -0.0905
  321TMC3     C 4825   1.548   4.323  16.665 -0.2126  0.1454 -0.2179
  321TMC3     O 4826   1.461   4.255  16.609 -0.1211 -0.3390 -0.5125
  321TMC3     H 4827   1.523   4.120  16.812 -1.6359 -0.0556 -0.7176
  321TMC3    H1 4828   1.589   4.532  16.822  1.3879 -0.2797  1.2516
  321TMC3    H2 4829   1.528   4.307  17.181  1.6500  0.3764 -0.1761
  321TMC3    C7 4830   1.655   4.510  17.081 -0.0396  0.1954 -0.2645
  321TMC3    C8 4831   1.656   4.141  17.046  0.6429 -0.0704 -0.1032
  321TMC3    O1 4832   1.767   4.518  17.033  0.3857 -0.1019 -0.5114
  321TMC3    O2 4833   1.681   4.127  17.164 -0.3101  0.1735  0.4348
  322MPD2     C 4834   0.605   0.747  13.434 -0.1945 -0.5224  0.1192
  322MPD2    C1 4835   0.632   0.690  13.559 -0.9816  0.2262 -0.0785
  322MPD2    C2 4836   0.680   0.557  13.564 -0.0742 -0.1364  0.0600
  322MPD2    C3 4837   0.695   0.489  13.447 -0.1909 -0.1581 -0.9613
  322MPD2    C4 4838   0.678   0.545  13.319 -0.5566  0.1177 -0.4486
  322MPD2    C5 4839   0.620   0.670  13.317 -0.0241 -0.6544  0.0754
  322MPD2     H 4840   0.722   0.517  13.655 -0.0544  1.3877  0.7298
  322MPD2    H1 4841   0.687   0.490  13.226  0.1689 -0.1696 -0.2046
  322MPD2    H2 4842   0.568   0.848  13.415  1.6363  0.0349 -0.4507
  322MPD2    H3 4843   0.588   0.719  13.226  3.7617 -0.4482 -1.1217
  322MPD2     N 4844   0.732   0.356  13.472 -0.1953 -0.0472 -0.1884
  322MPD2    H5 4845   0.750   0.318  13.564  1.2183  1.1398  0.0293
  322MPD2    N1 4846   0.627   0.763  13.674 -0.3381 -0.3446  0.1739
  322MPD2    H7 4847   0.595   0.859  13.666 -0.0313 -0.2974 -0.4412
  323TMC3    C1 4848   0.639   0.819  13.907  0.0592 -0.3928 -0.2674
  323TMC3    C2 4849   0.673   0.942  13.871 -0.4687 -0.1723  0.3305
  323TMC3    C3 4850   0.648   1.042  13.962 -0.3470  0.1960 -0.4775
  323TMC3    C4 4851   0.606   0.777  14.034  0.0186  0.2035 -0.9968
  323TMC3    C5 4852   0.597   0.874  14.128 -0.2076  0.0645 -0.5977
  323TMC3    C6 4853   0.609   1.006  14.089 -0.0762  0.8104  0.1119
  323TMC3     C 4854   0.646   0.719  13.802 -0.4257 -0.9059 -0.2282
  323TMC3     O 4855   0.641   0.599  13.843 -0.1246 -0.5810 -0.5375
  323TMC3     H 4856   0.719   0.968  13.776 -1.5636  1.4401  0.2369
  323TMC3    H1 4857   0.593   0.674  14.064  0.6997  1.1999  2.7835
  323TMC3    H2 4858   0.581   1.085  14.157  0.9750  0.6877  0.6750
  323TMC3    C7 4859   0.642   0.842  14.263 -0.7406 -0.0160  1.0549
  323TMC3    C8 4860   0.774   1.120  13.965  0.0085 -0.4146 -0.1271
  323TMC3    O1 4861   0.645   0.723  14.294  0.4724 -0.5113 -0.1112
  323TMC3    O2 4862   0.878   1.065  13.933 -0.0739  0.1780 -0.2006
  324MPD2     C 4863   2.179   1.803  13.860 -0.5243  0.7255  0.3465
  324MPD2    C1 4864   2.164   1.890  13.970 -0.0358 -0.5709 -0.4900
  324MPD2    C2 4865   2.039   1.926  14.022 -0.2728  0.1163  0.1757
  324MPD2    C3 4866   1.926   1.876  13.955 -0.2379  0.0920  0.1806
  324MPD2    C4 4867   1.940   1.786  13.854 -0.0235  0.0601 -0.7780
  324MPD2    C5 4868   2.064   1.750  13.806  0.8047  0.1202 -0.4534
  324MPD2     H 4869   2.039   1.989  14.110 -0.7910 -1.8768  1.5988
  324MPD2    H1 4870   1.846   1.762  13.807 -0.2191  0.0083 -0.3593
  324MPD2    H2 4871   2.277   1.773  13.825 -2.2046 -2.0811 -1.9935
  324MPD2    H3 4872   2.076   1.687  13.719 -1.0745 -1.2545  0.2936
  324MPD2     N 4873   1.799   1.926  13.983 -0.0988 -0.4391 -0.0869
  324MPD2    H5 4874   1.725   1.866  13.947  0.8599 -1.7011  0.0402
  324MPD2    N1 4875   2.268   1.956  14.033  0.3901 -0.1377 -0.8856
  324MPD2    H7 4876   2.244   2.003  14.120  1.7609 -0.7665 -0.1533
  325TMC3    C1 4877   1.642   2.089  14.048  0.3387 -0.0476 -0.2445
  325TMC3    C2 4878   1.540   1.997  14.051 -0.2839 -1.1072 -0.2399
  325TMC3    C3 4879   1.413   2.037  14.021 -1.2692  0.1473 -0.6386
  325TMC3    C4 4880   1.615   2.220  14.021  0.3327  0.1336  0.0652
  325TMC3    C5 4881   1.487   2.253  13.993  0.4743 -0.3462  0.1054
  325TMC3    C6 4882   1.386   2.166  13.993  0.5162  0.1180  0.9922
  325TMC3     C 4883   1.776   2.043  14.053  0.1338  0.2572  0.0115
  325TMC3     O 4884   1.859   2.132  14.065  0.1680 -0.4379 -1.2675
  325TMC3     H 4885   1.559   1.907  14.107 -2.4176 -1.7172 -0.5074
  325TMC3    H1 4886   1.696   2.292  14.012  1.0898 -0.5400  1.5968
  325TMC3    H2 4887   1.285   2.189  13.959 -0.3516 -2.8173  1.5633
  325TMC3    C7 4888   1.456   2.386  13.948  0.2995 -0.8743 -0.3233
  325TMC3    C8 4889   1.312   1.933  14.007 -0.3900  0.4017  1.0317
  325TMC3    O1 4890   1.359   2.392  13.874 -0.1609  0.8986  0.0325
  325TMC3    O2 4891   1.347   1.812  13.986 -0.9393  0.0682  0.4958
  326MPD2     C 4892   3.187   3.132  11.271  0.0049 -0.8921 -0.0296
  326MPD2    C1 4893   3.206   3.088  11.137  0.2098 -0.5395  0.0178
  326MPD2    C2 4894   3.313   3.146  11.067  0.1649  0.5151 -0.4460
  326MPD2    C3 4895   3.401   3.233  11.135  0.0149  0.2422  0.0649
  326MPD2    C4 4896   3.388   3.268  11.266 -0.6908  0.4532  0.0430
  326MPD2    C5 4897   3.280   3.223  11.328 -0.1496  0.7780 -0.9599
  326MPD2     H 4898   3.332   3.123  10.963  1.1137 -0.7367  0.0031
  326MPD2    H1 4899   3.451   3.349  11.300  0.6610 -0.7193  0.3655
  326MPD2    H2 4900   3.097   3.116  11.329  1.6024 -2.9282  1.9075
  326MPD2    H3 4901   3.253   3.271  11.422  1.7407 -1.0884  0.5234
  326MPD2     N 4902   3.513   3.303  11.075 -0.6069 -0.3577 -0.1238
  326MPD2    H5 4903   3.556   3.378  11.128 -0.3794  0.1000 -0.9691
  326MPD2    N1 4904   3.119   3.007  11.068 -0.3940 -0.0771  0.2207
  326MPD2    H7 4905   3.132   2.987  10.969  1.8930 -0.8459  0.6812
  327TMC3    C1 4906   2.965   2.835  11.040  0.4806 -0.0379  0.1809
  327TMC3    C2 4907   2.864   2.893  10.959 -0.3563  0.4055  0.3710
  327TMC3    C3 4908   2.861   2.860  10.826  0.4840  0.2012  0.6755
  327TMC3    C4 4909   3.061   2.758  10.984  0.2094  0.6990  0.0343
  327TMC3    C5 4910   3.066   2.744  10.849  0.0510  0.8196 -0.1479
  327TMC3    C6 4911   2.961   2.787  10.771  0.4907  0.3316  0.6655
  327TMC3     C 4912   3.020   2.934  11.131 -0.9586  0.4321  0.3489
  327TMC3     O 4913   2.993   2.930  11.250 -0.0340 -0.5900  0.3564
  327TMC3     H 4914   2.802   2.967  11.007 -1.4045 -0.7788  0.8346
  327TMC3    H1 4915   3.134   2.718  11.054  0.6798  1.4934 -0.0056
  327TMC3    H2 4916   2.951   2.767  10.665  0.4377 -0.7746  0.8829
  327TMC3    C7 4917   3.181   2.687  10.789 -0.1673  0.5291  0.4080
  327TMC3    C8 4918   2.810   2.959  10.727  0.5353 -0.2744 -0.0623
  327TMC3    O1 4919   3.175   2.599  10.701 -0.1786  0.3141 -0.3386
  327TMC3    O2 4920   2.875   2.992  10.626  0.6184  0.1907  0.0060
  328MPD2     C 4921   1.323   2.747  16.724 -0.5810 -0.2059  0.2017
  328MPD2    C1 4922   1.260   2.701  16.611  0.7801  0.0199  0.3308
  328MPD2    C2 4923   1.150   2.770  16.559 -0.1081 -0.1360 -0.1678
  328MPD2    C3 4924   1.118   2.896  16.614 -0.8609  0.7637 -0.4201
  328MPD2    C4 4925   1.187   2.941  16.722  0.5820 -0.2942 -0.0275
  328MPD2    C5 4926   1.292   2.871  16.770  0.3991 -0.1751  0.0005
  328MPD2     H 4927   1.088   2.722  16.484 -0.0050  0.6445 -0.7581
  328MPD2    H1 4928   1.159   3.040  16.756 -1.9494 -1.6272  1.8642
  328MPD2    H2 4929   1.406   2.694  16.769 -0.2428 -0.4133 -0.6724
  328MPD2    H3 4930   1.336   2.918  16.858  1.5274  1.8668 -1.6391
  328MPD2     N 4931   1.007   2.976  16.573  0.3353 -0.3995  0.4121
  328MPD2    H5 4932   0.984   3.057  16.629  1.2319 -0.4831  0.8971
  328MPD2    N1 4933   1.306   2.575  16.572  0.2005  0.7788 -0.5897
  328MPD2    H7 4934   1.370   2.525  16.633  0.2882  1.4943 -0.0943
  329TMC3    C1 4935   1.250   2.370  16.478 -0.2228  0.1137  0.4286
  329TMC3    C2 4936   1.115   2.333  16.448  0.4040  0.4518 -0.7993
  329TMC3    C3 4937   1.055   2.242  16.528  0.2619  0.3244 -0.0824
  329TMC3    C4 4938   1.316   2.310  16.584 -0.8279 -0.1151  0.0845
  329TMC3    C5 4939   1.254   2.204  16.646 -0.4207 -0.4124 -0.2554
  329TMC3    C6 4940   1.118   2.175  16.627  0.0195  0.3633 -0.3943
  329TMC3     C 4941   1.267   2.514  16.453  0.3074 -0.1749 -0.4975
  329TMC3     O 4942   1.221   2.565  16.351 -0.4111 -0.5668  0.4306
  329TMC3     H 4943   1.062   2.383  16.368  1.7954  2.7283 -0.2898
  329TMC3    H1 4944   1.423   2.324  16.599 -0.9379 -0.0188  0.7700
  329TMC3    H2 4945   1.058   2.110  16.690  0.0280 -0.1185 -0.8794
  329TMC3    C7 4946   1.310   2.129  16.751 -0.0071  0.5728  0.5138
  329TMC3    C8 4947   0.937   2.300  16.592  0.4566 -0.3847  0.6128
  329TMC3    O1 4948   1.398   2.193  16.809  0.2908 -0.6351  0.0733
  329TMC3    O2 4949   0.948   2.310  16.716 -0.4352  0.1149  0.5445
  330TMC3    C1 4950   4.148   2.698   9.433 -0.4061  0.9345 -0.4020
  330TMC3    C2 4951   4.106   2.610   9.344 -0.2715 -0.2035  0.0050
  330TMC3    C3 4952   4.119   2.476   9.371  0.1015  0.0334  0.1263
  330TMC3    C4 4953   4.216   2.662   9.547  0.2519  0.2401  0.5789
  330TMC3    C5 4954   4.219   2.528   9.580  0.4485 -0.5809 -0.0790
  330TMC3    C6 4955   4.166   2.435   9.493 -0.0146 -0.7219  0.2864
  330TMC3     C 4956   4.151   2.843   9.397 -0.4056 -0.3296 -0.8484
  330TMC3     O 4957   4.246   2.897   9.446  1.1782 -0.6297  0.3008
  330TMC3     H 4958   4.082   2.644   9.244  0.5414 -1.1631 -0.5112
  330TMC3    H1 4959   4.237   2.738   9.622 -0.7336 -1.3026  2.4143
  330TMC3    H2 4960   4.188   2.334   9.524  1.1082  0.1373  2.2573
  330TMC3    C7 4961   4.274   2.498   9.711  0.4657 -0.2793 -0.0587
  330TMC3    C8 4962   4.096   2.387   9.261  0.0061  0.4669  0.3998
  330TMC3    O1 4963   4.331   2.597   9.754  0.8780 -0.0326  0.2508
  330TMC3    O2 4964   4.097   2.426   9.143 -0.2432 -0.0616  0.1745
  331MPD2     C 4965   1.649   0.858  12.634 -0.4252  0.2276  0.1383
  331MPD2    C1 4966   1.711   0.940  12.544 -0.9146  0.0174 -0.2877
  331MPD2    C2 4967   1.772   0.892  12.431  0.2853 -0.5335 -0.2026
  331MPD2    C3 4968   1.774   0.755  12.413  0.0001  0.4821  0.3806
  331MPD2    C4 4969   1.709   0.680  12.506  0.1919 -0.7586  0.8097
  331MPD2    C5 4970   1.646   0.726  12.613 -0.1120 -0.4654 -0.5503
  331MPD2     H 4971   1.831   0.952  12.363  2.5082  1.1080  3.1322
  331MPD2    H1 4972   1.714   0.573  12.488 -1.4597 -0.4747 -1.3751
  331MPD2    H2 4973   1.609   0.898  12.727  1.1868 -0.7397  1.2287
  331MPD2    H3 4974   1.592   0.672  12.689 -0.1494  0.2965 -0.0383
  331MPD2     N 4975   1.844   0.712  12.300  0.7068  0.3866 -0.5124
  331MPD2    H5 4976   1.893   0.779  12.242 -0.0154  0.4209 -1.0932
  331MPD2    N1 4977   1.708   1.078  12.584  0.5845 -0.0469  0.3852
  331MPD2    H7 4978   1.652   1.105  12.665 -1.0241  1.0422 -1.0651
  332TMC3    C1 4979   1.937   0.567  12.131  0.3371 -0.3059  1.0666
  332TMC3    C2 4980   1.920   0.676  12.057  0.7227  0.2425  0.9121
  332TMC3    C3 4981   2.018   0.727  11.976  0.1517 -0.0166  0.2179
  332TMC3    C4 4982   2.065   0.525  12.153 -0.3714 -0.1665  0.0999
  332TMC3    C5 4983   2.166   0.582  12.079 -0.1269 -0.0035  0.5297
  332TMC3    C6 4984   2.148   0.678  11.977  0.7873  0.5005 -0.4568
  332TMC3     C 4985   1.864   0.578  12.261 -0.4575 -0.0436 -0.8073
  332TMC3     O 4986   1.843   0.482  12.334 -0.0210 -0.2017  0.0513
  332TMC3     H 4987   1.820   0.719  12.047  1.6944  2.5345  0.9884
  332TMC3    H1 4988   2.094   0.447  12.223 -0.4350 -0.1527  0.1422
  332TMC3    H2 4989   2.231   0.726  11.926  0.4280 -0.1239 -1.6273
  332TMC3    C7 4990   2.298   0.518  12.098  0.3422 -0.1808  0.6813
  332TMC3    C8 4991   1.994   0.846  11.896  0.1057  0.1133  0.6152
  332TMC3    O1 4992   2.311   0.397  12.121 -0.0728 -0.0921  0.2773
  332TMC3    O2 4993   2.092   0.911  11.868  0.5339  0.2553  0.2212
  333MPD2     C 4994   1.694   1.629  10.937 -0.2473  0.1411  0.1435
  333MPD2    C1 4995   1.784   1.540  10.881  0.0680  0.6404  0.3778
  333MPD2    C2 4996   1.757   1.403  10.879 -0.9711  0.6142  0.2300
  333MPD2    C3 4997   1.643   1.356  10.930 -0.2592  0.1136  0.5177
  333MPD2    C4 4998   1.552   1.444  10.983  0.3812 -0.0745  0.7636
  333MPD2    C5 4999   1.575   1.583  10.982  0.6867  0.4048 -0.1566
  333MPD2     H 5000   1.829   1.331  10.842 -2.0691 -1.5495  2.2908
  333MPD2    H1 5001   1.459   1.412  11.030  1.1033 -2.6703  0.4047
  333MPD2    H2 5002   1.713   1.735  10.949 -0.6134  0.4822 -2.2554
  333MPD2    H3 5003   1.496   1.643  11.026 -2.7388 -2.5567 -2.2815
  333MPD2     N 5004   1.616   1.216  10.924 -0.3069 -0.5108  0.7373
  333MPD2    H5 5005   1.683   1.157  10.875  0.0745  0.7128 -0.2078
  333MPD2    N1 5006   1.906   1.579  10.828  0.2937  0.1272  0.0832
  333MPD2    H7 5007   1.976   1.508  10.811  0.7328  0.9386 -1.5018
  334TMC3    C1 5008   2.076   1.730  10.754  0.5028  0.4155  0.4540
  334TMC3    C2 5009   2.179   1.653  10.791 -0.9355 -0.5347 -0.0937
  334TMC3    C3 5010   2.308   1.695  10.766 -0.6826  0.2398 -0.8005
  334TMC3    C4 5011   2.087   1.846  10.679  0.5199 -0.1571  0.6868
  334TMC3    C5 5012   2.218   1.884  10.657  1.0299 -0.5605  0.5488
  334TMC3    C6 5013   2.325   1.807  10.700  0.5365  0.4481 -0.4171
  334TMC3     C 5014   1.941   1.709  10.799  0.0315  0.9060 -0.4262
  334TMC3     O 5015   1.874   1.808  10.811  0.1279  0.3341  0.2573
  334TMC3     H 5016   2.171   1.569  10.858 -1.3234 -1.2827 -1.0760
  334TMC3    H1 5017   1.999   1.897  10.642 -0.6765 -2.9763 -0.3745
  334TMC3    H2 5018   2.421   1.854  10.679  0.6501  0.3164 -0.1887
  334TMC3    C7 5019   2.245   2.002  10.582 -0.3712  0.5032  0.6003
  334TMC3    C8 5020   2.412   1.640  10.853  0.0153 -0.3458 -0.0738
  334TMC3    O1 5021   2.360   2.048  10.579  0.5250 -0.5677  0.3592
  334TMC3    O2 5022   2.382   1.600  10.964 -0.5241 -0.2468 -0.0924
  335TMC3    C1 5023   1.788   3.384  16.886 -0.3024 -0.0745  0.2769
  335TMC3    C2 5024   1.748   3.300  16.786  0.1766 -0.0938 -0.7237
  335TMC3    C3 5025   1.828   3.279  16.685 -0.5777 -1.0752 -0.3602
  335TMC3    C4 5026   1.918   3.435  16.889 -0.0465 -0.5859  0.0643
  335TMC3    C5 5027   1.999   3.396  16.784 -0.0624  0.2298 -0.3394
  335TMC3    C6 5028   1.957   3.320  16.679  0.2726  0.4974 -1.0642
  335TMC3     C 5029   1.695   3.421  16.992 -0.9343 -0.0555 -0.5307
  335TMC3     O 5030   1.586   3.370  16.982  0.0383 -0.1773 -0.8797
  335TMC3     H 5031   1.640   3.285  16.781  0.1104  0.2007 -0.1653
  335TMC3    H1 5032   1.952   3.509  16.961  1.5278 -2.3149  1.1164
  335TMC3    H2 5033   2.034   3.272  16.619  2.2527  0.1305  1.7639
  335TMC3    C7 5034   2.134   3.451  16.785 -0.1019  0.0765  0.0841
  335TMC3    C8 5035   1.786   3.174  16.593 -0.3008 -0.9143 -0.3854
  335TMC3    O1 5036   2.193   3.457  16.678  0.2513  0.0165 -0.1792
  335TMC3    O2 5037   1.866   3.165  16.501  1.3147  0.3481  0.4272
  336MPD2     C 5038   1.288   0.810  16.271  0.1194 -0.1749 -0.3317
  336MPD2    C1 5039   1.361   0.759  16.156 -0.3807 -0.3036 -0.5080
  336MPD2    C2 5040   1.434   0.639  16.173  0.3318 -0.2034  0.1520
  336MPD2    C3 5041   1.457   0.580  16.293  1.2717 -0.3518  0.4220
  336MPD2    C4 5042   1.399   0.641  16.406 -0.8785 -0.7535  0.6376
  336MPD2    C5 5043   1.314   0.753  16.392  0.1487 -0.2762  0.1579
  336MPD2     H 5044   1.478   0.595  16.084  0.5245 -1.1398  0.7079
  336MPD2    H1 5045   1.409   0.606  16.508 -0.6328  2.5705  1.7612
  336MPD2    H2 5046   1.227   0.899  16.282 -0.7724 -0.6360 -1.4173
  336MPD2    H3 5047   1.258   0.792  16.476  0.4532  0.4804  0.0154
  336MPD2     N 5048   1.524   0.456  16.313 -0.0057 -0.1736 -0.7438
  336MPD2    H5 5049   1.519   0.425  16.410  1.1030  0.0657 -0.6049
  336MPD2    N1 5050   1.353   0.814  16.029 -0.3625 -0.1956  0.0454
  336MPD2    H7 5051   1.410   0.769  15.958 -1.3040 -1.1560 -0.1071
  337TMC3    C1 5052   1.266   0.929  15.846 -0.0916 -0.7161  0.1201
  337TMC3    C2 5053   1.147   0.956  15.783 -0.0180  0.5452  0.7884
  337TMC3    C3 5054   1.153   0.998  15.650  0.2699 -0.9082 -0.1928
  337TMC3    C4 5055   1.379   0.934  15.769  0.5999 -0.3354  0.0908
  337TMC3    C5 5056   1.380   0.997  15.649 -0.3813  0.7210 -0.6409
  337TMC3    C6 5057   1.264   1.031  15.584  0.1559  0.5139 -0.2648
  337TMC3     C 5058   1.252   0.902  15.983 -0.1242  0.3724 -0.3728
  337TMC3     O 5059   1.163   0.960  16.045  0.0260 -0.2114 -0.0053
  337TMC3     H 5060   1.056   0.954  15.841 -2.6713  1.3179 -3.3579
  337TMC3    H1 5061   1.468   0.915  15.829  0.5541 -0.8052  0.0072
  337TMC3    H2 5062   1.263   1.086  15.491 -1.9521 -0.1018 -0.6177
  337TMC3    C7 5063   1.501   1.054  15.584  0.0129 -0.0640  0.6122
  337TMC3    C8 5064   1.034   1.071  15.610  0.4553  0.6404  0.1159
  337TMC3    O1 5065   1.485   1.142  15.498 -0.1859  0.2389 -0.2097
  337TMC3    O2 5066   0.958   1.116  15.696 -0.0650 -0.3233  0.0875
  338MPD2     C 5067   2.467   0.685   0.960  0.3827  0.5180 -0.3703
  338MPD2    C1 5068   2.338   0.682   0.918  0.2205 -0.7125  0.4624
  338MPD2    C2 5069   2.250   0.779   0.969  0.2710  0.4145 -0.2977
  338MPD2    C3 5070   2.296   0.890   1.042 -0.2012  0.0211  0.6731
  338MPD2    C4 5071   2.436   0.899   1.062 -0.3706 -0.0382  0.5137
  338MPD2    C5 5072   2.513   0.793   1.029  0.0298  0.0930 -0.9236
  338MPD2     H 5073   2.147   0.769   0.938 -0.0600 -0.0787  0.9914
  338MPD2    H1 5074   2.492   0.969   1.123  0.1372  0.8329 -0.9536
  338MPD2    H2 5075   2.547   0.619   0.926 -0.3727  0.2086 -1.5359
  338MPD2    H3 5076   2.618   0.798   1.056 -0.6338 -0.4338  1.8264
  338MPD2     N 5077   2.200   0.984   1.095  0.5673  0.2642 -0.2654
  338MPD2    H5 5078   2.100   0.962   1.096  0.2550  1.6694 -0.7397
  338MPD2    N1 5079   2.287   0.581   0.834  0.0951  0.2372 -0.3440
  338MPD2    H7 5080   2.189   0.580   0.808  0.0806  1.6048 -0.3164
  339TMC3    C1 5081   2.116   1.157   1.220 -0.2128 -0.0392  0.2881
  339TMC3    C2 5082   2.105   1.141   1.356 -0.1139  0.6997 -0.1553
  339TMC3    C3 5083   1.981   1.142   1.404  0.0186 -0.3043  0.5967
  339TMC3    C4 5084   2.009   1.170   1.131 -0.4867 -0.0710  0.2021
  339TMC3    C5 5085   1.886   1.198   1.191 -0.6579 -0.7530  0.1979
  339TMC3    C6 5086   1.873   1.183   1.328 -0.5690  0.2426  0.7445
  339TMC3     C 5087   2.230   1.095   1.162  0.3320  0.5233  0.1395
  339TMC3     O 5088   2.334   1.131   1.208 -0.1703  0.2497  0.2320
  339TMC3     H 5089   2.191   1.121   1.418 -1.4130 -1.5462  0.9449
  339TMC3    H1 5090   2.030   1.204   1.030 -0.8757 -1.9587 -0.5019
  339TMC3    H2 5091   1.779   1.181   1.382 -1.7696  2.4161 -1.2777
  339TMC3    C7 5092   1.806   1.298   1.121  0.4553  0.2351  0.0688
  339TMC3    C8 5093   1.964   1.115   1.547  0.1611 -0.0750  0.2612
  339TMC3    O1 5094   1.838   1.319   1.006 -0.0876 -0.7795 -0.2417
  339TMC3    O2 5095   2.057   1.160   1.609 -0.0168  0.5674 -0.1720
  340MPD2     C 5096   2.588   3.092  10.199 -0.2694 -1.0396 -0.1295
  340MPD2    C1 5097   2.539   2.974  10.143 -0.0442 -0.0113  0.6858
  340MPD2    C2 5098   2.611   2.858  10.151  0.0639  0.5495 -0.0985
  340MPD2    C3 5099   2.744   2.849  10.199  0.5598 -0.5352 -0.1693
  340MPD2    C4 5100   2.797   2.967  10.246  0.1017  0.0120  0.3829
  340MPD2    C5 5101   2.719   3.082  10.251 -0.4821 -0.4825 -0.6729
  340MPD2     H 5102   2.557   2.766  10.135  2.7480 -1.1625  0.7550
  340MPD2    H1 5103   2.896   2.956  10.288 -0.4768  1.7508  2.2390
  340MPD2    H2 5104   2.541   3.189  10.194  0.9114 -0.5412 -1.3460
  340MPD2    H3 5105   2.766   3.174  10.285 -0.6898 -1.6254  2.7319
  340MPD2     N 5106   2.817   2.733  10.183  0.2839 -0.1930  0.0336
  340MPD2    H5 5107   2.918   2.737  10.197  0.3550  0.6449 -0.7292
  340MPD2    N1 5108   2.402   2.981  10.103  0.3923 -0.7856  0.3358
  340MPD2    H7 5109   2.357   3.070  10.123 -0.3996 -0.9121 -0.9161
  341TMC3    C1 5110   2.419   2.808   9.941 -0.1834  0.9659 -0.9650
  341TMC3    C2 5111   2.400   2.673   9.946  0.6748  0.0426  0.6694
  341TMC3    C3 5112   2.488   2.596   9.876 -0.2331  0.5007  0.4045
  341TMC3    C4 5113   2.520   2.860   9.868 -0.3595 -0.6560 -0.0052
  341TMC3    C5 5114   2.598   2.779   9.791 -0.1181  0.3788  0.1017
  341TMC3    C6 5115   2.582   2.646   9.798 -0.3441  0.0445 -0.2043
  341TMC3     C 5116   2.336   2.890  10.021  0.3977  0.6882  0.7302
  341TMC3     O 5117   2.216   2.881   9.985  0.1388  0.8801  0.1871
  341TMC3     H 5118   2.328   2.641  10.019  0.4483 -0.2523  0.3150
  341TMC3    H1 5119   2.515   2.968   9.854 -3.4365 -0.6425  1.0797
  341TMC3    H2 5120   2.650   2.579   9.746  2.9308  2.7478  0.5836
  341TMC3    C7 5121   2.733   2.828   9.744 -0.0413 -0.0531  0.5036
  341TMC3    C8 5122   2.456   2.453   9.863 -0.2644 -0.7077  0.1044
  341TMC3    O1 5123   2.810   2.737   9.704 -0.2395 -0.3564  0.4519
  341TMC3    O2 5124   2.457   2.405   9.753  0.1295  0.1877 -0.6282
  342MPD2     C 5125   4.142   1.135  16.867 -0.0245 -0.4643 -0.5339
  342MPD2    C1 5126   4.270   1.135  16.914 -0.5301  0.3563  1.0862
  342MPD2    C2 5127   4.328   1.259  16.954  0.1694  0.6265 -0.6319
  342MPD2    C3 5128   4.248   1.376  16.957  0.2817  0.2717 -0.1906
  342MPD2    C4 5129   4.118   1.365  16.910  0.0243  0.7605  0.2303
  342MPD2    C5 5130   4.066   1.248  16.860 -0.3188  0.3467  0.0453
  342MPD2     H 5131   4.424   1.251  17.004  1.0265 -0.0783 -2.3966
  342MPD2    H1 5132   4.053   1.451  16.907 -0.7523  0.2654  2.5612
  342MPD2    H2 5133   4.099   1.047  16.821 -1.2119 -0.7805  1.1953
  342MPD2    H3 5134   3.972   1.256  16.807  1.0458  2.4490 -2.0809
  342MPD2     N 5135   4.291   1.508  16.991 -0.0581 -0.0277 -0.3424
  342MPD2    H5 5136   4.224   1.584  16.983  0.9620  0.9882  0.9092
  342MPD2    N1 5137   4.344   1.019  16.931  0.3261  0.4484  0.9696
  342MPD2    H7 5138   4.439   1.039  16.961  1.2222 -2.2236 -0.1209
  343TMC3    C1 5139   4.415   0.783  16.916  0.3380 -0.6017 -0.3966
  343TMC3    C2 5140   4.544   0.819  16.899  0.2304 -0.2765 -0.0083
  343TMC3    C3 5141   4.636   0.713  16.895 -0.2567  0.8610  0.1543
  343TMC3    C4 5142   4.365   0.654  16.928  0.2156  0.4326 -0.3349
  343TMC3    C5 5143   4.462   0.557  16.947 -0.9309 -0.3236  0.3837
  343TMC3    C6 5144   4.599   0.583  16.925 -0.1645 -0.1135  0.3439
  343TMC3     C 5145   4.310   0.888  16.899  0.3604 -0.7331  1.1377
  343TMC3     O 5146   4.196   0.850  16.875  0.9936  0.1094  0.1728
  343TMC3     H 5147   4.573   0.917  16.862 -0.1821  0.1527  0.7998
  343TMC3    H1 5148   4.263   0.635  16.960 -0.0503  2.8000  0.1776
  343TMC3    H2 5149   4.671   0.509  16.956  0.8743  1.1838  1.0206
  343TMC3    C7 5150   4.423   0.426  16.984 -0.0507  0.9224  0.0117
  343TMC3    C8 5151   0.053   0.744  16.875 -0.1551  0.0863  0.0346
  343TMC3    O1 5152   4.313   0.383  16.959 -0.4163 -0.1608 -0.3137
  343TMC3    O2 5153   0.088   0.859  16.887 -0.2430  0.1696 -0.0023
  344MPD2     C 5154   0.786   0.421  10.801 -0.2679 -0.2889  0.2174
  344MPD2    C1 5155   0.755   0.312  10.720  0.0785 -0.3954 -0.3026
  344MPD2    C2 5156   0.764   0.324  10.580 -0.7421  0.3404  0.0191
  344MPD2    C3 5157   0.812   0.435  10.521  0.5137  0.0930  0.0524
  344MPD2    C4 5158   0.864   0.537  10.600 -0.0943 -0.0918  0.0152
  344MPD2    C5 5159   0.839   0.531  10.741 -0.0886  1.2754 -0.0923
  344MPD2     H 5160   0.734   0.241  10.517  1.4672 -0.2879 -0.2038
  344MPD2    H1 5161   0.897   0.627  10.550 -2.1662  0.7506  0.1502
  344MPD2    H2 5162   0.766   0.415  10.908 -0.1524  3.6799  0.4642
  344MPD2    H3 5163   0.850   0.621  10.801  2.0653 -0.2756  1.8566
  344MPD2     N 5164   0.819   0.446  10.378  0.0051 -0.2224 -0.1451
  344MPD2    H5 5165   0.874   0.522  10.337  0.3330  0.4509  1.5362
  344MPD2    N1 5166   0.696   0.187  10.749  0.7198  0.4813  0.0837
  344MPD2    H7 5167   0.653   0.126  10.680  0.8977  1.7281 -1.1236
  345TMC3    C1 5168   0.781   0.415  10.156  0.3899 -0.7669  0.1628
  345TMC3    C2 5169   0.905   0.463  10.116  0.4859 -0.5739 -0.0451
  345TMC3    C3 5170   0.923   0.506   9.988 -0.6017 -0.5836 -0.2333
  345TMC3    C4 5171   0.680   0.413  10.067 -0.0975  0.1087  0.8691
  345TMC3    C5 5172   0.696   0.455   9.932 -0.6645  0.2322  0.3819
  345TMC3    C6 5173   0.819   0.501   9.897  0.4406 -0.2661 -0.0208
  345TMC3     C 5174   0.754   0.370  10.289 -0.0529 -0.1288  0.1792
  345TMC3     O 5175   0.680   0.272  10.305 -0.3993  0.3612 -0.2283
  345TMC3     H 5176   0.994   0.448  10.175 -0.4260  1.2767  1.8119
  345TMC3    H1 5177   0.587   0.370  10.103  0.1029 -2.3140 -1.4470
  345TMC3    H2 5178   0.833   0.544   9.798  1.7149  0.1392  0.3368
  345TMC3    C7 5179   0.600   0.548   9.882 -0.0710 -0.7134 -0.8960
  345TMC3    C8 5180   1.047   0.571   9.952  0.1086  0.7298  0.6083
  345TMC3    O1 5181   0.633   0.643   9.822  0.4117  0.0744  0.2524
  345TMC3    O2 5182   1.119   0.609  10.045 -0.2336 -0.8610 -0.0030
  346MPD2     C 5183   1.258   2.329  14.331  0.2311 -0.7137 -0.0592
  346MPD2    C1 5184   1.244   2.441  14.250 -0.0747 -0.4954 -0.4467
  346MPD2    C2 5185   1.334   2.547  14.265 -0.7569 -0.2956  0.1522
  346MPD2    C3 5186   1.439   2.542  14.356 -0.0850 -0.9009 -0.1448
  346MPD2    C4 5187   1.450   2.424  14.426 -0.1912 -0.0347 -1.3094
  346MPD2    C5 5188   1.356   2.322  14.427  0.3005  0.7878  0.0173
  346MPD2     H 5189   1.305   2.634  14.207 -2.7557  0.0152  1.6311
  346MPD2    H1 5190   1.530   2.414  14.500 -1.4486  0.3579  0.1058
  346MPD2    H2 5191   1.184   2.250  14.326  2.1680 -2.4881 -0.4915
  346MPD2    H3 5192   1.361   2.237  14.494  1.0652  0.7342 -0.1069
  346MPD2     N 5193   1.524   2.659  14.363 -0.1240  0.1007  0.3962
  346MPD2    H5 5194   1.513   2.732  14.294  1.8789 -1.2748 -1.3836
  346MPD2    N1 5195   1.153   2.446  14.147  0.2469 -0.6542 -0.3517
  346MPD2    H7 5196   1.147   2.534  14.097  0.9825 -0.3037  0.1768
  347TMC3    C1 5197   1.704   2.786  14.442 -0.2142 -0.3204  1.2033
  347TMC3    C2 5198   1.704   2.826  14.310 -1.1674  0.0645 -0.2511
  347TMC3    C3 5199   1.828   2.843  14.244  0.0031 -0.1856 -0.4092
  347TMC3    C4 5200   1.823   2.771  14.509 -0.8598 -0.4646 -0.7998
  347TMC3    C5 5201   1.936   2.792  14.440 -0.1019  0.0752 -0.4050
  347TMC3    C6 5202   1.939   2.825  14.311  0.3657 -0.8063  0.2024
  347TMC3     C 5203   1.610   2.678  14.467  0.3082 -0.0986  0.6701
  347TMC3     O 5204   1.645   2.597  14.552  0.2949 -0.1121 -0.4490
  347TMC3     H 5205   1.615   2.862  14.260 -1.6336  2.0537  2.0134
  347TMC3    H1 5206   1.821   2.758  14.617 -0.8778  1.7602 -0.5250
  347TMC3    H2 5207   2.032   2.840  14.257 -1.8475  0.9090 -3.1518
  347TMC3    C7 5208   2.053   2.806  14.516  0.2998 -0.1448 -0.3434
  347TMC3    C8 5209   1.831   2.937  14.135  0.1456  0.3487  0.8090
  347TMC3    O1 5210   2.055   2.732  14.609 -0.4298 -0.0550 -0.3276
  347TMC3    O2 5211   1.907   3.031  14.151  0.4005  0.8118  0.6011
  348MPD2     C 5212   4.238   1.966  11.933  0.2392  0.3161 -0.0042
  348MPD2    C1 5213   4.358   2.033  11.913 -0.3631 -0.0097 -0.7878
  348MPD2    C2 5214   4.367   2.120  11.809 -0.7762  0.2168  0.7581
  348MPD2    C3 5215   4.263   2.125  11.712  0.4022  0.3373  0.2215
  348MPD2    C4 5216   4.136   2.081  11.739 -0.8085 -0.4977 -0.1029
  348MPD2    C5 5217   4.134   2.001  11.854 -0.0435  0.4864  0.3173
  348MPD2     H 5218   4.462   2.168  11.786  0.1152 -0.8584  2.2299
  348MPD2    H1 5219   4.043   2.076  11.684 -0.3946  1.2842 -0.9538
  348MPD2    H2 5220   4.225   1.896  12.015 -3.3776  2.9483  1.6766
  348MPD2    H3 5221   4.042   1.947  11.872  0.8115  0.2142  3.7974
  348MPD2     N 5222   4.286   2.193  11.587 -0.9691  0.0712 -0.0774
  348MPD2    H5 5223   4.371   2.244  11.568 -0.3375 -1.2512 -0.8094
  348MPD2    N1 5224   4.477   2.009  11.985 -0.3743  0.4854 -0.3553
  348MPD2    H7 5225   4.550   2.074  11.959 -0.0505 -0.2753 -1.3740
  349TMC3    C1 5226   4.629   1.888  12.122 -0.3557  0.0229  0.3172
  349TMC3    C2 5227   4.624   1.770  12.206  0.7526  0.0050 -0.0847
  349TMC3    C3 5228   4.686   1.653  12.158 -0.5571 -0.0423  0.0423
  349TMC3    C4 5229   4.707   1.887  12.021 -1.3285 -0.1705  0.3719
  349TMC3    C5 5230   0.026   1.765  11.965  0.7211 -0.3660  0.2326
  349TMC3    C6 5231   0.013   1.652  12.033 -0.1300 -0.2090  0.0384
  349TMC3     C 5232   4.489   1.934  12.098 -0.0581  0.3468  0.5230
  349TMC3     O 5233   4.402   1.873  12.160 -0.1291  0.5546  0.5787
  349TMC3     H 5234   4.571   1.766  12.301 -0.0475  1.9000 -0.4522
  349TMC3    H1 5235   0.008   1.978  11.968 -0.4338 -0.3034  0.5939
  349TMC3    H2 5236   0.043   1.562  11.980 -0.7391 -1.2922  1.5501
  349TMC3    C7 5237   4.718   1.754  11.824 -0.6123  0.5257 -0.4652
  349TMC3    C8 5238   4.700   1.543  12.254 -0.4130  0.1489 -0.0444
  349TMC3    O1 5239   4.645   1.664  11.790  0.0276  0.7275 -0.2587
  349TMC3    O2 5240   4.645   1.552  12.361  0.7489  0.7916  0.4312
  350MPD2     C 5241   3.337   0.063   9.942  1.5388  0.1534  0.0287
  350MPD2    C1 5242   3.424   4.689   9.972 -0.6714 -0.3690  0.1818
  350MPD2    C2 5243   3.549   4.711  10.032  0.4157 -0.5532 -0.3253
  350MPD2    C3 5244   3.589   0.114  10.053 -0.2260  0.2495  0.5501
  350MPD2    C4 5245   3.503   0.219  10.020  0.1640 -0.0337  0.2727
  350MPD2    C5 5246   3.375   0.192   9.965  0.3631 -0.1651  0.0180
  350MPD2     H 5247   3.615   4.631  10.065  0.4165 -0.6636 -0.5876
  350MPD2    H1 5248   3.525   0.323  10.038  0.2664  0.2530 -1.5253
  350MPD2    H2 5249   3.243   0.044   9.892 -0.7758  1.8766  3.7263
  350MPD2    H3 5250   3.309   0.273   9.936  0.3521  0.1387  0.8742
  350MPD2     N 5251   3.722   0.131  10.104  0.1505 -0.0895  0.1961
  350MPD2    H5 5252   3.757   0.041  10.136  0.2724  0.1435  0.7093
  350MPD2    N1 5253   3.374   4.558   9.975  0.0352  0.2161  0.0688
  350MPD2    H7 5254   3.443   4.489  10.002 -0.3517 -0.3823 -0.4664
  351TMC3    C1 5255   3.238   4.378   9.978 -0.4746 -0.3477 -0.2777
  351TMC3    C2 5256   3.350   4.300   9.967  0.3439  0.0293  0.2530
  351TMC3    C3 5257   3.328   4.175  10.020  0.5961 -0.5313 -0.3696
  351TMC3    C4 5258   3.109   4.331  10.007  0.4645 -0.7999 -0.9687
  351TMC3    C5 5259   3.097   4.206  10.060  1.0739 -0.8143 -0.0065
  351TMC3    C6 5260   3.204   4.118  10.057 -0.3846 -0.1207  0.1267
  351TMC3     C 5261   3.243   4.518   9.942 -0.3503  0.4055  0.8583
  351TMC3     O 5262   3.146   4.578   9.891  0.6848  0.5360  0.3301
  351TMC3     H 5263   3.428   4.328   9.898 -0.1023  0.8568  0.0910
  351TMC3    H1 5264   3.025   4.400  10.014  1.1657 -0.2106  1.6055
  351TMC3    H2 5265   3.202   4.027  10.115 -0.2090 -0.7480 -0.8508
  351TMC3    C7 5266   2.963   4.159  10.042 -0.1076 -0.1175  0.4921
  351TMC3    C8 5267   3.447   4.086  10.007  0.2161 -0.3345  0.0219
  351TMC3    O1 5268   2.876   4.240  10.015  0.3330  0.5727 -0.2113
  351TMC3    O2 5269   3.553   4.144   9.979 -0.0221  0.5600 -0.2392
  352MPD2     C 5270   1.342   2.949   1.279 -0.1248  0.0421 -0.1933
  352MPD2    C1 5271   1.252   2.889   1.196  0.0654  0.1653  0.0260
  352MPD2    C2 5272   1.174   2.780   1.244  0.1795  0.3326 -0.6470
  352MPD2    C3 5273   1.199   2.723   1.369  0.2941  0.1004  0.1969
  352MPD2    C4 5274   1.292   2.791   1.451 -0.1471 -0.1396 -0.3273
  352MPD2    C5 5275   1.361   2.902   1.406 -0.0989  0.2878 -0.0961
  352MPD2     H 5276   1.101   2.730   1.182 -0.1625  0.8029 -0.6171
  352MPD2    H1 5277   1.316   2.753   1.550 -1.5338 -2.0161 -0.7163
  352MPD2    H2 5278   1.398   3.038   1.251 -2.4205  1.6312  0.2473
  352MPD2    H3 5279   1.423   2.949   1.482  0.2077 -1.0938  0.4923
  352MPD2     N 5280   1.135   2.608   1.422  0.0947 -0.2565 -0.3803
  352MPD2    H5 5281   1.155   2.583   1.518  0.0829  0.2949 -0.2357
  352MPD2    N1 5282   1.253   2.937   1.062 -0.4055 -0.0512  0.3950
  352MPD2    H7 5283   1.328   2.997   1.030 -0.1130  0.3598  1.8814
  353TMC3    C1 5284   0.994   2.423   1.413  0.8705  0.0986  0.4128
  353TMC3    C2 5285   1.034   2.363   1.533 -0.0504  0.3285  0.8467
  353TMC3    C3 5286   0.980   2.248   1.572  0.1146 -0.7333 -1.1224
  353TMC3    C4 5287   0.891   2.380   1.341  0.2985 -0.0646 -0.7804
  353TMC3    C5 5288   0.836   2.264   1.390  0.4090  0.3143 -0.5552
  353TMC3    C6 5289   0.879   2.186   1.500  0.3636  0.1505  0.1254
  353TMC3     C 5290   1.068   2.524   1.342 -1.2229  0.1495  0.0265
  353TMC3     O 5291   1.049   2.514   1.222 -0.0742  0.3636 -0.6938
  353TMC3     H 5292   1.121   2.400   1.585  0.1018  1.2601 -0.0657
  353TMC3    H1 5293   0.841   2.441   1.267 -0.9477  1.1425  1.0459
  353TMC3    H2 5294   0.834   2.095   1.536 -0.9449  1.0761  0.8182
  353TMC3    C7 5295   0.718   2.220   1.312 -0.0205 -0.5548 -0.2599
  353TMC3    C8 5296   1.034   2.171   1.681  0.2081  0.4154 -0.0718
  353TMC3    O1 5297   0.684   2.269   1.202 -0.2278 -0.6140  0.2557
  353TMC3    O2 5298   1.084   2.229   1.777 -0.2460  0.3519  0.5728
  354TMC3    C1 5299   3.507   3.348  13.579  0.6862  0.0021  0.7637
  354TMC3    C2 5300   3.554   3.475  13.564  0.4383 -0.2312  1.0759
  354TMC3    C3 5301   3.527   3.538  13.453  0.3131  0.2143 -0.0792
  354TMC3    C4 5302   3.428   3.291  13.477 -0.0295  0.3625  0.1498
  354TMC3    C5 5303   3.425   3.351  13.358 -0.7944 -0.7239  0.4532
  354TMC3    C6 5304   3.463   3.479  13.350  0.3284  0.8801  0.5263
  354TMC3     C 5305   3.542   3.266  13.699  0.7097  0.0812  0.2762
  354TMC3     O 5306   3.502   3.151  13.707  0.1608 -0.1723 -0.4274
  354TMC3     H 5307   3.616   3.523  13.638 -0.4195  2.1236  0.2656
  354TMC3    H1 5308   3.408   3.184  13.475 -1.1674  0.6299 -3.0724
  354TMC3    H2 5309   3.462   3.530  13.255  2.6194 -2.4536 -1.2571
  354TMC3    C7 5310   3.426   3.266  13.238  0.2053  0.5456 -0.4135
  354TMC3    C8 5311   3.620   3.643  13.405 -0.3301  0.3817  0.0501
  354TMC3    O1 5312   3.385   3.156  13.242  0.0966  0.4080 -0.1460
  354TMC3    O2 5313   3.573   3.759  13.389  0.0792 -0.1359 -0.0095
  355MPD2     C 5314   3.188   4.029  11.540 -0.0767 -0.0500  0.1086
  355MPD2    C1 5315   3.255   4.048  11.420  0.6734 -0.0941  0.2491
  355MPD2    C2 5316   3.399   4.042  11.425  1.0438  0.2014  0.1139
  355MPD2    C3 5317   3.463   4.055  11.549  0.0373  0.1636  0.0873
  355MPD2    C4 5318   3.389   4.039  11.669  0.0678  0.2418  0.1271
  355MPD2    C5 5319   3.253   4.021  11.657 -0.5076  0.4376 -0.6666
  355MPD2     H 5320   3.448   4.038  11.329 -1.2423  1.2902 -1.0697
  355MPD2    H1 5321   3.441   4.035  11.764  0.9925 -0.1028 -0.3980
  355MPD2    H2 5322   3.081   4.042  11.543 -0.0227  0.3150  0.3460
  355MPD2    H3 5323   3.192   4.022  11.747  0.6131  1.1997  0.0853
  355MPD2     N 5324   3.595   4.094  11.559  0.3665  0.2714  0.3981
  355MPD2    H5 5325   3.630   4.112  11.653  1.4164 -1.2038  0.2853
  355MPD2    N1 5326   3.186   4.056  11.294  0.5253  0.3439 -0.1899
  355MPD2    H7 5327   3.097   4.007  11.287 -0.5817  2.2852  0.1599
  356TMC3    C1 5328   3.815   4.163  11.501  0.7832 -0.3536  0.0827
  356TMC3    C2 5329   3.901   4.219  11.407 -0.0943  0.1154  0.3864
  356TMC3    C3 5330   4.037   4.217  11.432 -0.4184  0.4612 -0.0160
  356TMC3    C4 5331   3.862   4.099  11.616 -1.0909  0.6377  0.6767
  356TMC3    C5 5332   3.996   4.098  11.635 -0.2343  0.1140  0.2356
  356TMC3    C6 5333   4.083   4.164  11.547 -0.3993  0.6701  0.7467
  356TMC3     C 5334   3.682   4.124  11.460  0.2856  0.1716 -0.2082
  356TMC3     O 5335   3.669   4.147  11.342 -0.6384 -0.0389 -0.0376
  356TMC3     H 5336   3.864   4.270  11.320  0.2321  0.2818  0.3461
  356TMC3    H1 5337   3.796   4.065  11.695 -0.0389 -0.8497  0.9101
  356TMC3    H2 5338   4.188   4.171  11.573 -0.4316 -0.8873  1.3098
  356TMC3    C7 5339   4.039   4.095  11.780  0.5027 -0.6783 -0.3452
  356TMC3    C8 5340   4.113   4.281  11.325 -0.2656 -0.1009  0.1233
  356TMC3    O1 5341   3.967   4.037  11.863  0.7306 -0.0846 -0.1596
  356TMC3    O2 5342   4.068   4.269  11.213  0.5969 -0.5398  0.1590
  357MPD2     C 5343   4.471   3.820   1.713 -0.3975 -0.3490  0.3638
  357MPD2    C1 5344   4.383   3.775   1.615  0.6527 -0.5869  0.1886
  357MPD2    C2 5345   4.249   3.819   1.624  0.1020 -0.2264  0.2724
  357MPD2    C3 5346   4.205   3.908   1.726  0.3526 -0.7948 -0.0992
  357MPD2    C4 5347   4.301   3.959   1.813  0.2579 -0.0953  0.1390
  357MPD2    C5 5348   4.430   3.910   1.810 -0.0356 -0.4223 -0.1575
  357MPD2     H 5349   4.182   3.793   1.543  0.4521  0.0849 -0.1145
  357MPD2    H1 5350   4.284   4.026   1.896  0.3470 -1.2077  1.0405
  357MPD2    H2 5351   4.574   3.786   1.719 -1.0283 -2.7513 -2.0425
  357MPD2    H3 5352   4.509   3.944   1.876 -0.4939  1.7235 -0.7161
  357MPD2     N 5353   4.077   3.949   1.752  0.2476  0.4190 -0.0992
  357MPD2    H5 5354   4.054   4.000   1.836  0.5806 -1.0424  0.8785
  357MPD2    N1 5355   4.424   3.691   1.499  0.3122  0.2720 -0.0590
  357MPD2    H7 5356   4.350   3.638   1.453  0.0717 -0.9264  1.7005
  358TMC3    C1 5357   4.572   3.609   1.336 -0.6966  1.0233 -0.4043
  358TMC3    C2 5358   4.476   3.514   1.305 -0.4076 -0.3236 -0.0913
  358TMC3    C3 5359   4.475   3.473   1.176 -0.9949  0.0406 -0.2268
  358TMC3    C4 5360   4.664   3.652   1.244  0.4484  0.1613  0.6240
  358TMC3    C5 5361   4.666   3.595   1.120  0.8027 -0.6863 -0.3929
  358TMC3    C6 5362   4.569   3.507   1.086 -0.4316  0.2718  0.5367
  358TMC3     C 5363   4.555   3.685   1.456 -1.0178 -0.0469 -0.5455
  358TMC3     O 5364   4.650   3.752   1.493 -0.8159 -0.3066 -0.6774
  358TMC3     H 5365   4.397   3.494   1.376  0.2023 -0.7046  0.4827
  358TMC3    H1 5366   0.014   3.720   1.282 -0.3103  1.1278  0.3777
  358TMC3    H2 5367   4.552   3.470   0.985  1.3761  0.1529  0.2848
  358TMC3    C7 5368   0.014   3.651   1.009  0.5817  0.1409 -0.7007
  358TMC3    C8 5369   4.352   3.437   1.108 -0.1045 -0.5288 -0.2443
  358TMC3    O1 5370   4.704   3.618   0.895 -0.0823 -0.0071  0.0310
  358TMC3    O2 5371   4.325   3.491   1.003  0.0628 -0.0955 -0.5637
  359MPD2     C 5372   3.925   2.658  12.360  0.2225  0.5761 -0.0157
  359MPD2    C1 5373   3.915   2.643  12.221 -0.2685 -0.0849 -0.1180
  359MPD2    C2 5374   3.793   2.586  12.168  0.4068  0.0201  0.0605
  359MPD2    C3 5375   3.684   2.556  12.247  0.2074 -0.1072  0.1960
  359MPD2    C4 5376   3.698   2.575  12.381  0.1935 -0.3661  0.0911
  359MPD2    C5 5377   3.815   2.622  12.434  0.8402  0.3939  0.5314
  359MPD2     H 5378   3.802   2.560  12.064 -1.7071 -2.0329  0.3816
  359MPD2    H1 5379   3.620   2.543  12.450  0.2727 -2.0744 -0.6074
  359MPD2    H2 5380   4.016   2.698  12.402  0.2044  2.5326 -1.7772
  359MPD2    H3 5381   3.819   2.628  12.542 -0.1945 -0.7211  0.6367
  359MPD2     N 5382   3.558   2.517  12.201 -0.1942  0.2101 -0.5207
  359MPD2    H5 5383   3.497   2.481  12.274  0.5059 -0.1528 -0.1255
  359MPD2    N1 5384   4.027   2.668  12.132 -0.9374  0.6751  0.5217
  359MPD2    H7 5385   4.008   2.648  12.034  0.9074 -0.3363  0.3651
  360TMC3    C1 5386   4.247   2.710  12.045 -0.2276  0.1261 -0.1272
  360TMC3    C2 5387   4.342   2.806  12.038  0.6773  0.6670 -0.1003
  360TMC3    C3 5388   4.432   2.793  11.939  0.3663 -0.1740 -0.8365
  360TMC3    C4 5389   4.239   2.598  11.969 -0.6754 -0.6818  0.5382
  360TMC3    C5 5390   4.331   2.585  11.870 -1.1271 -0.1829 -0.6351
  360TMC3    C6 5391   4.433   2.681  11.858  0.0552 -0.0322 -0.5453
  360TMC3     C 5392   4.151   2.729  12.148  1.2029 -0.4241 -0.7744
  360TMC3     O 5393   4.195   2.760  12.258 -0.7745 -0.5780 -0.2410
  360TMC3     H 5394   4.341   2.902  12.089 -1.7692  1.6881 -2.0764
  360TMC3    H1 5395   4.170   2.516  11.985  1.2270 -2.6935 -1.7373
  360TMC3    H2 5396   4.503   2.680  11.776 -0.3002  0.3249 -0.8505
  360TMC3    C7 5397   4.269   2.555  11.738 -0.1407  0.4158 -0.1111
  360TMC3    C8 5398   4.475   2.918  11.874 -0.5202 -0.5240 -0.6553
  360TMC3    O1 5399   4.342   2.572  11.640  0.2308  0.2320  0.4428
  360TMC3    O2 5400   4.429   3.021  11.919  0.1034  0.4900  0.4645
  361MPD2     C 5401   0.797   2.269  17.051  0.4614  0.7591  0.2764
  361MPD2    C1 5402   0.807   2.164  16.961 -0.2594 -0.1028  0.4103
  361MPD2    C2 5403   0.917   2.078  16.984 -0.5082  0.5647  0.7329
  361MPD2    C3 5404   1.006   2.090  17.084  0.2468  0.0775  0.1700
  361MPD2    C4 5405   0.997   2.201  17.163 -0.8777  0.4556  0.7549
  361MPD2    C5 5406   0.897   2.291  17.143 -0.4930  0.2093 -0.2410
  361MPD2     H 5407   0.906   1.993  16.917 -3.1817  0.8337  0.8139
  361MPD2    H1 5408   1.065   2.207  17.247  0.6864 -1.0880 -0.4090
  361MPD2    H2 5409   0.715   2.339  17.041 -0.9082 -0.8234  0.3437
  361MPD2    H3 5410   0.882   2.374  17.211  0.8039  0.2697 -0.0293
  361MPD2     N 5411   1.105   1.996  17.121  0.1390 -0.0365  0.6602
  361MPD2    H5 5412   1.154   2.016  17.208 -0.8734 -0.4441  1.3258
  361MPD2    N1 5413   0.716   2.137  16.856 -0.5767  0.4919  0.0192
  361MPD2    H7 5414   0.730   2.063  16.788  2.0628  1.3557 -0.3592
  362TMC3    C1 5415   0.516   2.154  16.731  0.4877  0.6952 -0.4312
  362TMC3    C2 5416   0.384   2.145  16.743  0.5531 -0.3787  0.3267
  362TMC3    C3 5417   0.317   2.125  16.629 -0.4002  0.2265  0.4689
  362TMC3    C4 5418   0.576   2.162  16.612 -0.4984  0.5438 -0.1972
  362TMC3    C5 5419   0.502   2.158  16.495 -1.3719  0.6513 -0.5651
  362TMC3    C6 5420   0.367   2.138  16.502 -0.0680 -0.2944 -0.1819
  362TMC3     C 5421   0.598   2.202  16.843  0.6932  0.0825  0.8473
  362TMC3     O 5422   0.530   2.276  16.914 -0.5446 -0.1257  0.0269
  362TMC3     H 5423   0.332   2.140  16.839 -0.1647 -2.1464 -0.1499
  362TMC3    H1 5424   0.679   2.195  16.608 -0.3770  0.5443  2.7775
  362TMC3    H2 5425   0.309   2.113  16.414  0.1632  0.0044 -0.4184
  362TMC3    C7 5426   0.579   2.139  16.380 -0.1157  0.4370  0.0705
  362TMC3    C8 5427   0.181   2.088  16.633  0.5269 -0.6494 -0.2340
  362TMC3    O1 5428   0.685   2.079  16.392  0.0801 -0.1406  0.1337
  362TMC3    O2 5429   0.136   2.015  16.543  0.5745  0.0131 -0.3023
  363TMC3    C1 5430   0.007   4.086   9.288  0.1117 -0.0186  0.0906
  363TMC3    C2 5431   4.672   3.995   9.375 -0.2481 -0.3619 -0.9214
  363TMC3    C3 5432   4.603   4.044   9.485  0.3583  0.3973 -0.6251
  363TMC3    C4 5433   4.721   4.224   9.314  0.5604 -0.7743  1.0577
  363TMC3    C5 5434   4.658   4.268   9.433 -0.1625 -0.2425 -0.6198
  363TMC3    C6 5435   4.594   4.178   9.513  0.4664 -1.2267  0.6391
  363TMC3     C 5436   0.107   4.032   9.195  0.5910  0.3970  0.2264
  363TMC3     O 5437   0.094   3.917   9.157  0.0388 -0.5554  0.3026
  363TMC3     H 5438   4.666   3.891   9.344  0.8775 -1.8042  3.6544
  363TMC3    H1 5439   0.056   4.296   9.260 -0.6208 -0.5398  0.0351
  363TMC3    H2 5440   4.524   4.221   9.584 -1.8511 -1.2956 -1.6049
  363TMC3    C7 5441   4.679   4.401   9.484 -0.7168  0.0205  0.1817
  363TMC3    C8 5442   4.540   3.948   9.588 -0.0935  0.0421 -0.0142
  363TMC3    O1 5443   4.721   4.480   9.400  0.4240 -0.4865  0.3702
  363TMC3    O2 5444   4.451   3.990   9.664  0.0333  0.4921 -0.1587
  364MPD2     C 5445   2.481   3.339  10.645  0.3736 -0.3102  0.3953
  364MPD2    C1 5446   2.605   3.319  10.588  0.5749 -0.1392 -0.0247
  364MPD2    C2 5447   2.672   3.208  10.629  0.3816 -0.3244  0.0965
  364MPD2    C3 5448   2.620   3.126  10.729 -0.4918  0.1950 -0.5070
  364MPD2    C4 5449   2.503   3.155  10.792  0.1650  0.4415  0.3852
  364MPD2    C5 5450   2.428   3.266  10.748  0.1141  0.0838 -0.2780
  364MPD2     H 5451   2.758   3.170  10.574  2.2542  2.2554  1.2441
  364MPD2    H1 5452   2.461   3.086  10.864  0.3279  0.2547  0.3011
  364MPD2    H2 5453   2.418   3.413  10.597 -1.5784 -1.2103  1.5922
  364MPD2    H3 5454   2.329   3.290  10.785 -0.7763 -3.6978 -0.1432
  364MPD2     N 5455   2.692   3.011  10.781  1.1245 -0.2477  0.1203
  364MPD2    H5 5456   2.648   2.977  10.866 -1.7256 -1.1592 -1.7055
  364MPD2    N1 5457   2.656   3.418  10.510 -0.0639  0.3406 -0.1623
  364MPD2    H7 5458   2.595   3.495  10.482  0.2473  0.9406  0.7883
  365TMC3    C1 5459   2.831   3.546  10.408 -0.1171  0.5079 -0.2569
  365TMC3    C2 5460   2.939   3.541  10.323  0.1049 -0.0212  0.1126
  365TMC3    C3 5461   3.008   3.656  10.291  0.3166  0.3995  0.1281
  365TMC3    C4 5462   2.799   3.663  10.468 -0.6575  0.4431 -0.1592
  365TMC3    C5 5463   2.868   3.781  10.435  0.5280 -0.0373 -0.4349
  365TMC3    C6 5464   2.962   3.777  10.339 -0.0906  0.3736  0.0434
  365TMC3     C 5465   2.786   3.421  10.460  0.1694  0.0941  0.1538
  365TMC3     O 5466   2.874   3.335  10.454  0.0415 -0.4164  0.6987
  365TMC3     H 5467   2.965   3.442  10.288  0.5367  0.1109  0.0569
  365TMC3    H1 5468   2.712   3.658  10.533 -0.6996  1.2115 -0.1552
  365TMC3    H2 5469   3.005   3.870  10.304  0.0288  0.7816  1.2709
  365TMC3    C7 5470   2.859   3.909  10.515 -0.0050 -0.2114 -0.2677
  365TMC3    C8 5471   3.153   3.638  10.280 -0.3087  0.6827 -0.8533
  365TMC3    O1 5472   2.901   4.017  10.473  0.4462  0.1268  0.7244
  365TMC3    O2 5473   3.223   3.744  10.294  0.2444 -0.3474 -0.0344
  366MPD2     C 5474   1.780   4.415  15.151 -0.4849 -0.1786 -0.8082
  366MPD2    C1 5475   1.734   4.545  15.124 -0.0162  1.0749  0.0793
  366MPD2    C2 5476   1.822   4.645  15.116  0.1586  0.0332 -0.3451
  366MPD2    C3 5477   1.963   4.632  15.153  0.1656  0.7325  0.0511
  366MPD2    C4 5478   2.013   4.502  15.173 -0.2109  0.1555 -0.2772
  366MPD2    C5 5479   1.916   4.405  15.174 -0.1615 -0.3705 -1.0191
  366MPD2     H 5480   1.793   0.021  15.095 -1.1806 -0.3093 -0.1219
  366MPD2    H1 5481   2.110   4.460  15.193 -0.0815  0.8159  0.4888
  366MPD2    H2 5482   1.710   4.334  15.167  1.2572 -1.4323  0.4449
  366MPD2    H3 5483   1.960   4.308  15.196  1.6848  1.1072  1.8499
  366MPD2     N 5484   2.046   0.017  15.156 -1.2956 -0.0082  0.2185
  366MPD2    H5 5485   2.002   0.109  15.158  1.1090  1.1437  0.1947
  366MPD2    N1 5486   1.597   4.553  15.106  0.6966  0.5712  0.6852
  366MPD2    H7 5487   1.535   4.488  15.153  1.4416  0.6993  1.8549
  367TMC3    C1 5488   1.397   4.686  15.099  0.4888 -0.4660 -0.2711
  367TMC3    C2 5489   1.398   4.711  15.233 -0.0482 -0.0038 -0.4884
  367TMC3    C3 5490   1.306   0.072  15.284 -0.2245  0.3547 -0.0052
  367TMC3    C4 5491   1.299   0.019  15.017 -0.4044 -0.6364  0.8087
  367TMC3    C5 5492   1.199   0.088  15.075  0.1414  0.2756 -0.6187
  367TMC3    C6 5493   1.210   0.128  15.206  0.2567 -0.0210  0.5455
  367TMC3     C 5494   1.530   4.659  15.048  0.3016  0.0694  0.7198
  367TMC3     O 5495   1.570   0.013  14.967 -0.3998  0.1353 -0.2417
  367TMC3     H 5496   1.472   4.662  15.296  0.7189  0.9223 -0.6568
  367TMC3    H1 5497   1.304   0.009  14.909 -1.8436 -0.8581  0.7587
  367TMC3    H2 5498   1.138   0.198  15.247 -1.1630 -0.5107 -1.0800
  367TMC3    C7 5499   1.090   0.159  15.005  0.1171 -0.1706  0.0475
  367TMC3    C8 5500   1.365   0.154  15.392 -0.2187  0.0610 -0.7531
  367TMC3    O1 5501   1.033   0.249  15.070  0.2539 -0.1256 -0.6163
  367TMC3    O2 5502   1.473   0.128  15.442 -0.3544  1.0320 -0.1930
  368MPD2     C 5503   2.051   1.820  13.119  0.8191  0.6595  0.0086
  368MPD2    C1 5504   2.023   1.945  13.061 -0.0609  0.5970  0.3585
  368MPD2    C2 5505   2.122   1.989  12.975  0.2044 -0.2318 -0.8451
  368MPD2    C3 5506   2.239   1.923  12.947  0.2031 -0.0419  0.0157
  368MPD2    C4 5507   2.264   1.806  13.011 -0.6775 -0.1150 -0.5097
  368MPD2    C5 5508   2.169   1.756  13.092 -0.4146  0.1634 -0.2857
  368MPD2     H 5509   2.097   2.082  12.926  0.9562  0.5145  0.1868
  368MPD2    H1 5510   2.356   1.751  12.991 -0.5155  0.8723 -2.4717
  368MPD2    H2 5511   1.986   1.766  13.187 -0.9035  0.8698 -1.4555
  368MPD2    H3 5512   2.188   1.657  13.131 -0.4690  1.2104  2.4100
  368MPD2     N 5513   2.333   1.975  12.846  0.3017  0.1609  0.0113
  368MPD2    H5 5514   2.407   1.908  12.828  0.6899 -0.0431  2.3822
  368MPD2    N1 5515   1.894   2.010  13.075 -0.8750  0.6659 -0.1941
  368MPD2    H7 5516   1.826   1.952  13.124  1.3970 -0.0989  2.0340
  369TMC3    C1 5517   1.721   2.155  13.037  0.6449  0.2867 -0.8047
  369TMC3    C2 5518   1.686   2.250  12.945 -1.0298 -0.0800 -0.0542
  369TMC3    C3 5519   1.578   2.240  12.861  0.0983  0.6993 -0.0061
  369TMC3    C4 5520   1.640   2.042  13.042 -0.1327  0.3068 -0.3366
  369TMC3    C5 5521   1.539   2.030  12.958  0.0026  0.2331 -0.1282
  369TMC3    C6 5522   1.510   2.121  12.856  0.0578  0.1921 -0.3706
  369TMC3     C 5523   1.861   2.135  13.031 -0.5483  0.2865  0.6581
  369TMC3     O 5524   1.927   2.223  12.973 -0.3463 -0.0665  0.6302
  369TMC3     H 5525   1.735   2.347  12.939  0.6274 -0.9695 -0.6838
  369TMC3    H1 5526   1.662   1.965  13.114 -2.7831  0.2933  0.4216
  369TMC3    H2 5527   1.444   2.103  12.772 -1.5249  0.2158  0.8739
  369TMC3    C7 5528   1.447   1.925  12.987  0.1946 -0.5801 -0.1012
  369TMC3    C8 5529   1.618   2.277  12.731 -0.0629 -0.0195  0.1051
  369TMC3    O1 5530   1.484   1.837  13.068  0.6844  0.4887 -0.5937
  369TMC3    O2 5531   1.533   2.301  12.650 -0.6033  0.1411 -0.8710
  370TMC3    C1 5532   2.061   2.588  16.017 -0.2221 -0.1716 -0.0892
  370TMC3    C2 5533   1.975   2.522  16.111  0.3441  0.0842  0.8792
  370TMC3    C3 5534   1.984   2.382  16.115 -0.2901 -0.0279 -0.6149
  370TMC3    C4 5535   2.136   2.512  15.925 -0.1839 -0.3184  0.4711
  370TMC3    C5 5536   2.130   2.368  15.935  0.3548 -0.4929 -0.1205
  370TMC3    C6 5537   2.045   2.308  16.018 -0.1735  0.5566 -0.0099
  370TMC3     C 5538   2.134   2.694  16.072 -0.1677  0.5034 -0.9560
  370TMC3     O 5539   2.129   2.696  16.197 -0.4909 -0.3384 -0.2273
  370TMC3     H 5540   1.925   2.585  16.183 -1.3945  1.8564 -1.8895
  370TMC3    H1 5541   2.215   2.550  15.862  1.5858 -0.1184  2.8089
  370TMC3    H2 5542   2.034   2.201  16.030 -1.2211  0.4726 -1.8000
  370TMC3    C7 5543   2.205   2.294  15.834 -0.3216  0.5516 -0.1954
  370TMC3    C8 5544   1.975   2.323  16.243  0.5115 -0.3289 -0.0809
  370TMC3    O1 5545   2.260   2.365  15.748 -0.0503 -0.1117  0.2594
  370TMC3    O2 5546   1.991   2.202  16.239 -0.6147  0.0712 -0.0469
  371TMC3    C1 5547   3.312   0.657  15.280  0.5176 -0.3836 -0.0223
  371TMC3    C2 5548   3.185   0.650  15.326  0.4860  0.1795  0.4406
  371TMC3    C3 5549   3.123   0.775  15.344  0.0482  0.1951 -0.3839
  371TMC3    C4 5550   3.370   0.770  15.233  0.0650  0.2790  0.3050
  371TMC3    C5 5551   3.305   0.888  15.246  0.6137 -0.6086  0.7716
  371TMC3    C6 5552   3.185   0.898  15.311  0.5784 -0.5225  0.5157
  371TMC3     C 5553   3.398   0.540  15.303 -0.3524 -0.6165  0.0307
  371TMC3     O 5554   3.519   0.546  15.281 -0.3002 -0.4833 -0.0777
  371TMC3     H 5555   3.126   0.562  15.351  2.6815 -1.6522 -0.9254
  371TMC3    H1 5556   3.475   0.775  15.207  0.2971 -0.8819  1.0538
  371TMC3    H2 5557   3.129   0.990  15.296  0.3664 -1.4024 -4.1049
  371TMC3    C7 5558   3.357   1.015  15.188  0.4139 -0.2245 -0.1135
  371TMC3    C8 5559   2.996   0.766  15.422  0.3196 -0.3061 -0.7788
  371TMC3    O1 5560   3.301   1.120  15.222  0.4216  0.0946  0.1131
  371TMC3    O2 5561   2.935   0.658  15.424 -0.2465  0.3739  0.0425
  372MPD2     C 5562   3.277   2.304  13.321  0.3823  0.0031 -0.5595
  372MPD2    C1 5563   3.292   2.237  13.438  0.0147 -0.0034  0.0464
  372MPD2    C2 5564   3.191   2.159  13.487  0.0986 -0.2662 -0.6913
  372MPD2    C3 5565   3.080   2.133  13.403 -0.0309  0.5624  0.4941
  372MPD2    C4 5566   3.076   2.186  13.277 -0.2565 -1.0144  0.5053
  372MPD2    C5 5567   3.173   2.276  13.244  0.4277 -0.2827 -0.0915
  372MPD2     H 5568   3.200   2.111  13.584  1.5131  1.3223 -0.0473
  372MPD2    H1 5569   2.997   2.185  13.202 -0.0399  2.1202  0.2271
  372MPD2    H2 5570   3.343   2.385  13.292  0.4981  0.3312  0.6126
  372MPD2    H3 5571   3.148   2.332  13.155  0.9815  0.4437  0.2093
  372MPD2     N 5572   2.977   2.044  13.437 -0.0147  0.4523 -0.0785
  372MPD2    H5 5573   2.910   2.031  13.362 -0.3283 -0.0645  0.2922
  372MPD2    N1 5574   3.401   2.244  13.519 -0.6607  0.1848 -0.0213
  372MPD2    H7 5575   3.394   2.204  13.612 -0.7856 -0.0823 -0.1477
  373TMC3    C1 5576   2.858   1.894  13.567 -0.1006 -0.2289  0.5824
  373TMC3    C2 5577   2.788   1.876  13.684  0.8133 -0.1311 -0.7691
  373TMC3    C3 5578   2.701   1.777  13.689  0.2814 -0.1239 -0.2513
  373TMC3    C4 5579   2.840   1.813  13.458 -0.1949 -0.2457 -0.0664
  373TMC3    C5 5580   2.760   1.705  13.480 -0.2213 -0.2070  0.2764
  373TMC3    C6 5581   2.685   1.693  13.587  0.2192  0.1128 -0.0371
  373TMC3     C 5582   2.956   1.998  13.563 -0.1084  0.4852 -0.1310
  373TMC3     O 5583   2.981   2.047  13.668  0.7007 -0.4609  0.1762
  373TMC3     H 5584   2.780   1.951  13.761  0.2307  0.0838 -1.0394
  373TMC3    H1 5585   2.908   1.820  13.373  1.1452  2.1530  1.1791
  373TMC3    H2 5586   2.602   1.623  13.590  1.1160 -0.9933 -0.9589
  373TMC3    C7 5587   2.824   1.588  13.431  0.2779 -0.6582  0.4521
  373TMC3    C8 5588   2.723   1.711  13.820 -0.1476  0.1708  0.0555
  373TMC3    O1 5589   2.893   1.597  13.330  0.3933 -0.3987 -0.3231
  373TMC3    O2 5590   2.807   1.752  13.895  1.0829  0.2693  1.0467
  374TMC3    C1 5591   3.610   2.047   9.279 -0.4645  0.0378 -0.5407
  374TMC3    C2 5592   3.617   2.171   9.338  0.7201  0.4585  0.4730
  374TMC3    C3 5593   3.665   2.273   9.259 -0.6587  0.2702 -0.4179
  374TMC3    C4 5594   3.642   2.029   9.149 -0.3363 -0.5239 -0.2677
  374TMC3    C5 5595   3.687   2.132   9.078 -0.8124 -0.1338  0.5311
  374TMC3    C6 5596   3.693   2.253   9.129 -0.0863 -0.2277  0.2398
  374TMC3     C 5597   3.541   1.935   9.347  0.2829 -0.4470 -0.8174
  374TMC3     O 5598   3.492   1.843   9.284  0.4013  0.3094  0.2662
  374TMC3     H 5599   3.575   2.196   9.435 -0.1480 -1.0775  0.4816
  374TMC3    H1 5600   3.641   1.929   9.107  0.5836 -0.3826 -0.6251
  374TMC3    H2 5601   3.720   2.342   9.073  0.6537 -0.5138  0.1438
  374TMC3    C7 5602   3.743   2.096   8.946  0.2377  0.0566  0.0843
  374TMC3    C8 5603   3.698   2.396   9.321  0.6360 -0.7072 -0.1427
  374TMC3    O1 5604   3.715   1.989   8.890  0.2169 -0.0309 -0.2172
  374TMC3    O2 5605   3.720   2.492   9.244  0.6583 -0.4182  0.7783
  375MPD2     C 5606   3.487   3.645  16.752 -0.0922 -0.4280  0.0055
  375MPD2    C1 5607   3.390   3.553  16.708 -1.1952  0.2926 -0.1850
  375MPD2    C2 5608   3.424   3.434  16.649  0.4316 -0.3475  0.2881
  375MPD2    C3 5609   3.558   3.403  16.629 -0.6730 -0.0506  0.2766
  375MPD2    C4 5610   3.652   3.486  16.686  0.7614 -0.5390 -0.0132
  375MPD2    C5 5611   3.616   3.605  16.746 -0.0743  0.3730 -0.6007
  375MPD2     H 5612   3.342   3.373  16.611  2.1010 -1.4624 -1.5079
  375MPD2    H1 5613   3.756   3.455  16.690  0.6141 -1.0836 -0.3794
  375MPD2    H2 5614   3.474   3.740  16.802  0.7220  0.2044 -0.9773
  375MPD2    H3 5615   3.693   3.677  16.771  1.4723 -1.6074  0.3524
  375MPD2     N 5616   3.606   3.282  16.577  0.1269  0.3274 -0.2738
  375MPD2    H5 5617   3.707   3.279  16.564  0.0697 -1.3915 -0.3755
  375MPD2    N1 5618   3.252   3.584  16.706 -0.1904 -0.3673  0.4334
  375MPD2    H7 5619   3.190   3.522  16.655  1.0384 -1.8174  0.6855
  376TMC3    C1 5620   3.597   3.053  16.509  0.0850  0.4709 -0.6057
  376TMC3    C2 5621   3.726   3.041  16.546 -0.0038  1.0383  0.1039
  376TMC3    C3 5622   3.783   2.926  16.507 -0.0759  0.0756 -0.6249
  376TMC3    C4 5623   3.530   2.975  16.425  0.0257 -0.7159 -0.1684
  376TMC3    C5 5624   3.598   2.874  16.367 -0.0599 -0.2721  0.2535
  376TMC3    C6 5625   3.729   2.851  16.404  0.3245  0.1854 -0.2719
  376TMC3     C 5626   3.525   3.174  16.544 -0.1786  0.3632  0.0636
  376TMC3     O 5627   3.404   3.162  16.548  0.2502 -0.2985  0.6769
  376TMC3     H 5628   3.768   3.097  16.629  0.4169  0.1482  0.4828
  376TMC3    H1 5629   3.429   2.995  16.393 -0.5644 -0.9565  1.5841
  376TMC3    H2 5630   3.780   2.766  16.361 -0.0588  0.2792 -0.9074
  376TMC3    C7 5631   3.534   2.796  16.255 -0.2998  0.5340  0.0864
  376TMC3    C8 5632   3.925   2.903  16.511  0.5393  0.2628 -0.8267
  376TMC3    O1 5633   3.412   2.789  16.260 -0.4160  0.0940 -0.0156
  376TMC3    O2 5634   3.997   2.988  16.463  0.2499  0.3788  0.7434
  377MPD2     C 5635   1.011   2.242  12.318 -0.1683  0.1889  0.5098
  377MPD2    C1 5636   1.070   2.170  12.428  0.6130  0.1876 -0.3181
  377MPD2    C2 5637   1.003   2.143  12.548  0.0100  0.5608 -0.0530
  377MPD2    C3 5638   0.868   2.180  12.557 -0.5356 -1.1534 -0.2318
  377MPD2    C4 5639   0.810   2.259  12.455 -0.4428 -0.1146  0.0585
  377MPD2    C5 5640   0.884   2.294  12.340 -0.0669 -0.0831  0.1605
  377MPD2     H 5641   1.059   2.099  12.630  1.6830  0.2726 -1.3581
  377MPD2    H1 5642   0.704   2.278  12.465 -0.9634 -3.0004  0.0384
  377MPD2    H2 5643   1.068   2.261  12.228  1.2961  0.8995  1.5884
  377MPD2    H3 5644   0.827   2.339  12.259 -0.0092  0.5778  0.4877
  377MPD2     N 5645   0.784   2.153  12.669 -0.2080  0.4719 -0.7482
  377MPD2    H5 5646   0.686   2.170  12.647 -0.7763 -1.2890  0.4247
  377MPD2    N1 5647   1.204   2.117  12.399 -0.3106 -0.1369  0.3658
  377MPD2    H7 5648   1.235   2.132  12.304 -0.2284 -0.0516  0.4059
  378TMC3    C1 5649   1.600   2.087  12.269 -0.1125 -0.3469  0.0481
  378TMC3    C2 5650   1.467   2.068  12.295 -0.1371 -0.0898  0.5151
  378TMC3    C3 5651   1.434   2.029  12.426  0.7842 -0.0013 -0.2932
  378TMC3    C4 5652   1.696   2.053  12.361  0.8488 -0.0223  0.5447
  378TMC3    C5 5653   1.667   1.982  12.479 -0.2455  0.2411 -0.4998
  378TMC3    C6 5654   1.529   1.974  12.516  0.4219 -0.2208  0.2111
  378TMC3     C 5655   1.643   2.112  12.127  0.0783 -0.1124  0.2719
  378TMC3     O 5656   1.571   2.182  12.056 -0.6051 -0.4660  0.5099
  378TMC3     H 5657   1.396   2.105  12.222  0.9731  0.4267 -0.2901
  378TMC3    H1 5658   1.795   2.088  12.336  1.3681 -1.0780  1.1125
  378TMC3    H2 5659   1.503   1.952  12.619  3.6158  1.5460  1.4312
  378TMC3    C7 5660   1.768   1.951  12.574 -0.0922 -0.7437 -0.0846
  378TMC3    C8 5661   1.292   2.053  12.481 -0.5364 -0.2544  0.0776
  378TMC3    O1 5662   1.733   1.902  12.679 -0.1536  0.0950 -0.4975
  378TMC3    O2 5663   1.281   2.026  12.601  0.2482 -0.2649 -0.1417
  379MPD2     C 5664   1.754   0.653  16.434 -0.0705  0.4401  0.0454
  379MPD2    C1 5665   1.871   0.613  16.364  0.6141 -0.7453 -0.4378
  379MPD2    C2 5666   1.951   0.519  16.419 -0.6197 -0.1304 -0.0218
  379MPD2    C3 5667   1.925   0.462  16.548 -0.0379  0.3231 -0.1128
  379MPD2    C4 5668   1.820   0.505  16.617  0.2550 -0.1749 -0.6844
  379MPD2    C5 5669   1.731   0.595  16.554 -0.4077  0.2500 -0.0624
  379MPD2     H 5670   2.024   0.466  16.359 -1.2437 -0.4709 -0.4862
  379MPD2    H1 5671   1.794   0.459  16.712  0.6100 -0.8948 -0.9372
  379MPD2    H2 5672   1.678   0.719  16.393  0.0503  1.7572  1.9093
  379MPD2    H3 5673   1.635   0.614  16.600 -1.2624  0.1864 -1.8433
  379MPD2     N 5674   2.004   0.358  16.610  0.3494  0.1320  0.1098
  379MPD2    H5 5675   1.975   0.336  16.705  0.5546 -2.5447 -0.4400
  379MPD2    N1 5676   1.877   0.662  16.231  0.6826  0.0673 -0.3104
  379MPD2    H7 5677   1.817   0.741  16.209 -0.3563 -0.0334  2.1365
  380TMC3    C1 5678   1.922   0.661  16.004  0.0161 -0.1557  0.1659
  380TMC3    C2 5679   2.017   0.646  15.911 -0.0389  0.3289  0.1314
  380TMC3    C3 5680   1.985   0.620  15.781 -0.4506 -0.2097 -0.9627
  380TMC3    C4 5681   1.784   0.645  15.965 -0.8613  1.2325 -1.2629
  380TMC3    C5 5682   1.760   0.592  15.840  0.5294  0.9806  0.2809
  380TMC3    C6 5683   1.860   0.590  15.740  0.3592  0.0177 -0.0131
  380TMC3     C 5684   1.957   0.609  16.133  0.1470  0.2260 -0.5764
  380TMC3     O 5685   2.045   0.527  16.139 -0.2613  0.0643  0.5909
  380TMC3     H 5686   2.122   0.661  15.930 -0.1585  0.7149  0.4921
  380TMC3    H1 5687   1.707   0.658  16.040 -1.0029  1.8618 -1.5233
  380TMC3    H2 5688   1.835   0.593  15.634  0.0072 -1.2849  0.0271
  380TMC3    C7 5689   1.619   0.599  15.796  0.3172  0.2722 -0.0277
  380TMC3    C8 5690   2.083   0.637  15.678  0.0141 -0.8395  0.6617
  380TMC3    O1 5691   1.543   0.675  15.856 -0.8994 -0.0785  0.3436
  380TMC3    O2 5692   2.043   0.673  15.565  0.0131 -0.3112 -0.2001
  381TMC3    C1 5693   2.044   1.475  16.119 -0.2665 -0.7620  0.3619
  381TMC3    C2 5694   2.136   1.581  16.096 -0.6216  0.3684  0.2404
  381TMC3    C3 5695   2.143   1.683  16.190  0.1813 -0.2654 -0.2523
  381TMC3    C4 5696   1.971   1.479  16.235  0.0893 -0.7042  0.4651
  381TMC3    C5 5697   1.988   1.588  16.324  1.0804  0.1506 -0.9788
  381TMC3    C6 5698   2.072   1.693  16.304 -0.2796  0.6215 -0.0938
  381TMC3     C 5699   2.061   1.344  16.056  0.9561  0.5254 -0.2216
  381TMC3     O 5700   2.006   1.246  16.105  0.4847  0.1725  0.1877
  381TMC3     H 5701   2.199   1.587  16.008 -0.4369  1.7421  0.4647
  381TMC3    H1 5702   1.887   1.412  16.252  1.2913 -2.4496 -0.5245
  381TMC3    H2 5703   2.078   1.773  16.377 -1.2204 -0.1239  0.8013
  381TMC3    C7 5704   1.921   1.581  16.460  0.5995 -0.1461 -0.3539
  381TMC3    C8 5705   2.260   1.767  16.182  0.0842 -1.1763 -0.2923
  381TMC3    O1 5706   1.887   1.469  16.492  0.7545 -0.4482  0.0994
  381TMC3    O2 5707   2.351   1.737  16.106 -0.1607  0.9818  0.2213
  382MPD2     C 5708   1.259   4.175  17.164 -0.5730 -0.3185  0.1718
  382MPD2    C1 5709   1.258   4.139  17.300  0.4726  0.1704 -0.3382
  382MPD2    C2 5710   1.222   4.009  17.337  0.1309 -0.1754  0.0702
  382MPD2    C3 5711   1.187   3.918  17.239 -0.2026  0.3276 -0.6044
  382MPD2    C4 5712   1.219   3.947  17.107 -1.1345  0.5107 -0.4526
  382MPD2    C5 5713   1.237   4.079  17.068  0.0829 -0.1308  0.3476
  382MPD2     H 5714   1.201   3.993  17.442  3.4259  0.6926  0.8516
  382MPD2    H1 5715   1.186   3.881  17.028 -0.6361 -0.0741 -0.1727
  382MPD2    H2 5716   1.278   4.276  17.130 -1.0919 -0.1846  0.2749
  382MPD2    H3 5717   1.232   4.113  16.965  1.6577  0.4267  0.4593
  382MPD2     N 5718   1.117   3.799  17.266  0.3896 -0.0665  0.0275
  382MPD2    H5 5719   1.119   3.724  17.197 -0.3401  2.4682 -2.7616
  382MPD2    N1 5720   1.277   4.231  17.408  0.1658  0.7156  0.0355
  382MPD2    H7 5721   1.277   4.191  17.501 -2.2981 -0.5866 -0.5216
  383TMC3    C1 5722   0.966   3.657  17.391 -0.0470 -0.2613  0.3369
  383TMC3    C2 5723   0.907   3.618  17.269  0.0941  0.1420  0.7900
  383TMC3    C3 5724   0.821   3.511  17.279  0.3509 -0.3941  0.3707
  383TMC3    C4 5725   0.926   3.604  17.508 -0.3495  0.1696 -0.2080
  383TMC3    C5 5726   0.833   3.507  17.507  0.3167  0.1826 -0.8770
  383TMC3    C6 5727   0.778   3.453  17.390 -0.1271  0.2521 -0.0468
  383TMC3     C 5728   1.049   3.777  17.391  0.5913 -0.5154  0.6722
  383TMC3     O 5729   1.037   3.848  17.490 -0.3031 -0.5302 -0.4612
  383TMC3     H 5730   0.932   3.650  17.169  2.9934  1.1191  1.8296
  383TMC3    H1 5731   0.991   3.617  17.594  0.7433  2.5946 -1.4109
  383TMC3    H2 5732   0.712   3.367  17.395  0.6112 -0.2607  0.9046
  383TMC3    C7 5733   0.749   3.488  17.621  0.3106  0.4698 -1.2870
  383TMC3    C8 5734   0.766   3.472  17.157  0.0694 -0.3040  0.0406
  383TMC3    O1 5735   0.660   3.404  17.620  0.0525  0.2544  0.5373
  383TMC3    O2 5736   0.702   3.551  17.091 -0.0290 -0.6809 -0.5010
  384MPD2     C 5737   2.884   4.573  11.909 -0.3987  0.0346  0.2766
  384MPD2    C1 5738   2.898   4.547  12.044  0.0586 -0.0028  0.1966
  384MPD2    C2 5739   2.918   4.419  12.077 -0.4218  0.1164  0.0691
  384MPD2    C3 5740   2.924   4.316  11.977  0.3260 -0.1510  0.3671
  384MPD2    C4 5741   2.916   4.350  11.850  0.7079  0.1086 -0.1541
  384MPD2    C5 5742   2.891   4.482  11.808  0.5547  0.0370  0.2769
  384MPD2     H 5743   2.921   4.394  12.183 -0.2605  0.5426  0.1631
  384MPD2    H1 5744   2.919   4.274  11.772  0.0349  0.8285 -0.8815
  384MPD2    H2 5745   2.882   4.677  11.877  1.2270 -0.3703 -1.2157
  384MPD2    H3 5746   2.892   4.511  11.703  0.1499 -3.2486 -0.6217
  384MPD2     N 5747   2.960   4.182  12.011  0.1285 -0.2480 -0.3182
  384MPD2    H5 5748   2.965   4.113  11.936  1.1439 -1.1358  0.5705
  384MPD2    N1 5749   2.903   4.645  12.148 -0.5326 -0.4872  0.1825
  384MPD2    H7 5750   2.928   4.605  12.237  0.6415 -1.7564 -0.7208
  385TMC3    C1 5751   3.023   3.999  12.153 -0.5930 -0.1205 -0.1019
  385TMC3    C2 5752   2.949   3.897  12.095 -0.1291 -0.6056  0.1888
  385TMC3    C3 5753   2.908   3.794  12.173 -0.0109  0.1760  0.4213
  385TMC3    C4 5754   3.074   3.978  12.277  0.1231 -0.3421  0.0476
  385TMC3    C5 5755   3.032   3.873  12.356  0.0320  0.0433  0.4462
  385TMC3    C6 5756   2.944   3.781  12.306  0.0073  0.2755 -0.2444
  385TMC3     C 5757   3.002   4.146  12.136 -1.0379 -0.3278  0.0850
  385TMC3     O 5758   3.002   4.209  12.242  0.1637  0.4787  0.2320
  385TMC3     H 5759   2.901   3.909  11.999 -0.8799  0.3679  0.6908
  385TMC3    H1 5760   3.148   4.050  12.311 -0.2103  0.2301 -0.4214
  385TMC3    H2 5761   2.909   3.696  12.363 -2.5183  0.0961 -2.0572
  385TMC3    C7 5762   3.007   3.921  12.496 -0.5969 -0.9277 -0.1004
  385TMC3    C8 5763   2.824   3.693  12.113 -0.3735 -0.0937 -0.0951
  385TMC3    O1 5764   2.960   3.843  12.579 -0.3054 -0.0663 -0.2490
  385TMC3    O2 5765   2.844   3.581  12.156 -0.4548 -0.4743 -0.1864
  386TMC3    C1 5766   2.736   2.258  11.617 -0.2574 -0.1636 -0.5189
  386TMC3    C2 5767   2.763   2.325  11.495  0.3567  0.2283  0.3592
  386TMC3    C3 5768   2.658   2.387  11.427  0.5671  1.0533 -0.1519
  386TMC3    C4 5769   2.607   2.266  11.657  0.0879 -0.3778  0.1168
  386TMC3    C5 5770   2.506   2.324  11.583 -0.5559 -0.4400 -0.3512
  386TMC3    C6 5771   2.522   2.387  11.468  0.1857 -0.0138  0.0093
  386TMC3     C 5772   2.816   2.147  11.654 -0.5920 -0.0457  0.0175
  386TMC3     O 5773   2.756   2.044  11.682 -0.5540  0.4734 -0.2808
  386TMC3     H 5774   2.862   2.315  11.451  1.9007  0.1815  3.8950
  386TMC3    H1 5775   2.582   2.202  11.741  1.3477 -0.3663  0.4863
  386TMC3    H2 5776   2.458   2.446  11.403  1.3729 -0.4323 -1.5347
  386TMC3    C7 5777   2.370   2.328  11.624  0.0680  0.1054  0.2954
  386TMC3    C8 5778   2.688   2.445  11.292 -0.3482 -0.1189 -0.0180
  386TMC3    O1 5779   2.347   2.342  11.743 -0.3961  0.2679  0.6239
  386TMC3    O2 5780   2.595   2.512  11.248  0.5730 -0.2378 -0.0094
  387MPD2     C 5781   0.467   2.019   9.604 -0.1492  0.2274 -0.0575
  387MPD2    C1 5782   0.508   2.002   9.733  0.5808 -0.2263  0.1471
  387MPD2    C2 5783   0.476   1.879   9.796  0.9833  0.1012 -0.7795
  387MPD2    C3 5784   0.400   1.786   9.724 -0.3085 -0.1409  0.1586
  387MPD2    C4 5785   0.367   1.802   9.589  0.4055 -0.6069 -0.2332
  387MPD2    C5 5786   0.397   1.923   9.527  0.1162  0.0149  0.0310
  387MPD2     H 5787   0.508   1.862   9.898  0.3409  1.3505 -0.3648
  387MPD2    H1 5788   0.318   1.720   9.539 -2.0356  1.4722 -1.2791
  387MPD2    H2 5789   0.501   2.108   9.554  0.5640  1.6813  3.0472
  387MPD2    H3 5790   0.374   1.944   9.424 -0.4513 -1.0793 -0.0641
  387MPD2     N 5791   0.368   1.672   9.800 -0.8513 -0.2871 -0.3208
  387MPD2    H5 5792   0.394   1.665   9.898  0.4811 -0.2104 -0.6660
  387MPD2    N1 5793   0.593   2.085   9.806  0.0576  0.6231  0.5701
  387MPD2    H7 5794   0.610   2.057   9.902 -0.5045  1.4600  0.9190
  388TMC3    C1 5795   0.786   2.185   9.844 -0.5257  0.1992  0.2737
  388TMC3    C2 5796   0.852   2.304   9.844 -0.2653 -0.4578 -0.3485
  388TMC3    C3 5797   0.960   2.314   9.917 -0.4078  1.0236  0.4046
  388TMC3    C4 5798   0.825   2.085   9.924 -0.6224 -0.0840 -0.0751
  388TMC3    C5 5799   0.925   2.100  10.013 -0.3844 -0.0286 -0.1170
  388TMC3    C6 5800   0.996   2.215  10.007 -0.6354 -0.1756 -0.6644
  388TMC3     C 5801   0.667   2.196   9.773  0.4824 -0.6920  0.3766
  388TMC3     O 5802   0.678   2.250   9.662  0.3261  0.8043  0.1967
  388TMC3     H 5803   0.807   2.391   9.796  0.2228  0.2841  0.5424
  388TMC3    H1 5804   0.764   1.996   9.931 -0.6193  0.0213  1.4562
  388TMC3    H2 5805   1.069   2.225  10.087 -0.9434  1.6802 -0.6311
  388TMC3    C7 5806   0.971   1.987  10.085 -0.6153  0.1514 -0.6852
  388TMC3    C8 5807   1.034   2.440   9.918  0.6221 -0.6184  0.7062
  388TMC3    O1 5808   1.089   1.991  10.112 -0.8181  0.3153 -0.8303
  388TMC3    O2 5809   0.995   2.509   9.826 -0.6222  0.0405 -0.1556
  389MPD2     C 5810   4.588   0.687  11.390 -0.3745  0.6198 -0.4243
  389MPD2    C1 5811   4.529   0.585  11.316 -0.6483  0.3632  0.0598
  389MPD2    C2 5812   4.452   0.493  11.385 -0.4877  1.4466 -0.2487
  389MPD2    C3 5813   4.439   0.503  11.522  0.6902  0.3745  0.0100
  389MPD2    C4 5814   4.496   0.607  11.593 -0.3519  0.5896 -0.9845
  389MPD2    C5 5815   4.576   0.700  11.525 -0.4769 -0.2979  0.9447
  389MPD2     H 5816   4.403   0.414  11.329 -0.9778 -0.2558  2.5962
  389MPD2    H1 5817   4.490   0.606  11.701  2.1503  1.2865 -0.8405
  389MPD2    H2 5818   4.653   0.761  11.345 -0.3426  1.8935  1.7003
  389MPD2    H3 5819   4.634   0.780  11.569 -0.4053 -0.5853  1.3786
  389MPD2     N 5820   4.365   0.412  11.597  0.2654  0.1381  0.0576
  389MPD2    H5 5821   4.362   0.434  11.696 -0.8964  1.2237 -0.2320
  389MPD2    N1 5822   4.555   0.591  11.177 -0.6554 -0.0928 -0.5464
  389MPD2    H7 5823   4.608   0.667  11.136  0.9819  0.2729  2.2386
  390TMC3    C1 5824   4.220   0.240  11.654  0.1178  0.4718 -0.3957
  390TMC3    C2 5825   4.220   0.103  11.681  0.2657  0.2994  0.0204
  390TMC3    C3 5826   4.102   0.059  11.739 -0.4929  0.1358 -0.1254
  390TMC3    C4 5827   4.131   0.327  11.711 -0.2958  0.0746  0.2243
  390TMC3    C5 5828   4.026   0.280  11.787 -0.0848  0.4749 -0.3170
  390TMC3    C6 5829   4.012   0.144  11.799 -0.1180 -0.6345  0.3080
  390TMC3     C 5830   4.311   0.297  11.553  0.1837 -0.1610 -0.3361
  390TMC3     O 5831   4.325   0.231  11.448  0.3245 -0.0390  0.7859
  390TMC3     H 5832   4.297   0.035  11.646 -0.0647  0.7061 -1.4983
  390TMC3    H1 5833   4.133   0.432  11.686  0.3849  0.4487  1.8158
  390TMC3    H2 5834   3.930   0.104  11.858 -0.1134  2.4240  2.4022
  390TMC3    C7 5835   3.902   0.337  11.741  0.0842  0.8293  0.0762
  390TMC3    C8 5836   4.048   4.661  11.695 -0.4905  0.4002  0.4733
  390TMC3    O1 5837   3.908   0.449  11.687 -0.6407  0.3774  0.4851
  390TMC3    O2 5838   4.082   4.617  11.587  0.0388 -0.0712  0.4685
  391MPD2     C 5839   3.843   2.187  10.870 -0.1129  0.1011  0.2944
  391MPD2    C1 5840   3.981   2.208  10.870 -0.0453  0.2300 -0.2539
  391MPD2    C2 5841   4.035   2.244  10.747  0.0248  0.4433  0.1976
  391MPD2    C3 5842   3.965   2.230  10.628  0.9570  0.0396 -0.9018
  391MPD2    C4 5843   3.831   2.196  10.633 -0.0782 -0.2010  0.8025
  391MPD2    C5 5844   3.776   2.171  10.753 -0.1251 -0.1130  0.1958
  391MPD2     H 5845   4.135   2.284  10.729  0.0853  1.1426  2.1354
  391MPD2    H1 5846   3.766   2.180  10.548  0.9513 -3.1165  0.5600
  391MPD2    H2 5847   3.796   2.174  10.967 -0.7894  3.0189  0.3614
  391MPD2    H3 5848   3.669   2.158  10.766 -0.3700  1.7659  0.1375
  391MPD2     N 5849   4.023   2.259  10.503 -0.0256 -0.2853 -0.3042
  391MPD2    H5 5850   4.118   2.295  10.514  0.0465 -1.1355  1.8586
  391MPD2    N1 5851   4.059   2.204  10.992 -0.2277 -0.3121 -0.0872
  391MPD2    H7 5852   4.004   2.185  11.074  2.2131 -1.5440  1.2493
  392TMC3    C1 5853   4.045   2.291  10.268 -0.4541 -0.6752 -0.5869
  392TMC3    C2 5854   3.970   2.300  10.148 -0.6472  0.2029  0.3206
  392TMC3    C3 5855   4.000   2.406  10.066 -0.0481 -0.1038  0.1376
  392TMC3    C4 5856   4.152   2.377  10.297 -0.4889  0.0113 -0.2426
  392TMC3    C5 5857   4.173   2.478  10.210 -0.2208  0.4486 -0.1686
  392TMC3    C6 5858   4.093   2.497  10.099  0.5563  1.0654  0.1170
  392TMC3     C 5859   3.976   2.226  10.380 -0.6776 -0.0287  0.4041
  392TMC3     O 5860   3.875   2.165  10.349  0.4359  0.1940  0.0634
  392TMC3     H 5861   3.901   2.223  10.115 -0.4317  0.0737  0.1687
  392TMC3    H1 5862   4.216   2.368  10.384 -1.1368 -0.7699  0.1505
  392TMC3    H2 5863   4.117   2.583  10.037 -1.7864  0.9446 -0.9647
  392TMC3    C7 5864   4.275   2.577  10.245  0.2285  0.3235  0.3154
  392TMC3    C8 5865   3.927   2.412   9.946  0.5745  0.1199  0.9722
  392TMC3    O1 5866   4.325   2.563  10.356 -0.0768  0.2994  0.2628
  392TMC3    O2 5867   3.848   2.325   9.924 -0.0267 -0.4264 -0.2094
  393TMC3    C1 5868   3.002   0.136  10.234 -0.0084  0.2119  0.2115
  393TMC3    C2 5869   2.883   0.101  10.282 -0.4744 -0.4316  0.2657
  393TMC3    C3 5870   2.866   4.706  10.340 -0.3653 -0.2632  0.2428
  393TMC3    C4 5871   3.111   0.051  10.246 -0.2827  0.9309  0.0861
  393TMC3    C5 5872   3.090   4.652  10.303 -0.3406  0.0993 -0.1797
  393TMC3    C6 5873   2.970   4.614  10.350 -1.2532  0.6726  0.3630
  393TMC3     C 5874   3.005   0.266  10.159  0.0025  0.5990 -0.4963
  393TMC3     O 5875   2.901   0.297  10.100  0.2898 -0.8143 -0.1308
  393TMC3     H 5876   2.790   0.155  10.268 -0.5148 -0.3081  1.0124
  393TMC3    H1 5877   3.207   0.074  10.201  0.6145  0.4339  1.7441
  393TMC3    H2 5878   2.954   4.515  10.392 -1.7225 -0.4029 -2.3873
  393TMC3    C7 5879   3.192   4.556  10.320  0.3960 -0.2028 -0.1917
  393TMC3    C8 5880   2.766   4.706  10.444  0.8009  0.3066 -0.1070
  393TMC3    O1 5881   3.161   4.440  10.299  0.2048 -0.1462  0.5157
  393TMC3    O2 5882   2.667   0.046  10.424 -0.0042  0.3150  0.0679
  394TMC3    C1 5883   4.527   0.533  10.949 -0.4226  0.1753 -0.1356
  394TMC3    C2 5884   4.435   0.518  10.851 -0.5079 -0.6782 -0.6885
  394TMC3    C3 5885   4.471   0.523  10.726  1.1475 -0.3948  0.1171
  394TMC3    C4 5886   4.662   0.543  10.916  0.1838  0.3545  0.6261
  394TMC3    C5 5887   4.694   0.534  10.786  0.3583  0.0525 -0.2093
  394TMC3    C6 5888   4.605   0.524  10.683  0.2991 -0.2608  0.2084
  394TMC3     C 5889   4.484   0.515  11.085  0.2268  0.1768  0.1950
  394TMC3     O 5890   4.392   0.437  11.098 -0.1074 -0.0675  0.2752
  394TMC3     H 5891   4.334   0.497  10.883 -0.1274 -0.7099  0.5188
  394TMC3    H1 5892   0.005   0.553  10.999  0.8094  0.2982  0.1123
  394TMC3    H2 5893   4.641   0.535  10.581 -1.8936  1.7712 -0.3363
  394TMC3    C7 5894   0.096   0.591  10.751  0.8240 -0.2884 -0.1458
  394TMC3    C8 5895   4.366   0.465  10.634 -0.6541 -0.4173 -0.6173
  394TMC3    O1 5896   0.132   0.689  10.818  0.1636 -0.6536 -0.2576
  394TMC3    O2 5897   4.247   0.499  10.654  0.1597 -0.1726  0.0587
  395TMC3    C1 5898   4.461   2.896  14.542  0.5998 -0.1474 -0.9703
  395TMC3    C2 5899   4.405   2.871  14.422 -0.2959 -0.3894 -0.0544
  395TMC3    C3 5900   4.441   2.947  14.313 -0.2466  0.3887 -0.1258
  395TMC3    C4 5901   4.569   2.984  14.562 -0.2463  0.4209 -0.0602
  395TMC3    C5 5902   4.599   3.066  14.455 -0.7464 -0.2861  0.2484
  395TMC3    C6 5903   4.531   3.052  14.331  0.3558  0.5372  0.2970
  395TMC3     C 5904   4.439   2.793  14.648  0.2991 -0.0408 -0.3167
  395TMC3     O 5905   4.490   2.837  14.754 -0.6504 -0.1025  0.4156
  395TMC3     H 5906   4.327   2.796  14.421 -0.6189 -0.0910  1.4726
  395TMC3    H1 5907   4.615   2.993  14.660 -0.9587 -0.4005  0.3523
  395TMC3    H2 5908   4.552   3.109  14.241 -1.4025  0.0842 -0.3934
  395TMC3    C7 5909   4.703   3.168  14.485  0.7245  0.9485  0.0191
  395TMC3    C8 5910   4.368   2.946  14.191 -0.1292 -0.5036 -0.5488
  395TMC3    O1 5911   4.697   3.215  14.600  0.2172 -0.0710 -0.0513
  395TMC3    O2 5912   4.371   3.044  14.126 -0.1447 -0.0967  0.2673
  396MPD2     C 5913   4.402   4.178  17.209  0.3000 -0.2257  0.2775
  396MPD2    C1 5914   4.522   4.244  17.219  0.0044 -0.1622  0.4964
  396MPD2    C2 5915   4.560   4.342  17.129 -0.4135 -0.1658 -0.7162
  396MPD2    C3 5916   4.469   4.380  17.028 -0.0546  0.1271 -0.0329
  396MPD2    C4 5917   4.340   4.328  17.036 -0.3062 -0.0330  0.7861
  396MPD2    C5 5918   4.312   4.220  17.113 -0.6532  0.6272  0.1661
  396MPD2     H 5919   4.661   4.382  17.138 -0.1277 -0.8829 -0.7382
  396MPD2    H1 5920   4.270   4.359  16.959  2.4978  1.6264 -1.0606
  396MPD2    H2 5921   4.360   4.110  17.282  0.4204  0.6871  1.1917
  396MPD2    H3 5922   4.212   4.179  17.124 -0.0264 -0.3632  2.3217
  396MPD2     N 5923   4.509   4.484  16.934 -0.5101 -0.0632  0.4395
  396MPD2    H5 5924   4.604   4.519  16.940  0.2992 -1.5980 -3.7694
  396MPD2    N1 5925   4.617   4.191  17.311 -0.0033  0.0114 -0.4594
  396MPD2    H7 5926   4.580   4.127  17.380  0.8074  1.0554  0.9569
  397TMC3    C1 5927   0.088   4.170  17.440 -0.5603 -0.0228  0.2579
  397TMC3    C2 5928   0.182   4.076  17.409 -0.1235  0.1147  0.0310
  397TMC3    C3 5929   0.160   3.945  17.440  0.6500 -0.4999  0.7225
  397TMC3    C4 5930   4.715   4.141  17.522 -0.0347 -0.0919  0.1391
  397TMC3    C5 5931   4.707   4.012  17.574  0.3372 -0.0982  0.0565
  397TMC3    C6 5932   0.078   3.921  17.544 -0.0684 -0.6552 -0.5413
  397TMC3     C 5933   0.019   4.225  17.323 -0.1725  0.4417 -0.1571
  397TMC3     O 5934   0.098   4.265  17.233  0.9639 -0.2026 -0.0314
  397TMC3     H 5935   0.234   4.092  17.315 -0.5211 -0.8026 -0.3412
  397TMC3    H1 5936   4.621   4.192  17.539 -0.6223 -1.7098  1.7764
  397TMC3    H2 5937   0.064   3.825  17.591  2.1702 -1.8339 -2.2374
  397TMC3    C7 5938   4.571   3.970  17.578 -0.2421  0.4916 -1.0851
  397TMC3    C8 5939   0.140   3.865  17.323  0.5876  0.1212  0.1038
  397TMC3    O1 5940   4.498   4.015  17.490  0.0489 -0.5409 -0.5693
  397TMC3    O2 5941   0.123   3.927  17.219  0.0585 -0.3800  0.5714
  398MPD2     C 5942   2.161   0.140   0.209  0.4926 -0.2530 -0.0904
  398MPD2    C1 5943   2.220   0.045   0.296  0.2941  0.5699 -0.0919
  398MPD2    C2 5944   2.331   0.086   0.370  0.2095 -0.6395 -0.1982
  398MPD2    C3 5945   2.380   0.214   0.361  1.1062 -0.3394 -0.0959
  398MPD2    C4 5946   2.310   0.308   0.292  0.3020  0.0312  0.1286
  398MPD2    C5 5947   2.199   0.273   0.218  0.2505  0.6946 -0.5868
  398MPD2     H 5948   2.379   0.017   0.438  0.0892 -1.7589 -1.2374
  398MPD2    H1 5949   2.340   0.412   0.277 -1.4832  0.1569 -2.5066
  398MPD2    H2 5950   2.077   0.118   0.144  0.5295  1.7274 -0.8136
  398MPD2    H3 5951   2.146   0.348   0.162  0.1608 -0.0132 -1.4578
  398MPD2     N 5952   2.505   0.250   0.427 -0.3290  0.1269  0.2953
  398MPD2    H5 5953   2.563   0.175   0.466 -2.1725 -0.1906  2.4118
  398MPD2    N1 5954   2.188   4.634   0.316  0.2090  0.4773  0.1278
  398MPD2    H7 5955   2.244   4.579   0.380  0.8438  1.3487  0.3177
  399TMC3    C1 5956   2.067   4.438   0.303  0.0763  0.3906  0.3478
  399TMC3    C2 5957   2.131   4.404   0.418 -0.3050  1.1235  0.5248
  399TMC3    C3 5958   2.130   4.270   0.442  0.1918 -0.5884 -0.2325
  399TMC3    C4 5959   1.979   4.355   0.237  0.2725 -0.2057  0.6304
  399TMC3    C5 5960   1.986   4.226   0.267 -1.0160  0.1452 -0.1759
  399TMC3    C6 5961   2.069   4.180   0.365  0.3146 -0.5582 -0.0943
  399TMC3     C 5962   2.090   4.568   0.250 -0.3483  0.7047 -0.2798
  399TMC3     O 5963   2.007   4.617   0.173 -0.4619  0.2861 -0.2825
  399TMC3     H 5964   2.193   4.473   0.475 -0.0094  0.5133  0.9342
  399TMC3    H1 5965   1.923   4.383   0.148  1.5377  0.3149 -0.0053
  399TMC3    H2 5966   2.089   4.074   0.373 -1.5951 -0.7159  2.5791
  399TMC3    C7 5967   1.901   4.123   0.204  0.2588 -0.1506 -0.4232
  399TMC3    C8 5968   2.173   4.238   0.578 -0.2068 -0.0783  0.1989
  399TMC3    O1 5969   1.911   4.010   0.255 -0.0043 -0.0419 -0.2087
  399TMC3    O2 5970   2.190   4.326   0.659  0.2332  0.6017  0.1781
  400TMC3    C1 5971   0.823   3.043  16.450 -0.1799 -0.2765 -0.2368
  400TMC3    C2 5972   0.708   3.002  16.387 -0.1402 -0.1461 -0.2257
  400TMC3    C3 5973   0.597   3.083  16.384  0.9855  0.6749  0.3451
  400TMC3    C4 5974   0.829   3.168  16.505 -0.4728 -0.9610 -0.0156
  400TMC3    C5 5975   0.716   3.245  16.503  0.4644 -0.3618 -0.2484
  400TMC3    C6 5976   0.599   3.200  16.454 -0.0311  0.0641  0.7146
  400TMC3     C 5977   0.911   2.941  16.480 -0.4417  0.2450 -0.4722
  400TMC3     O 5978   0.900   2.835  16.420 -0.1553 -0.0683 -0.1035
  400TMC3     H 5979   0.694   2.899  16.356 -1.4535 -0.5597  1.7365
  400TMC3    H1 5980   0.921   3.212  16.543 -1.2880 -0.6324  1.5823
  400TMC3    H2 5981   0.506   3.253  16.472  0.4863  1.3804 -0.4947
  400TMC3    C7 5982   0.740   3.381  16.554  0.2357  0.0410 -0.8235
  400TMC3    C8 5983   0.478   3.010  16.376  0.3049 -0.4885 -0.2320
  400TMC3    O1 5984   0.834   3.399  16.631  0.6457  0.1274 -0.3565
  400TMC3    O2 5985   0.384   3.035  16.448  0.2306 -0.5598  0.2064
  401MPD2     C 5986   3.607   1.929   1.180  0.1671 -0.0896  0.5305
  401MPD2    C1 5987   3.727   1.911   1.107 -0.4335  0.0122 -0.1327
  401MPD2    C2 5988   3.777   1.781   1.094  0.0549  0.0454 -0.4931
  401MPD2    C3 5989   3.715   1.668   1.142  0.1889 -0.1277 -0.3561
  401MPD2    C4 5990   3.597   1.684   1.205  0.3260 -0.4742 -0.7432
  401MPD2    C5 5991   3.545   1.810   1.222 -0.4391  0.7371 -0.2177
  401MPD2     H 5992   3.877   1.775   1.053  0.9727 -0.8742  1.8585
  401MPD2    H1 5993   3.532   1.600   1.227 -2.5299  1.5728 -1.3763
  401MPD2    H2 5994   3.562   2.026   1.198 -1.1996 -1.0085  2.0800
  401MPD2    H3 5995   3.452   1.822   1.275  0.3225  1.7510  0.9038
  401MPD2     N 5996   3.776   1.549   1.107  0.5121  0.0446 -0.2534
  401MPD2    H5 5997   3.863   1.555   1.055  1.0807 -1.1672  0.5616
  401MPD2    N1 5998   3.810   2.019   1.072 -0.5357  0.0663  0.4392
  401MPD2    H7 5999   3.908   1.996   1.061 -0.5424 -0.1431  0.8118
  402TMC3    C1 6000   3.802   1.335   1.054  0.6499  0.3247  0.6684
  402TMC3    C2 6001   3.849   1.219   1.109  0.3364 -1.0270  0.0578
  402TMC3    C3 6002   3.924   1.134   1.028  0.6128 -0.5588  0.3257
  402TMC3    C4 6003   3.843   1.377   0.932 -0.0268 -0.4225 -0.3915
  402TMC3    C5 6004   3.934   1.293   0.861  0.3147 -0.2350 -0.1722
  402TMC3    C6 6005   3.969   1.164   0.902 -0.0669  0.1463  0.3436
  402TMC3     C 6006   3.720   1.425   1.130 -0.2858  0.0505 -1.0411
  402TMC3     O 6007   3.624   1.385   1.193 -0.2882  0.3643  0.4315
  402TMC3     H 6008   3.817   1.185   1.206 -1.4043  1.2816  0.2968
  402TMC3    H1 6009   3.814   1.471   0.887 -3.1289 -0.6727  1.0696
  402TMC3    H2 6010   4.037   1.096   0.851  0.1874  0.9507 -0.4034
  402TMC3    C7 6011   3.994   1.345   0.739  0.1425 -0.9665  0.3206
  402TMC3    C8 6012   3.993   1.023   1.084  0.1889  0.1701  0.0019
  402TMC3    O1 6013   3.937   1.444   0.689  0.2844  0.6399  0.2428
  402TMC3    O2 6014   4.020   0.936   1.005  0.3799  0.3057 -0.2047
  403MPD2     C 6015   2.527   0.505  13.203 -1.1298 -0.0955 -0.1953
  403MPD2    C1 6016   2.541   0.386  13.266 -0.4329 -0.0584  0.0435
  403MPD2    C2 6017   2.634   0.383  13.366  0.1806  0.7470  0.0544
  403MPD2    C3 6018   2.704   0.497  13.409 -0.4350  0.2373 -1.0119
  403MPD2    C4 6019   2.681   0.614  13.351  0.1287  0.2133 -0.4650
  403MPD2    C5 6020   2.590   0.616  13.245  0.3480  0.7365  0.2090
  403MPD2     H 6021   2.658   0.290  13.417 -1.3726  0.0640 -0.4626
  403MPD2    H1 6022   2.731   0.703  13.389  1.1450 -0.0958 -1.0733
  403MPD2    H2 6023   2.457   0.510  13.121 -2.3579 -0.8593  0.8013
  403MPD2    H3 6024   2.563   0.710  13.200 -0.9577  0.0267 -0.4895
  403MPD2     N 6025   2.799   0.479  13.515 -0.7187  0.3431  0.2012
  403MPD2    H5 6026   2.789   0.392  13.566  2.5789  0.0843  0.3658
  403MPD2    N1 6027   2.449   0.283  13.227  0.0470  0.1035  0.0918
  403MPD2    H7 6028   2.381   0.315  13.159  1.0321 -3.0778 -2.3611
  404TMC3    C1 6029   2.342   0.071  13.223 -0.3149  0.4686  0.3416
  404TMC3    C2 6030   2.328   4.671  13.278  0.1380 -0.3658 -0.1320
  404TMC3    C3 6031   2.246   4.584  13.214 -0.2397  0.4938  0.3803
  404TMC3    C4 6032   2.291   0.098  13.101  0.4091 -0.0744  0.0307
  404TMC3    C5 6033   2.211   0.010  13.035 -0.5132 -0.3867 -1.0114
  404TMC3    C6 6034   2.189   4.610  13.092 -0.2521 -0.5864 -0.6196
  404TMC3     C 6035   2.433   0.167  13.291  0.1088 -0.1144  0.3599
  404TMC3     O 6036   2.483   0.128  13.397  0.1994  0.3116  0.6096
  404TMC3     H 6037   2.381   4.642  13.368  0.3950  1.9445  0.4648
  404TMC3    H1 6038   2.288   0.200  13.064 -1.6558 -0.4793 -0.8736
  404TMC3    H2 6039   2.144   4.525  13.042  4.4277 -2.8568 -0.9690
  404TMC3    C7 6040   2.158   0.042  12.900 -0.1269  0.7582  0.3247
  404TMC3    C8 6041   2.252   4.447  13.246  0.1383  0.0501 -0.2928
  404TMC3    O1 6042   2.200   0.142  12.848  0.1686 -0.0350  0.0964
  404TMC3    O2 6043   2.259   4.370  13.147  0.2347  0.2815 -0.1269
  405MPD2     C 6044   2.576   1.324  14.936 -0.8982 -0.1327 -0.6860
  405MPD2    C1 6045   2.603   1.254  14.815 -0.7774  0.3227 -0.4707
  405MPD2    C2 6046   2.490   1.237  14.739 -0.2526 -0.2135 -0.4322
  405MPD2    C3 6047   2.368   1.301  14.758  0.0146  0.7961 -0.2710
  405MPD2    C4 6048   2.359   1.389  14.863  0.2695 -0.5755  0.1774
  405MPD2    C5 6049   2.465   1.403  14.949 -0.5363 -0.1605 -0.1725
  405MPD2     H 6050   2.485   1.166  14.656  1.8484 -1.8747  0.8716
  405MPD2    H1 6051   2.269   1.439  14.896  0.0226 -1.7596  1.3014
  405MPD2    H2 6052   2.645   1.326  15.020 -1.7578 -2.7973  0.0971
  405MPD2    H3 6053   2.441   1.458  15.040  0.6578 -1.2256  0.7910
  405MPD2     N 6054   2.267   1.264  14.668 -0.2279 -0.1213  0.2900
  405MPD2    H5 6055   2.292   1.219  14.581  0.9052 -0.8198  0.9758
  405MPD2    N1 6056   2.717   1.182  14.780 -0.0735  0.0113 -0.0291
  405MPD2    H7 6057   2.793   1.181  14.847  0.5732  3.2138 -0.7156
  406TMC3    C1 6058   1.865   1.214  14.456 -0.6421  0.0203 -0.8285
  406TMC3    C2 6059   1.901   1.093  14.411  0.9302  0.2533  0.1791
  406TMC3    C3 6060   2.022   1.042  14.441  0.0585 -0.3288 -0.3523
  406TMC3    C4 6061   1.946   1.292  14.538 -1.0156 -0.4004  0.3665
  406TMC3    C5 6062   2.065   1.235  14.567  0.4581 -0.2071 -0.4263
  406TMC3    C6 6063   2.100   1.104  14.535  0.2674 -0.3010  0.2767
  406TMC3     C 6064   1.728   1.252  14.460  0.3608 -0.6278  0.4657
  406TMC3     O 6065   1.695   1.368  14.473 -0.2533  0.3587  0.3509
  406TMC3     H 6066   1.846   1.045  14.332  0.2522  0.8094  0.3111
  406TMC3    H1 6067   1.915   1.390  14.573 -0.3260  0.5319 -1.6599
  406TMC3    H2 6068   2.194   1.063  14.570  1.1111  1.8710  0.5514
  406TMC3    C7 6069   2.133   1.303  14.677 -0.1195 -0.3475 -0.7209
  406TMC3    C8 6070   2.080   0.931  14.368 -0.2305 -0.0943 -0.2961
  406TMC3    O1 6071   2.063   1.349  14.771  0.4108  0.4425  0.0685
  406TMC3    O2 6072   2.003   0.842  14.352  0.0055  0.1838 -0.5526
  407MPD2     C 6073   4.688   1.719   9.244  0.0721  0.0304  0.3687
  407MPD2    C1 6074   0.001   1.659   9.360  0.7847 -0.0972 -0.3369
  407MPD2    C2 6075   0.010   1.737   9.468  0.4005  0.1677 -1.2176
  407MPD2    C3 6076   4.710   1.872   9.473 -0.1950 -0.6390  0.9161
  407MPD2    C4 6077   4.676   1.933   9.356 -0.2888  0.4588 -0.2437
  407MPD2    C5 6078   4.659   1.857   9.243 -0.3085  0.0289  1.2093
  407MPD2     H 6079   0.060   1.685   9.549 -1.2499 -0.1338 -0.4071
  407MPD2    H1 6080   4.671   2.041   9.359 -1.1025  0.3478  2.6241
  407MPD2    H2 6081   4.691   1.668   9.149 -0.2582 -0.3831  0.5806
  407MPD2    H3 6082   4.636   1.908   9.151 -1.6011 -2.7362 -0.0140
  407MPD2     N 6083   0.013   1.950   9.593  0.0218 -0.0482  0.9027
  407MPD2    H5 6084   4.722   2.050   9.597  0.8691 -0.0373  3.7290
  407MPD2    N1 6085   0.040   1.525   9.382 -0.0554 -0.2361  0.6561
  407MPD2    H7 6086   0.070   1.502   9.477 -1.9846  1.1045  1.5852
  408TMC3    C1 6087   0.132   1.317   9.341 -0.2692  0.0207  0.3083
  408TMC3    C2 6088   0.237   1.344   9.418  0.4511 -0.0461 -0.6790
  408TMC3    C3 6089   0.325   1.243   9.430 -0.1119  0.3997 -0.1719
  408TMC3    C4 6090   0.106   1.191   9.288 -0.7190 -0.0473 -0.4416
  408TMC3    C5 6091   0.188   1.090   9.318  0.2169  0.2318 -0.3355
  408TMC3    C6 6092   0.294   1.113   9.400 -0.2370 -0.1173 -0.4346
  408TMC3     C 6093   0.046   1.421   9.297  0.4785 -0.1451 -0.4368
  408TMC3     O 6094   4.716   1.412   9.188  0.0698 -0.4388 -0.9428
  408TMC3     H 6095   0.269   1.444   9.447  0.9970 -0.7360  1.1437
  408TMC3    H1 6096   0.019   1.186   9.224  0.0408 -1.0261 -1.4170
  408TMC3    H2 6097   0.367   1.036   9.419 -0.2656 -0.4380 -1.6325
  408TMC3    C7 6098   0.192   0.970   9.228 -0.0844 -0.0416  0.5059
  408TMC3    C8 6099   0.441   1.260   9.519  0.3762 -0.5366 -0.3952
  408TMC3    O1 6100   0.144   0.980   9.117  0.3107 -0.4020 -0.0954
  408TMC3    O2 6101   0.474   1.158   9.581  0.2570 -0.2154 -0.3069
  409MPD2     C 6102   4.228   3.001  16.734 -0.3726 -0.2685  0.2397
  409MPD2    C1 6103   4.333   2.965  16.819 -0.8852  0.5218  0.5277
  409MPD2    C2 6104   4.453   3.032  16.801  0.2867 -0.0420  0.1656
  409MPD2    C3 6105   4.464   3.140  16.704  0.0894  0.2394  0.4517
  409MPD2    C4 6106   4.346   3.185  16.641  0.4638 -0.4966  0.1492
  409MPD2    C5 6107   4.232   3.118  16.667 -0.2688 -0.7484 -0.1486
  409MPD2     H 6108   4.536   3.003  16.864  0.9289  2.1449  0.3405
  409MPD2    H1 6109   4.344   3.263  16.565  0.0346 -0.7999 -0.1505
  409MPD2    H2 6110   4.133   2.949  16.728 -0.0703 -0.7779 -0.0995
  409MPD2    H3 6111   4.144   3.156  16.616 -0.6656  2.2634  2.8380
  409MPD2     N 6112   4.588   3.199  16.689  0.1169  0.0208  0.8919
  409MPD2    H5 6113   4.663   3.146  16.732  2.4532  1.5049 -1.3551
  409MPD2    N1 6114   4.325   2.842  16.891  0.5374 -0.6948  0.1745
  409MPD2    H7 6115   4.413   2.803  16.925  1.4887  1.3007  0.0445
  410TMC3    C1 6116   0.030   3.351  16.627 -0.1410 -0.2605  0.2828
  410TMC3    C2 6117   0.123   3.266  16.685  0.1066  0.6693  0.3554
  410TMC3    C3 6118   0.255   3.300  16.681 -0.6214  0.2899  0.4234
  410TMC3    C4 6119   0.072   3.452  16.543 -0.8659 -0.4729 -0.1657
  410TMC3    C5 6120   0.206   3.479  16.542 -0.2077  1.0461 -0.4965
  410TMC3    C6 6121   0.300   3.417  16.621  0.2827 -0.3863  0.2772
  410TMC3     C 6122   4.615   3.310  16.622 -0.0787  0.4127 -0.4046
  410TMC3     O 6123   4.539   3.390  16.567 -0.3528  0.3206  0.0384
  410TMC3     H 6124   0.102   3.173  16.737  0.1484 -1.0461 -2.6494
  410TMC3    H1 6125   4.723   3.499  16.479  0.7357  0.3292 -1.4483
  410TMC3    H2 6126   0.403   3.443  16.601  0.3902 -1.5691 -0.6461
  410TMC3    C7 6127   0.257   3.542  16.419  0.3369 -1.0152  0.3952
  410TMC3    C8 6128   0.356   3.205  16.727  0.0714 -0.7449  0.9488
  410TMC3    O1 6129   0.355   3.492  16.367 -0.2210  0.6583 -0.2598
  410TMC3    O2 6130   0.328   3.089  16.753 -0.3558 -0.0928  0.4185
  411MPD2     C 6131   0.596   4.029  14.511 -0.4626  1.3523 -0.5085
  411MPD2    C1 6132   0.472   4.067  14.547  0.3304  0.4862  0.6588
  411MPD2    C2 6133   0.361   3.990  14.508 -0.0988  0.0286  0.6996
  411MPD2    C3 6134   0.375   3.888  14.413  0.4742  0.3419 -0.4124
  411MPD2    C4 6135   0.501   3.854  14.371 -0.0036  0.0862 -0.0960
  411MPD2    C5 6136   0.606   3.924  14.420 -0.0491  0.5718  0.1632
  411MPD2     H 6137   0.261   4.027  14.531 -0.4039 -0.2701 -0.1385
  411MPD2    H1 6138   0.529   3.774  14.304 -0.9697 -0.5235  0.2190
  411MPD2    H2 6139   0.683   4.074  14.558  1.1691 -1.1494 -1.1332
  411MPD2    H3 6140   0.702   3.881  14.392  0.9797  1.9846  1.5456
  411MPD2     N 6141   0.266   3.806  14.372  0.0989 -0.1815  0.1077
  411MPD2    H5 6142   0.299   3.733  14.309  0.3485  1.0475 -1.1942
  411MPD2    N1 6143   0.460   4.174  14.633  0.0720 -0.1987 -0.1778
  411MPD2    H7 6144   0.535   4.242  14.637  0.1435 -0.2333 -0.9301
  412TMC3    C1 6145   0.070   3.685  14.362  0.0995  0.8976  0.0431
  412TMC3    C2 6146   4.698   3.628  14.432 -0.1242 -0.0624  0.3936
  412TMC3    C3 6147   4.645   3.518  14.369 -0.6916  0.0801 -0.1493
  412TMC3    C4 6148   0.108   3.632  14.239 -0.3438  0.4532 -0.5724
  412TMC3    C5 6149   0.050   3.525  14.185  0.4623  0.0484  0.3390
  412TMC3    C6 6150   4.680   3.453  14.254  0.1706  0.0972 -0.0393
  412TMC3     C 6151   0.133   3.807  14.414 -0.3054  0.0348 -0.7214
  412TMC3     O 6152   0.091   3.872  14.505 -0.1842 -0.2228 -0.2338
  412TMC3     H 6153   4.659   3.671  14.523 -1.2086  1.2203 -0.6797
  412TMC3    H1 6154   0.183   3.686  14.181  2.1002  0.3283  2.4575
  412TMC3    H2 6155   4.642   3.362  14.208 -2.1116  1.2371 -0.4098
  412TMC3    C7 6156   4.717   3.565  14.057 -0.1379 -0.5818  0.0026
  412TMC3    C8 6157   4.501   3.514  14.395 -0.5902  0.3033 -0.3387
  412TMC3    O1 6158   4.608   3.518  14.035 -0.3188  0.2814  0.5370
  412TMC3    O2 6159   4.466   3.552  14.505 -0.3565  0.2114 -0.3015
  413MPD2     C 6160   1.795   2.352  15.639  0.1417 -0.2876 -0.0276
  413MPD2    C1 6161   1.710   2.283  15.556  0.7210  0.1218 -0.1622
  413MPD2    C2 6162   1.761   2.181  15.481  0.0243 -0.2497  0.3411
  413MPD2    C3 6163   1.895   2.139  15.483 -0.2017  0.2091 -0.0807
  413MPD2    C4 6164   1.981   2.209  15.564 -0.1908  0.5475  0.1279
  413MPD2    C5 6165   1.933   2.318  15.638  0.2845 -0.5064  0.4061
  413MPD2     H 6166   1.707   2.127  15.404 -2.3328  0.1247  1.7096
  413MPD2    H1 6167   2.087   2.194  15.573 -0.2871 -0.0206  0.3001
  413MPD2    H2 6168   1.758   2.424  15.711 -1.3991 -2.4639  1.3719
  413MPD2    H3 6169   2.000   2.377  15.698 -0.4644 -0.2348  0.9820
  413MPD2     N 6170   1.936   2.048  15.386  0.3816  0.1452 -0.2783
  413MPD2    H5 6171   1.884   2.025  15.302  1.5890  1.9483 -1.5106
  413MPD2    N1 6172   1.570   2.322  15.546  0.3181 -0.1541 -0.3169
  413MPD2    H7 6173   1.529   2.381  15.618 -4.3312 -3.7532 -0.0299
  414TMC3    C1 6174   2.055   1.867  15.300 -0.1091  0.0607  0.6224
  414TMC3    C2 6175   2.067   1.736  15.336  0.3642 -0.9754  0.4235
  414TMC3    C3 6176   2.059   1.649  15.234  0.2849 -0.7092  0.5881
  414TMC3    C4 6177   2.030   1.917  15.172 -1.3095 -0.9149 -0.6827
  414TMC3    C5 6178   2.007   1.817  15.077  0.3995 -0.5901  0.3323
  414TMC3    C6 6179   2.020   1.684  15.108 -0.0642 -0.2695 -0.3886
  414TMC3     C 6180   2.049   1.967  15.403 -0.1981 -0.0599  0.7847
  414TMC3     O 6181   2.124   1.959  15.500 -0.3549  0.0550  0.0212
  414TMC3     H 6182   2.086   1.702  15.437 -1.8458 -2.1283  0.4568
  414TMC3    H1 6183   2.046   2.022  15.152 -0.6903 -0.9706 -0.4772
  414TMC3    H2 6184   2.015   1.608  15.032 -1.6175  0.0311 -0.5887
  414TMC3    C7 6185   2.065   1.843  14.947  0.1821  0.1995 -0.0166
  414TMC3    C8 6186   2.109   1.510  15.251 -0.0680 -0.6602 -0.4735
  414TMC3    O1 6187   2.160   1.918  14.949  0.1666 -0.1783 -0.9886
  414TMC3    O2 6188   2.068   1.425  15.170  0.0361 -0.6420 -0.3347
  415TMC3    C1 6189   1.701   3.978  10.167 -0.4116  0.0346  0.0882
  415TMC3    C2 6190   1.749   4.060  10.070 -0.6671 -0.2010 -0.2083
  415TMC3    C3 6191   1.745   4.030   9.943 -0.0299 -0.1397 -0.5054
  415TMC3    C4 6192   1.661   3.859  10.126  0.7674  0.0881  0.3902
  415TMC3    C5 6193   1.651   3.832   9.990 -0.0296  0.1431 -0.0896
  415TMC3    C6 6194   1.689   3.919   9.892  0.0747 -0.1148 -0.1671
  415TMC3     C 6195   1.746   3.987  10.306  0.1122  0.4806  0.3833
  415TMC3     O 6196   1.706   3.897  10.385  0.3236 -0.3416 -0.6906
  415TMC3     H 6197   1.785   4.157  10.105 -2.3275  0.0629  0.7433
  415TMC3    H1 6198   1.617   3.789  10.197  1.1797 -0.3632  0.1975
  415TMC3    H2 6199   1.664   3.905   9.787  0.2215  0.6774 -0.3060
  415TMC3    C7 6200   1.612   3.707   9.937 -0.6128  0.6472 -0.7870
  415TMC3    C8 6201   1.814   4.114   9.848 -0.5350 -0.0432  0.0912
  415TMC3    O1 6202   1.551   3.701   9.829 -0.1018  0.9354  0.0676
  415TMC3    O2 6203   1.782   4.112   9.728  0.5373 -0.0477 -0.2243
  416MPD2     C 6204   3.932   3.452  11.826 -0.1025  0.2511  0.9490
  416MPD2    C1 6205   3.858   3.475  11.713 -0.4826 -1.0081  0.5327
  416MPD2    C2 6206   3.869   3.395  11.599  0.5802  0.6453  0.0908
  416MPD2    C3 6207   3.953   3.281  11.599  0.8216  0.0372  0.0634
  416MPD2    C4 6208   4.009   3.245  11.718  0.0989 -0.7368  0.3873
  416MPD2    C5 6209   4.006   3.330  11.828  0.1567 -0.1879  0.2709
  416MPD2     H 6210   3.805   3.416  11.514  0.6452 -0.1038 -0.1367
  416MPD2    H1 6211   4.080   3.163  11.716  2.6997  1.5691 -2.0824
  416MPD2    H2 6212   3.921   3.521  11.909 -3.1912  1.1874 -0.2348
  416MPD2    H3 6213   4.067   3.300  11.913 -1.2698  2.1838  2.1228
  416MPD2     N 6214   3.973   3.203  11.483  0.4363  0.3352 -0.2440
  416MPD2    H5 6215   4.017   3.113  11.498 -3.2772 -1.5809 -0.8482
  416MPD2    N1 6216   3.756   3.579  11.717  0.1016  0.6596  0.3151
  416MPD2    H7 6217   3.763   3.651  11.788 -0.6996  0.0057  1.0555
  417TMC3    C1 6218   3.554   3.697  11.665  0.3282 -0.2269 -0.7607
  417TMC3    C2 6219   3.529   3.721  11.798  0.0107 -0.7436 -0.4900
  417TMC3    C3 6220   3.399   3.719  11.848  0.2923  0.4770 -0.5656
  417TMC3    C4 6221   3.448   3.692  11.586  0.0587  0.4673 -0.5291
  417TMC3    C5 6222   3.322   3.691  11.641 -0.7823  0.4509  0.1255
  417TMC3    C6 6223   3.296   3.693  11.770  0.4313 -1.0265  0.7018
  417TMC3     C 6224   3.653   3.592  11.632  0.1181 -1.6930  0.1377
  417TMC3     O 6225   3.622   3.525  11.529 -0.0898 -0.2677 -0.2533
  417TMC3     H 6226   3.611   3.750  11.863  0.4342 -0.7867 -1.0054
  417TMC3    H1 6227   3.461   3.678  11.479 -0.3181  0.2063 -0.5414
  417TMC3    H2 6228   3.196   3.697  11.811 -0.2433 -1.1318 -0.9478
  417TMC3    C7 6229   3.226   3.651  11.547  0.0190  0.0710  0.3561
  417TMC3    C8 6230   3.388   3.737  11.995  0.0631 -0.0881 -0.4639
  417TMC3    O1 6231   3.122   3.600  11.578 -0.3443  0.0376  0.4958
  417TMC3    O2 6232   3.481   3.798  12.047  0.1895  0.5358  0.0717
  418TMC3    C1 6233   2.914   0.358   0.450 -0.7737 -0.3564 -0.0535
  418TMC3    C2 6234   2.788   0.415   0.433  0.0236 -0.1066  0.2880
  418TMC3    C3 6235   2.690   0.370   0.511 -0.1326 -0.0736  0.0985
  418TMC3    C4 6236   2.946   0.281   0.555 -0.3524  0.4585 -0.2074
  418TMC3    C5 6237   2.844   0.249   0.643 -0.4699 -0.9876 -0.2122
  418TMC3    C6 6238   2.715   0.293   0.623  0.1499  0.6586 -0.4276
  418TMC3     C 6239   2.959   0.308   0.317  0.3443  0.3408  0.0307
  418TMC3     O 6240   2.955   0.385   0.222  0.6879  0.1339  0.3795
  418TMC3     H 6241   2.768   0.468   0.341 -0.4663 -1.2062 -0.2482
  418TMC3    H1 6242   3.041   0.230   0.567  0.2934  1.6388 -0.4055
  418TMC3    H2 6243   2.629   0.259   0.679 -0.0183 -0.1776 -1.2032
  418TMC3    C7 6244   2.870   0.146   0.740  0.4805 -0.1121 -0.6397
  418TMC3    C8 6245   2.559   0.374   0.443  0.4146 -0.6402  0.2723
  418TMC3    O1 6246   2.764   0.117   0.800  0.1529 -0.9007 -0.1513
  418TMC3    O2 6247   2.534   0.481   0.388  0.2081 -0.2636  0.0908
  419MPD2     C 6248   1.180   2.951  12.338 -0.1671 -0.0139  0.1672
  419MPD2    C1 6249   1.155   3.082  12.313 -0.3487  0.3050  0.5429
  419MPD2    C2 6250   1.170   3.167  12.422 -0.1214 -0.3864 -0.1230
  419MPD2    C3 6251   1.221   3.128  12.545  0.8630  0.7386  0.2519
  419MPD2    C4 6252   1.249   2.997  12.564 -0.8001  0.0454 -0.0794
  419MPD2    C5 6253   1.230   2.913  12.464  0.7184  0.1153 -0.2206
  419MPD2     H 6254   1.151   3.273  12.412 -0.4964 -0.5743 -1.3804
  419MPD2    H1 6255   1.278   2.958  12.661  1.4051 -2.0460 -1.6070
  419MPD2    H2 6256   1.170   2.878  12.259  0.4694 -0.6172  0.6401
  419MPD2    H3 6257   1.254   2.809  12.481  0.3840  0.0732  0.0029
  419MPD2     N 6258   1.224   3.230  12.646 -0.8110 -0.1954 -0.5747
  419MPD2    H5 6259   1.192   3.322  12.618  0.5216  0.5054  0.1960
  419MPD2    N1 6260   1.130   3.120  12.183  0.2399 -0.0776  0.0816
  419MPD2    H7 6261   1.149   3.050  12.112  1.3492  0.6993 -0.3952
  420TMC3    C1 6262   1.278   3.346  12.852 -0.0560  0.1950  0.0487
  420TMC3    C2 6263   1.178   3.436  12.835 -0.2578 -0.3049  0.0707
  420TMC3    C3 6264   1.185   3.554  12.911 -0.2554 -0.3905  0.1263
  420TMC3    C4 6265   1.384   3.371  12.933 -0.0452 -0.0383  0.3460
  420TMC3    C5 6266   1.387   3.492  12.994 -0.4419  0.2672  0.1664
  420TMC3    C6 6267   1.285   3.579  12.996 -0.2738  0.7037  0.5840
  420TMC3     C 6268   1.273   3.216  12.778 -0.0147  0.0945 -0.4683
  420TMC3     O 6269   1.302   3.111  12.839 -0.3321  0.5966 -0.4627
  420TMC3     H 6270   1.096   3.424  12.765 -0.7990  2.6393  0.1891
  420TMC3    H1 6271   1.472   3.307  12.933  0.1160  0.1754  1.0885
  420TMC3    H2 6272   1.284   3.670  13.055  1.7174  0.1747  1.4171
  420TMC3    C7 6273   1.469   3.490  13.118  0.1449 -0.2435 -0.2772
  420TMC3    C8 6274   1.069   3.632  12.916  0.1487  0.3715  0.1434
  420TMC3    O1 6275   1.521   3.385  13.154 -0.2655  0.3666 -0.1201
  420TMC3    O2 6276   0.992   3.619  12.824  0.1225  0.1401  0.2327
  421TMC3    C1 6277   2.967   0.527  13.661 -0.3740  0.4755 -0.1209
  421TMC3    C2 6278   3.025   0.616  13.744 -0.2630 -0.4738  0.2608
  421TMC3    C3 6279   3.106   0.561  13.838 -0.3190 -0.0700  0.1361
  421TMC3    C4 6280   2.994   0.387  13.667  0.1203  0.3924 -0.3590
  421TMC3    C5 6281   3.092   0.344  13.756  0.5069 -0.3304  0.2227
  421TMC3    C6 6282   3.150   0.427  13.843  0.9387  0.0422 -0.7386
  421TMC3     C 6283   2.873   0.580  13.572  0.4583 -0.7454  0.0611
  421TMC3     O 6284   2.869   0.699  13.552 -0.0744 -0.1232  0.0707
  421TMC3     H 6285   2.983   0.716  13.743  0.7437 -0.0332  2.5020
  421TMC3    H1 6286   2.960   0.328  13.583  0.2159 -0.6670  0.3549
  421TMC3    H2 6287   3.220   0.389  13.916 -0.0591 -0.0709  0.1592
  421TMC3    C7 6288   3.115   0.196  13.786  0.0743  0.0126  0.3801
  421TMC3    C8 6289   3.203   0.652  13.892  1.0246  0.4757 -0.0746
  421TMC3    O1 6290   3.217   0.175  13.860  0.3392 -0.3057 -0.2231
  421TMC3    O2 6291   3.282   0.613  13.977 -0.2794  0.3315 -0.8300
  422TMC3    C1 6292   0.345   1.437  12.769  0.3642  0.0812  0.1644
  422TMC3    C2 6293   0.321   1.568  12.777 -0.0772 -0.1335 -0.9875
  422TMC3    C3 6294   0.219   1.616  12.857  0.1745 -0.4978 -0.1085
  422TMC3    C4 6295   0.269   1.345  12.834  0.1129  0.0137  0.1821
  422TMC3    C5 6296   0.169   1.397  12.915 -0.3148 -0.6168 -0.5768
  422TMC3    C6 6297   0.139   1.528  12.926  0.0638  0.7417  0.1415
  422TMC3     C 6298   0.416   1.394  12.654  0.0575 -0.3011  0.2595
  422TMC3     O 6299   0.419   1.480  12.566 -0.2357 -0.6316  0.0564
  422TMC3     H 6300   0.384   1.630  12.714  0.8609 -0.9107 -0.8127
  422TMC3    H1 6301   0.264   1.237  12.821 -1.4984  0.2427 -1.1263
  422TMC3    H2 6302   0.057   1.569  12.985  0.6159  1.2076  0.5819
  422TMC3    C7 6303   0.062   1.299  12.952 -0.0113 -0.3988  0.6550
  422TMC3    C8 6304   0.165   1.745  12.848  0.0169 -0.3859 -0.0284
  422TMC3    O1 6305   0.084   1.197  13.015  0.2569 -0.1175  0.1622
  422TMC3    O2 6306   0.123   1.788  12.954 -1.3412  0.1074  0.7885
  423MPD2     C 6307   1.743   3.061   0.440  0.2916  0.1669  0.2790
  423MPD2    C1 6308   1.657   2.957   0.415 -0.5966 -0.6066 -0.0228
  423MPD2    C2 6309   1.687   2.867   0.316 -0.2675 -0.3044  0.2805
  423MPD2    C3 6310   1.794   2.877   0.236 -0.3912  0.2187  0.6475
  423MPD2    C4 6311   1.883   2.977   0.266  0.1103 -0.1830 -0.0364
  423MPD2    C5 6312   1.857   3.070   0.363  0.5566 -0.5745 -0.0233
  423MPD2     H 6313   1.613   2.792   0.291  0.3429 -1.2082  1.1687
  423MPD2    H1 6314   1.979   2.987   0.216  0.6941  0.1838  1.1665
  423MPD2    H2 6315   1.723   3.134   0.518  0.5416  0.9756 -0.4126
  423MPD2    H3 6316   1.933   3.145   0.385 -0.7774  1.3129 -1.7990
  423MPD2     N 6317   1.811   2.777   0.134  0.0917 -0.2802 -0.1192
  423MPD2    H5 6318   1.755   2.692   0.134  0.9656 -0.8561 -0.4428
  423MPD2    N1 6319   1.552   2.916   0.506 -0.4106  0.9041 -0.2847
  423MPD2    H7 6320   1.491   2.837   0.487  1.5368 -0.8815  0.8513
  424TMC3    C1 6321   1.381   2.951   0.665 -0.8028 -0.2749 -0.5107
  424TMC3    C2 6322   1.352   2.955   0.801  0.3924 -0.8182 -0.1308
  424TMC3    C3 6323   1.220   2.917   0.826 -0.0815 -0.5136  0.5661
  424TMC3    C4 6324   1.292   2.916   0.562 -0.2139 -0.7263  0.3018
  424TMC3    C5 6325   1.166   2.888   0.599  0.6741 -0.1618  0.1875
  424TMC3    C6 6326   1.131   2.879   0.726  0.2341 -0.6514 -0.5110
  424TMC3     C 6327   1.525   2.973   0.632  0.6452 -0.5076 -0.0644
  424TMC3     O 6328   1.572   3.075   0.679 -0.3025  0.0998 -0.1593
  424TMC3     H 6329   1.432   2.971   0.872  1.1667 -0.3146 -1.1226
  424TMC3    H1 6330   1.316   2.913   0.457  1.3862 -0.3781  0.6641
  424TMC3    H2 6331   1.037   2.834   0.753  0.2637 -0.5887 -0.3008
  424TMC3    C7 6332   1.068   2.905   0.493  0.1493 -0.2259 -0.0093
  424TMC3    C8 6333   1.175   2.880   0.964 -0.1808 -0.1717 -0.1129
  424TMC3    O1 6334   1.115   2.898   0.382 -0.3160  0.1305  0.5412
  424TMC3    O2 6335   1.070   2.818   0.978 -0.4043  0.1752  0.0713
  425MPD2     C 6336   0.460   1.918  16.994  0.1912 -0.2173  0.4898
  425MPD2    C1 6337   0.401   1.828  16.912  0.3158  0.2611 -0.4729
  425MPD2    C2 6338   0.264   1.817  16.923 -0.3069 -0.3953 -0.1939
  425MPD2    C3 6339   0.195   1.898  17.004 -0.0457 -0.5926 -0.0631
  425MPD2    C4 6340   0.253   2.001  17.072  0.0081 -0.2236 -0.0125
  425MPD2    C5 6341   0.385   2.012  17.062  0.2372  0.1405 -0.1760
  425MPD2     H 6342   0.207   1.745  16.866  0.7836  0.2827 -2.1001
  425MPD2    H1 6343   0.211   2.073  17.141  1.5929  0.1812  0.5441
  425MPD2    H2 6344   0.569   1.924  16.996  0.1783  0.3864 -0.7138
  425MPD2    H3 6345   0.436   2.100  17.102  0.7254 -0.5164  0.6373
  425MPD2     N 6346   0.053   1.876  16.998  0.1952  0.2025 -0.0558
  425MPD2    H5 6347   0.021   1.799  16.940  2.4610  0.3063 -1.4403
  425MPD2    N1 6348   0.482   1.753  16.831  0.5204  0.0925  0.1646
  425MPD2    H7 6349   0.582   1.769  16.842 -0.2837  3.2213  2.6797
  426TMC3    C1 6350   0.556   1.566  16.697 -0.0011  0.5040  0.0265
  426TMC3    C2 6351   0.530   1.470  16.602  0.4862 -0.2249  0.0148
  426TMC3    C3 6352   0.629   1.374  16.592  0.3390  0.1408  0.3456
  426TMC3    C4 6353   0.658   1.551  16.788  0.1318  0.8458 -0.8634
  426TMC3    C5 6354   0.755   1.453  16.772  0.5873  0.1230  0.4764
  426TMC3    C6 6355   0.743   1.368  16.667  0.2721 -0.2410 -0.9212
  426TMC3     C 6356   0.446   1.657  16.733 -0.3059  0.0089 -0.1605
  426TMC3     O 6357   0.334   1.626  16.691 -0.2622  0.5895  0.1923
  426TMC3     H 6358   0.444   1.483  16.537  0.0830 -1.6748  0.2565
  426TMC3    H1 6359   0.681   1.634  16.855 -2.9710  0.3072  0.8576
  426TMC3    H2 6360   0.813   1.286  16.658  1.9582  1.0116  0.7166
  426TMC3    C7 6361   0.831   1.399  16.893  0.1535 -0.0134 -0.0356
  426TMC3    C8 6362   0.589   1.249  16.531 -0.1473 -0.3479 -0.2277
  426TMC3    O1 6363   0.916   1.306  16.870 -0.2400  0.4349 -0.1614
  426TMC3    O2 6364   0.683   1.181  16.503 -0.0498 -0.3531  0.2330
  427MPD2     C 6365   4.314   3.886  14.769  0.0432  0.6111  0.3452
  427MPD2    C1 6366   4.244   3.845  14.879  0.9664 -0.3556 -0.2124
  427MPD2    C2 6367   4.105   3.858  14.885 -0.6608 -0.4612  0.1239
  427MPD2    C3 6368   4.042   3.908  14.774 -0.4975  0.2236 -0.1108
  427MPD2    C4 6369   4.116   3.962  14.666 -0.3288  0.2424  0.1407
  427MPD2    C5 6370   4.250   3.944  14.666 -0.0975 -0.3327  0.6037
  427MPD2     H 6371   4.044   3.818  14.964 -3.6521  0.4542 -1.7188
  427MPD2    H1 6372   4.069   4.000  14.576 -0.9430  3.0307  1.6170
  427MPD2    H2 6373   4.420   3.866  14.760  0.1768  2.0308 -1.1506
  427MPD2    H3 6374   4.303   3.968  14.574 -0.0273 -0.4536  0.6125
  427MPD2     N 6375   3.898   3.901  14.754  0.0607  0.2626  0.1635
  427MPD2    H5 6376   3.869   3.915  14.658  0.9534 -2.0988 -0.4550
  427MPD2    N1 6377   4.327   3.791  14.977  0.4472  0.4876  0.4833
  427MPD2    H7 6378   4.427   3.794  14.963  0.4858  3.8235  1.4299
  428TMC3    C1 6379   4.387   3.655  15.161  0.1418  0.1023  0.0454
  428TMC3    C2 6380   4.348   3.538  15.222 -0.4390  0.1075  0.3845
  428TMC3    C3 6381   4.410   3.502  15.338 -0.1626  0.2719  0.9616
  428TMC3    C4 6382   4.496   3.729  15.208  0.1435  0.8332  0.0645
  428TMC3    C5 6383   4.570   3.683  15.321  0.6011  0.2137 -0.0206
  428TMC3    C6 6384   4.515   3.572  15.390  0.3213 -0.4700  0.5879
  428TMC3     C 6385   4.284   3.715  15.088 -0.0876  0.2921  0.8070
  428TMC3     O 6386   4.170   3.691  15.119 -0.3334 -0.6266  0.0199
  428TMC3     H 6387   4.261   3.477  15.202  0.9640 -1.4318 -1.0090
  428TMC3    H1 6388   4.517   3.825  15.163 -2.0004  1.3848  0.2553
  428TMC3    H2 6389   4.571   3.537  15.475  1.3719  0.9319  0.4792
  428TMC3    C7 6390   4.707   3.717  15.349 -0.1709 -0.1860  0.2154
  428TMC3    C8 6391   4.385   3.371  15.383 -0.2969  0.2198  0.0402
  428TMC3    O1 6392   0.044   3.671  15.446 -0.2074 -0.3871  0.1058
  428TMC3    O2 6393   4.329   3.296  15.304 -0.2433 -0.5089 -0.2317
  429MPD2     C 6394   0.495   3.726  17.549  0.2752 -0.0681  0.0901
  429MPD2    C1 6395   0.483   3.672  17.422  1.4844 -0.2546 -0.1836
  429MPD2    C2 6396   0.545   3.728  17.312  0.3433 -0.3164  0.0991
  429MPD2    C3 6397   0.619   3.842  17.329  0.4337  0.4440 -0.1400
  429MPD2    C4 6398   0.636   3.898  17.457 -0.3905  0.3679 -0.8623
  429MPD2    C5 6399   0.569   3.846  17.564  0.5269  0.3750  0.0839
  429MPD2     H 6400   0.534   3.673  17.219 -1.5672  0.5343 -0.1723
  429MPD2    H1 6401   0.706   3.977  17.485 -3.0318  2.2726  0.3461
  429MPD2    H2 6402   0.451   3.685  17.640  1.5750  1.3040  1.3351
  429MPD2    H3 6403   0.588   3.897  17.658  0.7155  1.3031 -0.4630
  429MPD2     N 6404   0.683   3.896  17.217  0.5915  0.2310  0.0602
  429MPD2    H5 6405   0.668   3.848  17.129  1.8785  0.6370 -0.3852
  429MPD2    N1 6406   0.409   3.555  17.408 -0.4789  0.3408  0.1581
  429MPD2    H7 6407   0.416   3.511  17.317 -0.1699  0.4534  0.1258
  430TMC3    C1 6408   0.838   4.027  17.082  0.3476 -0.1324  0.7037
  430TMC3    C2 6409   0.866   4.153  17.040 -0.1665  0.4489 -0.2350
  430TMC3    C3 6410   0.931   4.168  16.919  0.0469 -0.2672 -0.7035
  430TMC3    C4 6411   0.874   3.916  17.010  1.1486 -0.0477 -0.5581
  430TMC3    C5 6412   0.944   3.937  16.893  0.2265  0.0062 -0.1053
  430TMC3    C6 6413   0.973   4.060  16.847  0.8922 -0.0043  0.9142
  430TMC3     C 6414   0.773   4.002  17.212  0.3403  0.0769 -0.1191
  430TMC3     O 6415   0.803   4.081  17.297  0.4422 -0.4925  0.2301
  430TMC3     H 6416   0.830   4.235  17.101  0.3638  0.6424 -0.1802
  430TMC3    H1 6417   0.843   3.816  17.040 -0.2402  0.1269 -1.3824
  430TMC3    H2 6418   1.030   4.073  16.756 -1.0261 -0.3728 -0.3338
  430TMC3    C7 6419   0.905   3.842  16.786  0.5213 -0.0040 -0.0385
  430TMC3    C8 6420   0.850   4.261  16.836  0.5063 -0.5843  0.1513
  430TMC3    O1 6421   0.920   3.726  16.818 -0.7469  0.0944 -0.7640
  430TMC3    O2 6422   0.810   4.209  16.733  0.4450 -0.3316  0.5645
  431MPD2     C 6423   1.231   3.801  12.538 -0.1076  0.1652  0.3107
  431MPD2    C1 6424   1.231   3.872  12.419 -0.7556  0.3973 -0.0770
  431MPD2    C2 6425   1.202   3.806  12.299  0.9096  0.3706 -0.8099
  431MPD2    C3 6426   1.168   3.673  12.304  0.1394  0.5237  0.2601
  431MPD2    C4 6427   1.157   3.606  12.421 -0.2728 -0.0338 -0.4948
  431MPD2    C5 6428   1.190   3.671  12.538  0.3872  0.1403 -0.7267
  431MPD2     H 6429   1.209   3.870  12.212  0.6093  0.7253 -0.5722
  431MPD2    H1 6430   1.120   3.504  12.416  2.2241 -0.9459 -0.3994
  431MPD2    H2 6431   1.236   3.846  12.636  1.2469  1.0294 -0.1535
  431MPD2    H3 6432   1.183   3.620  12.633  0.4337  0.3047 -0.6361
  431MPD2     N 6433   1.140   3.596  12.188 -0.1206 -0.6979 -0.2756
  431MPD2    H5 6434   1.118   3.499  12.206  2.7777 -1.1576  0.8287
  431MPD2    N1 6435   1.274   4.012  12.404  0.5062  0.1395  0.1585
  431MPD2    H7 6436   1.282   4.042  12.307 -1.2592  3.1697  0.9336
  432TMC3    C1 6437   1.139   3.528  11.969 -0.2205  0.4390  0.8263
  432TMC3    C2 6438   1.258   3.490  11.910  0.5549 -0.4743  0.1662
  432TMC3    C3 6439   1.278   3.359  11.896  1.0181 -0.8063 -0.7423
  432TMC3    C4 6440   1.055   3.436  12.027  0.1375  0.1266  0.0649
  432TMC3    C5 6441   1.084   3.300  12.020  0.5322  0.1754 -0.7228
  432TMC3    C6 6442   1.193   3.265  11.952  0.3641 -0.5747 -0.6028
  432TMC3     C 6443   1.172   3.639  12.059 -0.6789  0.2431  0.3145
  432TMC3     O 6444   1.232   3.734  12.016  0.5429  0.2004 -0.0998
  432TMC3     H 6445   1.326   3.565  11.872  0.0932  1.2339  2.6884
  432TMC3    H1 6446   0.961   3.473  12.068  1.5648  1.7686  1.8740
  432TMC3    H2 6447   1.229   3.165  11.972  1.3790 -0.6165 -2.6645
  432TMC3    C7 6448   1.076   3.241  12.153 -0.1999 -0.1877  0.1134
  432TMC3    C8 6449   1.407   3.312  11.852 -0.0148  0.3045 -0.1159
  432TMC3    O1 6450   1.033   3.320  12.237 -0.2163 -0.4597  0.1749
  432TMC3    O2 6451   1.423   3.198  11.815 -0.4783 -0.0870 -0.0043
  433MPD2     C 6452   4.711   2.639  10.643 -0.0250 -0.6549  0.3221
  433MPD2    C1 6453   0.002   2.542  10.734 -0.4210 -0.2274 -0.0430
  433MPD2    C2 6454   0.055   2.572  10.857  0.1213  0.0665  0.2405
  433MPD2    C3 6455   0.097   2.702  10.881 -0.3686 -0.2041 -0.2790
  433MPD2    C4 6456   0.072   2.804  10.786  0.3492 -0.8300 -0.0914
  433MPD2    C5 6457   0.020   2.765  10.666 -0.2546 -0.1082  0.4432
  433MPD2     H 6458   0.077   2.501  10.936 -2.5351  0.6194  1.4510
  433MPD2    H1 6459   0.121   2.901  10.796 -1.4374 -0.0014  0.4673
  433MPD2    H2 6460   4.665   2.610  10.549  1.7916  3.1978 -1.7664
  433MPD2    H3 6461   0.014   2.833  10.582 -1.4627 -3.8302 -2.4250
  433MPD2     N 6462   0.176   2.721  10.997  0.0419  0.4971  0.1288
  433MPD2    H5 6463   0.192   2.638  11.054  1.3680 -0.2803 -1.3636
  433MPD2    N1 6464   4.722   2.405  10.686 -0.4854 -0.2198  0.2675
  433MPD2    H7 6465   4.679   2.389  10.595 -3.0357 -1.6568  1.6970
  434TMC3    C1 6466   0.048   2.172  10.665 -0.0338 -0.1877  0.6975
  434TMC3    C2 6467   0.089   2.058  10.739 -0.6262 -0.4162 -0.0792
  434TMC3    C3 6468   0.123   1.940  10.672  0.2683  0.0201 -0.5142
  434TMC3    C4 6469   0.044   2.172  10.527 -0.4228  0.2169  0.7225
  434TMC3    C5 6470   0.092   2.055  10.469 -0.6879 -0.1910 -0.0206
  434TMC3    C6 6471   0.121   1.939  10.540  0.5667  0.1858  0.1220
  434TMC3     C 6472   0.063   2.297  10.738  0.4850  0.8826 -0.2217
  434TMC3     O 6473   0.110   2.282  10.850  0.4653 -0.1021 -0.0706
  434TMC3     H 6474   0.078   2.044  10.846 -2.3170 -1.7241 -0.4085
  434TMC3    H1 6475   0.019   2.259  10.467 -0.7564 -1.5692 -1.7342
  434TMC3    H2 6476   0.159   1.855  10.483 -0.8042  0.5086 -1.2702
  434TMC3    C7 6477   0.031   2.047  10.337  0.7165  0.1075  0.6135
  434TMC3    C8 6478   0.218   1.857  10.744 -0.1053 -0.2015  0.0192
  434TMC3    O1 6479   0.084   2.108  10.245  0.3292 -0.9913  0.0822
  434TMC3    O2 6480   0.241   1.894  10.858 -0.8405  0.0930  0.2179
  435MPD2     C 6481   2.427   2.384  15.288 -0.3607 -0.9069  0.8399
  435MPD2    C1 6482   2.394   2.413  15.414 -0.1698 -0.2277  0.1903
  435MPD2    C2 6483   2.482   2.385  15.517 -0.7142  0.5115  0.2358
  435MPD2    C3 6484   2.599   2.318  15.495  0.0746 -0.1388 -0.0720
  435MPD2    C4 6485   2.636   2.296  15.365  0.5676  0.5456  1.1302
  435MPD2    C5 6486   2.552   2.335  15.263  0.7576 -0.5409  0.0225
  435MPD2     H 6487   2.451   2.412  15.617  2.3673  2.5793  0.6250
  435MPD2    H1 6488   2.733   2.260  15.333 -0.7488 -0.2171 -1.9207
  435MPD2    H2 6489   2.371   2.401  15.196  3.3807  1.2555 -1.0340
  435MPD2    H3 6490   2.572   2.310  15.159 -1.1718  0.8541 -0.6887
  435MPD2     N 6491   2.681   2.285  15.606  0.0680  0.6362 -0.1982
  435MPD2    H5 6492   2.648   2.325  15.693 -0.3879  1.5282 -0.7861
  435MPD2    N1 6493   2.269   2.470  15.441  0.1510 -0.5183 -0.0934
  435MPD2    H7 6494   2.253   2.505  15.535 -3.2067  0.2543 -0.9467
  436TMC3    C1 6495   1.947   2.684  15.561  0.0925  0.6688  0.1041
  436TMC3    C2 6496   2.057   2.614  15.524  0.2600 -0.6250 -0.3757
  436TMC3    C3 6497   2.045   2.541  15.410 -0.1549 -0.0433  0.3681
  436TMC3    C4 6498   1.828   2.689  15.496  0.0762 -0.1076  0.1944
  436TMC3    C5 6499   1.821   2.610  15.377  0.7515 -0.1289  0.5220
  436TMC3    C6 6500   1.931   2.535  15.336 -0.7362  0.3724 -0.7813
  436TMC3     C 6501   1.956   2.736  15.695  0.1741  0.3228 -0.3624
  436TMC3     O 6502   2.068   2.750  15.744  0.2912  0.0800 -0.0217
  436TMC3     H 6503   2.145   2.606  15.587  0.5431  0.3226 -0.6487
  436TMC3    H1 6504   1.745   2.752  15.527 -0.2764 -0.7235  0.5093
  436TMC3    H2 6505   1.926   2.463  15.255  0.0820 -1.9543  1.2498
  436TMC3    C7 6506   1.689   2.587  15.318 -0.1269  0.2559  0.0781
  436TMC3    C8 6507   2.166   2.490  15.351 -0.2928 -0.0766  0.4230
  436TMC3    O1 6508   1.594   2.624  15.385  0.2737  0.0173 -0.0396
  436TMC3    O2 6509   2.153   2.457  15.230 -0.6853 -0.0032 -0.9007
  437TMC3    C1 6510   1.023   4.527  12.207 -0.5422  0.0666 -0.0311
  437TMC3    C2 6511   0.936   4.512  12.105 -0.1433 -0.3582  0.2978
  437TMC3    C3 6512   0.900   4.611  12.024  0.3355  0.1506 -0.2713
  437TMC3    C4 6513   1.075   4.654  12.233  0.3879  0.1182  1.0890
  437TMC3    C5 6514   1.046   0.028  12.144 -0.5820 -0.0619 -0.4943
  437TMC3    C6 6515   0.960   0.009  12.039 -0.4653  0.1550 -0.4342
  437TMC3     C 6516   1.055   4.428  12.303 -0.8494 -0.6941  0.3366
  437TMC3     O 6517   1.129   4.459  12.398  0.2081  0.1412 -0.1486
  437TMC3     H 6518   0.879   4.420  12.099  1.7924 -1.5258  0.1877
  437TMC3    H1 6519   1.132   4.669  12.324  2.2920  0.8751 -0.2363
  437TMC3    H2 6520   0.935   0.087  11.968  1.7843  0.9288 -0.3911
  437TMC3    C7 6521   1.131   0.139  12.128  0.1855 -0.4710  0.2167
  437TMC3    C8 6522   0.759   4.608  11.999 -0.3803  0.0769 -0.4363
  437TMC3    O1 6523   1.110   0.218  12.040 -0.3468  0.3471 -0.5179
  437TMC3    O2 6524   0.699   4.502  12.001 -0.5183  0.1670 -0.4916
  438MPD2     C 6525   2.892   0.265  16.789  0.5985  0.3276 -0.0418
  438MPD2    C1 6526   2.936   0.133  16.812  0.6919 -0.1898 -0.3165
  438MPD2    C2 6527   2.920   0.075  16.934  0.4714  0.2466  0.5533
  438MPD2    C3 6528   2.863   0.153  17.041 -0.4199  0.4397  0.4934
  438MPD2    C4 6529   2.831   0.287  17.011 -0.5845  0.1769 -0.4496
  438MPD2    C5 6530   2.844   0.336  16.887 -0.4420  0.2749  0.2213
  438MPD2     H 6531   2.961   4.702  16.952 -0.6471 -0.5858 -1.4394
  438MPD2    H1 6532   2.784   0.348  17.087  1.8238  0.3774  0.8838
  438MPD2    H2 6533   2.896   0.328  16.701 -0.2899  2.1377  1.2249
  438MPD2    H3 6534   2.819   0.442  16.880  1.8637  0.8041 -0.1919
  438MPD2     N 6535   2.839   0.095  17.167  0.0381  0.7797  0.3419
  438MPD2    H5 6536   2.786   0.156  17.229  1.2232 -0.3400  2.4199
  438MPD2    N1 6537   2.998   0.049  16.718  0.3380 -0.0891 -0.4747
  438MPD2    H7 6538   3.034   4.689  16.757  1.7961  1.5563  1.8097
  439TMC3    C1 6539   3.085   4.699  16.514  0.2252 -0.0049  0.4179
  439TMC3    C2 6540   3.088   4.725  16.378 -0.3148 -0.0822 -0.0178
  439TMC3    C3 6541   3.176   4.649  16.302 -0.6098 -0.1782 -0.0488
  439TMC3    C4 6542   3.161   4.606  16.579  0.1964 -0.6406  0.2077
  439TMC3    C5 6543   3.244   4.529  16.497 -0.0720  0.1542 -0.1830
  439TMC3    C6 6544   3.253   4.548  16.361  0.2515  0.1550 -0.4581
  439TMC3     C 6545   3.013   0.079  16.590  0.3750  0.4198 -0.0011
  439TMC3     O 6546   2.962   0.171  16.532  0.0907  0.5148 -0.3520
  439TMC3     H 6547   3.020   0.065  16.326  0.7121 -0.2842 -1.6133
  439TMC3    H1 6548   3.170   4.595  16.686  0.7781 -1.3580  0.0911
  439TMC3    H2 6549   3.319   4.488  16.299 -1.8569 -2.6173 -0.0556
  439TMC3    C7 6550   3.365   4.487  16.569  0.9456  0.0985 -0.4334
  439TMC3    C8 6551   3.239   4.722  16.197 -0.4287 -0.9129 -0.5502
  439TMC3    O1 6552   3.391   4.559  16.663 -0.1536  0.0840  0.1314
  439TMC3    O2 6553   3.354   4.684  16.177 -0.4426  0.0899 -0.0380
  440MPD2     C 6554   1.768   0.956  14.725  0.9053  0.3948  0.2356
  440MPD2    C1 6555   1.831   1.049  14.807  0.9175  0.3154 -0.5241
  440MPD2    C2 6556   1.970   1.031  14.839 -0.4948  0.1608 -0.0142
  440MPD2    C3 6557   2.036   0.919  14.793 -0.0759 -0.3657  0.3577
  440MPD2    C4 6558   1.969   0.829  14.712  0.4158 -0.4002 -0.4497
  440MPD2    C5 6559   1.837   0.846  14.681 -0.2434  0.9009  0.4860
  440MPD2     H 6560   2.025   1.107  14.895 -0.0143 -0.0592 -0.1855
  440MPD2    H1 6561   2.011   0.731  14.689  0.7733 -0.1572 -0.8229
  440MPD2    H2 6562   1.661   0.954  14.706  1.1006 -1.5416 -0.7088
  440MPD2    H3 6563   1.781   0.766  14.635  0.7103  1.8769 -2.3419
  440MPD2     N 6564   2.172   0.887  14.820 -0.2562 -0.4507 -0.3030
  440MPD2    H5 6565   2.212   0.799  14.791  0.7912 -0.0858  0.0373
  440MPD2    N1 6566   1.764   1.165  14.852 -0.2772  0.0851 -0.5824
  440MPD2    H7 6567   1.815   1.224  14.917  0.8978 -2.2983  0.6713
  441TMC3    C1 6568   2.359   0.872  14.951 -0.3461  0.2342 -0.6089
  441TMC3    C2 6569   2.465   0.950  14.985  0.2811 -0.1206  0.1950
  441TMC3    C3 6570   2.540   0.912  15.087 -0.2054 -0.5352  0.0008
  441TMC3    C4 6571   2.340   0.752  15.014 -0.4172 -0.0484  0.0234
  441TMC3    C5 6572   2.427   0.710  15.107 -0.2500  0.3645 -0.3727
  441TMC3    C6 6573   2.534   0.790  15.144  1.1037 -0.2730 -0.5544
  441TMC3     C 6574   2.245   0.951  14.918  0.9506 -1.1297 -0.5249
  441TMC3     O 6575   2.224   1.042  14.995  0.4604 -0.3857 -0.0802
  441TMC3     H 6576   2.473   1.056  14.961  1.4465  0.1835  1.9643
  441TMC3    H1 6577   2.256   0.694  14.977  0.0922  0.3385 -1.7023
  441TMC3    H2 6578   2.591   0.770  15.234  0.0833 -1.2799 -0.1322
  441TMC3    C7 6579   2.368   0.654  15.227 -0.1018 -0.4290 -0.9342
  441TMC3    C8 6580   2.552   1.013  15.189  0.5918 -0.1981 -0.1245
  441TMC3    O1 6581   2.247   0.667  15.237  0.5117 -0.4470 -0.8071
  441TMC3    O2 6582   2.657   1.010  15.250 -0.1674  0.6622  0.2606
  442MPD2     C 6583   0.364   1.633  16.255  0.2226  0.0961 -0.3249
  442MPD2    C1 6584   0.229   1.592  16.254 -0.3545 -0.4734  0.6494
  442MPD2    C2 6585   0.192   1.461  16.260  0.2557 -0.0346 -0.5588
  442MPD2    C3 6586   0.292   1.363  16.258 -0.1626 -0.2653  0.0528
  442MPD2    C4 6587   0.426   1.402  16.241  0.1251  0.4458  0.1450
  442MPD2    C5 6588   0.459   1.535  16.262 -0.0485  0.3366 -0.3508
  442MPD2     H 6589   0.089   1.428  16.250  0.2331 -0.7198  1.9640
  442MPD2    H1 6590   0.507   1.333  16.224 -0.7899 -0.7360  0.5440
  442MPD2    H2 6591   0.395   1.736  16.246 -1.0389  0.4582 -0.5997
  442MPD2    H3 6592   0.564   1.557  16.278  0.3218  0.5989 -3.0844
  442MPD2     N 6593   0.263   1.226  16.251 -0.5444  0.0358 -0.1584
  442MPD2    H5 6594   0.345   1.167  16.259 -1.1955 -0.8524 -0.1209
  442MPD2    N1 6595   0.120   1.679  16.233 -0.1678  0.1765  0.2066
  442MPD2    H7 6596   0.033   1.632  16.209  1.1860 -2.8603  1.2415
  443TMC3    C1 6597   4.720   1.858  16.158  0.3595 -0.0364 -0.8292
  443TMC3    C2 6598   4.671   1.792  16.050 -0.1662 -0.0629  0.2717
  443TMC3    C3 6599   4.533   1.796  16.036 -0.8863 -0.1052  0.6039
  443TMC3    C4 6600   4.647   1.927  16.253 -0.3173 -0.3167  0.2512
  443TMC3    C5 6601   4.512   1.934  16.237 -0.7842  0.3951  0.2980
  443TMC3    C6 6602   4.459   1.874  16.124  0.2403  0.2145  0.7663
  443TMC3     C 6603   0.125   1.814  16.209  0.1277 -0.2730  0.3185
  443TMC3     O 6604   0.225   1.884  16.181 -0.2922  0.3251 -0.1560
  443TMC3     H 6605   0.015   1.741  15.985  1.1253 -0.9402  2.3412
  443TMC3    H1 6606   4.695   1.974  16.338  0.5645 -1.5323  0.4417
  443TMC3    H2 6607   4.355   1.892  16.098 -0.3519 -3.2732  0.6740
  443TMC3    C7 6608   4.425   2.015  16.319  0.2931  0.5431 -0.4652
  443TMC3    C8 6609   4.464   1.699  15.962 -0.3070  0.6703  0.3381
  443TMC3    O1 6610   4.480   2.122  16.348 -0.3439 -0.6521 -0.1246
  443TMC3    O2 6611   4.352   1.668  15.996  0.8432 -0.3459 -0.4417
  444MPD2     C 6612   0.352   0.744  16.859 -0.4741  0.1165 -0.5796
  444MPD2    C1 6613   0.269   0.635  16.833 -0.0978 -0.4191 -0.3223
  444MPD2    C2 6614   0.336   0.521  16.792  0.0317 -0.3863 -0.5332
  444MPD2    C3 6615   0.473   0.512  16.769  0.4737 -0.6600  0.2767
  444MPD2    C4 6616   0.545   0.622  16.778 -0.2222 -0.0613 -0.1518
  444MPD2    C5 6617   0.485   0.735  16.824 -0.2380  0.1500  0.2658
  444MPD2     H 6618   0.279   0.430  16.778 -0.3147 -0.2052 -0.2938
  444MPD2    H1 6619   0.650   0.626  16.754 -0.6163  2.0200 -1.5386
  444MPD2    H2 6620   0.319   0.842  16.891  3.1355  1.1964 -0.1235
  444MPD2    H3 6621   0.544   0.826  16.830 -0.9666  0.6426 -0.0414
  444MPD2     N 6622   0.526   0.382  16.744 -0.6119  0.0465  0.6362
  444MPD2    H5 6623   0.463   0.304  16.728 -2.8857  2.2631 -1.2271
  444MPD2    N1 6624   0.131   0.630  16.861  0.0651 -0.4390  0.1964
  444MPD2    H7 6625   0.085   0.541  16.847 -0.3870  0.1939 -2.2656
  445TMC3    C1 6626   0.700   0.223  16.728 -0.0288  0.3317 -0.8344
  445TMC3    C2 6627   0.635   0.158  16.624  0.4862  0.1090 -0.4999
  445TMC3    C3 6628   0.692   0.045  16.571  0.6035  0.2801 -0.3254
  445TMC3    C4 6629   0.826   0.183  16.764  0.1182 -0.1673  0.1113
  445TMC3    C5 6630   0.884   0.081  16.694  0.1276 -0.0373 -0.3217
  445TMC3    C6 6631   0.820   0.010  16.597  0.0163 -0.5212  0.1148
  445TMC3     C 6632   0.662   0.354  16.762  0.1224 -0.7562 -0.4698
  445TMC3     O 6633   0.746   0.423  16.824  0.0261  0.4919 -0.4001
  445TMC3     H 6634   0.542   0.195  16.581 -0.3883  0.6480  1.8568
  445TMC3    H1 6635   0.884   0.233  16.840  1.0696 -1.0303 -0.0601
  445TMC3    H2 6636   0.857   4.641  16.560 -2.8382 -1.9292  0.8342
  445TMC3    C7 6637   1.027   0.075  16.683  0.5362 -0.4462 -0.0729
  445TMC3    C8 6638   0.620   4.717  16.451  1.1413  0.4209 -0.1405
  445TMC3    O1 6639   1.069   0.034  16.575 -0.3681  0.2420 -0.2145
  445TMC3    O2 6640   0.524   0.057  16.411 -0.5599 -0.3403 -0.1108
  446MPD2     C 6641   0.050   1.713  11.359 -0.4241 -0.5979  0.3459
  446MPD2    C1 6642   0.031   1.729  11.224  0.0423  0.3584 -0.3228
  446MPD2    C2 6643   0.113   1.808  11.153  0.3191  0.6071 -0.5062
  446MPD2    C3 6644   0.215   1.881  11.215  0.1741 -0.2318  0.3150
  446MPD2    C4 6645   0.247   1.849  11.344  0.3168 -0.1209 -0.1897
  446MPD2    C5 6646   0.161   1.770  11.417 -0.4379 -0.1810  0.2491
  446MPD2     H 6647   0.085   1.813  11.048 -1.7221 -1.2278 -0.0351
  446MPD2    H1 6648   0.342   1.878  11.387  0.1508 -0.2507  0.2659
  446MPD2    H2 6649   4.709   1.658  11.424 -2.3472  0.6014 -0.6206
  446MPD2    H3 6650   0.185   1.734  11.516 -1.0627  1.8604  1.1276
  446MPD2     N 6651   0.300   1.959  11.125  0.8485  0.2652 -0.2518
  446MPD2    H5 6652   0.283   1.949  11.025 -0.7959 -2.3937  0.3000
  446MPD2    N1 6653   4.640   1.681  11.157  0.4563 -0.5783 -0.3854
  446MPD2    H7 6654   4.634   1.695  11.056 -3.1221 -1.7073 -0.3267
  447TMC3    C1 6655   0.485   2.115  11.063 -0.6799 -0.5184 -0.8208
  447TMC3    C2 6656   0.434   2.129  10.934  0.3929  0.2924  0.3212
  447TMC3    C3 6657   0.523   2.134  10.831 -0.1728 -0.7234 -0.2889
  447TMC3    C4 6658   0.619   2.131  11.094 -0.4475  1.2626 -0.3650
  447TMC3    C5 6659   0.705   2.140  10.987  0.1902  0.7542 -0.4802
  447TMC3    C6 6660   0.665   2.130  10.852  0.2402 -0.0807  0.1798
  447TMC3     C 6661   0.402   2.048  11.164  0.1634 -0.0137 -0.1702
  447TMC3     O 6662   0.440   2.066  11.278 -0.5484  0.3028  0.1870
  447TMC3     H 6663   0.328   2.133  10.915  0.1251 -1.0042  1.5911
  447TMC3    H1 6664   0.655   2.119  11.196 -0.6367 -3.9762 -0.9535
  447TMC3    H2 6665   0.732   2.127  10.767 -0.1915  0.3322 -0.1763
  447TMC3    C7 6666   0.846   2.141  11.015  0.2248 -0.3886 -0.3525
  447TMC3    C8 6667   0.469   2.096  10.703 -0.6637 -0.3387 -0.1707
  447TMC3    O1 6668   0.873   2.168  11.135 -0.6867  0.6443 -0.1061
  447TMC3    O2 6669   0.371   2.149  10.654  0.1516 -0.2182  0.1132
  448TMC3    C1 6670   3.079   2.520  16.644  0.1864 -0.1031 -0.0623
  448TMC3    C2 6671   3.144   2.409  16.599 -1.1857 -0.7044 -0.6554
  448TMC3    C3 6672   3.241   2.354  16.681  0.3309  0.8517 -0.6291
  448TMC3    C4 6673   3.094   2.579  16.768  0.1899  0.2123 -0.0906
  448TMC3    C5 6674   3.197   2.528  16.842 -0.5016  0.0683 -0.0591
  448TMC3    C6 6675   3.271   2.418  16.803  0.2669 -0.0475  0.0069
  448TMC3     C 6676   2.988   2.590  16.542  0.0565  0.9599 -0.2652
  448TMC3     O 6677   2.904   2.661  16.591  0.3314  0.3739 -0.3226
  448TMC3     H 6678   3.107   2.352  16.514 -1.6798 -0.5586 -0.5340
  448TMC3    H1 6679   3.041   2.669  16.794  0.5029 -0.1262  1.7826
  448TMC3    H2 6680   3.369   2.402  16.848 -0.7390  2.4738  3.0744
  448TMC3    C7 6681   3.200   2.568  16.977 -0.3022  0.2804 -0.1067
  448TMC3    C8 6682   3.300   2.222  16.662 -0.9563 -1.2854  0.0587
  448TMC3    O1 6683   3.141   2.674  17.004 -0.0537  0.1078 -0.1111
  448TMC3    O2 6684   3.379   2.180  16.747 -0.1060 -0.3931 -0.4366
  449MPD2     C 6685   0.117   0.118  13.278 -0.5592  0.2434  0.2837
  449MPD2    C1 6686   4.719   0.127  13.211  0.3935 -0.7479  0.6842
  449MPD2    C2 6687   4.612   0.088  13.282  0.2112 -0.7155  0.2898
  449MPD2    C3 6688   4.620   0.026  13.406 -0.0966 -0.6692  0.2049
  449MPD2    C4 6689   0.013   0.022  13.467 -0.2724  0.3079 -0.7058
  449MPD2    C5 6690   0.124   0.061  13.407 -0.0452  0.2542  0.2175
  449MPD2     H 6691   4.513   0.103  13.243 -0.1780  0.0035  1.5484
  449MPD2    H1 6692   0.027   4.703  13.564 -0.1093  0.1960 -0.7803
  449MPD2    H2 6693   0.213   0.140  13.233 -0.9162  1.2289  0.0221
  449MPD2    H3 6694   0.214   0.032  13.459  0.9169  3.2499  0.2037
  449MPD2     N 6695   4.501   4.705  13.468  0.6612  0.2160 -0.8196
  449MPD2    H5 6696   4.416   4.721  13.415  0.4523 -0.8377 -0.7958
  449MPD2    N1 6697   4.700   0.186  13.079 -0.4274 -0.5904 -0.1591
  449MPD2    H7 6698   4.604   0.178  13.048 -0.2783 -0.9972 -0.5108
  450TMC3    C1 6699   0.010   0.219  12.860 -0.6195  0.2451  0.3126
  450TMC3    C2 6700   0.058   0.118  12.779 -0.1709 -0.3389 -0.6485
  450TMC3    C3 6701   4.691   0.048  12.701  0.7646 -0.3862  0.3466
  450TMC3    C4 6702   4.603   0.244  12.854 -0.3580  0.3670 -0.3950
  450TMC3    C5 6703   4.513   0.166  12.792  0.1557 -0.9065  0.0163
  450TMC3    C6 6704   4.558   0.074  12.704 -0.1485  0.2688 -0.2497
  450TMC3     C 6705   0.072   0.210  12.991 -0.7143  0.8815  0.2853
  450TMC3     O 6706   0.192   0.186  12.998 -0.1551 -0.2072  0.4093
  450TMC3     H 6707   0.163   0.095  12.783  0.0635  0.9019  0.0916
  450TMC3    H1 6708   4.556   0.320  12.916 -2.1617 -1.7569  0.8699
  450TMC3    H2 6709   4.492   0.015  12.641 -2.8436  1.1552  1.7633
  450TMC3    C7 6710   4.418   0.122  12.889 -0.2833  0.2643  0.3414
  450TMC3    C8 6711   0.002   4.677  12.592 -0.1650 -0.4003 -0.4606
  450TMC3    O1 6712   4.400   0.190  12.990 -0.5935 -0.9395 -0.1048
  450TMC3    O2 6713   4.648   4.656  12.501 -0.1845 -0.3898 -0.4176
  451MPD2     C 6714   1.525   4.208   1.350 -0.2742 -0.3102  0.3879
  451MPD2    C1 6715   1.408   4.205   1.427 -0.0362  0.6088  0.0817
  451MPD2    C2 6716   1.320   4.094   1.413 -0.2249 -1.0859 -0.2770
  451MPD2    C3 6717   1.356   3.986   1.338 -0.0966 -0.5351  0.5073
  451MPD2    C4 6718   1.467   3.995   1.267  0.1803 -0.3006 -0.4003
  451MPD2    C5 6719   1.555   4.104   1.265  0.0943  0.1128  0.3775
  451MPD2     H 6720   1.226   4.101   1.467 -0.2676 -0.1282 -0.4716
  451MPD2    H1 6721   1.506   3.911   1.211  0.8896 -0.4041  0.2345
  451MPD2    H2 6722   1.605   4.280   1.359  0.9006 -1.2279 -2.6150
  451MPD2    H3 6723   1.639   4.101   1.196 -1.0852 -1.4271 -0.9774
  451MPD2     N 6724   1.275   3.871   1.330 -0.3303  0.1335 -0.1806
  451MPD2    H5 6725   1.312   3.793   1.277  0.1414 -0.3370  0.8400
  451MPD2    N1 6726   1.380   4.315   1.510  0.2441 -0.1086 -0.1712
  451MPD2    H7 6727   1.439   4.396   1.494  2.8163 -2.3212 -2.1403
  452TMC3    C1 6728   1.080   3.742   1.331  0.2230 -0.3356  0.3399
  452TMC3    C2 6729   0.989   3.678   1.408  0.7066 -0.3978 -0.0611
  452TMC3    C3 6730   0.927   3.572   1.347  0.2280 -1.0914 -0.5575
  452TMC3    C4 6731   1.081   3.725   1.193  0.8219  0.3797  0.5850
  452TMC3    C5 6732   0.994   3.637   1.134  0.4651 -0.2628  0.1906
  452TMC3    C6 6733   0.912   3.559   1.212  0.1800  0.1580  0.1138
  452TMC3     C 6734   1.150   3.858   1.388 -0.2454  0.2113  0.2015
  452TMC3     O 6735   1.096   3.928   1.467  0.4384 -0.0898  0.0916
  452TMC3     H 6736   0.994   3.688   1.516 -0.2146 -0.3919 -0.0197
  452TMC3    H1 6737   1.141   3.793   1.134  0.3243  1.0365  0.8456
  452TMC3    H2 6738   0.874   3.465   1.174 -0.4769  0.9584 -1.1944
  452TMC3    C7 6739   0.990   3.633   0.993 -0.3195  0.9526  0.4436
  452TMC3    C8 6740   0.877   3.459   1.427 -0.4379 -0.0859 -0.4308
  452TMC3    O1 6741   1.083   3.689   0.937 -0.4438 -0.1431  0.1838
  452TMC3    O2 6742   0.793   3.387   1.379 -0.2443  0.0721  0.0560
  453TMC3    C1 6743   2.188   1.139  11.439 -0.4344 -0.2654 -0.1087
  453TMC3    C2 6744   2.091   1.061  11.486 -0.5852  0.0630  0.2030
  453TMC3    C3 6745   2.002   1.024  11.391  0.6328  0.2283  0.3599
  453TMC3    C4 6746   2.201   1.193  11.312  0.0780 -0.3949  0.4543
  453TMC3    C5 6747   2.095   1.167  11.225 -0.0405 -0.3540  0.0728
  453TMC3    C6 6748   1.994   1.077  11.261  0.6615 -0.7809 -0.3848
  453TMC3     C 6749   2.299   1.167  11.536  0.6474 -0.2677 -0.0447
  453TMC3     O 6750   2.375   1.258  11.513  0.5210  0.9176 -0.8038
  453TMC3     H 6751   2.089   1.016  11.585 -1.5350 -0.7200 -0.1734
  453TMC3    H1 6752   2.285   1.258  11.290  0.9722 -2.0459 -0.9769
  453TMC3    H2 6753   1.908   1.070  11.195 -1.5768  0.2902  2.4543
  453TMC3    C7 6754   2.115   1.211  11.083 -0.0451 -0.2037 -0.0297
  453TMC3    C8 6755   1.918   0.906  11.412  0.4668  0.0315  0.7499
  453TMC3    O1 6756   2.026   1.205  11.001  0.0911  0.0475 -0.3777
  453TMC3    O2 6757   1.814   0.903  11.347  0.0608  0.2341 -0.6220
  454MPD2     C 6758   1.262   0.234  16.244 -0.9389  0.6477 -0.3861
  454MPD2    C1 6759   1.173   0.336  16.214  0.3967  0.6106  0.3919
  454MPD2    C2 6760   1.113   0.410  16.320 -0.1109  0.3243  0.2019
  454MPD2    C3 6761   1.145   0.394  16.447  0.3006  0.0920  0.5637
  454MPD2    C4 6762   1.238   0.291  16.481  0.0807 -0.4222 -0.2736
  454MPD2    C5 6763   1.286   0.211  16.377 -0.3880  0.0576  0.0684
  454MPD2     H 6764   1.047   0.492  16.297  0.7532  1.2905  1.1492
  454MPD2    H1 6765   1.251   0.266  16.586  0.4219  0.4488 -0.1052
  454MPD2    H2 6766   1.312   0.168  16.175 -1.2843 -1.1258  1.0767
  454MPD2    H3 6767   1.345   0.122  16.397  2.5904  2.3612  1.4299
  454MPD2     N 6768   1.083   0.466  16.553  0.1214 -0.0177  0.1709
  454MPD2    H5 6769   1.143   0.466  16.634 -0.3958  2.7433  0.5321
  454MPD2    N1 6770   1.143   0.361  16.078 -0.0512 -0.3568 -0.1829
  454MPD2    H7 6771   1.076   0.436  16.064 -0.1901 -0.5910 -0.7758
  455TMC3    C1 6772   0.855   0.499  16.467  0.1999 -0.3200  0.6886
  455TMC3    C2 6773   0.764   0.595  16.446 -0.2975  0.2022 -0.5418
  455TMC3    C3 6774   0.648   0.551  16.386  0.3755  0.2151 -0.3184
  455TMC3    C4 6775   0.836   0.364  16.431 -0.3822  0.4303  0.2956
  455TMC3    C5 6776   0.727   0.334  16.365 -0.0938 -0.2649  0.0232
  455TMC3    C6 6777   0.623   0.422  16.351  0.2505  0.7975 -0.9232
  455TMC3     C 6778   0.963   0.537  16.554 -0.0676 -0.1625 -0.4263
  455TMC3     O 6779   0.941   0.632  16.628 -0.0636 -0.3615  0.3089
  455TMC3     H 6780   0.777   0.697  16.482  2.3304  0.1648 -1.4412
  455TMC3    H1 6781   0.913   0.297  16.467 -0.5923 -0.6316 -1.2221
  455TMC3    H2 6782   0.531   0.387  16.304  1.5252  0.2201 -2.9974
  455TMC3    C7 6783   0.747   0.242  16.261 -0.5192 -0.0601  0.1560
  455TMC3    C8 6784   0.525   0.624  16.415  0.5978  0.3455 -0.0030
  455TMC3    O1 6785   0.659   0.242  16.172 -0.1797  0.0569  0.0267
  455TMC3    O2 6786   0.429   0.554  16.446  0.1015  0.5563 -0.3382
  456MPD2     C 6787   3.255   0.776  16.470  0.0173 -0.1716 -0.0303
  456MPD2    C1 6788   3.360   0.783  16.556 -0.3962 -0.1099  0.0281
  456MPD2    C2 6789   3.363   0.876  16.659 -0.4069  0.3636  0.2375
  456MPD2    C3 6790   3.276   0.985  16.663 -0.3828 -0.3216 -0.5724
  456MPD2    C4 6791   3.177   0.988  16.565 -0.6689  0.5544  0.4713
  456MPD2    C5 6792   3.157   0.879  16.483 -0.1622  0.4022  0.1574
  456MPD2     H 6793   3.446   0.881  16.729 -0.9125  0.1579  0.8437
  456MPD2    H1 6794   3.089   1.051  16.565 -2.4230 -1.8699 -2.0288
  456MPD2    H2 6795   3.234   0.703  16.392 -0.2503 -0.3650  0.2224
  456MPD2    H3 6796   3.074   0.888  16.415  0.1527 -0.4409 -0.3332
  456MPD2     N 6797   3.307   1.099  16.742  0.0970  0.2975  0.2299
  456MPD2    H5 6798   3.380   1.091  16.812  0.8373 -1.3993 -0.7547
  456MPD2    N1 6799   3.472   0.702  16.518 -0.0588 -0.2684  0.0382
  456MPD2    H7 6800   3.446   0.639  16.443  1.5227 -0.0135 -0.7216
  457TMC3    C1 6801   3.298   1.323  16.811 -0.6368 -0.4797 -0.0655
  457TMC3    C2 6802   3.315   1.448  16.750  0.8618  0.1184 -0.0139
  457TMC3    C3 6803   3.340   1.556  16.829  0.3505 -0.9118  0.0821
  457TMC3    C4 6804   3.302   1.307  16.950 -0.3857  0.2636 -0.0695
  457TMC3    C5 6805   3.331   1.417  17.020 -0.1553 -0.4773 -0.9092
  457TMC3    C6 6806   3.349   1.539  16.958  0.1128 -0.2245  0.1038
  457TMC3     C 6807   3.248   1.218  16.718  0.4356 -0.6897  0.5344
  457TMC3     O 6808   3.165   1.249  16.635  0.1555  0.3526 -0.9404
  457TMC3     H 6809   3.298   1.444  16.643 -0.7732 -2.0953  0.3323
  457TMC3    H1 6810   3.301   1.212  17.002  1.7244  0.6516  0.6654
  457TMC3    H2 6811   3.374   1.627  17.017 -1.6054  1.7742 -2.1498
  457TMC3    C7 6812   3.299   1.405  17.164 -0.5691 -0.9265  0.4285
  457TMC3    C8 6813   3.358   1.695  16.777  0.5663 -0.1812 -0.7659
  457TMC3    O1 6814   3.228   1.310  17.195  0.4519 -0.0122 -0.2835
  457TMC3    O2 6815   3.359   1.785  16.857  0.2549 -0.5479  0.3746
  458MPD2     C 6816   1.511   0.427  12.304  0.0164 -0.9673  0.0082
  458MPD2    C1 6817   1.520   0.306  12.364  0.7587 -0.2333  0.2542
  458MPD2    C2 6818   1.430   0.206  12.333  0.8246  0.2825  0.1876
  458MPD2    C3 6819   1.336   0.233  12.236 -0.0302  0.2340 -0.3889
  458MPD2    C4 6820   1.328   0.354  12.177  0.4662 -0.0276 -0.1930
  458MPD2    C5 6821   1.419   0.446  12.205  0.2989  0.3549 -0.6200
  458MPD2     H 6822   1.430   0.108  12.378  0.2890  0.4186  0.4870
  458MPD2    H1 6823   1.249   0.388  12.110 -1.0574 -1.2470  0.9835
  458MPD2    H2 6824   1.578   0.509  12.325  1.8781 -1.7734 -2.7089
  458MPD2    H3 6825   1.412   0.545  12.162  2.3056  1.8144  2.3515
  458MPD2     N 6826   1.238   0.131  12.217  0.3805 -0.4601 -0.3268
  458MPD2    H5 6827   1.249   0.048  12.274 -1.6842 -1.4454 -1.3492
  458MPD2    N1 6828   1.619   0.293  12.462 -0.1620 -0.3851  0.1235
  458MPD2    H7 6829   1.683   0.372  12.467 -1.6728  0.7790  0.9804
  459TMC3    C1 6830   1.722   0.224  12.666  0.2901 -0.1398  0.1078
  459TMC3    C2 6831   1.811   0.323  12.648 -0.4719  0.1314 -0.2667
  459TMC3    C3 6832   1.896   0.347  12.752 -0.1193 -0.2001 -0.2891
  459TMC3    C4 6833   1.698   0.160  12.784  0.0519  0.2917 -0.5307
  459TMC3    C5 6834   1.787   0.186  12.887  0.1924  0.2458  0.0742
  459TMC3    C6 6835   1.900   0.271  12.871  0.1140 -0.4462 -0.5205
  459TMC3     C 6836   1.629   0.191  12.556 -0.1595  0.4612 -0.3143
  459TMC3     O 6837   1.568   0.081  12.560 -0.4539 -0.2985  0.4759
  459TMC3     H 6838   1.842   0.364  12.552  0.5762  0.7154  0.3247
  459TMC3    H1 6839   1.618   0.086  12.786 -1.3446  1.8805  1.8839
  459TMC3    H2 6840   1.982   0.287  12.940 -0.4332 -2.2864  0.5541
  459TMC3    C7 6841   1.779   0.091  12.992 -0.1442 -0.1495  0.4936
  459TMC3    C8 6842   2.003   0.439  12.710 -0.5574 -0.2944  0.3244
  459TMC3    O1 6843   1.705   4.721  12.972 -0.4179 -0.3601 -0.5832
  459TMC3    O2 6844   1.965   0.547  12.659  0.1663 -0.5772  0.2595
  460MPD2     C 6845   0.576   1.811  10.521 -0.0212 -0.0264 -0.4912
  460MPD2    C1 6846   0.514   1.925  10.533  0.0045 -1.0650  0.4660
  460MPD2    C2 6847   0.439   1.978  10.429  0.7547  0.0434 -0.0584
  460MPD2    C3 6848   0.431   1.909  10.311  0.3258  0.5258 -0.4669
  460MPD2    C4 6849   0.480   1.784  10.309 -0.2941 -0.0354  0.1097
  460MPD2    C5 6850   0.554   1.736  10.414 -0.1501  0.5761 -0.1252
  460MPD2     H 6851   0.379   2.067  10.445  0.1042 -0.0208 -2.1402
  460MPD2    H1 6852   0.464   1.716  10.226  0.9579 -0.0931 -0.0883
  460MPD2    H2 6853   0.630   1.768  10.604  0.4009  2.2480  0.4201
  460MPD2    H3 6854   0.591   1.634  10.412  1.7848  1.2763 -0.4042
  460MPD2     N 6855   0.352   1.968  10.207  0.4615  0.2590  0.0427
  460MPD2    H5 6856   0.325   2.066  10.218 -1.2637 -0.3529  1.3548
  460MPD2    N1 6857   0.532   1.993  10.654  0.3747 -0.4754  0.0980
  460MPD2    H7 6858   0.596   1.955  10.723 -0.7851 -0.1631  1.3558
  461TMC3    C1 6859   0.213   1.982  10.016  0.2910  0.5125  0.6145
  461TMC3    C2 6860   0.150   1.910   9.918 -0.4084 -0.4717 -0.2274
  461TMC3    C3 6861   0.095   1.975   9.814  0.1816  0.0177 -0.3530
  461TMC3    C4 6862   0.227   2.117  10.010  0.8251  0.7616 -0.6166
  461TMC3    C5 6863   0.169   2.177   9.908 -0.7447  0.3009  0.3106
  461TMC3    C6 6864   0.109   2.112   9.804  0.8941 -0.5167 -0.5230
  461TMC3     C 6865   0.307   1.902  10.097 -0.5122  0.2739 -0.0692
  461TMC3     O 6866   0.308   1.778  10.079 -0.5007 -0.2279 -0.0879
  461TMC3     H 6867   0.133   1.805   9.939 -1.5713 -0.3752 -0.6818
  461TMC3    H1 6868   0.293   2.159  10.085  1.6856 -1.2587 -0.2348
  461TMC3    H2 6869   0.071   2.179   9.727 -1.3994 -1.4192 -0.1900
  461TMC3    C7 6870   0.143   2.323   9.919  0.2485  0.1495  0.4410
  461TMC3    C8 6871   0.040   1.887   9.713  0.8254 -0.1198  0.5641
  461TMC3    O1 6872   0.126   2.382   9.811 -0.1392 -0.3131 -0.1881
  461TMC3    O2 6873   0.014   1.773   9.752  0.5938  0.4633  0.1592
  462TMC3    C1 6874   0.685   2.661  17.219  0.7320 -0.8915 -0.4930
  462TMC3    C2 6875   0.659   2.664  17.082  0.4145  0.2906 -1.1339
  462TMC3    C3 6876   0.530   2.663  17.032 -0.5772 -0.5392 -0.8932
  462TMC3    C4 6877   0.575   2.664  17.307  0.7403 -0.3025  0.1103
  462TMC3    C5 6878   0.455   2.680  17.257 -1.4273 -0.5565 -0.1873
  462TMC3    C6 6879   0.428   2.690  17.125  0.0832 -0.3729 -0.7355
  462TMC3     C 6880   0.823   2.663  17.261  0.6040 -0.1126 -0.2477
  462TMC3     O 6881   0.907   2.653  17.175  0.1888  0.6642  0.0022
  462TMC3     H 6882   0.742   2.662  17.012  2.5070  4.1376  1.2387
  462TMC3    H1 6883   0.596   2.669  17.413 -0.5037  2.1069  0.2637
  462TMC3    H2 6884   0.339   2.737  17.083 -0.2021 -1.2155 -1.0804
  462TMC3    C7 6885   0.351   2.715  17.352  0.5258  0.2407  0.2223
  462TMC3    C8 6886   0.502   2.675  16.887 -0.0590  0.1176 -0.1807
  462TMC3    O1 6887   0.240   2.673  17.323 -0.4562  0.1787 -0.1859
  462TMC3    O2 6888   0.397   2.719  16.846  0.1931 -0.3081 -0.4892
  463MPD2     C 6889   0.778   2.617   1.641 -0.3994 -0.3949 -0.6808
  463MPD2    C1 6890   0.725   2.660   1.525  0.4620 -0.0485 -0.4372
  463MPD2    C2 6891   0.766   2.776   1.462  0.6357  0.0733  0.4035
  463MPD2    C3 6892   0.875   2.851   1.514 -0.5988 -0.4273 -0.0226
  463MPD2    C4 6893   0.938   2.790   1.622  0.6542  0.3269 -0.2587
  463MPD2    C5 6894   0.887   2.684   1.693 -0.1608  0.1011  0.0974
  463MPD2     H 6895   0.724   2.802   1.366  1.9194 -1.6143 -0.6110
  463MPD2    H1 6896   1.028   2.832   1.664  1.8977 -1.0906 -1.5261
  463MPD2    H2 6897   0.727   2.538   1.695 -1.1246 -0.3196 -1.2489
  463MPD2    H3 6898   0.938   2.646   1.780  1.8009  0.2363 -0.9959
  463MPD2     N 6899   0.941   2.951   1.449  0.5554 -0.0808  0.1140
  463MPD2    H5 6900   1.028   2.990   1.484  0.4554  0.7894 -0.6128
  463MPD2    N1 6901   0.615   2.602   1.458 -0.2229 -0.0431  0.2339
  463MPD2    H7 6902   0.587   2.651   1.373  0.0180  0.4637  0.4497
  464TMC3    C1 6903   0.431   2.453   1.409  0.5815 -0.2519 -0.2231
  464TMC3    C2 6904   0.410   2.528   1.296 -0.3235 -0.0300 -1.2874
  464TMC3    C3 6905   0.316   2.489   1.202 -0.1762 -0.3171 -0.4158
  464TMC3    C4 6906   0.373   2.329   1.417  0.5200 -0.1447  0.1761
  464TMC3    C5 6907   0.301   2.279   1.313 -0.2437 -0.4087 -0.6525
  464TMC3    C6 6908   0.255   2.362   1.214  0.1565  0.3613  0.4038
  464TMC3     C 6909   0.549   2.484   1.489 -0.3033  0.8165 -0.0875
  464TMC3     O 6910   0.560   2.404   1.582  0.1051  0.6800  0.0131
  464TMC3     H 6911   0.453   2.627   1.289 -1.2898  0.5200  0.4796
  464TMC3    H1 6912   0.393   2.269   1.504  0.8343 -0.7080 -0.2841
  464TMC3    H2 6913   0.191   2.330   1.133  0.2138 -0.9412  0.8700
  464TMC3    C7 6914   0.221   2.163   1.352  0.5145  0.0415 -0.7577
  464TMC3    C8 6915   0.329   2.552   1.069 -0.1668 -0.3762  0.3619
  464TMC3    O1 6916   0.191   2.149   1.471  0.5626 -0.2930 -0.2168
  464TMC3    O2 6917   0.445   2.581   1.038 -0.2906 -0.1875  0.0331
  465MPD2     C 6918   2.527   0.218  16.859  0.8137  0.1194 -0.4968
  465MPD2    C1 6919   2.434   0.274  16.944  0.6408 -0.1359 -0.3446
  465MPD2    C2 6920   2.372   0.385  16.898 -0.4256 -0.2899  0.6033
  465MPD2    C3 6921   2.399   0.440  16.771 -0.0708  0.1871  0.2876
  465MPD2    C4 6922   2.502   0.379  16.693  0.5914  0.3595  0.2154
  465MPD2    C5 6923   2.561   0.268  16.737  0.9506 -0.5647  0.6438
  465MPD2     H 6924   2.295   0.437  16.954  0.1051  1.6005 -0.4005
  465MPD2    H1 6925   2.542   0.414  16.599  0.9039  1.7259  0.8564
  465MPD2    H2 6926   2.584   0.136  16.902  1.4270 -0.2776 -2.0827
  465MPD2    H3 6927   2.645   0.234  16.678 -0.8870 -1.6068 -1.3775
  465MPD2     N 6928   2.323   0.541  16.723 -0.2797  0.6167  0.2132
  465MPD2    H5 6929   2.252   0.583  16.783 -2.6242 -1.9399 -0.7815
  465MPD2    N1 6930   2.409   0.226  17.071  0.9189 -0.1997  0.5017
  465MPD2    H7 6931   2.353   0.288  17.128  0.9557 -0.6125  0.9961
  466TMC3    C1 6932   2.032   0.793  16.618  0.3795  0.3534  0.2308
  466TMC3    C2 6933   2.050   0.890  16.522 -0.6248  0.0074  0.0110
  466TMC3    C3 6934   2.148   0.865  16.421  0.5786  0.1373 -0.1405
  466TMC3    C4 6935   2.126   0.697  16.640  0.1925  0.1022 -0.5233
  466TMC3    C5 6936   2.237   0.697  16.563 -0.0075 -0.3753  0.5307
  466TMC3    C6 6937   2.247   0.770  16.446 -0.5028  0.7677  0.4070
  466TMC3     C 6938   1.940   0.812  16.730  0.1380 -0.7246  0.0475
  466TMC3     O 6939   1.941   0.721  16.813 -0.3011  0.1846  0.0177
  466TMC3     H 6940   1.973   0.965  16.507  0.6183  1.0084 -1.4432
  466TMC3    H1 6941   2.091   0.613  16.698 -0.4959  0.7845  0.0631
  466TMC3    H2 6942   2.330   0.743  16.380 -0.9687  0.7379 -0.1713
  466TMC3    C7 6943   2.334   0.599  16.598 -0.4697 -0.4452  0.2090
  466TMC3    C8 6944   2.206   0.980  16.351  0.7805  0.0964 -0.8230
  466TMC3    O1 6945   2.410   0.575  16.503 -0.2929  0.3274 -0.0086
  466TMC3    O2 6946   2.282   0.957  16.257  0.0027  0.0071  0.1097
  467TMC3    C1 6947   3.473   4.145  13.491 -0.0634 -0.3621 -0.2577
  467TMC3    C2 6948   3.526   4.190  13.368 -0.0224  0.9318  0.0138
  467TMC3    C3 6949   3.448   4.283  13.302 -0.2236  0.2823 -0.1142
  467TMC3    C4 6950   3.351   4.185  13.536  0.4892 -0.5139 -0.3754
  467TMC3    C5 6951   3.281   4.278  13.455 -0.4735  0.8732  0.5512
  467TMC3    C6 6952   3.326   4.332  13.333  0.7554 -0.2661 -0.4033
  467TMC3     C 6953   3.579   4.101  13.576  0.2927 -0.3838 -0.5267
  467TMC3     O 6954   3.599   4.171  13.675  0.1868 -0.1033  0.7723
  467TMC3     H 6955   3.626   4.170  13.332  0.0554  0.3991  0.5302
  467TMC3    H1 6956   3.320   4.151  13.635  0.5886 -0.2437 -0.2522
  467TMC3    H2 6957   3.268   4.397  13.269  0.7986  1.1128  0.9859
  467TMC3    C7 6958   3.138   4.290  13.470 -0.2704  0.1021  0.0426
  467TMC3    C8 6959   3.516   4.365  13.206  0.6663  0.0094 -0.3412
  467TMC3    O1 6960   3.079   4.378  13.410  0.3765 -0.0470  0.3381
  467TMC3    O2 6961   3.480   4.483  13.206  0.5708  0.0921  0.2659
  468MPD2     C 6962   2.155   2.392  10.265  0.4040  0.2500 -0.0113
  468MPD2    C1 6963   2.247   2.382  10.362 -0.3054  0.2666  0.5014
  468MPD2    C2 6964   2.252   2.271  10.443 -0.0284 -0.7168 -0.1569
  468MPD2    C3 6965   2.153   2.166  10.425 -0.4202 -0.1321  0.6573
  468MPD2    C4 6966   2.055   2.178  10.331 -0.2024  0.1952  0.3848
  468MPD2    C5 6967   2.060   2.296  10.252 -0.1347  0.1229 -0.0324
  468MPD2     H 6968   2.329   2.270  10.520  0.0731  0.2418 -0.2526
  468MPD2    H1 6969   1.977   2.104  10.322  0.3347 -0.1959 -1.1259
  468MPD2    H2 6970   2.136   2.472  10.193 -0.0628 -0.8954 -1.1588
  468MPD2    H3 6971   1.975   2.300  10.185  0.3197  1.2664 -0.5235
  468MPD2     N 6972   2.152   2.038  10.490  0.0724 -0.2380 -0.3732
  468MPD2    H5 6973   2.060   1.997  10.475  0.0812 -0.3861 -0.0289
  468MPD2    N1 6974   2.342   2.485  10.386 -0.4826  0.1423 -0.1149
  468MPD2    H7 6975   2.409   2.464  10.459 -0.5285  0.5607  0.0480
  469TMC3    C1 6976   2.434   2.690  10.406 -0.8459  0.6239 -0.1027
  469TMC3    C2 6977   2.538   2.618  10.460  0.6030 -0.0957 -0.5699
  469TMC3    C3 6978   2.584   2.661  10.585  0.3636 -0.6554 -0.6729
  469TMC3    C4 6979   2.382   2.802  10.468 -0.2174  0.3123 -0.4303
  469TMC3    C5 6980   2.397   2.804  10.607 -0.3774 -0.2859  1.1331
  469TMC3    C6 6981   2.512   2.751  10.661 -0.1436  0.2722  0.1821
  469TMC3     C 6982   2.340   2.612  10.335  0.8040  0.2177 -0.5040
  469TMC3     O 6983   2.254   2.666  10.263 -0.1302 -0.1240  0.2100
  469TMC3     H 6984   2.599   2.547  10.404  0.7617  0.0125 -0.5351
  469TMC3    H1 6985   2.293   2.846  10.425 -1.0053 -0.7640  0.1100
  469TMC3    H2 6986   2.530   2.765  10.767  2.8394 -0.5171 -0.2036
  469TMC3    C7 6987   2.308   2.887  10.674 -0.2677  0.3841 -0.1374
  469TMC3    C8 6988   2.678   2.569  10.652  0.3657  0.0827  0.4395
  469TMC3    O1 6989   2.250   2.970  10.609  0.0879  0.7101  0.3117
  469TMC3    O2 6990   2.733   2.490  10.577  0.1208  0.0157 -0.3473
  470TMC3    C1 6991   0.103   3.180   1.304 -0.0356 -0.3028  0.3220
  470TMC3    C2 6992   0.170   3.293   1.263  0.0660  0.0046 -0.9593
  470TMC3    C3 6993   0.255   3.344   1.353  0.2239 -0.4532  0.6792
  470TMC3    C4 6994   0.115   3.121   1.430  0.4291 -0.3195 -0.2480
  470TMC3    C5 6995   0.192   3.188   1.514 -0.5182  0.0495 -0.2872
  470TMC3    C6 6996   0.274   3.290   1.477 -0.9781  0.6051  0.9091
  470TMC3     C 6997   4.708   3.146   1.240  0.4299 -0.4679 -0.3573
  470TMC3     O 6998   4.613   3.095   1.309 -0.2817  0.0694 -0.1131
  470TMC3     H 6999   0.166   3.346   1.168  1.5334  1.1426 -0.3761
  470TMC3    H1 7000   0.075   3.023   1.452 -1.1448  0.5450  0.7806
  470TMC3    H2 7001   0.340   3.336   1.550  0.8246  0.6548 -0.7605
  470TMC3    C7 7002   0.195   3.157   1.655 -0.2217 -0.4097 -0.4531
  470TMC3    C8 7003   0.320   3.473   1.324  0.2358  0.0368  0.4071
  470TMC3    O1 7004   0.293   3.182   1.725 -0.5640 -0.2888  0.1980
  470TMC3    O2 7005   0.265   3.537   1.233 -0.6111  0.7137 -0.3300
  471MPD2     C 7006   0.513   4.646  16.830  0.0598 -0.0223 -0.4172
  471MPD2    C1 7007   0.519   4.531  16.752 -0.8022 -0.1540  1.0714
  471MPD2    C2 7008   0.620   4.444  16.780  0.1717 -0.1745 -0.2462
  471MPD2    C3 7009   0.718   4.465  16.877 -1.4666 -0.2928  1.4515
  471MPD2    C4 7010   0.710   4.583  16.949 -0.0880  0.2488  0.2408
  471MPD2    C5 7011   0.613   4.673  16.917 -0.7688 -0.4181  0.1781
  471MPD2     H 7012   0.614   4.356  16.716 -0.9045  0.1472 -0.5906
  471MPD2    H1 7013   0.773   4.613  17.033 -1.0211 -2.5891  1.9247
  471MPD2    H2 7014   0.431   4.716  16.813 -0.3273 -0.9940 -2.6239
  471MPD2    H3 7015   0.606   0.038  16.977  2.8325  0.8529 -1.2697
  471MPD2     N 7016   0.822   4.377  16.909  0.0320 -0.0016 -0.2815
  471MPD2    H5 7017   0.880   4.386  16.992 -0.6087  1.3699  0.0221
  471MPD2    N1 7018   0.430   4.493  16.649 -0.0835  0.1045  0.0875
  471MPD2    H7 7019   0.443   4.402  16.607  1.7704 -0.8022  2.6521
  472TMC3    C1 7020   0.253   4.504  16.496 -0.1168 -0.1920 -0.0727
  472TMC3    C2 7021   0.191   4.588  16.409  0.1587 -0.3550 -0.3360
  472TMC3    C3 7022   0.146   4.526  16.294 -0.1184  0.9225  0.0929
  472TMC3    C4 7023   0.269   4.371  16.471  0.5659  0.0737 -0.0088
  472TMC3    C5 7024   0.224   4.318  16.355  0.8520 -0.4559  0.7813
  472TMC3    C6 7025   0.165   4.394  16.262 -0.0642 -0.4760 -0.0892
  472TMC3     C 7026   0.319   4.565  16.609 -0.2853  0.0233  0.1076
  472TMC3     O 7027   0.282   4.675  16.649  0.0038  0.0141 -0.2008
  472TMC3     H 7028   0.179   4.694  16.426 -0.2517 -0.4611  0.0517
  472TMC3    H1 7029   0.299   4.309  16.555  0.7395  0.6785  0.3824
  472TMC3    H2 7030   0.106   4.357  16.179 -1.9423  0.2960  0.9002
  472TMC3    C7 7031   0.222   4.176  16.353 -0.3205 -0.4342 -0.0048
  472TMC3    C8 7032   0.011   4.561  16.265  0.2388 -0.6893  0.1080
  472TMC3    O1 7033   0.237   4.124  16.465 -0.6865 -0.5134 -0.3837
  472TMC3    O2 7034   4.695   4.588  16.151 -0.2435  0.2640  0.2199
  473MPD2     C 7035   4.581   2.236  13.498  0.0294  0.5581  0.5078
  473MPD2    C1 7036   4.669   2.130  13.511 -0.4495  0.1687  0.2231
  473MPD2    C2 7037   0.027   2.119  13.618 -0.3601 -0.6067 -0.0923
  473MPD2    C3 7038   0.025   2.229  13.711  0.0833  0.1181  0.1342
  473MPD2    C4 7039   4.667   2.339  13.690  0.1239 -0.1692  0.6931
  473MPD2    C5 7040   4.589   2.344  13.579 -0.4640 -0.0392 -0.2532
  473MPD2     H 7041   0.083   2.028  13.637 -2.3083 -1.8969 -0.4435
  473MPD2    H1 7042   4.666   2.420  13.762  0.8209 -0.0551  0.5763
  473MPD2    H2 7043   4.513   2.250  13.414  0.2185 -0.4724  0.1865
  473MPD2    H3 7044   4.523   2.429  13.566  0.8449  0.5152 -3.2984
  473MPD2     N 7045   0.105   2.230  13.828  0.0611  0.0986  0.5391
  473MPD2    H5 7046   0.100   2.316  13.881  0.0138  0.7928 -0.5802
  473MPD2    N1 7047   4.667   2.024  13.420  0.0422  0.8697  0.1847
  473MPD2    H7 7048   0.008   1.948  13.434 -1.2927  0.1142  2.3964
  474TMC3    C1 7049   0.230   2.180  14.012  0.6114 -0.1844  0.7813
  474TMC3    C2 7050   0.173   2.299  14.051 -0.2194 -0.3223  0.6392
  474TMC3    C3 7051   0.247   2.400  14.098 -0.4354 -0.4984 -0.3917
  474TMC3    C4 7052   0.364   2.157  14.021  0.2548 -0.3894 -0.3657
  474TMC3    C5 7053   0.440   2.259  14.069  0.2428  0.7140  0.1147
  474TMC3    C6 7054   0.382   2.379  14.112  0.2983 -0.0873 -0.5725
  474TMC3     C 7055   0.171   2.129  13.886  0.2084 -0.5363  0.4861
  474TMC3     O 7056   0.210   2.026  13.836 -0.2556  0.2190 -0.0267
  474TMC3     H 7057   0.065   2.311  14.043 -0.0482 -0.6365 -2.3037
  474TMC3    H1 7058   0.412   2.064  13.996 -0.3517 -0.9773  0.6776
  474TMC3    H2 7059   0.451   2.459  14.135 -1.5481  1.9562 -2.1395
  474TMC3    C7 7060   0.558   2.222  14.141 -0.0021 -0.0935  0.5926
  474TMC3    C8 7061   0.221   2.508  14.005 -0.5038  0.5683 -0.2274
  474TMC3    O1 7062   0.631   2.148  14.082 -0.0471  0.4667  0.1230
  474TMC3    O2 7063   0.140   2.484  13.919  0.5164 -0.1437 -0.5684
  475MPD2     C 7064   3.687   4.424  10.313 -0.0086 -0.3410 -0.2820
  475MPD2    C1 7065   3.679   4.554  10.359 -0.0828 -0.9264 -0.2055
  475MPD2    C2 7066   3.556   4.602  10.392  0.2606 -1.1336 -0.0066
  475MPD2    C3 7067   3.438   4.538  10.347 -0.7240  0.1541 -0.5081
  475MPD2    C4 7068   3.449   4.411  10.287 -0.7607  0.1439 -0.6921
  475MPD2    C5 7069   3.574   4.358  10.280  0.6140 -0.1542 -0.1936
  475MPD2     H 7070   3.563   4.703  10.431 -1.1837 -1.9912  2.5210
  475MPD2    H1 7071   3.363   4.361  10.243 -0.5730 -0.9253  0.1684
  475MPD2    H2 7072   3.777   4.365  10.298 -0.5790 -0.7117 -2.2750
  475MPD2    H3 7073   3.576   4.258  10.238 -1.3521 -1.0892  1.9184
  475MPD2     N 7074   3.315   4.606  10.355 -0.2844 -0.3933 -0.5088
  475MPD2    H5 7075   3.322   4.706  10.373  0.1034 -0.8481  1.9935
  475MPD2    N1 7076   3.787   4.643  10.379 -0.3524 -0.2217  0.2073
  475MPD2    H7 7077   3.755   4.722  10.434  1.0485  0.7591 -0.3891
  476TMC3    C1 7078   3.979   0.032  10.346 -0.7798 -0.4872 -0.5646
  476TMC3    C2 7079   3.940   0.106  10.230 -0.4603  0.0580  0.3469
  476TMC3    C3 7080   3.874   0.222  10.248  0.0113  0.3747  1.3062
  476TMC3    C4 7081   3.952   0.080  10.469 -0.1685  0.2256  0.6867
  476TMC3    C5 7082   3.899   0.205  10.491 -0.1335 -0.3639 -0.0798
  476TMC3    C6 7083   3.855   0.273  10.377 -0.1606 -0.4897 -0.3204
  476TMC3     C 7084   3.911   4.635  10.327 -0.4263  0.2258 -0.3367
  476TMC3     O 7085   3.949   4.562  10.235 -0.0436 -0.0687  0.2911
  476TMC3     H 7086   3.946   0.069  10.129 -1.7804 -0.6088  0.5288
  476TMC3    H1 7087   3.995   0.041  10.560  1.9415 -0.6240 -0.6850
  476TMC3    H2 7088   3.787   0.357  10.390  0.6155  0.4865 -2.6235
  476TMC3    C7 7089   3.796   0.200  10.587 -0.2164  0.5119  0.7281
  476TMC3    C8 7090   3.770   0.250  10.147 -0.0465  0.6728 -0.0989
  476TMC3    O1 7091   3.729   0.098  10.589  0.0559  0.2141  0.0325
  476TMC3    O2 7092   3.729   0.364  10.139  0.1455 -0.6637  0.1213
  477MPD2     C 7093   1.093   1.609  11.736  0.0671  0.7321 -0.8988
  477MPD2    C1 7094   1.040   1.517  11.648 -0.2808  0.4741 -0.6439
  477MPD2    C2 7095   1.051   1.382  11.675  0.7249 -0.6897 -0.3707
  477MPD2    C3 7096   1.104   1.340  11.793 -0.1256  0.4192  0.6692
  477MPD2    C4 7097   1.147   1.432  11.877 -0.4133  0.0592 -0.7708
  477MPD2    C5 7098   1.139   1.569  11.854 -1.3260 -0.5333  0.3651
  477MPD2     H 7099   1.011   1.314  11.601  1.7201  0.0167 -1.5831
  477MPD2    H1 7100   1.181   1.412  11.978  1.0133  0.7841 -1.1114
  477MPD2    H2 7101   1.078   1.714  11.715  0.9833  0.9347 -0.5600
  477MPD2    H3 7102   1.179   1.644  11.923 -3.0989  0.6990  0.0701
  477MPD2     N 7103   1.111   1.203  11.824  0.0324  0.4541 -0.0440
  477MPD2    H5 7104   1.096   1.135  11.750 -1.4829 -0.2976  0.9337
  477MPD2    N1 7105   0.975   1.577  11.538  0.0447  0.4724  0.5226
  477MPD2    H7 7106   0.992   1.677  11.541  2.2945  0.1363 -1.6647
  478TMC3    C1 7107   0.783   1.625  11.412 -0.3457  0.3891  0.8670
  478TMC3    C2 7108   0.753   1.723  11.497  0.0216  0.2464  0.6406
  478TMC3    C3 7109   0.686   1.828  11.448 -0.3688  0.2234  0.1099
  478TMC3    C4 7110   0.738   1.614  11.281  0.2144  0.0639  0.1523
  478TMC3    C5 7111   0.661   1.715  11.233 -0.4801 -0.4660  0.7011
  478TMC3    C6 7112   0.655   1.827  11.315  0.4642 -0.3466  0.4590
  478TMC3     C 7113   0.881   1.520  11.458 -0.4145  0.3074  0.7728
  478TMC3     O 7114   0.856   1.402  11.439 -0.0306  0.4860 -0.0660
  478TMC3     H 7115   0.775   1.713  11.603  1.1862  0.5670  0.4310
  478TMC3    H1 7116   0.757   1.527  11.219  0.5458  0.5408 -0.4155
  478TMC3    H2 7117   0.615   1.917  11.269  0.4268 -0.7495 -0.2943
  478TMC3    C7 7118   0.612   1.719  11.091  1.2804  0.0645  1.0262
  478TMC3    C8 7119   0.703   1.958  11.515  0.2831 -0.9986 -0.6822
  478TMC3    O1 7120   0.598   1.828  11.041 -0.5168 -0.3964 -0.5396
  478TMC3    O2 7121   0.771   1.953  11.618  0.5708 -0.2556  0.0923
  479MPD2     C 7122   0.205   3.938  15.160  0.2955  0.3999 -0.4527
  479MPD2    C1 7123   0.153   3.873  15.268 -0.8049  0.8438  0.2521
  479MPD2    C2 7124   0.217   3.887  15.390  0.2078  0.3267  0.2354
  479MPD2    C3 7125   0.338   3.959  15.399  0.1986 -0.0026  0.2107
  479MPD2    C4 7126   0.393   4.016  15.289 -0.3968 -0.2584 -0.8386
  479MPD2    C5 7127   0.318   4.016  15.174 -0.3128 -0.0446 -0.2750
  479MPD2     H 7128   0.175   3.842  15.479  0.4955 -1.6595 -0.6365
  479MPD2    H1 7129   0.493   4.058  15.290  0.1580 -1.5605 -1.0078
  479MPD2    H2 7130   0.155   3.941  15.064  1.8343  1.5168 -1.2254
  479MPD2    H3 7131   0.359   4.060  15.084 -0.6814 -0.9565 -0.8895
  479MPD2     N 7132   0.412   3.975  15.520 -0.7037  0.2885  0.2778
  479MPD2    H5 7133   0.507   4.007  15.501 -1.3355  0.9221 -1.9329
  479MPD2    N1 7134   0.028   3.809  15.256  0.1376 -0.2108 -0.1413
  479MPD2    H7 7135   4.702   3.812  15.169 -0.3429 -1.5843  0.0993
  480TMC3    C1 7136   0.086   3.809  15.840 -0.1463  0.4256  0.1118
  480TMC3    C2 7137   4.716   3.898  15.803 -0.1070 -0.5282 -0.3479
  480TMC3    C3 7138   0.026   4.005  15.720 -0.8029  0.0876  0.3783
  480TMC3    C4 7139   0.209   3.815  15.776  0.6630  0.2077 -0.0664
  480TMC3    C5 7140   0.243   3.915  15.690 -0.3642  0.0958 -0.1228
  480TMC3    C6 7141   0.151   4.021  15.668  0.8814  0.3704 -0.4645
  480TMC3     C 7142   0.037   3.677  15.895 -0.6151 -0.3823 -0.1294
  480TMC3     O 7143   0.105   3.575  15.880  0.2903 -0.6436 -0.1106
  480TMC3     H 7144   4.612   3.874  15.826 -0.3173  1.0843  0.3402
  480TMC3    H1 7145   0.279   3.733  15.787  1.7380  1.1252  0.0011
  480TMC3    H2 7146   0.186   4.100  15.602  3.2959  0.2950  0.7061
  480TMC3    C7 7147   0.382   3.920  15.644  0.4177 -1.1953 -0.1641
  480TMC3    C8 7148   4.647   4.044  15.623  0.0266  0.4396  0.9949
  480TMC3    O1 7149   0.462   3.872  15.725 -0.2976 -0.1809 -0.5364
  480TMC3    O2 7150   4.534   4.041  15.672  0.5488  0.5948  0.1334
  481MPD2     C 7151   1.829   3.346  14.330 -0.2720  0.5841  0.5458
  481MPD2    C1 7152   1.702   3.290  14.333  0.5950 -0.2508 -0.2688
  481MPD2    C2 7153   1.661   3.217  14.445  0.6222  0.4960  0.8597
  481MPD2    C3 7154   1.753   3.183  14.538 -0.7567  0.5246 -0.1645
  481MPD2    C4 7155   1.881   3.234  14.535 -0.4306  0.5282  0.4716
  481MPD2    C5 7156   1.920   3.317  14.433 -0.1415  0.3026 -0.1669
  481MPD2     H 7157   1.558   3.182  14.452  0.8359 -0.5306 -1.2015
  481MPD2    H1 7158   1.953   3.219  14.614  1.9347  1.3836 -1.5008
  481MPD2    H2 7159   1.870   3.406  14.249 -2.0085 -0.3355 -0.9938
  481MPD2    H3 7160   2.019   3.360  14.421 -0.4200  1.0298  0.1161
  481MPD2     N 7161   1.719   3.111  14.652  0.2436  0.7276 -0.5210
  481MPD2    H5 7162   1.791   3.098  14.722  0.0902 -0.4924 -0.5748
  481MPD2    N1 7163   1.631   3.314  14.211  0.5154  0.8029 -0.1648
  481MPD2    H7 7164   1.671   3.388  14.154 -2.1802  1.2097 -1.5291
  482TMC3    C1 7165   1.482   3.273  14.037  0.6591 -0.3887  0.4534
  482TMC3    C2 7166   1.354   3.239  14.010  0.3800  0.2514 -0.2611
  482TMC3    C3 7167   1.299   3.280  13.893  0.3309 -0.0308 -0.6929
  482TMC3    C4 7168   1.560   3.339  13.946 -1.0405  0.3278 -0.0162
  482TMC3    C5 7169   1.501   3.377  13.826 -0.1236  0.4657 -0.1542
  482TMC3    C6 7170   1.368   3.363  13.801  0.0436 -0.6522  0.9355
  482TMC3     C 7171   1.517   3.241  14.175  0.0844  0.1682 -0.0654
  482TMC3     O 7172   1.458   3.149  14.231  0.2943 -0.4745  0.3756
  482TMC3     H 7173   1.305   3.180  14.087 -0.6126  1.5508  0.1133
  482TMC3    H1 7174   1.668   3.346  13.953 -0.8778  0.2036 -2.1803
  482TMC3    H2 7175   1.316   3.381  13.708  3.1585 -0.2587 -0.7077
  482TMC3    C7 7176   1.582   3.465  13.744  0.5078  0.3085  0.3130
  482TMC3    C8 7177   1.192   3.192  13.843 -0.5650  0.1017  0.3738
  482TMC3    O1 7178   1.677   3.521  13.801 -0.0309 -0.4391  0.5252
  482TMC3    O2 7179   1.125   3.130  13.930 -0.0265  0.0757  0.2344
  483TMC3    C1 7180   3.885   2.250   1.047  0.0255 -0.1651 -0.2648
  483TMC3    C2 7181   3.884   2.332   0.937 -0.0018 -0.7055 -0.3276
  483TMC3    C3 7182   3.997   2.390   0.891 -0.2208  0.2869 -0.6070
  483TMC3    C4 7183   4.005   2.217   1.100 -1.1391 -0.0335  0.0315
  483TMC3    C5 7184   4.119   2.282   1.054  0.7924  0.3576  0.4338
  483TMC3    C6 7185   4.113   2.378   0.960 -0.2363 -0.4996 -0.2970
  483TMC3     C 7186   3.775   2.156   1.057 -0.5829  0.4881 -0.3794
  483TMC3     O 7187   3.659   2.200   1.033 -0.6222  0.2876  0.8383
  483TMC3     H 7188   3.784   2.344   0.897 -1.7803 -0.8583  4.0173
  483TMC3    H1 7189   4.011   2.147   1.182  2.2436  1.6465  1.2317
  483TMC3    H2 7190   4.201   2.435   0.933  0.5725 -1.5081  0.2268
  483TMC3    C7 7191   4.222   2.185   1.036 -0.1022 -0.3827  0.3773
  483TMC3    C8 7192   4.003   2.459   0.768  0.2014  0.9808 -0.8087
  483TMC3    O1 7193   4.198   2.071   1.077  0.5190  0.2896  0.3112
  483TMC3    O2 7194   4.112   2.503   0.730 -0.3446 -0.1629  0.0683
  484MPD2     C 7195   2.212   0.514  12.514 -0.0365 -0.6113  0.1742
  484MPD2    C1 7196   2.215   0.397  12.594 -0.0749 -0.3776  0.1000
  484MPD2    C2 7197   2.326   0.314  12.583  0.3509 -0.4054 -1.1376
  484MPD2    C3 7198   2.427   0.344  12.495 -0.2861 -0.5603  0.1144
  484MPD2    C4 7199   2.429   0.469  12.441  0.1128  0.6278  0.4805
  484MPD2    C5 7200   2.326   0.551  12.450  0.1472 -0.4838  0.3548
  484MPD2     H 7201   2.336   0.223  12.640  0.0083 -0.2287 -0.7943
  484MPD2    H1 7202   2.519   0.495  12.388  1.1271  1.6435  2.6908
  484MPD2    H2 7203   2.127   0.582  12.515  1.0022  0.6848  0.2610
  484MPD2    H3 7204   2.329   0.647  12.401  2.1560 -0.4140  0.6455
  484MPD2     N 7205   2.544   0.267  12.479  0.8979  0.7209  0.4201
  484MPD2    H5 7206   2.624   0.318  12.442  1.2270 -0.2640 -0.2044
  484MPD2    N1 7207   2.119   0.366  12.692 -0.0940  0.4497  0.4115
  484MPD2    H7 7208   2.133   0.276  12.737  2.2091 -0.7859 -2.7634
  485TMC3    C1 7209   2.676   0.078  12.439 -0.1218  0.2390 -0.1837
  485TMC3    C2 7210   2.751   0.001  12.514  0.1095  0.2047  0.1906
  485TMC3    C3 7211   2.881   4.710  12.482  0.0647  1.1072  0.1106
  485TMC3    C4 7212   2.725   0.135  12.324  0.5261  0.4893  0.1510
  485TMC3    C5 7213   2.843   0.091  12.283 -0.1459 -0.0780  0.1345
  485TMC3    C6 7214   2.934   0.027  12.360 -0.2828  0.3081  0.0552
  485TMC3     C 7215   2.559   0.133  12.502 -0.6704  0.4804  0.2931
  485TMC3     O 7216   2.475   0.055  12.542  0.1490 -0.3539 -0.0462
  485TMC3     H 7217   2.715   4.682  12.607  0.1303  1.8764  1.0014
  485TMC3    H1 7218   2.659   0.196  12.264 -0.5328  0.0577  0.8759
  485TMC3    H2 7219   3.039   0.022  12.336 -0.0578 -1.7767  1.4762
  485TMC3    C7 7220   2.846   0.045  12.147  0.2593  0.0070  0.4750
  485TMC3    C8 7221   2.922   4.572  12.496  0.9793  0.2942 -0.0751
  485TMC3    O1 7222   2.790   0.104  12.057  0.2008  1.0221  0.2504
  485TMC3    O2 7223   2.983   4.529  12.396  0.0299 -0.3089 -0.0724
  486MPD2     C 7224   4.325   3.963  12.746  0.3428  0.8144  0.5391
  486MPD2    C1 7225   4.226   3.896  12.677  0.3690  0.6973  0.6159
  486MPD2    C2 7226   4.142   3.974  12.598 -0.1453  0.2579  0.2034
  486MPD2    C3 7227   4.147   4.116  12.602  1.0446  0.1185 -0.8893
  486MPD2    C4 7228   4.248   4.178  12.665  0.4078 -0.7360 -0.1869
  486MPD2    C5 7229   4.345   4.101  12.726 -0.0960 -0.0996 -0.1997
  486MPD2     H 7230   4.053   3.935  12.548 -0.9801  1.2486  0.9345
  486MPD2    H1 7231   4.252   4.286  12.680  0.7367 -0.8110  0.2723
  486MPD2    H2 7232   4.393   3.908  12.811 -0.5637 -1.4883 -0.4590
  486MPD2    H3 7233   4.430   4.144  12.778 -0.2966  0.1599 -0.0866
  486MPD2     N 7234   4.047   4.186  12.544  0.1661  0.5161 -0.0419
  486MPD2    H5 7235   3.981   4.129  12.491  1.2124 -0.7688  0.0481
  486MPD2    N1 7236   4.205   3.756  12.697 -0.5462 -0.3563  0.5841
  486MPD2    H7 7237   4.271   3.706  12.755 -1.2762 -0.5779  1.2178
  487TMC3    C1 7238   4.121   3.541  12.655 -0.1049  0.4478  0.2099
  487TMC3    C2 7239   4.013   3.466  12.609  0.4339  0.0514  0.3669
  487TMC3    C3 7240   4.016   3.330  12.628  0.4398 -0.0664 -0.4979
  487TMC3    C4 7241   4.217   3.491  12.735  0.7282  0.5963 -0.1963
  487TMC3    C5 7242   4.206   3.354  12.765  0.0772  0.2956 -1.0274
  487TMC3    C6 7243   4.122   3.270  12.691  0.3724 -0.1352  0.0880
  487TMC3     C 7244   4.110   3.680  12.634 -0.3512 -0.0665  0.3448
  487TMC3     O 7245   4.021   3.715  12.556 -0.4396  0.0354  0.1316
  487TMC3     H 7246   3.940   3.506  12.540 -0.0325  0.7708  1.2800
  487TMC3    H1 7247   4.291   3.550  12.788 -0.8146  1.3026  1.1771
  487TMC3    H2 7248   4.098   3.166  12.709  0.6329 -0.6488 -2.4373
  487TMC3    C7 7249   4.184   3.337  12.908 -0.0722  0.3373  0.9789
  487TMC3    C8 7250   3.890   3.269  12.652  0.0742  0.7311  0.0678
  487TMC3    O1 7251   4.221   3.434  12.980  0.2219  0.0440 -0.4998
  487TMC3    O2 7252   3.882   3.157  12.605 -0.5729  0.0568  0.1950
  488MPD2     C 7253   4.022   0.943  16.508  0.1831  0.1262 -0.2343
  488MPD2    C1 7254   4.043   1.049  16.431 -0.4497  0.8397 -0.2739
  488MPD2    C2 7255   3.979   1.167  16.464  0.2743 -0.2630  0.1597
  488MPD2    C3 7256   3.882   1.181  16.562  0.6026 -0.0278  1.0543
  488MPD2    C4 7257   3.844   1.072  16.634 -0.5695  0.4727  0.0629
  488MPD2    C5 7258   3.922   0.956  16.606 -0.5150 -0.5398 -0.1890
  488MPD2     H 7259   3.990   1.252  16.397  0.8455 -1.2901 -1.0518
  488MPD2    H1 7260   3.769   1.070  16.712 -2.1898  1.7102 -1.4555
  488MPD2    H2 7261   4.083   0.853  16.500  1.2807  0.8178  0.3481
  488MPD2    H3 7262   3.909   0.874  16.676  0.5467 -0.4085  0.1581
  488MPD2     N 7263   3.822   1.309  16.585  0.8769  0.1082  0.5856
  488MPD2    H5 7264   3.859   1.398  16.552 -0.8419  0.5292 -0.1824
  488MPD2    N1 7265   4.118   1.046  16.308  0.3471  0.3981 -0.0117
  488MPD2    H7 7266   4.131   1.136  16.263  0.3053  0.2867 -0.2456
  489TMC3    C1 7267   3.722   1.483  16.703 -0.4798 -0.2876  0.0969
  489TMC3    C2 7268   3.742   1.571  16.600 -0.5217  0.1564  0.9175
  489TMC3    C3 7269   3.743   1.704  16.622  0.3613 -0.3201 -0.5395
  489TMC3    C4 7270   3.698   1.527  16.831  0.1561 -0.2941 -0.7851
  489TMC3    C5 7271   3.709   1.666  16.854 -0.2548  0.1749  0.1967
  489TMC3    C6 7272   3.731   1.752  16.748 -0.1300  0.8267  0.2697
  489TMC3     C 7273   3.738   1.342  16.688  0.9197  0.1639  0.1662
  489TMC3     O 7274   3.673   1.271  16.761  0.7472  0.2686 -0.5386
  489TMC3     H 7275   3.755   1.532  16.500 -2.1192 -1.8894  1.5180
  489TMC3    H1 7276   3.685   1.453  16.908 -3.7183 -0.0089 -1.1925
  489TMC3    H2 7277   3.747   1.856  16.773  2.7606  0.0107  1.8825
  489TMC3    C7 7278   3.678   1.723  16.986 -0.6362  0.2126 -0.1935
  489TMC3    C8 7279   3.842   1.774  16.536  0.0348 -1.1254  0.3737
  489TMC3    O1 7280   3.675   1.846  17.000  0.4573  0.5877 -0.1772
  489TMC3    O2 7281   3.901   1.691  16.472  0.4112  0.6327  0.1803
  490MPD2     C 7282   0.517   1.067  17.018 -0.2923  0.2982  0.2367
  490MPD2    C1 7283   0.518   0.953  17.102 -0.2810 -0.0723 -0.4701
  490MPD2    C2 7284   0.632   0.894  17.135 -0.7917 -0.1446 -0.0331
  490MPD2    C3 7285   0.754   0.928  17.073  0.1453  0.4655  0.5775
  490MPD2    C4 7286   0.756   1.031  16.988 -0.3346 -0.2763  0.1197
  490MPD2    C5 7287   0.641   1.095  16.955  0.8064  0.6496  0.2088
  490MPD2     H 7288   0.627   0.812  17.205 -1.7771 -0.2867 -0.2666
  490MPD2    H1 7289   0.846   1.064  16.937 -1.0187  1.2366 -0.1173
  490MPD2    H2 7290   0.430   1.119  16.980 -1.3596 -1.7769 -0.2025
  490MPD2    H3 7291   0.641   1.166  16.873 -0.3820 -0.3563 -0.6605
  490MPD2     N 7292   0.879   0.881  17.125  0.0361  0.2328  0.6144
  490MPD2    H5 7293   0.962   0.930  17.093 -0.6814  2.4737  2.1037
  490MPD2    N1 7294   0.402   0.906  17.173 -0.4149 -0.3520  0.5502
  490MPD2    H7 7295   0.401   0.823  17.231 -3.9732 -0.2858  0.5748
  491TMC3    C1 7296   0.179   0.881  17.231 -0.0977 -0.1880 -0.1394
  491TMC3    C2 7297   0.086   0.929  17.323 -0.4400  1.0356 -0.0449
  491TMC3    C3 7298   0.014   0.829  17.385  0.3067  0.1850 -0.5798
  491TMC3    C4 7299   0.196   0.751  17.205  0.7219 -0.1526  0.4885
  491TMC3    C5 7300   0.121   0.662  17.272 -0.2674  0.3564 -0.2339
  491TMC3    C6 7301   0.027   0.697  17.359 -0.7948  0.2153 -0.3230
  491TMC3     C 7302   0.282   0.972  17.178 -0.4626 -0.2057  0.4527
  491TMC3     O 7303   0.263   1.092  17.156 -0.4034 -0.6211  0.3603
  491TMC3     H 7304   0.076   1.035  17.345  1.2925  0.7905  1.9280
  491TMC3    H1 7305   0.267   0.713  17.132 -0.1234 -2.0059  0.6221
  491TMC3    H2 7306   4.692   0.622  17.407 -2.8580  1.4276 -1.0411
  491TMC3    C7 7307   0.110   0.525  17.225  1.1975  0.6294  0.2871
  491TMC3    C8 7308   4.682   0.851  17.513 -0.7127 -0.3680  0.4438
  491TMC3    O1 7309   0.001   0.498  17.175 -0.2595 -0.2237  0.3835
  491TMC3    O2 7310   4.671   0.751  17.581 -0.1081  0.1866  0.4776
  492MPD2     C 7311   0.408   0.090  11.478 -0.2794  1.2509  0.3508
  492MPD2    C1 7312   0.349   4.721  11.397 -0.6147  0.4193  0.2176
  492MPD2    C2 7313   0.254   4.632  11.440 -0.1223 -0.7993 -0.1296
  492MPD2    C3 7314   0.209   4.641  11.570 -0.1397  0.4463 -0.3156
  492MPD2    C4 7315   0.271   0.012  11.654 -0.0334 -0.3823  0.1442
  492MPD2    C5 7316   0.363   0.105  11.611  0.0718 -0.3896 -0.6532
  492MPD2     H 7317   0.219   4.555  11.371  1.8931  0.1865 -2.2262
  492MPD2    H1 7318   0.243   0.015  11.759  0.0871  3.8356  0.0365
  492MPD2    H2 7319   0.487   0.159  11.448 -0.2902 -0.3026 -3.2145
  492MPD2    H3 7320   0.402   0.172  11.685 -0.5337  0.4219 -1.0688
  492MPD2     N 7321   0.115   4.550  11.628 -0.0730  0.3144  0.0496
  492MPD2    H5 7322   0.082   4.577  11.720 -1.7666  0.6662 -0.6603
  492MPD2    N1 7323   0.407   0.001  11.269  0.2829 -0.5084 -0.0173
  492MPD2    H7 7324   0.484   0.062  11.245 -2.1293  2.9699  0.9889
  493TMC3    C1 7325   0.443   4.649  11.041  0.3153 -0.2251 -0.4237
  493TMC3    C2 7326   0.535   0.020  11.020 -0.3035 -0.1348 -0.3606
  493TMC3    C3 7327   0.592   0.040  10.896 -0.4597 -0.3799 -0.3577
  493TMC3    C4 7328   0.409   4.558  10.946  0.3595 -0.7307 -0.4492
  493TMC3    C5 7329   0.470   4.579  10.823  0.5016  0.1518 -0.2870
  493TMC3    C6 7330   0.560   4.680  10.800  0.2462  0.1196  0.0690
  493TMC3     C 7331   0.364   4.648  11.165  1.0880 -0.0587 -0.0967
  493TMC3     O 7332   0.258   4.585  11.157 -0.4180 -0.6546 -0.3382
  493TMC3     H 7333   0.556   0.097  11.093 -0.9938  0.3418 -0.6605
  493TMC3    H1 7334   0.321   4.496  10.958  0.3992 -0.1808  2.5710
  493TMC3    H2 7335   0.607   4.684  10.702  0.9235  2.3056  0.4859
  493TMC3    C7 7336   0.414   4.505  10.714  0.4284  0.5272 -0.4511
  493TMC3    C8 7337   0.686   0.150  10.885 -0.7291 -0.2710  0.2801
  493TMC3    O1 7338   0.403   4.566  10.607 -0.0585  0.0518  0.3275
  493TMC3    O2 7339   0.718   0.195  10.992 -0.0357 -0.9078 -0.0417
  494TMC3    C1 7340   1.318   2.497   0.377  0.2723 -0.7185 -0.2358
  494TMC3    C2 7341   1.285   2.374   0.401 -1.0028  0.3071  0.5954
  494TMC3    C3 7342   1.240   2.299   0.291 -0.2766 -0.0775  0.4178
  494TMC3    C4 7343   1.308   2.557   0.258  0.5958  0.0535 -0.1636
  494TMC3    C5 7344   1.267   2.483   0.150 -0.0072  0.1081 -0.3529
  494TMC3    C6 7345   1.217   2.358   0.168 -1.1355  1.3263  0.7920
  494TMC3     C 7346   1.395   2.560   0.476  0.1601 -0.0402  0.7078
  494TMC3     O 7347   1.495   2.614   0.437 -0.0965  0.1340 -0.3938
  494TMC3     H 7348   1.301   2.332   0.500  1.0436  1.8060  0.9233
  494TMC3    H1 7349   1.361   2.651   0.245 -1.6815  1.0917 -1.8545
  494TMC3    H2 7350   1.175   2.306   0.082 -0.0294 -0.0140  1.0684
  494TMC3    C7 7351   1.334   2.497   0.022  0.0226  0.3297 -0.0539
  494TMC3    C8 7352   1.142   2.195   0.315 -0.0727 -0.1806 -0.4799
  494TMC3    O1 7353   1.350   2.402  17.650 -0.4418  0.3012  0.0652
  494TMC3    O2 7354   1.155   2.134   0.421  0.0044  0.1469  0.0446
  495TMC3    C1 7355   0.332   4.302  14.774 -0.4540  0.1916 -0.4860
  495TMC3    C2 7356   0.250   4.347  14.670  0.1503  0.2721 -0.5075
  495TMC3    C3 7357   0.114   4.365  14.692  0.7115 -1.0401 -0.3062
  495TMC3    C4 7358   0.280   4.290  14.899  0.6108 -0.8062  0.0885
  495TMC3    C5 7359   0.146   4.321  14.912  0.0268  0.3363 -0.2075
  495TMC3    C6 7360   0.057   4.348  14.814 -0.3433 -0.4508  0.1860
  495TMC3     C 7361   0.362   4.169  14.731  0.0404 -0.1318  0.6983
  495TMC3     O 7362   0.306   4.070  14.779 -0.1139  0.5652  0.0408
  495TMC3     H 7363   0.298   4.357  14.574  1.2908  1.8385  0.2139
  495TMC3    H1 7364   0.342   4.257  14.981  0.0189  1.0546  1.2779
  495TMC3    H2 7365   4.680   4.373  14.837 -0.5475 -0.5656 -0.6109
  495TMC3    C7 7366   0.092   4.298  15.051  0.4183  1.0904  0.2264
  495TMC3    C8 7367   0.020   4.337  14.587 -0.1771 -0.7877 -0.3222
  495TMC3    O1 7368   0.170   4.321  15.145  0.0478 -0.5925  0.6060
  495TMC3    O2 7369   4.629   4.335  14.614  0.4398  0.6508 -0.2577
  496MPD2     C 7370   2.227   3.706  15.033  0.7013 -0.0876  0.1556
  496MPD2    C1 7371   2.213   3.575  15.086 -0.0208 -0.3659 -0.4250
  496MPD2    C2 7372   2.095   3.532  15.136  0.0599 -0.5708  0.0106
  496MPD2    C3 7373   1.979   3.620  15.119 -0.2144 -0.1169  0.0326
  496MPD2    C4 7374   1.989   3.746  15.069  0.0916  0.3375 -1.2996
  496MPD2    C5 7375   2.112   3.784  15.026 -0.8729  0.5159 -0.1698
  496MPD2     H 7376   2.088   3.433  15.179 -0.9834 -0.2111  0.6731
  496MPD2    H1 7377   1.911   3.822  15.065 -0.0306  0.4212  2.3081
  496MPD2    H2 7378   2.323   3.734  14.992  1.0613 -1.2702  0.1881
  496MPD2    H3 7379   2.126   3.884  14.986 -0.4856 -0.3012 -2.0615
  496MPD2     N 7380   1.856   3.574  15.175  0.2560 -0.7532  0.6191
  496MPD2    H5 7381   1.858   3.493  15.236 -0.6574  1.3379  3.4182
  496MPD2    N1 7382   2.328   3.496  15.075  0.8420 -0.6347  0.6707
  496MPD2    H7 7383   2.413   3.528  15.029 -1.5831 -0.2097 -3.4852
  497TMC3    C1 7384   1.624   3.556  15.198 -0.1927 -0.1382 -0.5944
  497TMC3    C2 7385   1.510   3.562  15.128  0.1971  0.5925  0.1005
  497TMC3    C3 7386   1.400   3.528  15.188 -0.1810  0.0595 -0.2672
  497TMC3    C4 7387   1.636   3.516  15.329 -0.7566  0.1315 -0.0603
  497TMC3    C5 7388   1.520   3.465  15.378  0.5447  0.5734  0.4772
  497TMC3    C6 7389   1.395   3.465  15.311 -0.1290 -0.4860 -0.7077
  497TMC3     C 7390   1.734   3.630  15.148 -0.1244  0.1601  0.3624
  497TMC3     O 7391   1.700   3.705  15.052  0.3875  0.3764  0.0678
  497TMC3     H 7392   1.509   3.607  15.029  1.2422 -1.5486 -0.8973
  497TMC3    H1 7393   1.722   3.537  15.392  0.0519  0.5548 -1.3051
  497TMC3    H2 7394   1.304   3.448  15.368 -0.4325 -0.8586 -1.3002
  497TMC3    C7 7395   1.510   3.445  15.523 -0.3065  0.4597 -0.2041
  497TMC3    C8 7396   1.284   3.584  15.121 -0.1808 -0.3649 -0.0323
  497TMC3    O1 7397   1.431   3.370  15.577 -0.1409 -0.8167  0.2383
  497TMC3    O2 7398   1.293   3.696  15.074 -0.2051 -0.0188 -0.8801
  498MPD2     C 7399   2.231   4.350   9.678 -0.6952  0.6336 -0.8122
  498MPD2    C1 7400   2.266   4.246   9.762  0.8004  0.1200  0.8174
  498MPD2    C2 7401   2.169   4.190   9.848  0.2222 -0.2225 -0.0332
  498MPD2    C3 7402   2.034   4.212   9.827 -1.0808  0.2184 -0.3216
  498MPD2    C4 7403   1.999   4.309   9.736 -0.3968  0.8339 -0.1041
  498MPD2    C5 7404   2.096   4.380   9.672 -0.4264 -0.1927 -0.0746
  498MPD2     H 7405   2.207   4.108   9.907  1.2391  0.7090  0.6085
  498MPD2    H1 7406   1.897   4.345   9.733 -1.1706 -1.2048  1.4497
  498MPD2    H2 7407   2.298   4.406   9.614  0.1902 -0.1775 -0.5936
  498MPD2    H3 7408   2.068   4.465   9.610 -1.0073  0.9911  1.8157
  498MPD2     N 7409   1.935   4.144   9.900 -0.5043  0.3619  0.4697
  498MPD2    H5 7410   1.961   4.092   9.983 -1.3016  0.5703  0.8482
  498MPD2    N1 7411   2.405   4.204   9.775 -0.2893  0.2497 -0.2054
  498MPD2    H7 7412   2.425   4.121   9.830  2.3241  0.1119 -1.3574
  499TMC3    C1 7413   2.625   4.190   9.704  0.0963 -0.3165  0.6088
  499TMC3    C2 7414   2.614   4.049   9.697  0.2654 -0.2138  0.0041
  499TMC3    C3 7415   2.730   3.984   9.654  0.4614 -0.0860  0.5526
  499TMC3    C4 7416   2.743   4.257   9.696 -0.5580 -0.0198  0.2615
  499TMC3    C5 7417   2.857   4.182   9.676  0.3651 -0.1954 -0.4438
  499TMC3    C6 7418   2.852   4.047   9.647 -0.3610  0.0108  0.1848
  499TMC3     C 7419   2.504   4.264   9.707 -0.3225 -0.2960 -0.5037
  499TMC3     O 7420   2.515   4.385   9.673 -0.0044 -0.2320 -0.6398
  499TMC3     H 7421   2.520   3.998   9.713 -0.1521  0.3763 -0.5889
  499TMC3    H1 7422   2.766   4.362   9.711 -0.4228 -0.0897  0.5558
  499TMC3    H2 7423   2.939   3.994   9.610  0.4125  0.9819  0.6170
  499TMC3    C7 7424   2.987   4.250   9.672 -0.3718  0.0320 -0.0791
  499TMC3    C8 7425   2.715   3.845   9.625  0.8844  0.0127 -0.0197
  499TMC3    O1 7426   2.990   4.370   9.669 -0.2109 -0.6500 -0.3062
  499TMC3    O2 7427   2.604   3.798   9.597  0.3871 -0.1181 -0.1831
  500MPD2     C 7428   4.243   0.844  10.054  0.1039  0.4941  0.6950
  500MPD2    C1 7429   4.205   0.968  10.101  0.2440  0.2603 -0.4446
  500MPD2    C2 7430   4.073   1.006  10.097  0.2188 -0.2718  0.3810
  500MPD2    C3 7431   3.978   0.928  10.035  0.3330  0.0753  0.2182
  500MPD2    C4 7432   4.019   0.811   9.981 -0.0840 -0.3175 -0.3340
  500MPD2    C5 7433   4.149   0.767   9.992 -0.3576 -0.2196  0.0987
  500MPD2     H 7434   4.050   1.107  10.130 -1.4442 -1.2014  2.0624
  500MPD2    H1 7435   3.947   0.742   9.939  1.7645 -2.3715 -0.1479
  500MPD2    H2 7436   4.342   0.802  10.065 -1.0641 -2.7208 -1.0434
  500MPD2    H3 7437   4.176   0.670   9.950 -0.9102  0.3807 -1.6411
  500MPD2     N 7438   3.840   0.959  10.044 -0.1246 -0.7528 -0.5466
  500MPD2    H5 7439   3.772   0.899   9.999  0.4853 -1.1405 -0.9546
  500MPD2    N1 7440   4.292   1.056  10.159  0.5105  0.2334 -0.0750
  500MPD2    H7 7441   4.260   1.147  10.188  0.8316 -0.3937  2.2617
  501TMC3    C1 7442   4.469   1.147  10.280 -0.4855  0.1450 -0.8731
  501TMC3    C2 7443   4.428   1.276  10.251 -0.2367 -0.1154 -0.0894
  501TMC3    C3 7444   4.471   1.370  10.347 -0.8826 -1.0702  0.3990
  501TMC3    C4 7445   4.555   1.109  10.376  0.7876  0.1208 -0.1948
  501TMC3    C5 7446   4.605   1.208  10.462 -0.2265  0.2600 -0.2230
  501TMC3    C6 7447   4.560   1.338  10.450  0.2757  0.8822 -0.4054
  501TMC3     C 7448   4.419   1.029  10.205  0.5506  0.2197  0.2362
  501TMC3     O 7449   4.478   0.920  10.207 -0.5003  0.0165 -0.5244
  501TMC3     H 7450   4.340   1.288  10.189  0.1781  0.3652 -0.5941
  501TMC3    H1 7451   4.586   1.007  10.396  0.2418  0.6126  3.1714
  501TMC3    H2 7452   4.608   1.424  10.495  0.8759  0.7996 -0.8932
  501TMC3    C7 7453   4.705   1.176  10.567 -0.2324  0.5411 -0.2351
  501TMC3    C8 7454   4.417   1.502  10.343 -0.0954 -0.2998 -0.4293
  501TMC3    O1 7455   0.012   1.059  10.574 -0.0819 -0.7206 -0.0005
  501TMC3    O2 7456   4.410   1.560  10.451  0.1636  0.2504  0.3431
  502TMC3    C1 7457   4.042   4.625  15.025 -0.0131 -0.2231 -0.4880
  502TMC3    C2 7458   4.000   4.656  14.899  1.1026 -0.8969  0.7488
  502TMC3    C3 7459   3.888   4.600  14.862  0.1909  0.0443 -0.1275
  502TMC3    C4 7460   3.967   4.555  15.114  0.2060 -0.4590 -0.3687
  502TMC3    C5 7461   3.856   4.486  15.066  0.4380 -0.1363 -0.4837
  502TMC3    C6 7462   3.810   4.518  14.941  0.7626  0.4303  0.5365
  502TMC3     C 7463   4.132   4.724  15.079 -0.2656  0.1243 -0.2843
  502TMC3     O 7464   4.213   0.039  14.997 -0.6306 -0.3029  0.0913
  502TMC3     H 7465   4.060   0.004  14.847 -0.3640 -0.0510  0.2719
  502TMC3    H1 7466   4.005   4.534  15.213 -2.5315 -0.4237  0.6659
  502TMC3    H2 7467   3.721   4.477  14.897  0.7824 -0.2357  1.1202
  502TMC3    C7 7468   3.756   4.455  15.166 -0.3588  0.5569 -0.4648
  502TMC3    C8 7469   3.832   4.646  14.738 -0.3617 -0.1123 -0.0742
  502TMC3    O1 7470   3.806   4.412  15.269 -0.0324 -0.3015 -0.3079
  502TMC3    O2 7471   3.712   4.647  14.734  0.0354 -0.4537 -0.8473
  503MPD2     C 7472   1.231   1.132  17.023 -0.1185  0.2877  0.4821
  503MPD2    C1 7473   1.307   1.185  17.127  0.7829  0.4697 -0.0950
  503MPD2    C2 7474   1.380   1.098  17.204 -0.1356 -0.2872 -0.0014
  503MPD2    C3 7475   1.366   0.961  17.185 -0.4824  0.4222 -0.7050
  503MPD2    C4 7476   1.272   0.917  17.094 -0.1838  0.3023  0.0050
  503MPD2    C5 7477   1.206   1.000  17.011 -0.1071  0.3797 -0.2176
  503MPD2     H 7478   1.448   1.131  17.282 -0.0629  1.4855 -0.8350
  503MPD2    H1 7479   1.266   0.811  17.075 -1.2431  0.0691  1.5945
  503MPD2    H2 7480   1.180   1.194  16.951 -0.6146  0.4241  0.9439
  503MPD2    H3 7481   1.146   0.954  16.933  1.3963 -0.0974 -1.1006
  503MPD2     N 7482   1.435   0.868  17.267  0.3712  0.1744  0.2870
  503MPD2    H5 7483   1.502   0.910  17.331  2.5640 -3.2967  0.2821
  503MPD2    N1 7484   1.317   1.327  17.152  0.4204 -0.1319 -0.1190
  503MPD2    H7 7485   1.324   1.355  17.249  0.1610 -0.2814 -0.0574
  504TMC3    C1 7486   1.544   0.667  17.342  0.2204 -0.3217  0.2048
  504TMC3    C2 7487   1.548   0.707  17.473  0.0310  0.1820  0.4882
  504TMC3    C3 7488   1.642   0.643  17.554  0.0635  0.0320  0.2667
  504TMC3    C4 7489   1.598   0.553  17.305  0.7703  0.3430  0.3742
  504TMC3    C5 7490   1.683   0.487  17.386  0.2379  0.1201  0.0406
  504TMC3    C6 7491   1.708   0.525  17.516  0.0692  1.0883 -0.8190
  504TMC3     C 7492   1.446   0.731  17.257 -0.2598 -0.6396 -0.4832
  504TMC3     O 7493   1.390   0.658  17.177 -0.5419  0.5819 -0.0329
  504TMC3     H 7494   1.516   0.807  17.502  0.7494  0.0219  1.8252
  504TMC3    H1 7495   1.596   0.535  17.198  0.8331  1.0836  0.2448
  504TMC3    H2 7496   1.789   0.475  17.567  0.1958  2.6785  0.5377
  504TMC3    C7 7497   1.771   0.403  17.313  0.0127  0.2546 -0.1993
  504TMC3    C8 7498   1.704   0.729  17.652 -0.3260  0.0141 -0.0643
  504TMC3    O1 7499   1.784   0.416  17.189 -0.3116 -0.1669  0.1326
  504TMC3    O2 7500   1.694   0.849  17.635  0.0421  0.0259  0.1144
  505MPD2     C 7501   1.499   3.112  10.890  0.4072  0.8727  0.1816
  505MPD2    C1 7502   1.622   3.136  10.822  0.5617  0.3836  0.1131
  505MPD2    C2 7503   1.698   3.239  10.867  0.3931  0.3129  0.3263
  505MPD2    C3 7504   1.655   3.327  10.960 -0.0981  0.0600  0.4342
  505MPD2    C4 7505   1.534   3.316  11.016 -0.2427  0.1122  0.0636
  505MPD2    C5 7506   1.455   3.205  10.983  0.1869 -0.5351  0.3135
  505MPD2     H 7507   1.801   3.248  10.834  0.1146  0.4415 -0.4818
  505MPD2    H1 7508   1.490   3.387  11.085  0.3866  0.3603  0.2154
  505MPD2    H2 7509   1.430   3.032  10.866  1.0466  1.1803 -2.6000
  505MPD2    H3 7510   1.363   3.185  11.035  0.2137  1.0998  0.9875
  505MPD2     N 7511   1.748   3.426  10.995  0.7516  0.4201 -0.0815
  505MPD2    H5 7512   1.841   3.423  10.953  1.2491  0.9657  0.9584
  505MPD2    N1 7513   1.661   3.051  10.718  0.4902 -0.2403 -0.3971
  505MPD2    H7 7514   1.592   2.983  10.687 -0.3617 -0.2477  1.4686
  506TMC3    C1 7515   1.791   2.968  10.537 -0.0887 -0.0663  0.5115
  506TMC3    C2 7516   1.695   2.966  10.443 -0.1416  0.4587  0.2875
  506TMC3    C3 7517   1.727   2.988  10.309  0.6544  0.0251  0.1997
  506TMC3    C4 7518   1.918   2.992  10.496 -0.5547  0.1641  0.4837
  506TMC3    C5 7519   1.949   3.015  10.365  0.2330 -0.0633 -0.5809
  506TMC3    C6 7520   1.857   3.019  10.269 -0.2845 -0.4689 -0.2091
  506TMC3     C 7521   1.772   3.065  10.638  0.1922  0.9063  0.0184
  506TMC3     O 7522   1.865   3.141  10.645 -0.3385 -0.1318 -0.4853
  506TMC3     H 7523   1.599   2.927  10.472  0.4561 -2.1605 -1.2052
  506TMC3    H1 7524   1.998   2.971  10.566 -0.3805 -0.8697 -0.0399
  506TMC3    H2 7525   1.885   3.040  10.166 -1.7633 -0.3525 -0.5794
  506TMC3    C7 7526   2.054   3.113  10.354 -0.1978 -0.5454  0.5731
  506TMC3    C8 7527   1.625   3.037  10.226 -0.2476 -0.1911 -0.3851
  506TMC3    O1 7528   2.092   3.141  10.238 -0.1669 -0.7816 -0.3125
  506TMC3    O2 7529   1.509   3.004  10.256 -0.0261  0.1493 -1.0289
  507TMC3    C1 7530   2.828   0.792  14.816  0.4051 -0.2886 -0.4942
  507TMC3    C2 7531   2.842   0.716  14.710 -0.6883  0.1037 -0.5887
  507TMC3    C3 7532   2.842   0.765  14.587 -0.1927 -0.1400 -0.0232
  507TMC3    C4 7533   2.820   0.929  14.816  0.3988 -0.2343  0.1678
  507TMC3    C5 7534   2.819   0.982  14.690  0.5358  0.1508 -0.2708
  507TMC3    C6 7535   2.832   0.904  14.570  0.5518 -0.2174 -0.3384
  507TMC3     C 7536   2.841   0.728  14.945 -0.6350  0.8701  0.1646
  507TMC3     O 7537   2.936   0.759  15.017  0.7443  0.0080 -0.0573
  507TMC3     H 7538   2.864   0.611  14.728 -3.0552 -0.0942  1.1539
  507TMC3    H1 7539   2.798   0.989  14.904  1.0922 -0.3439  0.4146
  507TMC3    H2 7540   2.837   0.959  14.477  0.7747  0.9811  0.3795
  507TMC3    C7 7541   2.736   1.101  14.672 -0.0808  0.2379 -0.0102
  507TMC3    C8 7542   2.745   0.701  14.504 -0.4585  0.3301  0.4024
  507TMC3    O1 7543   2.681   1.098  14.567  0.8089 -0.5179  0.3389
  507TMC3    O2 7544   2.750   0.578  14.500 -0.2162 -0.3836  0.4633
  508MPD2     C 7545   3.452   2.657  16.004  0.8531  0.1442  0.0414
  508MPD2    C1 7546   3.576   2.710  16.029 -0.5757  0.2510  0.0916
  508MPD2    C2 7547   3.660   2.714  15.923  0.6450  0.2291  0.0661
  508MPD2    C3 7548   3.629   2.670  15.792  0.1753  0.3955  0.5234
  508MPD2    C4 7549   3.504   2.620  15.774  0.2740  0.1686 -0.4203
  508MPD2    C5 7550   3.414   2.612  15.878  0.0247  0.1038  0.5983
  508MPD2     H 7551   3.759   2.757  15.934  0.6885  0.2039 -0.2093
  508MPD2    H1 7552   3.470   2.590  15.676  1.4158 -0.6437 -0.5633
  508MPD2    H2 7553   3.377   2.653  16.082  1.2786  0.9139  0.4820
  508MPD2    H3 7554   3.313   2.577  15.860  0.2311 -0.0686 -0.2266
  508MPD2     N 7555   3.724   2.703  15.689  0.5200 -0.5220  0.2022
  508MPD2    H5 7556   3.821   2.726  15.708 -0.3310  1.8575  1.6192
  508MPD2    N1 7557   3.621   2.765  16.152 -0.2909  0.8661 -0.2891
  508MPD2    H7 7558   3.719   2.791  16.153  0.0942 -0.7308  2.9209
  509TMC3    C1 7559   3.765   2.887  15.263 -0.2427  0.7804  0.5864
  509TMC3    C2 7560   3.860   2.981  15.307  0.1256  0.1521  0.1105
  509TMC3    C3 7561   3.908   2.960  15.431 -0.0169 -0.6549  0.6791
  509TMC3    C4 7562   3.733   2.776  15.341 -0.1374  0.1489  1.0341
  509TMC3    C5 7563   3.779   2.762  15.463  0.8360 -0.3675 -0.4215
  509TMC3    C6 7564   3.874   2.851  15.513 -0.2632  0.1156  0.4995
  509TMC3     C 7565   3.663   2.923  15.164  0.0339  0.4103 -0.3481
  509TMC3     O 7566   3.566   2.848  15.148  0.1897 -0.0999 -0.0400
  509TMC3     H 7567   3.901   3.056  15.241 -1.1719  2.0454  1.4650
  509TMC3    H1 7568   3.665   2.705  15.296  1.8937 -1.9330  1.2312
  509TMC3    H2 7569   3.919   2.837  15.610  1.0957  0.6601 -0.0510
  509TMC3    C7 7570   3.691   2.690  15.554  0.0544 -0.0643  0.0056
  509TMC3    C8 7571   3.979   3.064  15.504 -0.0832  0.2087 -0.1927
  509TMC3    O1 7572   3.596   2.632  15.506 -0.1206 -0.0486 -0.1239
  509TMC3    O2 7573   4.026   3.029  15.607 -0.8116  0.1656 -0.1323
  510MPD2     C 7574   1.779   4.347  14.565  0.4931  0.3779  0.2607
  510MPD2    C1 7575   1.784   4.206  14.576  0.6996 -0.1034 -0.3001
  510MPD2    C2 7576   1.869   4.138  14.496 -0.2437  0.1082 -0.1081
  510MPD2    C3 7577   1.962   4.200  14.419  0.4153  0.2919 -0.6820
  510MPD2    C4 7578   1.966   4.341  14.420 -0.4801  0.0316  0.3060
  510MPD2    C5 7579   1.880   4.412  14.499 -0.7772 -0.1181 -0.2460
  510MPD2     H 7580   1.867   4.030  14.506 -1.4569  0.2367  0.9860
  510MPD2    H1 7581   2.042   4.396  14.367  1.2606  0.4387  3.2166
  510MPD2    H2 7582   1.719   4.410  14.629  0.4621  0.7824 -0.1649
  510MPD2    H3 7583   1.884   4.520  14.502 -2.0155 -0.0403 -1.4389
  510MPD2     N 7584   2.055   4.137  14.332  0.1547 -0.4433  0.0647
  510MPD2    H5 7585   2.052   4.036  14.334 -1.8226 -0.4042 -1.7459
  510MPD2    N1 7586   1.692   4.135  14.662 -0.1685  0.0795  0.7633
  510MPD2    H7 7587   1.680   4.035  14.647  0.8621  0.3032 -1.5390
  511TMC3    C1 7588   1.508   4.087  14.799 -0.3308  0.2628  0.5314
  511TMC3    C2 7589   1.431   4.119  14.908  0.1907  0.4842 -0.2911
  511TMC3    C3 7590   1.329   4.035  14.937 -0.7305  0.7019 -0.0540
  511TMC3    C4 7591   1.488   3.975  14.720  0.2009  0.1862 -0.6905
  511TMC3    C5 7592   1.383   3.897  14.750  0.1038  0.3973 -0.7268
  511TMC3    C6 7593   1.309   3.921  14.861 -0.1087 -0.3750 -0.3026
  511TMC3     C 7594   1.607   4.185  14.759 -0.2684  0.4723  0.6797
  511TMC3     O 7595   1.613   4.299  14.804  0.4100  0.2913 -0.4761
  511TMC3     H 7596   1.434   4.216  14.957  0.3197  1.3735 -2.0657
  511TMC3    H1 7597   1.553   3.955  14.636  1.0760 -0.8004  0.2147
  511TMC3    H2 7598   1.219   3.864  14.882  1.7415 -2.5364  1.6862
  511TMC3    C7 7599   1.320   3.854  14.630  0.6720  0.2527  0.0101
  511TMC3    C8 7600   1.223   4.071  15.034 -0.9544  0.2161  0.0981
  511TMC3    O1 7601   1.361   3.910  14.527 -0.0610  0.1095  0.9676
  511TMC3    O2 7602   1.213   4.183  15.080 -0.4552 -0.3471 -0.4725
  512TMC3    C1 7603   4.575   3.704  13.397 -0.1714 -0.0650  0.1921
  512TMC3    C2 7604   4.687   3.694  13.471  0.0419 -0.1318  0.1450
  512TMC3    C3 7605   0.005   3.566  13.494 -0.0581 -0.3689  0.1078
  512TMC3    C4 7606   4.500   3.599  13.360 -0.3550  0.6957 -0.4150
  512TMC3    C5 7607   4.547   3.473  13.378  0.8098  0.3084 -0.2901
  512TMC3    C6 7608   4.670   3.456  13.441  0.3218 -0.1499  0.7493
  512TMC3     C 7609   4.513   3.838  13.380  0.1638 -0.8633  0.4859
  512TMC3     O 7610   4.389   3.838  13.373 -0.1280  0.3451 -0.5029
  512TMC3     H 7611   0.001   3.785  13.514  2.6264 -0.8982 -0.6245
  512TMC3    H1 7612   4.405   3.614  13.311 -0.3866 -0.0126 -0.5704
  512TMC3    H2 7613   4.691   3.353  13.468 -0.8532 -0.3811  0.7552
  512TMC3    C7 7614   4.457   3.354  13.361 -0.0619 -0.2898 -0.6820
  512TMC3    C8 7615   0.137   3.547  13.559  0.5706 -0.6086  0.0889
  512TMC3    O1 7616   4.344   3.365  13.402 -0.1306  0.5634  0.0317
  512TMC3    O2 7617   0.182   3.435  13.565 -0.6724 -0.6253  0.3295
  513MPD2     C 7618   2.033   3.475  13.537  0.1150 -1.0634 -0.2432
  513MPD2    C1 7619   2.079   3.507  13.412 -1.1289 -0.0860  0.3839
  513MPD2    C2 7620   2.214   3.529  13.393 -0.3725 -0.9719  0.0086
  513MPD2    C3 7621   2.296   3.516  13.503 -0.0125  0.2431 -0.1394
  513MPD2    C4 7622   2.254   3.476  13.628 -0.0029 -0.1060  0.2161
  513MPD2    C5 7623   2.120   3.461  13.644  0.7115 -0.1693 -0.0339
  513MPD2     H 7624   2.260   3.569  13.303 -1.0209  1.7868  0.9068
  513MPD2    H1 7625   2.327   3.460  13.707  0.6780 -2.2216 -0.8524
  513MPD2    H2 7626   1.926   3.457  13.541 -0.0822 -0.0987 -1.2010
  513MPD2    H3 7627   2.086   3.435  13.744 -2.1107  1.1611 -0.6591
  513MPD2     N 7628   2.431   3.554  13.478 -0.0381 -1.3240 -0.2318
  513MPD2    H5 7629   2.448   3.599  13.388 -1.9757  0.0338  0.0808
  513MPD2    N1 7630   1.976   3.535  13.316  0.2987 -0.7918 -0.0905
  513MPD2    H7 7631   1.886   3.492  13.339  0.1916 -0.5556 -0.0736
  514TMC3    C1 7632   1.895   3.563  13.098  0.3430  0.3057 -0.4344
  514TMC3    C2 7633   1.867   3.678  13.026 -0.1616  0.2215  0.3067
  514TMC3    C3 7634   1.872   3.670  12.886  0.2025  0.2699 -0.0967
  514TMC3    C4 7635   1.913   3.440  13.035  0.3543 -0.4804 -0.1228
  514TMC3    C5 7636   1.923   3.439  12.901  0.6476 -0.3288 -0.4270
  514TMC3    C6 7637   1.902   3.552  12.822  0.2109 -0.5055  0.3498
  514TMC3     C 7638   2.001   3.581  13.190  0.3261  0.6091 -0.4626
  514TMC3     O 7639   2.114   3.619  13.150 -0.0104  0.2658 -0.0667
  514TMC3     H 7640   1.874   3.776  13.071  2.3586  0.2679 -0.1717
  514TMC3    H1 7641   1.955   3.357  13.090 -1.0099  0.1702  1.9164
  514TMC3    H2 7642   1.923   3.533  12.717 -0.7980 -0.0395  0.0616
  514TMC3    C7 7643   2.050   3.389  12.855  0.6556  0.0214 -0.0482
  514TMC3    C8 7644   1.847   3.792  12.808  0.1037 -0.0995 -0.4241
  514TMC3    O1 7645   2.040   3.308  12.766 -0.1185 -0.4351 -0.2957
  514TMC3    O2 7646   1.793   3.891  12.863  0.1804  0.0156  0.2022
  515MPD2     C 7647   0.230   0.959  14.179  0.6040 -0.0406 -0.1137
  515MPD2    C1 7648   0.206   0.844  14.243 -0.0901 -0.0170  0.3556
  515MPD2    C2 7649   0.261   0.828  14.369  0.2778  0.5938  0.2099
  515MPD2    C3 7650   0.345   0.927  14.421  1.1002 -0.0106  0.3034
  515MPD2    C4 7651   0.354   1.045  14.360 -0.7711 -0.0946  0.2347
  515MPD2    C5 7652   0.293   1.062  14.241 -0.2482 -0.0342 -0.6326
  515MPD2     H 7653   0.245   0.731  14.416 -1.1287  0.7494  0.0247
  515MPD2    H1 7654   0.399   1.129  14.412 -0.4608 -0.1648  0.0761
  515MPD2    H2 7655   0.175   0.974  14.087 -1.5233  0.1832  1.1881
  515MPD2    H3 7656   0.302   1.162  14.200 -1.9287  0.6616  0.7011
  515MPD2     N 7657   0.417   0.909  14.547 -0.2206 -0.1505  0.6211
  515MPD2    H5 7658   0.483   0.984  14.567 -0.0424 -0.1172 -0.1070
  515MPD2    N1 7659   0.133   0.736  14.186  0.2976  0.3010 -0.1715
  515MPD2    H7 7660   0.110   0.666  14.257  0.5021 -1.8835 -2.2628
  516TMC3    C1 7661   0.004   0.598  14.049  0.1937  0.0745  0.3237
  516TMC3    C2 7662   4.656   0.581  13.939 -0.1987 -0.2720 -0.0622
  516TMC3    C3 7663   4.570   0.468  13.936  0.0123  0.0145 -1.1256
  516TMC3    C4 7664   0.021   0.494  14.140 -0.3417 -0.0465 -0.3529
  516TMC3    C5 7665   4.662   0.386  14.126  0.1370  0.2571 -0.5412
  516TMC3    C6 7666   4.570   0.370  14.028 -0.3147  0.1728  0.0481
  516TMC3     C 7667   0.090   0.714  14.059  0.4375 -0.2897 -0.0146
  516TMC3     O 7668   0.072   0.803  13.979  0.4007  0.2463  0.2448
  516TMC3     H 7669   4.672   0.650  13.857  1.2547 -0.4200  0.0958
  516TMC3    H1 7670   0.103   0.478  14.209 -0.1787 -1.2255 -0.8278
  516TMC3    H2 7671   4.518   0.275  14.019 -1.0105  0.5371  0.2233
  516TMC3    C7 7672   4.680   0.282  14.225  0.1981  0.2257  0.6555
  516TMC3    C8 7673   4.461   0.465  13.838  0.3336 -0.6666  0.1477
  516TMC3    O1 7674   0.014   0.319  14.323 -0.2713  0.1793  0.1402
  516TMC3    O2 7675   4.389   0.364  13.828  0.5983  0.1221  0.1496
  517MPD2     C 7676   4.044   2.186  17.230  0.4250  0.1274 -0.6843
  517MPD2    C1 7677   4.175   2.184  17.269  0.1432  0.2079  0.2855
  517MPD2    C2 7678   4.228   2.288  17.345  0.4875  0.5970  0.4136
  517MPD2    C3 7679   4.143   2.387  17.394 -0.5038 -0.2214 -0.0570
  517MPD2    C4 7680   4.011   2.393  17.347  0.5988  0.3570  0.1024
  517MPD2    C5 7681   3.967   2.294  17.262  0.0757  0.1608 -0.7842
  517MPD2     H 7682   4.330   2.276  17.378  0.3613 -3.7651 -0.7524
  517MPD2    H1 7683   3.951   2.480  17.369  0.4174 -0.2749  2.1228
  517MPD2    H2 7684   4.002   2.111  17.163 -2.5233  2.1835 -1.1294
  517MPD2    H3 7685   3.864   2.306  17.230  0.6974 -1.9172 -3.6629
  517MPD2     N 7686   4.178   2.497  17.482 -0.5079 -0.1784  0.6564
  517MPD2    H5 7687   4.103   2.556  17.516 -2.0104 -0.5169 -2.0518
  517MPD2    N1 7688   4.262   2.081  17.224  0.0484 -0.0596  0.2948
  517MPD2    H7 7689   4.357   2.086  17.260  0.5127  0.5158 -1.0264
  518TMC3    C1 7690   4.337   1.881  17.136  0.4420 -0.1581 -0.1256
  518TMC3    C2 7691   4.313   1.747  17.114 -0.2372 -0.4769 -0.1125
  518TMC3    C3 7692   4.421   1.680  17.067 -0.0006  0.1805 -0.7480
  518TMC3    C4 7693   4.458   1.936  17.119  0.8530 -0.2733 -0.1458
  518TMC3    C5 7694   4.565   1.864  17.082 -0.0574 -0.7316 -0.4223
  518TMC3    C6 7695   4.549   1.731  17.060 -0.0669 -0.6146  0.1110
  518TMC3     C 7696   4.219   1.966  17.158 -0.1846 -0.3667  0.4348
  518TMC3     O 7697   4.115   1.929  17.108 -0.1846  0.6848 -0.1401
  518TMC3     H 7698   4.213   1.707  17.130  0.0173 -0.7115  0.8833
  518TMC3    H1 7699   4.472   2.044  17.117 -1.9250  0.1173  1.4591
  518TMC3    H2 7700   4.633   1.670  17.027  1.1552  0.3656  1.4399
  518TMC3    C7 7701   4.683   1.939  17.072  0.3553 -0.5933  0.2224
  518TMC3    C8 7702   4.409   1.542  17.035 -0.1046 -0.4643  0.1459
  518TMC3    O1 7703   4.701   2.032  17.147 -0.4160 -0.0506  0.5268
  518TMC3    O2 7704   4.514   1.481  17.042 -0.2361  0.1247 -0.4495
  519MPD2     C 7705   1.727   0.878  13.744 -0.0733 -1.2797 -0.1541
  519MPD2    C1 7706   1.643   0.778  13.764  0.7235  0.5239 -0.4579
  519MPD2    C2 7707   1.687   0.649  13.768 -0.2361  0.3743  0.0350
  519MPD2    C3 7708   1.820   0.624  13.748  0.1825 -1.0731  0.1160
  519MPD2    C4 7709   1.905   0.729  13.724 -0.0469  0.0276  0.3282
  519MPD2    C5 7710   1.859   0.853  13.724 -0.4000 -0.7052 -0.0648
  519MPD2     H 7711   1.621   0.566  13.790 -0.6520  0.6893 -0.0303
  519MPD2    H1 7712   2.009   0.707  13.703 -0.2638  0.0195 -0.7156
  519MPD2    H2 7713   1.699   0.983  13.742  2.3297 -0.6285  0.7526
  519MPD2    H3 7714   1.928   0.934  13.701 -0.4005 -1.4885 -2.8188
  519MPD2     N 7715   1.865   0.491  13.756 -0.0341  0.5444  0.1274
  519MPD2    H5 7716   1.793   0.421  13.774  2.7175 -2.3038  0.1316
  519MPD2    N1 7717   1.501   0.796  13.779 -0.0019 -0.2577  0.3590
  519MPD2    H7 7718   1.452   0.717  13.820  0.1896 -0.8442 -0.5661
  520TMC3    C1 7719   2.004   0.304  13.750 -0.3229 -0.5144 -0.4095
  520TMC3    C2 7720   1.903   0.216  13.701  0.2953  0.4191 -0.4853
  520TMC3    C3 7721   1.911   0.085  13.733 -0.6140 -0.5883 -0.0380
  520TMC3    C4 7722   2.117   0.260  13.818  0.9983 -0.0413 -0.0042
  520TMC3    C5 7723   2.113   0.133  13.853 -0.5281  0.0524 -0.2268
  520TMC3    C6 7724   2.018   0.039  13.811 -0.1691  0.8382  0.5730
  520TMC3     C 7725   1.993   0.448  13.741  0.1707 -0.3814 -0.5387
  520TMC3     O 7726   2.098   0.509  13.738 -0.0734  0.4197  0.2694
  520TMC3     H 7727   1.831   0.252  13.628  1.0441 -0.0903 -1.4942
  520TMC3    H1 7728   2.186   0.331  13.862  0.1099  1.4288 -1.0023
  520TMC3    H2 7729   2.029   4.658  13.830  3.1390  0.7588 -1.7555
  520TMC3    C7 7730   2.219   0.073  13.933  0.2957 -0.2650 -0.1608
  520TMC3    C8 7731   1.808   4.718  13.703 -0.7474 -0.4065  0.1674
  520TMC3    O1 7732   2.235   4.676  13.921 -0.0741 -0.3198  0.1371
  520TMC3    O2 7733   1.829   4.599  13.730 -0.1217 -0.0561  1.0077
  521MPD2     C 7734   2.301   3.580  17.082  0.7385  0.0547  0.1529
  521MPD2    C1 7735   2.301   3.546  16.951  0.2715 -0.6933  0.7502
  521MPD2    C2 7736   2.403   3.570  16.862 -0.0773  0.4035  0.6302
  521MPD2    C3 7737   2.517   3.618  16.909 -0.1853 -0.1101 -0.0513
  521MPD2    C4 7738   2.522   3.657  17.040  0.0608  0.6020  0.5277
  521MPD2    C5 7739   2.416   3.628  17.127 -0.0416  0.7740 -0.4811
  521MPD2     H 7740   2.401   3.539  16.758  1.9297 -0.6028  0.8938
  521MPD2    H1 7741   2.609   3.702  17.087 -0.9617  2.3121  0.7895
  521MPD2    H2 7742   2.218   3.544  17.142  1.4644 -0.2196  0.9996
  521MPD2    H3 7743   2.418   3.645  17.234  1.6996 -1.0055 -0.2390
  521MPD2     N 7744   2.628   3.621  16.826 -0.1024  0.1875  0.5824
  521MPD2    H5 7745   2.625   3.583  16.732 -0.7960  1.1264  0.2256
  521MPD2    N1 7746   2.178   3.479  16.913 -0.3956  0.7587 -0.1584
  521MPD2    H7 7747   2.115   3.453  16.989 -0.6587 -1.0567 -1.0184
  522TMC3    C1 7748   2.846   3.641  16.755 -0.3143  0.3597  0.6127
  522TMC3    C2 7749   2.957   3.711  16.789 -0.1654  0.0743  0.4974
  522TMC3    C3 7750   3.059   3.710  16.701  0.3764 -0.6209 -0.2971
  522TMC3    C4 7751   2.827   3.586  16.630 -0.0112  0.1251 -1.0429
  522TMC3    C5 7752   2.934   3.604  16.545  0.3106 -0.8599 -0.5656
  522TMC3    C6 7753   3.051   3.663  16.578  0.1526 -0.3594 -0.4926
  522TMC3     C 7754   2.749   3.671  16.856 -0.1050  0.2553 -0.1083
  522TMC3     O 7755   2.783   3.729  16.956  0.4807  0.3988 -0.3602
  522TMC3     H 7756   2.983   3.739  16.891  3.2491  1.1254 -0.6619
  522TMC3    H1 7757   2.751   3.513  16.606  1.2345 -1.7336  0.5916
  522TMC3    H2 7758   3.136   3.670  16.512 -0.7381 -0.5342 -1.6528
  522TMC3    C7 7759   2.915   3.586  16.402  0.7736 -0.3272  0.3840
  522TMC3    C8 7760   3.191   3.699  16.756 -0.1077  0.2745  0.3058
  522TMC3    O1 7761   3.017   3.612  16.335 -0.4663 -0.1284 -0.2262
  522TMC3    O2 7762   3.229   3.783  16.838 -0.5168 -0.0286  0.4972
  523MPD2     C 7763   0.093   2.522  10.226 -0.0281 -0.3861  0.1234
  523MPD2    C1 7764   0.123   2.495  10.091  0.6019  0.9739 -0.0241
  523MPD2    C2 7765   0.152   2.607  10.016  0.4075 -0.3302 -0.5130
  523MPD2    C3 7766   0.143   2.732  10.073 -0.6805 -0.3924  0.5922
  523MPD2    C4 7767   0.106   2.753  10.203 -0.5635 -0.3087 -0.0456
  523MPD2    C5 7768   0.091   2.640  10.283  0.5097 -0.6344 -0.1815
  523MPD2     H 7769   0.184   2.590   9.914 -1.5125  1.3692 -1.3891
  523MPD2    H1 7770   0.104   2.848  10.256 -0.9413 -0.2165 -0.2259
  523MPD2    H2 7771   0.070   2.434  10.284  1.6810 -0.2596  0.9727
  523MPD2    H3 7772   0.070   2.653  10.389 -0.5175  1.2948 -0.6252
  523MPD2     N 7773   0.166   2.849   9.991 -0.6788  0.3734 -0.6492
  523MPD2    H5 7774   0.147   2.941  10.030 -0.7865  0.5209 -1.0524
  523MPD2    N1 7775   0.144   2.365  10.046 -0.0168  0.2896 -0.7205
  523MPD2    H7 7776   0.144   2.307  10.130  1.0000 -0.9727 -1.5927
  524TMC3    C1 7777   0.226   2.991   9.807 -0.0317 -0.6562 -1.0647
  524TMC3    C2 7778   0.289   3.002   9.687  0.4296  0.6055  0.1314
  524TMC3    C3 7779   0.269   3.111   9.610  0.4025  0.0064 -0.2642
  524TMC3    C4 7780   0.159   3.099   9.863  0.2540  0.1515  0.0349
  524TMC3    C5 7781   0.141   3.208   9.786 -0.4828 -0.2283 -0.3075
  524TMC3    C6 7782   0.205   3.222   9.665 -0.8284  0.7169  0.3303
  524TMC3     C 7783   0.204   2.853   9.858 -0.2866  0.4062  0.1136
  524TMC3     O 7784   0.206   2.765   9.779  0.4333  0.1267  0.4913
  524TMC3     H 7785   0.315   2.911   9.633  0.5739  1.4277 -1.1827
  524TMC3    H1 7786   0.111   3.093   9.960  2.0149  2.9572  1.0925
  524TMC3    H2 7787   0.216   3.318   9.614  1.3746 -0.7153 -1.9056
  524TMC3    C7 7788   0.035   3.301   9.831 -0.3171  0.2984  0.0601
  524TMC3    C8 7789   0.316   3.107   9.473  0.1438 -0.4464 -0.2140
  524TMC3    O1 7790   4.704   3.286   9.939  0.1506 -0.1861  0.0626
  524TMC3    O2 7791   0.405   3.022   9.457 -1.1517  0.5738 -0.3017
  525MPD2     C 7792   2.945   4.423  14.278  0.0080  0.5014 -0.3787
  525MPD2    C1 7793   3.061   4.458  14.345  0.1936  0.0344 -0.0751
  525MPD2    C2 7794   3.132   4.565  14.294  0.4663  0.2174 -0.3825
  525MPD2    C3 7795   3.070   4.645  14.199 -0.5011 -0.1659  0.1456
  525MPD2    C4 7796   2.955   4.605  14.131  0.3838  1.0102  0.0001
  525MPD2    C5 7797   2.900   4.492  14.167  0.1841 -0.3255  0.8338
  525MPD2     H 7798   3.226   4.577  14.347 -0.7796  0.0036  1.8932
  525MPD2    H1 7799   2.922   4.657  14.042  0.9983 -2.2610 -2.1336
  525MPD2    H2 7800   2.891   4.331  14.296  0.0758  0.9319  1.9809
  525MPD2    H3 7801   2.813   4.456  14.114  0.8922 -1.7136  0.6047
  525MPD2     N 7802   3.138   0.033  14.147  0.5060  0.8020 -0.2309
  525MPD2    H5 7803   3.093   0.096  14.082  0.8343  0.6745 -0.5828
  525MPD2    N1 7804   3.106   4.385  14.463  0.4821  0.0618  0.1750
  525MPD2    H7 7805   3.204   4.401  14.487  0.2749  2.7273 -0.8147
  526TMC3    C1 7806   3.082   4.285  14.665  0.0988 -0.7297  0.3628
  526TMC3    C2 7807   3.007   4.292  14.780 -0.5465  0.4794 -0.1058
  526TMC3    C3 7808   3.072   4.298  14.902  0.0251 -0.0561 -1.0866
  526TMC3    C4 7809   3.220   4.274  14.667 -0.5034 -0.4152  0.1783
  526TMC3    C5 7810   3.278   4.283  14.787  0.4515  1.0305 -0.0919
  526TMC3    C6 7811   3.207   4.296  14.902 -0.9713  0.1697  0.6797
  526TMC3     C 7812   3.019   4.336  14.556  0.1788  0.3802 -0.5143
  526TMC3     O 7813   2.896   4.348  14.563  0.3356  0.2059  0.8543
  526TMC3     H 7814   2.899   4.282  14.771 -0.8980 -0.0281  4.2073
  526TMC3    H1 7815   3.267   4.224  14.583 -0.4828  1.3412 -0.8557
  526TMC3    H2 7816   3.261   4.314  14.995 -0.7377 -2.1743  0.9964
  526TMC3    C7 7817   3.417   4.249  14.806  0.3954 -0.4170  0.1090
  526TMC3    C8 7818   3.009   4.361  15.018 -0.0182  0.3492 -0.2608
  526TMC3    O1 7819   3.447   4.214  14.920  0.0979  0.2787  0.6565
  526TMC3    O2 7820   3.089   4.426  15.084 -0.0150  0.4989 -0.4714
  527MPD2     C 7821   0.590   2.952   0.316  0.6114  0.8435 -0.5983
  527MPD2    C1 7822   0.581   2.938   0.450  0.3002 -0.5871  0.8444
  527MPD2    C2 7823   0.696   2.903   0.522  0.0169  0.0621 -0.2482
  527MPD2    C3 7824   0.823   2.906   0.458  0.5779 -0.2057  0.1247
  527MPD2    C4 7825   0.827   2.928   0.322  0.3607 -0.3726  0.3729
  527MPD2    C5 7826   0.709   2.944   0.250  0.1270 -0.4085  0.9444
  527MPD2     H 7827   0.696   2.873   0.626 -0.5530  0.6749 -0.0718
  527MPD2    H1 7828   0.916   2.943   0.261  0.9114 -0.0087  1.2687
  527MPD2    H2 7829   0.507   2.967   0.248  0.4971  0.9945 -0.4239
  527MPD2    H3 7830   0.706   2.956   0.142 -3.9473 -3.5230  0.7023
  527MPD2     N 7831   0.940   2.900   0.538 -0.1269  0.5000  0.6120
  527MPD2    H5 7832   0.922   2.884   0.636 -0.5972 -0.2322  0.4052
  527MPD2    N1 7833   0.461   2.933   0.526 -0.0815 -0.4962  0.1769
  527MPD2    H7 7834   0.470   2.889   0.617 -0.0032 -1.2793 -0.2119
  528TMC3    C1 7835   0.241   2.956   0.578 -0.4274  0.6443 -0.6595
  528TMC3    C2 7836   0.266   2.951   0.716  0.1680 -0.1138 -0.1134
  528TMC3    C3 7837   0.164   2.931   0.807 -1.1011 -0.8254 -0.3730
  528TMC3    C4 7838   0.108   2.949   0.536 -0.7406 -0.2339  0.2926
  528TMC3    C5 7839   0.012   2.939   0.635  0.0338  0.5041  0.2555
  528TMC3    C6 7840   0.038   2.933   0.770  0.0682  0.8972 -0.0892
  528TMC3     C 7841   0.340   2.974   0.478 -0.6667  0.1581 -0.0658
  528TMC3     O 7842   0.305   3.019   0.372 -0.4189 -0.5721  0.1746
  528TMC3     H 7843   0.367   2.954   0.755  1.1468  3.7416 -2.8832
  528TMC3    H1 7844   0.073   2.938   0.434 -2.0219  0.6268  0.6422
  528TMC3    H2 7845   4.682   2.917   0.839 -0.0455  1.0302 -0.1936
  528TMC3    C7 7846   4.603   2.931   0.590 -0.3598  0.0180  0.5983
  528TMC3    C8 7847   0.203   2.931   0.952  0.4236 -0.9806 -0.6112
  528TMC3    O1 7848   4.541   2.840   0.641 -0.5731  0.5721 -0.4299
  528TMC3    O2 7849   0.321   2.951   0.989  0.6803  0.5766  0.0915
  529MPD2     C 7850   3.606   1.857   0.650  0.6069 -0.2637 -0.1137
  529MPD2    C1 7851   3.471   1.830   0.648  1.4313  0.7226  0.9593
  529MPD2    C2 7852   3.386   1.889   0.552  0.0795 -0.9338  0.1240
  529MPD2    C3 7853   3.448   1.963   0.450 -0.4502 -0.3908  0.2742
  529MPD2    C4 7854   3.586   1.978   0.442 -0.0172  0.2944  0.3675
  529MPD2    C5 7855   3.659   1.937   0.553 -0.3049 -0.2741 -0.1891
  529MPD2     H 7856   3.279   1.869   0.550 -0.7707  3.4476  2.5438
  529MPD2    H1 7857   3.634   2.029   0.359 -1.7277  0.0671 -0.7869
  529MPD2    H2 7858   3.677   1.814   0.720  1.8500  0.7990 -0.7281
  529MPD2    H3 7859   3.767   1.948   0.561 -0.4619  1.8877 -0.9858
  529MPD2     N 7860   3.385   1.987   0.329 -0.3851 -0.2267  0.3602
  529MPD2    H5 7861   3.439   2.039   0.260  1.3919 -1.0504  1.1305
  529MPD2    N1 7862   3.412   1.770   0.759 -0.7622  0.4230 -0.1165
  529MPD2    H7 7863   3.312   1.774   0.774 -0.6944  2.6719 -0.2744
  530TMC3    C1 7864   3.384   1.635   0.942  0.5462 -0.6116  0.7826
  530TMC3    C2 7865   3.384   1.503   0.983  0.4365  0.7894  0.9248
  530TMC3    C3 7866   3.290   1.453   1.070  0.3271  0.5304  0.2465
  530TMC3    C4 7867   3.284   1.718   0.993  0.6313  0.2018 -0.0947
  530TMC3    C5 7868   3.191   1.659   1.073  0.3095  0.5857 -0.2092
  530TMC3    C6 7869   3.184   1.529   1.107 -0.1230  0.1326 -0.5054
  530TMC3     C 7870   3.473   1.678   0.833  0.1991 -0.1971 -0.3184
  530TMC3     O 7871   3.583   1.621   0.827  0.4245  0.1013  0.4003
  530TMC3     H 7872   3.454   1.432   0.942 -0.5144 -0.4702  1.4905
  530TMC3    H1 7873   3.292   1.823   0.970 -0.1068  0.4671  0.8797
  530TMC3    H2 7874   3.104   1.494   1.171  0.7951 -3.3526 -1.2916
  530TMC3    C7 7875   3.114   1.757   1.146 -0.1970 -0.3887 -0.0087
  530TMC3    C8 7876   3.270   1.310   1.068  0.0944 -0.6185 -0.3173
  530TMC3    O1 7877   3.161   1.869   1.161  0.8286  0.4547 -0.5115
  530TMC3    O2 7878   3.162   1.258   1.042 -0.1177  0.3258  0.3484
  531MPD2     C 7879   2.558   3.422  12.861  0.8121  0.4747  0.4184
  531MPD2    C1 7880   2.513   3.488  12.971 -0.6601 -0.0497 -0.0628
  531MPD2    C2 7881   2.372   3.500  12.984 -0.1086 -0.1544 -0.2901
  531MPD2    C3 7882   2.281   3.450  12.890  0.1853  0.2304  0.0610
  531MPD2    C4 7883   2.334   3.376  12.787 -0.0135 -0.1254 -1.0346
  531MPD2    C5 7884   2.473   3.366  12.771 -0.3286 -0.1334  0.2039
  531MPD2     H 7885   2.327   3.552  13.068  0.0074 -0.0412 -0.2980
  531MPD2    H1 7886   2.274   3.319  12.717 -0.3625  1.9967 -2.4689
  531MPD2    H2 7887   2.663   3.415  12.834  0.8371 -1.1384  0.9311
  531MPD2    H3 7888   2.507   3.310  12.684 -0.7377 -0.3415  0.1775
  531MPD2     N 7889   2.145   3.456  12.920 -0.2625 -0.0438  0.1563
  531MPD2    H5 7890   2.129   3.525  12.993 -0.9036 -0.1341  0.1071
  531MPD2    N1 7891   2.613   3.546  13.051  0.5379  0.1586 -0.9312
  531MPD2    H7 7892   2.708   3.517  13.031  0.1378 -2.4884  0.9600
  532TMC3    C1 7893   2.695   3.610  13.258  0.0422  0.4296 -0.5213
  532TMC3    C2 7894   2.640   3.639  13.382  0.3094 -0.1323 -0.0115
  532TMC3    C3 7895   2.659   3.552  13.490 -0.1214  0.6613  0.1341
  532TMC3    C4 7896   2.774   3.499  13.245  0.9934 -0.2686  0.0051
  532TMC3    C5 7897   2.765   3.406  13.340  0.0522 -1.2301  0.2351
  532TMC3    C6 7898   2.722   3.433  13.468 -0.5170  0.2642  0.2648
  532TMC3     C 7899   2.586   3.619  13.166 -0.1037  0.2081  0.3705
  532TMC3     O 7900   2.478   3.660  13.216  0.1640  0.4764 -0.7277
  532TMC3     H 7901   2.581   3.729  13.395  0.8972  0.4721 -1.5985
  532TMC3    H1 7902   2.816   3.472  13.149  0.6537 -0.1921 -0.1647
  532TMC3    H2 7903   2.719   3.357  13.546  1.1557 -1.9511 -1.8136
  532TMC3    C7 7904   2.875   3.311  13.345  0.8847  0.2090  0.1118
  532TMC3    C8 7905   2.538   3.546  13.567 -0.0873  0.0519 -0.7733
  532TMC3    O1 7906   2.980   3.342  13.297  0.4543 -0.2023 -0.2163
  532TMC3    O2 7907   2.546   3.527  13.689 -0.2863 -0.4635  0.0535
  533TMC3    C1 7908   3.296   0.203  14.150 -0.1269  0.0501 -0.5236
  533TMC3    C2 7909   3.433   0.229  14.141  0.0567 -0.0117 -0.5902
  533TMC3    C3 7910   3.465   0.363  14.165 -0.4175  0.8439  0.5398
  533TMC3    C4 7911   3.201   0.289  14.199 -0.6284 -0.2028 -0.1024
  533TMC3    C5 7912   3.244   0.412  14.244 -0.1014  0.3196 -0.1579
  533TMC3    C6 7913   3.372   0.451  14.217  0.4499 -0.1195  0.7262
  533TMC3     C 7914   3.265   0.063  14.178 -0.1845 -0.4258 -0.2623
  533TMC3     O 7915   3.364   4.721  14.199  0.4089  0.3074 -0.0615
  533TMC3     H 7916   3.490   0.153  14.088  1.0106  0.7272 -0.6211
  533TMC3    H1 7917   3.097   0.265  14.213 -0.9955  2.1380  1.1534
  533TMC3    H2 7918   3.402   0.555  14.218 -1.9596  0.5964 -1.2196
  533TMC3    C7 7919   3.174   0.463  14.361  0.6519  0.0027 -0.0269
  533TMC3    C8 7920   3.569   0.405  14.068 -0.1050 -0.6546  0.4488
  533TMC3    O1 7921   3.068   0.409  14.391  0.0050 -0.1896  0.5242
  533TMC3    O2 7922   3.647   0.315  14.031  0.3533 -0.7408 -0.1901
  534MPD2     C 7923   0.052   1.918   1.363 -0.1407  0.0874  0.1056
  534MPD2    C1 7924   0.124   1.956   1.252 -0.5917 -0.0506  0.2860
  534MPD2    C2 7925   0.129   1.869   1.145  0.6090  0.6239  0.1963
  534MPD2    C3 7926   0.083   1.736   1.149  0.2401 -0.5354  0.4944
  534MPD2    C4 7927   0.031   1.701   1.273  0.8304  0.3474  0.2952
  534MPD2    C5 7928   0.003   1.792   1.367 -0.5249 -0.1045  0.3157
  534MPD2     H 7929   0.176   1.910   1.057 -1.5498  1.9622 -0.3344
  534MPD2    H1 7930   0.004   1.598   1.294 -0.2768  0.3317 -1.2374
  534MPD2    H2 7931   0.034   1.971   1.457  1.3229 -0.1924  0.5463
  534MPD2    H3 7932   4.684   1.757   1.459 -1.4108 -1.9365 -0.8299
  534MPD2     N 7933   0.104   1.635   1.053  0.2514 -0.5787 -0.4200
  534MPD2    H5 7934   0.078   1.540   1.076 -0.8913 -0.2595 -0.3937
  534MPD2    N1 7935   0.192   2.080   1.241  0.2753  0.6843  0.3646
  534MPD2    H7 7936   0.233   2.106   1.152  0.6320  2.0765  0.9333
  535TMC3    C1 7937   0.196   1.542   0.864  0.0401  1.0102 -0.5100
  535TMC3    C2 7938   0.199   1.418   0.913  0.2883  0.1323 -0.6299
  535TMC3    C3 7939   0.282   1.319   0.862 -0.1400  0.5595 -0.2452
  535TMC3    C4 7940   0.252   1.554   0.738  0.5668 -0.5318  0.3788
  535TMC3    C5 7941   0.319   1.454   0.677 -0.4568 -0.2661  0.1351
  535TMC3    C6 7942   0.348   1.336   0.742  0.8985 -0.2645  1.0120
  535TMC3     C 7943   0.159   1.660   0.933 -0.5856 -0.0723  0.6391
  535TMC3     O 7944   0.180   1.765   0.877  0.1469  0.2678  0.2976
  535TMC3     H 7945   0.143   1.390   1.002  0.5610  0.7708 -0.2583
  535TMC3    H1 7946   0.244   1.655   0.697 -0.0656 -1.0391 -0.7385
  535TMC3    H2 7947   0.404   1.261   0.688  1.9836  1.4507 -0.2540
  535TMC3    C7 7948   0.405   1.489   0.565  0.5997  0.4038  0.1720
  535TMC3    C8 7949   0.285   1.198   0.942 -0.1259 -0.2498 -0.2332
  535TMC3    O1 7950   0.502   1.422   0.544  0.5835 -0.4464  0.1529
  535TMC3    O2 7951   0.186   1.175   1.014 -0.2904 -0.1862 -0.2950
  536MPD2     C 7952   4.592   0.379  16.240 -0.1151 -0.0473  0.2002
  536MPD2    C1 7953   4.491   0.302  16.300 -0.7924 -0.2799  0.1034
  536MPD2    C2 7954   4.363   0.316  16.242 -0.3149  0.8953  0.2011
  536MPD2    C3 7955   4.339   0.395  16.135 -0.3426  1.2478  0.1171
  536MPD2    C4 7956   4.439   0.455  16.078 -0.4798  0.4926  0.1207
  536MPD2    C5 7957   4.567   0.452  16.132 -0.6435  0.6404 -0.0705
  536MPD2     H 7958   4.278   0.281  16.299  0.3144 -0.7328  0.1449
  536MPD2    H1 7959   4.424   0.520  15.993 -0.0168  0.7270  0.2199
  536MPD2    H2 7960   4.689   0.391  16.286  0.2415  0.9593 -0.7980
  536MPD2    H3 7961   4.647   0.513  16.091 -1.1367  1.1858 -0.2256
  536MPD2     N 7962   4.214   0.403  16.071 -0.4938  0.5065  0.3119
  536MPD2    H5 7963   4.218   0.423  15.972  1.1654  1.5277  0.5755
  536MPD2    N1 7964   4.516   0.229  16.418 -0.0075 -0.1017  0.4879
  536MPD2    H7 7965   4.611   0.227  16.453  0.4966  1.2502 -0.7932
  537TMC3    C1 7966   4.496   0.083  16.593 -0.5905 -0.4363 -0.3511
  537TMC3    C2 7967   4.590   0.151  16.661  0.5883 -0.0931 -0.3116
  537TMC3    C3 7968   4.641   0.105  16.775  0.6285 -0.1328  0.3749
  537TMC3    C4 7969   4.435   4.704  16.654  0.1509  0.3769 -0.0473
  537TMC3    C5 7970   4.489   4.655  16.768 -0.2202 -0.3201  0.2087
  537TMC3    C6 7971   4.589   4.723  16.838 -0.3441 -0.0051  0.3860
  537TMC3     C 7972   4.436   0.140  16.478 -0.2441 -0.2693 -0.8968
  537TMC3     O 7973   4.320   0.106  16.449 -0.0792  0.1438  0.1216
  537TMC3     H 7974   4.612   0.254  16.637  1.0319 -0.1170 -0.0113
  537TMC3    H1 7975   4.353   4.656  16.601  0.2274 -2.0276  2.0276
  537TMC3    H2 7976   4.629   4.711  16.938 -0.2742 -1.7220  0.1491
  537TMC3    C7 7977   4.433   4.536  16.833 -0.2140 -0.4394  0.1638
  537TMC3    C8 7978   0.017   0.179  16.838 -0.0079  0.3647 -0.0717
  537TMC3    O1 7979   4.328   4.497  16.792 -0.2040  0.2547 -0.3789
  537TMC3    O2 7980   0.010   0.301  16.826 -0.9530 -0.2537  0.3061
  538TMC3    C1 7981   0.729   2.627  10.989  0.6275  0.5969 -0.9139
  538TMC3    C2 7982   0.739   2.521  10.902  0.0440  0.7210 -0.3896
  538TMC3    C3 7983   0.684   2.542  10.773  0.4432  0.1442  0.3441
  538TMC3    C4 7984   0.677   2.741  10.958  0.2096 -0.0407  0.2332
  538TMC3    C5 7985   0.612   2.755  10.833 -0.0302 -0.0340  0.1299
  538TMC3    C6 7986   0.609   2.651  10.743  0.2635  0.1624  0.0434
  538TMC3     C 7987   0.795   2.614  11.118 -0.5900  0.2621  0.4874
  538TMC3     O 7988   0.760   2.683  11.210  0.1802  0.1962 -0.6130
  538TMC3     H 7989   0.764   2.423  10.941  2.9823  1.2267 -0.9670
  538TMC3    H1 7990   0.673   2.823  11.030 -0.0339 -0.1941  0.3931
  538TMC3    H2 7991   0.567   2.680  10.647  0.2530 -0.4332 -0.1290
  538TMC3    C7 7992   0.515   2.857  10.814 -0.1008  0.2691  0.3774
  538TMC3    C8 7993   0.702   2.432  10.677 -1.1095 -0.5082  0.6812
  538TMC3    O1 7994   0.432   2.841  10.724  0.1602 -0.2619 -0.1069
  538TMC3    O2 7995   0.622   2.416  10.584  0.1555 -0.3301  0.2347
  539MPD2     C 7996   0.697   2.223  11.640 -0.2165 -0.6778 -0.1562
  539MPD2    C1 7997   0.637   2.193  11.522  0.1986 -0.3760  0.1519
  539MPD2    C2 7998   0.578   2.300  11.450  0.0727 -0.4637 -0.3168
  539MPD2    C3 7999   0.590   2.431  11.491 -0.7119  0.4706 -0.6392
  539MPD2    C4 8000   0.644   2.454  11.613 -0.2782 -0.2210 -0.3610
  539MPD2    C5 8001   0.684   2.351  11.692 -0.6400  0.2101  0.1249
  539MPD2     H 8002   0.531   2.280  11.354 -2.0167  1.1869  0.3930
  539MPD2    H1 8003   0.658   2.548  11.663  0.2867 -0.7327  0.4352
  539MPD2    H2 8004   0.753   2.152  11.701 -1.3791  0.2155  1.9609
  539MPD2    H3 8005   0.717   2.367  11.794  0.2355  0.7089 -0.2394
  539MPD2     N 8006   0.534   2.542  11.435 -0.1933 -0.8062 -0.3661
  539MPD2    H5 8007   0.544   2.623  11.495 -1.3587 -1.0306  0.1316
  539MPD2    N1 8008   0.631   2.064  11.468  0.5460 -0.5006  0.2728
  539MPD2    H7 8009   0.561   2.050  11.396  1.2970  0.6566 -0.6810
  540TMC3    C1 8010   0.442   2.695  11.286 -1.0088 -0.2262 -0.2020
  540TMC3    C2 8011   0.381   2.720  11.164  0.4663  0.2005  0.9671
  540TMC3    C3 8012   0.303   2.832  11.157 -0.7238 -0.3265 -0.9381
  540TMC3    C4 8013   0.434   2.783  11.388 -0.1883 -0.0561 -0.6847
  540TMC3    C5 8014   0.361   2.895  11.371  0.0462 -0.3218  0.0140
  540TMC3    C6 8015   0.294   2.923  11.252 -0.7925  0.5328  0.0551
  540TMC3     C 8016   0.474   2.549  11.310  0.3737 -0.0605 -0.7072
  540TMC3     O 8017   0.445   2.465  11.224  0.0157  0.2949  0.0005
  540TMC3     H 8018   0.378   2.647  11.083 -1.8014  0.5819  0.7069
  540TMC3    H1 8019   0.484   2.766  11.483 -0.0122 -2.9981 -1.2937
  540TMC3    H2 8020   0.236   3.011  11.228 -0.3557  0.1012 -2.5862
  540TMC3    C7 8021   0.293   2.923  11.497  0.8256  0.4442  0.0979
  540TMC3    C8 8022   0.206   2.849  11.051  0.3024 -0.0143  0.2280
  540TMC3    O1 8023   0.288   2.832  11.580  0.3448  1.0945  0.3269
  540TMC3    O2 8024   0.152   2.959  11.023 -0.4125 -0.2903 -0.0205
  541MPD2     C 8025   3.889   3.591  13.164  0.5383 -0.0152  0.0730
  541MPD2    C1 8026   3.765   3.639  13.204  0.4001 -0.0302  0.1701
  541MPD2    C2 8027   3.692   3.711  13.117  0.8747 -0.2012  0.2239
  541MPD2    C3 8028   3.738   3.749  12.991 -0.1990  0.0262  0.7987
  541MPD2    C4 8029   3.864   3.707  12.958 -0.4711  0.1173  0.1156
  541MPD2    C5 8030   3.934   3.619  13.037 -0.3971  0.2761 -0.5104
  541MPD2     H 8031   3.594   3.739  13.153  1.3037  0.9243  0.5267
  541MPD2    H1 8032   3.912   3.730  12.863 -0.8487  0.8475  0.1033
  541MPD2    H2 8033   3.956   3.533  13.227  0.1593 -0.7469 -0.2010
  541MPD2    H3 8034   4.025   3.570  13.003 -0.1916 -1.6142  2.7270
  541MPD2     N 8035   3.663   3.822  12.902 -0.4002  0.2529  0.2974
  541MPD2    H5 8036   3.704   3.839  12.810  1.4369 -2.4726  0.6345
  541MPD2    N1 8037   3.721   3.591  13.330 -0.3087 -0.0734  0.4046
  541MPD2    H7 8038   3.770   3.511  13.369 -0.8782  1.0139  3.3660
  542TMC3    C1 8039   3.497   3.977  12.830  0.0180  0.3233  0.3430
  542TMC3    C2 8040   3.525   3.935  12.704 -1.1986  0.3024  0.2165
  542TMC3    C3 8041   3.451   3.998  12.613  0.5826 -0.0073 -0.7487
  542TMC3    C4 8042   3.437   4.094  12.876  0.4375 -0.2284  0.2250
  542TMC3    C5 8043   3.394   4.167  12.771 -0.0395  0.3265 -0.1092
  542TMC3    C6 8044   3.397   4.123  12.640 -0.0001  0.2835 -0.1253
  542TMC3     C 8045   3.556   3.904  12.941  0.6155  0.4720 -0.4910
  542TMC3     O 8046   3.522   3.937  13.056 -0.3981  0.2226 -0.7954
  542TMC3     H 8047   3.563   3.837  12.678 -1.4478 -0.2977  2.1220
  542TMC3    H1 8048   3.452   4.133  12.976 -1.0033  1.1819 -0.1111
  542TMC3    H2 8049   3.336   4.172  12.564 -1.3778 -1.1156  0.0663
  542TMC3    C7 8050   3.354   4.308  12.788 -0.0054  0.6880  0.4591
  542TMC3    C8 8051   3.404   3.939  12.489 -0.0130 -0.1598 -1.4193
  542TMC3    O1 8052   3.364   4.388  12.695  0.3455  0.3264  0.2794
  542TMC3    O2 8053   3.357   4.014  12.403  0.1286 -0.2839 -0.0780
  543TMC3    C1 8054   2.782   4.670  17.334 -0.2984 -0.1154 -0.3411
  543TMC3    C2 8055   2.824   4.557  17.393 -0.4097 -0.4517  0.1791
  543TMC3    C3 8056   2.821   4.547  17.530  0.3000  0.5164  0.3571
  543TMC3    C4 8057   2.742   0.059  17.409 -0.0532 -0.2690 -0.3171
  543TMC3    C5 8058   2.744   0.042  17.544  0.5025 -0.0022 -0.1555
  543TMC3    C6 8059   2.775   4.655  17.610  0.1254 -0.8132  0.3033
  543TMC3     C 8060   2.863   4.694  17.215  0.4482  0.4264 -0.2046
  543TMC3     O 8061   2.941   4.607  17.177 -0.5592 -0.3285  0.5531
  543TMC3     H 8062   2.839   4.463  17.341  3.1170  1.0141 -1.4727
  543TMC3    H1 8063   2.710   0.152  17.363 -0.6892  0.0397  0.7317
  543TMC3    H2 8064   2.784   4.657   0.013 -0.3476 -1.1479  0.3479
  543TMC3    C7 8065   2.675   0.150  17.613  0.8296 -0.4569 -0.1155
  543TMC3    C8 8066   2.801   4.414  17.586 -0.1906  0.6371  0.1615
  543TMC3    O1 8067   2.608   0.116   0.004 -0.4451 -0.4476  0.3907
  543TMC3    O2 8068   2.793   4.318  17.514 -0.2184  0.5161  0.7885
  544MPD2     C 8069   2.766   4.085   0.277  0.2024  0.1158  0.5498
  544MPD2    C1 8070   2.775   4.056   0.143  0.5322 -0.0467  0.6363
  544MPD2    C2 8071   2.775   4.162   0.049  0.3861 -0.4733 -0.1658
  544MPD2    C3 8072   2.795   4.292   0.096  0.4215  0.1925 -0.5839
  544MPD2    C4 8073   2.791   4.315   0.229  0.1142 -0.3916 -0.7805
  544MPD2    C5 8074   2.785   4.214   0.315  0.0188 -0.2809 -0.7019
  544MPD2     H 8075   2.780   4.140  17.648 -1.6300  2.2035 -0.7963
  544MPD2    H1 8076   2.809   4.415   0.267  0.8019 -0.4439 -0.9658
  544MPD2    H2 8077   2.764   4.014   0.360  3.3733  0.1507  0.6452
  544MPD2    H3 8078   2.787   4.237   0.421 -0.4557 -0.8202 -0.5772
  544MPD2     N 8079   2.804   4.409   0.018  0.2494 -0.1873 -0.8472
  544MPD2    H5 8080   2.814   4.499   0.063 -0.0382 -1.3455  1.5572
  544MPD2    N1 8081   2.763   3.921   0.110  0.6468  0.5701  0.1287
  544MPD2    H7 8082   2.766   3.848   0.180 -0.8366 -0.8884 -1.3107
  545TMC3    C1 8083   2.768   3.735  17.676  0.0010  0.1357 -0.2351
  545TMC3    C2 8084   2.726   3.668  17.563  0.2003 -0.3190 -0.0469
  545TMC3    C3 8085   2.763   3.539  17.549 -1.2652  0.7506  0.4243
  545TMC3    C4 8086   2.847   3.673   0.067 -0.1871  0.4378  0.4132
  545TMC3    C5 8087   2.879   3.543   0.050  0.4420  0.6875 -0.8914
  545TMC3    C6 8088   2.827   3.471  17.647 -0.2676  0.1303 -0.6878
  545TMC3     C 8089   2.741   3.878  17.689  0.4927 -0.9866 -0.1977
  545TMC3     O 8090   2.712   3.939  17.588 -0.4487  0.0378  0.3036
  545TMC3     H 8091   2.666   3.718  17.488 -0.2974 -0.7869  0.0413
  545TMC3    H1 8092   2.898   3.723   0.149 -0.4385  0.0400  0.8137
  545TMC3    H2 8093   2.868   3.373  17.623  1.0770  0.3793  0.5890
  545TMC3    C7 8094   2.887   3.458   0.172 -0.2799  0.3129  0.8177
  545TMC3    C8 8095   2.729   3.475  17.423  0.3592  0.5985 -0.7016
  545TMC3    O1 8096   2.826   3.349   0.173 -0.0666  0.3349  0.1820
  545TMC3    O2 8097   2.688   3.549  17.332 -0.2545 -0.2180 -0.3675
  546MPD2     C 8098   4.456   0.013  17.268  0.2081  0.0353 -0.3027
  546MPD2    C1 8099   4.373   0.036  17.164  0.1431  0.1777  0.3183
  546MPD2    C2 8100   4.398   0.145  17.091  0.2929 -0.0874 -0.3225
  546MPD2    C3 8101   4.502   0.230  17.125 -0.2155 -0.1218  0.2285
  546MPD2    C4 8102   4.593   0.200  17.231  0.4841  0.1567 -0.4856
  546MPD2    C5 8103   4.571   0.082  17.289 -0.1941 -0.2993  0.0075
  546MPD2     H 8104   4.328   0.162  17.010  0.7389  3.9943  0.1513
  546MPD2    H1 8105   4.670   0.272  17.254  1.2106 -0.3614 -1.3064
  546MPD2    H2 8106   4.439   4.648  17.324 -0.4900  1.0747  1.1552
  546MPD2    H3 8107   4.638   0.051  17.367  1.4608  1.3135 -0.7786
  546MPD2     N 8108   4.511   0.362  17.071 -0.1922 -0.7099  0.5839
  546MPD2    H5 8109   4.589   0.416  17.107  0.4003 -0.5851 -0.8905
  546MPD2    N1 8110   4.264   4.669  17.142  0.0677 -0.2615 -0.2380
  546MPD2    H7 8111   4.278   4.588  17.202  1.5013  0.5035  0.4523
  547TMC3    C1 8112   4.072   4.569  17.068 -0.5821 -0.3094 -1.4871
  547TMC3    C2 8113   3.982   4.533  16.970 -0.0986 -0.4618 -0.0860
  547TMC3    C3 8114   3.892   4.439  17.005  0.2815  0.1935  0.5582
  547TMC3    C4 8115   4.063   4.529  17.198 -0.5663  0.6414  0.0471
  547TMC3    C5 8116   3.967   4.435  17.224 -0.3417 -0.1729 -0.3042
  547TMC3    C6 8117   3.880   4.393  17.131  0.6438 -0.0284  0.1384
  547TMC3     C 8118   4.173   4.668  17.042 -0.1083 -0.0016  0.4125
  547TMC3     O 8119   4.150   0.030  16.961  0.4782 -0.1991  0.0389
  547TMC3     H 8120   3.993   4.580  16.873 -0.1059 -1.3205 -0.5057
  547TMC3    H1 8121   4.119   4.568  17.283  1.7867 -0.3484 -1.0369
  547TMC3    H2 8122   3.802   4.323  17.159 -1.5725  1.1609 -3.1146
  547TMC3    C7 8123   3.929   4.406  17.358 -0.7773 -0.1072 -0.5460
  547TMC3    C8 8124   3.789   4.420  16.908  0.2762  0.1964 -0.3517
  547TMC3    O1 8125   3.809   4.395  17.381 -0.0957 -0.7505  0.2618
  547TMC3    O2 8126   3.674   4.410  16.953 -0.0870  0.4291  0.5117
  548MPD2     C 8127   4.025   0.784  11.993 -0.9269 -0.1678 -0.5108
  548MPD2    C1 8128   3.987   0.704  12.099  0.0831  0.0980  0.2211
  548MPD2    C2 8129   4.065   0.587  12.125 -0.5706  0.4026 -0.0194
  548MPD2    C3 8130   4.169   0.554  12.037 -0.0193 -0.4763  0.1830
  548MPD2    C4 8131   4.188   0.623  11.922  0.6369 -0.4414  0.0340
  548MPD2    C5 8132   4.123   0.738  11.911  0.0699 -0.2710 -0.5220
  548MPD2     H 8133   4.051   0.514  12.204 -1.1763  2.3985  1.7301
  548MPD2    H1 8134   4.260   0.598  11.846 -1.1189  0.8350 -2.0389
  548MPD2    H2 8135   3.966   0.874  11.977 -0.0058  0.5843  0.2869
  548MPD2    H3 8136   4.127   0.803  11.824 -0.7974 -1.4770 -1.4555
  548MPD2     N 8137   4.237   0.434  12.073  0.5330 -0.2645 -0.3909
  548MPD2    H5 8138   4.201   0.380  12.151  1.9841 -1.6666 -0.6991
  548MPD2    N1 8139   3.868   0.737  12.177 -0.3905  0.0723  0.0750
  548MPD2    H7 8140   3.817   0.820  12.149 -0.5179  0.2182  0.7190
  549TMC3    C1 8141   3.684   0.682  12.323 -0.4242  0.5993  0.2694
  549TMC3    C2 8142   3.631   0.805  12.329  0.1023  0.1698  0.1647
  549TMC3    C3 8143   3.502   0.824  12.370  0.0949  0.1008  0.0060
  549TMC3    C4 8144   3.614   0.579  12.378  0.2984 -0.0730  0.6922
  549TMC3    C5 8145   3.485   0.597  12.415  0.0813  0.7035  0.4221
  549TMC3    C6 8146   3.424   0.718  12.406  0.3189 -0.2429 -0.1536
  549TMC3     C 8147   3.808   0.640  12.256  0.3900 -0.3739 -0.2746
  549TMC3     O 8148   3.849   0.525  12.287  0.2130  0.0600  0.0703
  549TMC3     H 8149   3.681   0.885  12.276  0.8334 -1.1468 -1.1383
  549TMC3    H1 8150   3.663   0.483  12.390 -2.6306 -1.2170  3.8278
  549TMC3    H2 8151   3.321   0.742  12.433 -0.9415 -3.1694 -2.3311
  549TMC3    C7 8152   3.403   0.500  12.484  0.1000  0.6084  0.0962
  549TMC3    C8 8153   3.427   0.936  12.320  0.6317  0.0132  0.3531
  549TMC3    O1 8154   3.285   0.522  12.500 -0.0454 -0.0536 -0.5138
  549TMC3    O2 8155   3.314   0.910  12.272 -0.0291 -0.1910  0.2093
  550TMC3    C1 8156   2.812   3.440  12.529 -0.0757  0.5132  0.2712
  550TMC3    C2 8157   2.849   3.494  12.650 -0.3431 -0.0024 -0.4983
  550TMC3    C3 8158   2.795   3.610  12.693 -0.1435  0.2163 -0.0644
  550TMC3    C4 8159   2.712   3.494  12.453 -0.1597 -0.1602  0.2719
  550TMC3    C5 8160   2.647   3.608  12.500  0.1045  0.1785  0.1204
  550TMC3    C6 8161   2.695   3.670  12.613  1.2882 -0.0001 -0.2653
  550TMC3     C 8162   2.901   3.341  12.478 -0.2904  0.2543  0.1302
  550TMC3     O 8163   3.006   3.330  12.542 -0.1571 -0.4319 -0.8801
  550TMC3     H 8164   2.902   3.436  12.725 -0.8665 -1.5433 -1.3093
  550TMC3    H1 8165   2.676   3.451  12.360  1.4229 -2.2999  0.6698
  550TMC3    H2 8166   2.649   3.759  12.653  0.0643 -1.0347  0.6252
  550TMC3    C7 8167   2.589   3.684  12.395  0.5124  0.0796  0.2790
  550TMC3    C8 8168   2.833   3.656  12.823  0.1623  0.7346  0.1048
  550TMC3    O1 8169   2.514   3.622  12.317 -0.6485 -0.5539 -0.4514
  550TMC3    O2 8170   2.879   3.580  12.910 -0.7559  0.4085  0.6232
  551TMC3    C1 8171   0.289   1.287  13.709  0.4306 -0.1061 -0.1579
  551TMC3    C2 8172   0.305   1.388  13.622 -0.0046  0.1017  0.6848
  551TMC3    C3 8173   0.395   1.488  13.660 -0.0592  0.2531 -0.2242
  551TMC3    C4 8174   0.356   1.288  13.837  0.1371  0.1189 -0.2019
  551TMC3    C5 8175   0.415   1.416  13.875  0.4077  0.1942 -0.0189
  551TMC3    C6 8176   0.440   1.510  13.784  0.0197  0.3095  0.1850
  551TMC3     C 8177   0.197   1.177  13.685 -0.1474 -0.6745  0.5995
  551TMC3     O 8178   0.197   1.089  13.766 -0.0067  0.3876 -0.1765
  551TMC3     H 8179   0.263   1.387  13.522 -0.2358 -0.0232  0.7838
  551TMC3    H1 8180   0.334   1.220  13.918 -1.3779 -1.4415 -1.9582
  551TMC3    H2 8181   0.489   1.604  13.808 -0.3064  0.2275  1.1360
  551TMC3    C7 8182   0.455   1.444  14.019 -0.3758 -0.4495 -0.2730
  551TMC3    C8 8183   0.429   1.582  13.547 -0.6042  1.0199 -0.1082
  551TMC3    O1 8184   0.487   1.347  14.091  0.8220  0.5638  0.9413
  551TMC3    O2 8185   0.348   1.590  13.452  0.3822 -0.1562  0.2081
  552MPD2     C 8186   2.936   3.363  13.788  0.2451  0.5413  0.3389
  552MPD2    C1 8187   3.001   3.252  13.826 -0.1107  0.8456 -0.5712
  552MPD2    C2 8188   3.127   3.256  13.886 -0.5620 -0.2943  0.6886
  552MPD2    C3 8189   3.181   3.376  13.920  0.1101 -0.5184  0.6784
  552MPD2    C4 8190   3.118   3.485  13.866 -0.3506  0.0939  0.0959
  552MPD2    C5 8191   3.000   3.477  13.798 -0.1023  0.5913 -0.6383
  552MPD2     H 8192   3.168   3.162  13.921  1.4239 -0.0090 -0.8222
  552MPD2    H1 8193   3.157   3.585  13.881 -1.7413  0.3222  2.2555
  552MPD2    H2 8194   2.839   3.362  13.739  2.4821  1.2515 -4.0462
  552MPD2    H3 8195   2.947   3.562  13.757  2.1446  2.6158  0.6511
  552MPD2     N 8196   3.298   3.395  14.003 -0.7480 -0.7528 -0.1502
  552MPD2    H5 8197   3.319   3.493  14.018  0.7172 -1.4410  2.3521
  552MPD2    N1 8198   2.939   3.124  13.820 -0.5645 -0.0503 -0.6478
  552MPD2    H7 8199   3.000   3.045  13.839 -2.7848 -1.7375 -0.5163
  553TMC3    C1 8200   2.778   2.958  13.768 -0.1469  0.3006 -0.0812
  553TMC3    C2 8201   2.668   2.926  13.691  1.0904 -0.3381  0.4683
  553TMC3    C3 8202   2.597   2.815  13.727 -0.6928 -0.0281  0.4893
  553TMC3    C4 8203   2.823   2.887  13.876 -0.3849 -0.1044  0.4103
  553TMC3    C5 8204   2.751   2.771  13.897 -0.4882  0.5492 -0.8082
  553TMC3    C6 8205   2.638   2.736  13.831  0.0171 -0.4105 -0.1302
  553TMC3     C 8206   2.820   3.100  13.759  0.2438  0.5488 -0.1107
  553TMC3     O 8207   2.736   3.176  13.713 -0.3416  0.0279  0.5127
  553TMC3     H 8208   2.629   2.998  13.621  0.4751 -1.3929 -0.2658
  553TMC3    H1 8209   2.896   2.919  13.949 -1.3691  0.3261  1.2208
  553TMC3    H2 8210   2.593   2.641  13.856  2.0986 -1.0229  1.2794
  553TMC3    C7 8211   2.811   2.672  13.988  0.1751 -0.3724 -0.0146
  553TMC3    C8 8212   2.562   2.744  13.609 -0.0584 -0.0763 -0.2718
  553TMC3    O1 8213   2.732   2.580  14.019 -0.0918  0.2758  0.1056
  553TMC3    O2 8214   2.630   2.778  13.517  0.0979  0.2671  0.0455
  554TMC3    C1 8215   4.234   2.276  11.372 -0.3636  0.8903 -0.2136
  554TMC3    C2 8216   4.176   2.233  11.255 -0.0937 -0.4227  0.4899
  554TMC3    C3 8217   4.250   2.259  11.144  0.1925  0.1279  0.1611
  554TMC3    C4 8218   4.353   2.353  11.377 -0.8004  0.7441 -0.1385
  554TMC3    C5 8219   4.420   2.374  11.260 -0.0631  0.3005  0.1664
  554TMC3    C6 8220   4.371   2.328  11.146  0.5339 -0.0031  0.1020
  554TMC3     C 8221   4.191   2.196  11.487 -0.3626 -0.4850 -0.0505
  554TMC3     O 8222   4.101   2.122  11.459  0.2478 -0.0228  0.2346
  554TMC3     H 8223   4.084   2.177  11.243 -1.2958  1.4623  1.0044
  554TMC3    H1 8224   4.397   2.384  11.471 -0.7636 -1.1031  0.4461
  554TMC3    H2 8225   4.422   2.342  11.051 -1.0611 -2.9036 -1.1837
  554TMC3    C7 8226   4.500   2.495  11.242  0.4946  0.1833 -0.4560
  554TMC3    C8 8227   4.191   2.245  11.007  0.1743 -0.9869 -0.4125
  554TMC3    O1 8228   4.593   2.487  11.163 -0.3953 -0.0629 -0.4270
  554TMC3    O2 8229   4.262   2.279  10.915  0.0337 -0.0208  0.5188
  555TMC3    C1 8230   3.290   1.717  14.681 -0.5172 -0.0148  0.5016
  555TMC3    C2 8231   3.222   1.812  14.754  0.3749 -0.5036  0.2055
  555TMC3    C3 8232   3.225   1.799  14.892 -0.5734  0.4824  0.1992
  555TMC3    C4 8233   3.359   1.614  14.740 -0.0798 -0.0616  0.7059
  555TMC3    C5 8234   3.353   1.605  14.876 -0.8891  0.3451 -0.3905
  555TMC3    C6 8235   3.285   1.692  14.957 -0.1614  0.0295 -0.7469
  555TMC3     C 8236   3.275   1.708  14.532 -0.4722 -0.2883 -0.2202
  555TMC3     O 8237   3.358   1.636  14.475  0.2300 -0.5339  0.4799
  555TMC3     H 8238   3.167   1.895  14.712  2.5121  0.6536 -0.3313
  555TMC3    H1 8239   3.425   1.548  14.684 -0.7264 -0.6174  0.5939
  555TMC3    H2 8240   3.271   1.674  15.063  1.5330  0.8589 -0.3966
  555TMC3    C7 8241   3.379   1.482  14.945 -0.2458 -0.4635 -0.0543
  555TMC3    C8 8242   3.182   1.907  14.975  0.0021 -0.5455  0.7586
  555TMC3    O1 8243   3.300   1.450  15.033 -0.5223 -0.3271  0.4152
  555TMC3    O2 8244   3.092   1.985  14.938  0.8101  0.2895  0.4383
  556MPD2     C 8245   1.864   2.625  11.070 -0.0762  0.7817 -0.1700
  556MPD2    C1 8246   1.725   2.640  11.033 -0.3197 -0.1063 -0.1007
  556MPD2    C2 8247   1.673   2.574  10.923 -0.7322 -0.3289 -0.3706
  556MPD2    C3 8248   1.756   2.482  10.859 -0.0795  0.0206 -0.4119
  556MPD2    C4 8249   1.886   2.472  10.897  0.4407  0.4369  0.8239
  556MPD2    C5 8250   1.942   2.538  10.998 -0.0464  0.1850 -0.0670
  556MPD2     H 8251   1.571   2.581  10.888 -1.3283 -1.8951  1.0640
  556MPD2    H1 8252   1.947   2.398  10.845 -0.0337  0.6329 -0.0053
  556MPD2    H2 8253   1.917   2.685  11.144  0.4806 -0.4466  0.4167
  556MPD2    H3 8254   2.049   2.535  11.012 -0.1250 -3.6016 -0.2965
  556MPD2     N 8255   1.695   2.401  10.763 -0.0026 -0.4348  0.1428
  556MPD2    H5 8256   1.595   2.387  10.765  0.3069 -2.9245 -0.6372
  556MPD2    N1 8257   1.642   2.735  11.102  0.0045  0.8237 -0.2057
  556MPD2    H7 8258   1.550   2.753  11.066 -0.7256 -1.4926  0.4898
  557TMC3    C1 8259   1.676   2.222  10.615  0.3455  0.5818 -0.2690
  557TMC3    C2 8260   1.710   2.193  10.487  0.0938 -0.3604  0.9528
  557TMC3    C3 8261   1.611   2.163  10.394  0.0049  0.0253 -0.3786
  557TMC3    C4 8262   1.546   2.229  10.655  0.1262  0.0562  0.3967
  557TMC3    C5 8263   1.453   2.199  10.559  0.4162  0.6136  0.1296
  557TMC3    C6 8264   1.485   2.170  10.428 -0.7315  0.7494 -0.3768
  557TMC3     C 8265   1.757   2.330  10.664  0.0586  0.2599  0.2489
  557TMC3     O 8266   1.872   2.353  10.626  0.6456 -0.2079 -0.4484
  557TMC3     H 8267   1.811   2.192  10.448 -0.1758 -0.9290  0.2590
  557TMC3    H1 8268   1.512   2.226  10.758 -1.6195 -0.1895 -0.1863
  557TMC3    H2 8269   1.407   2.172  10.353  0.1878 -1.2368 -1.3866
  557TMC3    C7 8270   1.318   2.227  10.597 -0.1471  0.0829  0.1123
  557TMC3    C8 8271   1.638   2.181  10.258  0.7084  0.1253 -0.3585
  557TMC3    O1 8272   1.297   2.302  10.693  0.0458  0.2089  0.4720
  557TMC3    O2 8273   1.731   2.256  10.239  0.1813 -0.5677 -0.3715
  558TMC3    C1 8274   3.650   1.107  10.080 -0.2800  0.2817 -1.2483
  558TMC3    C2 8275   3.580   1.172  10.176  0.5969 -0.6326  0.1044
  558TMC3    C3 8276   3.439   1.155  10.170  0.0214 -0.8115 -0.7376
  558TMC3    C4 8277   3.599   1.038   9.972  0.6672 -0.1401  0.4995
  558TMC3    C5 8278   3.462   1.033   9.974 -0.4540  0.3487 -0.1884
  558TMC3    C6 8279   3.380   1.087  10.070 -0.8720  0.5790  0.9377
  558TMC3     C 8280   3.789   1.071  10.111  0.5729  0.2386  0.9243
  558TMC3     O 8281   3.848   1.138  10.194  0.1474 -0.0345  0.0422
  558TMC3     H 8282   3.624   1.202  10.271 -0.8938  1.6943  0.0553
  558TMC3    H1 8283   3.656   1.004   9.886  1.2960 -0.4283  1.0325
  558TMC3    H2 8284   3.274   1.068  10.068 -0.5300 -1.4819  1.8414
  558TMC3    C7 8285   3.392   0.971   9.865 -0.4713 -0.0610 -0.0194
  558TMC3    C8 8286   3.357   1.225  10.270 -0.2830  0.0853 -0.7200
  558TMC3    O1 8287   3.275   0.996   9.856  0.2205 -0.3923  0.0184
  558TMC3    O2 8288   3.257   1.290  10.240 -0.2148  0.1226 -0.0080
  559MPD2     C 8289   3.857   1.890  10.550  0.5020 -0.4641  0.2942
  559MPD2    C1 8290   3.802   1.834  10.662  0.4409 -0.0353  0.1122
  559MPD2    C2 8291   3.875   1.789  10.769  0.6153  0.6858  0.4348
  559MPD2    C3 8292   4.011   1.794  10.765  0.2111 -0.2708  0.3072
  559MPD2    C4 8293   4.066   1.857  10.657  0.1283 -1.0849  0.6350
  559MPD2    C5 8294   3.992   1.900  10.551 -0.4959 -0.4773 -0.4818
  559MPD2     H 8295   3.827   1.749  10.858 -2.1256  2.1324 -0.3756
  559MPD2    H1 8296   4.172   1.875  10.643 -0.8245  3.1786 -1.2291
  559MPD2    H2 8297   3.804   1.914  10.459 -0.3017  2.6969  1.5934
  559MPD2    H3 8298   4.043   1.948  10.469  0.6403 -1.6635 -0.4769
  559MPD2     N 8299   4.083   1.719  10.855  0.4747 -0.3570  0.1422
  559MPD2    H5 8300   4.022   1.660  10.911  0.9091 -0.6958  0.2570
  559MPD2    N1 8301   3.663   1.825  10.666 -0.1497  0.1583  0.6194
  559MPD2    H7 8302   3.604   1.869  10.597  0.9653  0.6577 -0.0134
  560TMC3    C1 8303   4.278   1.609  10.961  0.0102  0.1062 -0.2217
  560TMC3    C2 8304   4.191   1.516  11.006 -0.4110  0.3280  0.4846
  560TMC3    C3 8305   4.230   1.435  11.103 -0.6042  0.1086 -0.4093
  560TMC3    C4 8306   4.401   1.637  11.013  0.1337  0.5599  0.8871
  560TMC3    C5 8307   4.428   1.572  11.133 -0.4638  0.1332 -0.4403
  560TMC3    C6 8308   4.341   1.468  11.174 -0.2803 -0.1761 -0.6708
  560TMC3     C 8309   4.222   1.706  10.863  0.6680  0.5310 -0.1355
  560TMC3     O 8310   4.310   1.784  10.824  0.7757 -0.2218 -0.5207
  560TMC3     H 8311   4.095   1.494  10.960 -1.1985  1.0252  1.7792
  560TMC3    H1 8312   4.457   1.720  10.973  0.1940  1.3890  2.7226
  560TMC3    H2 8313   4.357   1.416  11.267 -1.9379 -3.6949 -2.3509
  560TMC3    C7 8314   4.545   1.599  11.215 -0.2374  0.1100 -0.7602
  560TMC3    C8 8315   4.141   1.337  11.160 -0.0005  0.2074 -0.0495
  560TMC3    O1 8316   4.551   1.547  11.322 -0.0851  0.0514 -0.2490
  560TMC3    O2 8317   4.024   1.370  11.149  0.6759 -0.0916  0.1589
  561TMC3    C1 8318   1.578   0.825  10.809 -0.0848  0.1632 -0.4466
  561TMC3    C2 8319   1.519   0.738  10.900 -0.1465 -0.3371 -0.3659
  561TMC3    C3 8320   1.460   0.790  11.013  0.0476 -0.0924 -0.5007
  561TMC3    C4 8321   1.585   0.959  10.834  0.5908 -0.0356  0.3252
  561TMC3    C5 8322   1.524   1.004  10.953  0.5868  0.5800  0.2298
  561TMC3    C6 8323   1.453   0.927  11.038  0.0175 -0.3442  1.6411
  561TMC3     C 8324   1.645   0.759  10.696  0.0809 -0.1186  0.4254
  561TMC3     O 8325   1.589   0.660  10.656 -0.5218 -0.2517 -0.5930
  561TMC3     H 8326   1.516   0.632  10.877  0.2818 -0.2713 -0.7312
  561TMC3    H1 8327   1.623   1.024  10.755 -1.3642  2.1043  1.1364
  561TMC3    H2 8328   1.404   0.967  11.127 -1.9500  0.5488  0.1668
  561TMC3    C7 8329   1.513   1.144  10.979  0.4748 -0.1529  0.7295
  561TMC3    C8 8330   1.408   0.696  11.109  0.3741  0.4472  0.0570
  561TMC3    O1 8331   1.434   1.177  11.064 -0.1840  0.8050  0.2578
  561TMC3    O2 8332   1.403   0.580  11.071 -0.0952  0.0726  0.2766
  562TMC3    C1 8333   3.388   2.311  16.068  0.2073 -0.2330  0.1582
  562TMC3    C2 8334   3.279   2.365  16.015  0.3622 -0.5563 -0.4203
  562TMC3    C3 8335   3.222   2.304  15.904 -0.2794  0.3084  0.2400
  562TMC3    C4 8336   3.441   2.188  16.020 -0.1749  0.1225  0.5042
  562TMC3    C5 8337   3.384   2.141  15.902  0.0934 -0.1884 -0.2047
  562TMC3    C6 8338   3.269   2.192  15.847 -0.2399 -1.0667 -0.1604
  562TMC3     C 8339   3.425   2.363  16.201 -0.1963 -0.2765  0.9886
  562TMC3     O 8340   3.335   2.380  16.285 -0.0626 -0.0159  0.2693
  562TMC3     H 8341   3.228   2.451  16.057  0.6085 -1.0268  0.8384
  562TMC3    H1 8342   3.512   2.128  16.076  0.2750  0.6898  0.5471
  562TMC3    H2 8343   3.230   2.154  15.754  1.3201 -1.0627 -0.8118
  562TMC3    C7 8344   3.432   2.010  15.871 -0.1474  0.8087 -0.7531
  562TMC3    C8 8345   3.126   2.377  15.830  0.3035 -0.4995  0.4516
  562TMC3    O1 8346   3.449   1.929  15.963  0.0133  0.1581 -0.6154
  562TMC3    O2 8347   3.036   2.414  15.903 -0.4081 -0.4219 -0.4447
  563MPD2     C 8348   0.712   3.643  15.430 -0.4463 -0.3930  0.2680
  563MPD2    C1 8349   0.738   3.588  15.552  0.3935  0.1790  0.2278
  563MPD2    C2 8350   0.812   3.474  15.559 -0.0957  0.3172  0.6612
  563MPD2    C3 8351   0.896   3.429  15.454  0.2889 -0.5605 -0.6331
  563MPD2    C4 8352   0.876   3.487  15.337 -0.8220  0.4789 -0.2161
  563MPD2    C5 8353   0.780   3.586  15.326 -0.6274 -0.1072  0.0988
  563MPD2     H 8354   0.805   3.423  15.654 -1.6614 -1.9062 -0.6649
  563MPD2    H1 8355   0.910   3.445  15.243  1.1596  3.5504 -0.8739
  563MPD2    H2 8356   0.642   3.725  15.424  0.3252  0.2447 -0.0005
  563MPD2    H3 8357   0.764   3.625  15.227  1.8530  2.8889  0.8629
  563MPD2     N 8358   0.978   3.321  15.483 -0.0220  0.7827 -0.2085
  563MPD2    H5 8359   0.964   3.278  15.574 -1.6296  0.7456 -0.4641
  563MPD2    N1 8360   0.649   3.632  15.659 -0.2177 -0.2882  0.0402
  563MPD2    H7 8361   0.570   3.690  15.635 -1.3346 -0.9309  2.1622
  564TMC3    C1 8362   0.554   3.576  15.865  0.5902 -0.0543  0.0502
  564TMC3    C2 8363   0.457   3.514  15.788  0.0421  0.2430  0.3272
  564TMC3    C3 8364   0.368   3.429  15.840 -0.0100 -1.0116 -0.2326
  564TMC3    C4 8365   0.574   3.521  15.987  0.3674 -0.1704  0.2561
  564TMC3    C5 8366   0.488   3.425  16.038  0.2775  0.1272 -0.5325
  564TMC3    C6 8367   0.381   3.383  15.970  0.2596  0.3050 -0.0859
  564TMC3     C 8368   0.671   3.619  15.795  0.0118  0.2398 -0.7054
  564TMC3     O 8369   0.781   3.591  15.836 -0.0572  0.4463  0.5727
  564TMC3     H 8370   0.426   3.557  15.693 -1.1464  0.5307  0.8496
  564TMC3    H1 8371   0.668   3.537  16.038 -0.7342 -0.3853  2.3637
  564TMC3    H2 8372   0.308   3.314  16.010 -0.9346  1.4606 -0.2819
  564TMC3    C7 8373   0.566   3.316  16.091  0.0197 -0.8195 -0.1596
  564TMC3    C8 8374   0.336   3.319  15.748 -0.2850  0.0111 -0.6818
  564TMC3    O1 8375   0.654   3.350  16.171  0.0221 -0.1093 -0.0340
  564TMC3    O2 8376   0.314   3.210  15.805 -0.1512  0.4009 -0.5057
  565TMC3    C1 8377   0.815   4.679   9.982  0.4995  0.2790 -0.8619
  565TMC3    C2 8378   0.787   4.554  10.024  0.6307  1.0134  0.2550
  565TMC3    C3 8379   0.717   4.469   9.945  0.6553  0.3213 -0.1897
  565TMC3    C4 8380   0.804   4.706   9.852  0.5873  0.2869  0.1616
  565TMC3    C5 8381   0.743   4.612   9.767  0.1499 -0.5015 -0.2191
  565TMC3    C6 8382   0.697   4.498   9.813  0.0011  1.3941  0.4888
  565TMC3     C 8383   0.914   0.029  10.059  0.1678  0.1369  0.5920
  565TMC3     O 8384   0.990   0.105   9.999  0.2524 -0.4912  0.8539
  565TMC3     H 8385   0.801   4.527  10.128 -0.1305 -1.8409 -0.3627
  565TMC3    H1 8386   0.855   0.065   9.809  0.1415 -0.6852 -2.3233
  565TMC3    H2 8387   0.668   4.421   9.743  0.1720  1.1251  0.7157
  565TMC3    C7 8388   0.754   4.627   9.620 -0.0174  0.8115  0.1095
  565TMC3    C8 8389   0.691   4.333   9.985 -0.1927 -0.5716 -0.1587
  565TMC3    O1 8390   0.734   4.528   9.557  0.1535 -0.7714  0.4691
  565TMC3    O2 8391   0.758   4.304  10.082 -0.3414  0.2837  0.4260
  566MPD2     C 8392   2.813   1.253  14.014 -0.0781 -0.2550  0.3729
  566MPD2    C1 8393   2.898   1.354  13.967  0.1005  0.3496  0.1423
  566MPD2    C2 8394   2.841   1.468  13.915  0.3552 -0.4352 -0.6190
  566MPD2    C3 8395   2.705   1.483  13.888 -0.2617 -0.3412 -0.0267
  566MPD2    C4 8396   2.628   1.372  13.917 -0.5016  0.6069 -0.2096
  566MPD2    C5 8397   2.683   1.268  13.986 -0.0436  0.1013  0.2376
  566MPD2     H 8398   2.915   1.546  13.898 -2.5229  2.0773 -1.8061
  566MPD2    H1 8399   2.521   1.366  13.897 -0.7195  0.2603  1.0215
  566MPD2    H2 8400   2.857   1.165  14.059 -0.6927 -1.4760 -1.3905
  566MPD2    H3 8401   2.610   1.195  14.020  1.7735 -1.6984  0.3071
  566MPD2     N 8402   2.649   1.598  13.833 -0.0304  0.2892 -0.2142
  566MPD2    H5 8403   2.553   1.593  13.799 -0.3422 -1.1553  0.8455
  566MPD2    N1 8404   3.034   1.336  13.980  0.3164  0.1116  0.2767
  566MPD2    H7 8405   3.065   1.247  14.017  0.2416 -1.2509 -2.9729
  567TMC3    C1 8406   3.257   1.401  14.001 -0.6362 -0.1611 -1.0953
  567TMC3    C2 8407   3.360   1.476  13.950  0.9455  0.7681  1.1150
  567TMC3    C3 8408   3.471   1.485  14.025  0.5236  0.4387  0.0406
  567TMC3    C4 8409   3.258   1.342  14.122 -0.1748 -0.1143 -0.5816
  567TMC3    C5 8410   3.374   1.348  14.194  0.2687 -0.8980  0.0054
  567TMC3    C6 8411   3.481   1.422  14.145 -0.6266  0.4650 -0.7830
  567TMC3     C 8412   3.130   1.413  13.930  0.1713 -0.6999  0.0997
  567TMC3     O 8413   3.123   1.503  13.844  0.8034  0.1106 -0.8282
  567TMC3     H 8414   3.345   1.537  13.861  3.8166 -1.4043 -0.8470
  567TMC3    H1 8415   3.172   1.294  14.168 -1.1665  1.2527 -1.0173
  567TMC3    H2 8416   3.575   1.418  14.200 -0.2647 -2.0062 -1.6079
  567TMC3    C7 8417   3.389   1.281  14.327 -0.0750 -0.7841  0.2033
  567TMC3    C8 8418   3.544   1.607  13.999  0.6645  0.1403 -0.0453
  567TMC3    O1 8419   3.499   1.249  14.364 -0.7203 -0.2807  0.0299
  567TMC3    O2 8420   3.526   1.651  13.886  0.4673 -0.0083  0.5743
  568MPD2     C 8421   0.677   2.107  16.098  0.1234  0.2607 -0.4567
  568MPD2    C1 8422   0.564   2.172  16.136  0.0138 -0.2832 -0.4926
  568MPD2    C2 8423   0.496   2.248  16.047  0.4012 -0.1446 -0.4432
  568MPD2    C3 8424   0.522   2.237  15.912 -0.4998  0.0476  0.4052
  568MPD2    C4 8425   0.631   2.164  15.871 -0.6914  0.4804  0.2626
  568MPD2    C5 8426   0.712   2.108  15.969 -0.7088  0.0634 -0.2737
  568MPD2     H 8427   0.405   2.302  16.071  0.7660  2.0197 -3.8839
  568MPD2    H1 8428   0.663   2.163  15.767  2.8435 -1.3149  1.3401
  568MPD2    H2 8429   0.736   2.053  16.171  1.6026 -0.1263 -1.9433
  568MPD2    H3 8430   0.795   2.045  15.940  1.2774  1.9077  1.3495
  568MPD2     N 8431   0.432   2.300  15.816  0.6252  0.5637  0.1587
  568MPD2    H5 8432   0.352   2.355  15.847  0.4935  1.3457 -1.5591
  568MPD2    N1 8433   0.519   2.184  16.266 -0.0987  0.3251  0.0103
  568MPD2    H7 8434   0.432   2.234  16.283 -1.0589 -1.0378 -0.8930
  569TMC3    C1 8435   0.360   2.400  15.610  0.0221 -0.6727 -0.0167
  569TMC3    C2 8436   0.249   2.419  15.688  0.6968 -0.4604  0.0240
  569TMC3    C3 8437   0.214   2.547  15.725 -0.2366 -0.7466 -0.6156
  569TMC3    C4 8438   0.428   2.510  15.555 -0.0242  0.0443 -0.5546
  569TMC3    C5 8439   0.384   2.630  15.580  0.6223  0.2776  0.0561
  569TMC3    C6 8440   0.281   2.655  15.668 -0.2337 -0.3637  0.2522
  569TMC3     C 8441   0.451   2.308  15.672  0.0520  0.2430  0.1946
  569TMC3     O 8442   0.557   2.292  15.615  0.2806 -0.9012  0.2198
  569TMC3     H 8443   0.189   2.339  15.727  0.5335  0.0913  0.8955
  569TMC3    H1 8444   0.515   2.489  15.494  0.1953  0.3242 -0.3426
  569TMC3    H2 8445   0.236   2.752  15.686 -1.2414 -0.9813  1.1339
  569TMC3    C7 8446   0.454   2.734  15.521 -0.1540  0.6937 -0.6238
  569TMC3    C8 8447   0.209   2.558  15.869 -0.0039 -0.9538 -0.5560
  569TMC3    O1 8448   0.568   2.718  15.475  0.3490  0.0196  0.4064
  569TMC3    O2 8449   0.183   2.458  15.935 -1.0315  0.0321  0.0029
  570TMC3    C1 8450   4.242   0.958  16.129  0.1232 -0.2372  0.5871
  570TMC3    C2 8451   4.356   0.878  16.092 -0.0857  0.4762  0.2263
  570TMC3    C3 8452   4.426   0.905  15.979 -0.0014  1.2187  0.4529
  570TMC3    C4 8453   4.199   1.065  16.057 -0.0989  0.1282  0.5502
  570TMC3    C5 8454   4.265   1.080  15.937  0.3760  0.0430  0.0493
  570TMC3    C6 8455   4.372   0.998  15.893  0.3601 -0.0409  0.5573
  570TMC3     C 8456   4.163   0.929  16.248 -0.2369 -0.2439 -0.2495
  570TMC3     O 8457   4.147   0.812  16.285  0.0770  0.1040 -0.0958
  570TMC3     H 8458   4.380   0.790  16.152 -1.7190 -2.0937 -2.8781
  570TMC3    H1 8459   4.107   1.117  16.077 -0.1019  0.1223  0.5516
  570TMC3    H2 8460   4.409   1.002  15.791  0.5026 -0.8792  0.5781
  570TMC3    C7 8461   4.258   1.210  15.879  0.2249  0.3153  0.6744
  570TMC3    C8 8462   4.553   0.840  15.955 -0.2544 -0.0366 -0.3377
  570TMC3    O1 8463   4.206   1.294  15.951 -0.2319 -0.0486 -0.0664
  570TMC3    O2 8464   4.562   0.729  16.010  0.6319 -0.5578  0.4737
  571MPD2     C 8465   2.183   2.378   0.085 -0.5504  0.4552 -0.0579
  571MPD2    C1 8466   2.163   2.506   0.136 -0.3391  0.9858 -0.6153
  571MPD2    C2 8467   2.222   2.608   0.064  0.0660  0.1381 -0.1889
  571MPD2    C3 8468   2.270   2.587  17.642  0.1577 -0.0922 -0.1781
  571MPD2    C4 8469   2.276   2.457  17.592  0.5003 -0.3158  0.2133
  571MPD2    C5 8470   2.241   2.352  17.672 -0.9757  0.5252 -0.0021
  571MPD2     H 8471   2.230   2.713   0.092 -0.3493  0.1143  0.0098
  571MPD2    H1 8472   2.316   2.431  17.495  0.1783  1.0398 -0.2778
  571MPD2    H2 8473   2.153   2.289   0.139 -2.5174  0.8706 -0.4637
  571MPD2    H3 8474   2.245   2.248  17.641  1.0684  0.4609  0.4805
  571MPD2     N 8475   2.313   2.689  17.556  0.2186  0.3168 -0.4884
  571MPD2    H5 8476   2.329   2.664  17.459 -4.2910  0.8060 -1.3573
  571MPD2    N1 8477   2.082   2.524   0.251 -0.5066 -0.1639  0.4692
  571MPD2    H7 8478   2.039   2.441   0.290  0.8521 -1.1884 -0.1957
  572TMC3    C1 8479   2.354   2.914  17.489 -0.3907 -0.7788 -0.6180
  572TMC3    C2 8480   2.291   2.883  17.375 -0.4914  0.2300  0.1141
  572TMC3    C3 8481   2.266   2.992  17.289 -0.8072 -1.2635 -0.2933
  572TMC3    C4 8482   2.406   3.035  17.516 -0.4441 -0.2876 -0.0015
  572TMC3    C5 8483   2.402   3.134  17.419  0.6847  0.2913  0.0535
  572TMC3    C6 8484   2.327   3.111  17.308 -0.0422 -0.2465 -0.2984
  572TMC3     C 8485   2.345   2.818  17.599 -0.3668 -0.1863 -0.2126
  572TMC3     O 8486   2.367   2.863   0.007  0.8054  0.2012 -0.2497
  572TMC3     H 8487   2.209   2.811  17.373 -0.5694  0.3248 -0.0983
  572TMC3    H1 8488   2.436   3.060  17.617  1.8316 -0.3992 -0.6673
  572TMC3    H2 8489   2.323   3.187  17.230  2.0868 -0.1888 -0.3496
  572TMC3    C7 8490   2.414   3.279  17.449  0.7567 -0.0109 -0.7151
  572TMC3    C8 8491   2.127   3.008  17.256 -0.7406  0.3249  0.3576
  572TMC3    O1 8492   2.373   3.357  17.363 -0.0059  0.5111  0.7000
  572TMC3    O2 8493   2.109   3.018  17.133 -0.1094  0.6294 -0.5377
  573MPD2     C 8494   4.089   3.274   1.294 -0.3551 -0.0680 -0.2153
  573MPD2    C1 8495   4.145   3.328   1.178  0.5255 -0.6278 -0.1714
  573MPD2    C2 8496   4.067   3.363   1.069  0.2490  1.2051  0.7620
  573MPD2    C3 8497   3.932   3.380   1.095 -0.4294 -0.6843  0.2124
  573MPD2    C4 8498   3.878   3.331   1.213 -0.2277 -0.0912  0.3020
  573MPD2    C5 8499   3.958   3.272   1.309  0.2401 -0.3266  0.0429
  573MPD2     H 8500   4.114   3.393   0.976 -0.0235 -0.1276  0.1941
  573MPD2    H1 8501   3.771   3.328   1.231 -0.6025 -1.5570 -2.1633
  573MPD2    H2 8502   4.160   3.250   1.373 -2.5479  1.8914  2.3578
  573MPD2    H3 8503   3.913   3.250   1.405  1.7116 -0.7967  0.6279
  573MPD2     N 8504   3.853   3.435   1.000  0.1031 -0.4725 -0.2772
  573MPD2    H5 8505   3.891   3.436   0.906  1.1752 -0.4269  0.1577
  573MPD2    N1 8506   4.284   3.347   1.184  0.1562  0.1906  0.0223
  573MPD2    H7 8507   4.328   3.315   1.269  0.3295 -1.9339 -0.8705
  574TMC3    C1 8508   3.662   3.517   0.891  0.3849  0.1407 -0.1142
  574TMC3    C2 8509   3.529   3.492   0.877  0.4967  0.7778 -0.3725
  574TMC3    C3 8510   3.475   3.521   0.761  0.0016  0.0012  0.1316
  574TMC3    C4 8511   3.737   3.583   0.792  0.9948  0.4733 -0.7422
  574TMC3    C5 8512   3.677   3.602   0.669  0.6176  0.4999 -0.1164
  574TMC3    C6 8513   3.547   3.567   0.651 -0.1438  0.9780 -0.0846
  574TMC3     C 8514   3.721   3.457   1.015 -0.7817 -0.4439  0.0306
  574TMC3     O 8515   3.644   3.456   1.112  0.0817  0.3287  0.0124
  574TMC3     H 8516   3.473   3.440   0.953  0.2170  2.0702  0.2984
  574TMC3    H1 8517   3.844   3.592   0.807  0.5904  1.5522  1.4295
  574TMC3    H2 8518   3.502   3.595   0.556 -0.5424  1.3227  0.2079
  574TMC3    C7 8519   3.755   3.647   0.555 -0.2704 -0.6935  0.5115
  574TMC3    C8 8520   3.342   3.464   0.744  0.0935  0.4619 -0.2275
  574TMC3    O1 8521   3.697   3.629   0.449  0.7558 -0.4367  1.0942
  574TMC3    O2 8522   3.287   3.403   0.833  0.1569 -0.0784  0.0736
  575TMC3    C1 8523   0.997   3.694  10.433 -0.6192  0.4821 -0.4152
  575TMC3    C2 8524   0.978   3.561  10.397 -0.0104 -0.0928  0.0253
  575TMC3    C3 8525   0.868   3.531  10.316  0.0357 -0.2593  0.0443
  575TMC3    C4 8526   0.900   3.780  10.395  0.5965  0.3321 -0.4059
  575TMC3    C5 8527   0.799   3.750  10.305 -0.3350  0.0946 -0.2441
  575TMC3    C6 8528   0.780   3.626  10.260 -0.1957 -0.4675  0.2779
  575TMC3     C 8529   1.088   3.714  10.547 -1.0281  0.0606  1.0550
  575TMC3     O 8530   1.174   3.626  10.572  0.3183  0.0932  0.1352
  575TMC3     H 8531   1.050   3.486  10.427  2.2394  1.2964 -1.9359
  575TMC3    H1 8532   0.906   3.884  10.424  0.3740 -0.1586  1.3848
  575TMC3    H2 8533   0.711   3.594  10.182 -1.0987  0.0277  0.8715
  575TMC3    C7 8534   0.730   3.864  10.251  0.1939 -0.4781  0.0645
  575TMC3    C8 8535   0.858   3.402  10.255  1.0743 -0.9480  0.2086
  575TMC3    O1 8536   0.771   3.974  10.289 -0.2770 -0.3914 -0.4279
  575TMC3    O2 8537   0.751   3.380  10.200  0.4430  0.2563 -0.1785
  576MPD2     C 8538   0.950   0.750  12.540 -0.6697  0.4961 -0.5156
  576MPD2    C1 8539   0.973   0.875  12.481  0.6890 -0.7101  0.6333
  576MPD2    C2 8540   0.935   0.993  12.546  0.4167  0.1961 -0.3937
  576MPD2    C3 8541   0.869   0.991  12.665  0.3141 -1.0512  0.1056
  576MPD2    C4 8542   0.835   0.864  12.715 -0.2406  0.3075  0.5581
  576MPD2    C5 8543   0.867   0.749  12.654 -0.7111 -0.1759 -0.1332
  576MPD2     H 8544   0.953   1.087  12.496 -0.0381  0.7861  0.5591
  576MPD2    H1 8545   0.765   0.862  12.799 -1.3843  1.8421 -0.3755
  576MPD2    H2 8546   0.973   0.656  12.490  0.8033  0.2277  0.6575
  576MPD2    H3 8547   0.831   0.658  12.702  0.2229  0.3826  1.6029
  576MPD2     N 8548   0.830   1.116  12.730  0.2003 -0.5362 -0.0159
  576MPD2    H5 8549   0.850   1.204  12.684 -0.1443 -0.3624  0.1651
  576MPD2    N1 8550   1.021   0.889  12.352 -1.2487 -0.2437 -0.4875
  576MPD2    H7 8551   1.035   0.985  12.324  0.3661 -0.1908  0.4854
  577TMC3    C1 8552   1.113   0.842  12.135  0.2375  0.6137  0.3750
  577TMC3    C2 8553   1.182   0.759  12.045 -0.6213 -0.0871 -0.2080
  577TMC3    C3 8554   1.225   0.812  11.924  0.0993  0.5914 -0.2671
  577TMC3    C4 8555   1.073   0.970  12.095  0.2031  0.4715  0.7608
  577TMC3    C5 8556   1.113   1.009  11.967 -0.7966  0.2931 -0.4797
  577TMC3    C6 8557   1.201   0.948  11.885  0.0691  0.4121 -0.1222
  577TMC3     C 8558   1.061   0.792  12.260 -0.1005 -0.7256 -0.2529
  577TMC3     O 8559   1.074   0.671  12.281 -0.0194 -0.2698  0.3885
  577TMC3     H 8560   1.208   0.657  12.071 -0.8543  0.7349  3.1728
  577TMC3    H1 8561   1.006   1.031  12.156 -0.3749  0.9448 -0.3508
  577TMC3    H2 8562   1.246   0.986  11.794  4.3872 -1.8391  1.1089
  577TMC3    C7 8563   1.127   1.152  11.956  0.8512 -0.9604  0.2027
  577TMC3    C8 8564   1.283   0.718  11.831  0.1752  0.3758 -0.3793
  577TMC3    O1 8565   1.121   1.214  12.061  0.2735  0.1029 -0.0015
  577TMC3    O2 8566   1.315   0.610  11.877 -0.0250 -0.1163 -0.0325
  578MPD2     C 8567   4.127   0.999   1.419 -0.0148 -0.2928 -0.0938
  578MPD2    C1 8568   4.102   0.963   1.290 -0.5110  0.7479  0.6136
  578MPD2    C2 8569   4.159   0.841   1.242  0.3259 -0.2705 -0.4432
  578MPD2    C3 8570   4.267   0.792   1.308 -0.6091  0.0297 -0.3437
  578MPD2    C4 8571   4.305   0.838   1.440  0.7399  0.3207 -0.2938
  578MPD2    C5 8572   4.230   0.938   1.491  0.1027 -0.0071 -0.6864
  578MPD2     H 8573   4.145   0.802   1.142 -0.1491 -0.3208 -0.3591
  578MPD2    H1 8574   4.391   0.804   1.497 -0.1051 -2.5114 -0.7601
  578MPD2    H2 8575   4.081   1.087   1.463  1.6681  0.0690  0.9597
  578MPD2    H3 8576   4.257   0.975   1.590 -0.4912 -2.5031  0.4142
  578MPD2     N 8577   4.341   0.692   1.232 -0.6879 -0.5975 -0.1919
  578MPD2    H5 8578   4.290   0.646   1.157 -3.1040  1.8136 -0.0616
  578MPD2    N1 8579   4.020   1.043   1.215  0.8840 -0.2243 -0.2919
  578MPD2    H7 8580   3.985   1.132   1.250 -0.7742 -0.7248 -0.7157
  579TMC3    C1 8581   4.537   0.585   1.158  0.3053  0.5876  0.5497
  579TMC3    C2 8582   4.674   0.601   1.152  0.2742  0.1308  0.3788
  579TMC3    C3 8583   0.015   0.522   1.058  0.5873  0.1203 -0.4204
  579TMC3    C4 8584   4.467   0.486   1.088  0.0258  0.3240 -0.0662
  579TMC3    C5 8585   4.547   0.404   1.020 -0.5152 -0.2086 -0.7336
  579TMC3    C6 8586   4.680   0.421   0.990 -0.1083  0.0197  0.2227
  579TMC3     C 8587   4.477   0.670   1.250 -0.6316 -0.0901  0.1219
  579TMC3     O 8588   4.555   0.729   1.325 -0.0447  0.3941  0.1169
  579TMC3     H 8589   4.726   0.685   1.198  2.0796  0.6658 -2.6500
  579TMC3    H1 8590   4.364   0.464   1.112 -0.4122  1.8271 -0.5786
  579TMC3    H2 8591   4.725   0.367   0.908 -1.1516  0.5975 -0.7373
  579TMC3    C7 8592   4.484   0.295   0.950 -1.1587  0.2455  0.1183
  579TMC3    C8 8593   0.152   0.562   1.024  0.8842  0.4293  0.1025
  579TMC3    O1 8594   4.555   0.202   0.913 -0.0213  0.7822 -0.4324
  579TMC3    O2 8595   0.232   0.475   0.985  0.0082 -0.0533  0.4170
  580TMC3    C1 8596   3.049   0.172  11.802 -0.6290 -0.2878 -0.0466
  580TMC3    C2 8597   3.060   0.138  11.667  0.5069  0.2390  0.2502
  580TMC3    C3 8598   3.135   0.031  11.626 -0.2926 -0.4200  0.8894
  580TMC3    C4 8599   3.114   0.090  11.893  0.6384 -0.1528  0.7129
  580TMC3    C5 8600   3.177   4.703  11.846  0.0149  0.1047 -0.2283
  580TMC3    C6 8601   3.191   4.667  11.713  0.2958  0.7895 -0.3067
  580TMC3     C 8602   3.085   0.313  11.815  0.7628 -0.3618 -0.1479
  580TMC3     O 8603   3.204   0.338  11.823 -0.0119 -0.1229  0.5151
  580TMC3     H 8604   3.034   0.211  11.590  1.6329  0.8501  0.4554
  580TMC3    H1 8605   3.123   0.126  11.995 -0.3882  0.1193  0.7099
  580TMC3    H2 8606   3.258   4.589  11.679 -0.6095  0.0366 -0.3532
  580TMC3    C7 8607   3.222   4.618  11.958  0.9752 -0.1013 -0.2438
  580TMC3    C8 8608   3.232   0.090  11.550  0.3317  0.7463  0.3062
  580TMC3    O1 8609   3.246   4.669  12.066  0.4078 -0.4204 -0.0284
  580TMC3    O2 8610   3.201   0.130  11.441  0.2989  0.4263  0.2155
  581MPD2     C 8611   1.743   0.674  15.402 -0.6053  0.7013 -0.2331
  581MPD2    C1 8612   1.771   0.571  15.316  0.5794 -0.2074 -0.1734
  581MPD2    C2 8613   1.674   0.527  15.229 -0.3718  0.5197  0.1551
  581MPD2    C3 8614   1.544   0.575  15.234  0.0290  0.3943 -0.1052
  581MPD2    C4 8615   1.509   0.669  15.331 -0.3210  0.2456  0.9303
  581MPD2    C5 8616   1.613   0.719  15.408  0.3795  0.5061  0.4070
  581MPD2     H 8617   1.700   0.446  15.162  0.9071  1.6276 -0.6832
  581MPD2    H1 8618   1.416   0.724  15.331  0.3358  1.3776  2.2549
  581MPD2    H2 8619   1.822   0.705  15.469 -0.4756  0.3140 -0.2096
  581MPD2    H3 8620   1.585   0.799  15.476  4.2931  2.9054 -0.8253
  581MPD2     N 8621   1.447   0.519  15.142  0.0804  0.2862  0.2853
  581MPD2    H5 8622   1.478   0.445  15.081  1.1750  1.2625 -0.3255
  581MPD2    N1 8623   1.903   0.519  15.319  0.2241  0.1517  0.1442
  581MPD2    H7 8624   1.962   0.552  15.395 -1.1034  2.0008  0.3666
  582TMC3    C1 8625   2.075   0.359  15.298 -0.2947 -0.2330  0.0658
  582TMC3    C2 8626   2.095   0.363  15.428 -0.8452 -0.3827  0.3972
  582TMC3    C3 8627   2.162   0.261  15.489 -0.1020  0.1646 -0.6441
  582TMC3    C4 8628   2.133   0.269  15.214 -0.1213  0.2296 -0.2433
  582TMC3    C5 8629   2.194   0.156  15.271 -0.6859  0.2640  0.1686
  582TMC3    C6 8630   2.211   0.155  15.411  0.5268  0.2575 -0.4462
  582TMC3     C 8631   1.954   0.422  15.239 -0.6374  0.3269  0.5091
  582TMC3     O 8632   1.909   0.376  15.139  0.5455  0.6822 -0.5067
  582TMC3     H 8633   2.044   0.434  15.493 -0.2071 -0.8661  1.4213
  582TMC3    H1 8634   2.109   0.266  15.109 -2.4507 -2.1047  0.3695
  582TMC3    H2 8635   2.239   0.067  15.467  2.0865  1.0217 -0.0453
  582TMC3    C7 8636   2.166   0.019  15.221 -0.4664 -0.1859 -0.6066
  582TMC3    C8 8637   2.131   0.229  15.621 -0.9523  0.2462  0.0376
  582TMC3    O1 8638   2.235   4.651  15.256  0.3024  0.5359 -0.1697
  582TMC3    O2 8639   2.022   0.260  15.661 -0.2410 -0.9715 -0.1427
  583MPD2     C 8640   1.869   1.641  16.754 -0.8067 -0.0152 -0.3010
  583MPD2    C1 8641   1.873   1.732  16.656  0.2266 -0.2046 -0.6364
  583MPD2    C2 8642   1.852   1.866  16.695  0.1651  0.1662 -0.0999
  583MPD2    C3 8643   1.827   1.898  16.824 -0.2919 -0.0486 -0.0366
  583MPD2    C4 8644   1.842   1.802  16.923  0.1842  0.1218 -0.7122
  583MPD2    C5 8645   1.857   1.671  16.886 -0.9959  0.9105 -0.1011
  583MPD2     H 8646   1.857   1.951  16.628  1.5896  1.7084  1.9722
  583MPD2    H1 8647   1.860   1.830  17.026  1.0198  0.6563 -1.0062
  583MPD2    H2 8648   1.880   1.535  16.734  0.3038 -0.2608  1.5813
  583MPD2    H3 8649   1.853   1.598  16.967 -0.2084  1.3627  0.3511
  583MPD2     N 8650   1.807   2.036  16.857 -0.1431  0.7203 -0.1416
  583MPD2    H5 8651   1.816   2.100  16.779 -1.2965 -0.3366 -1.1344
  583MPD2    N1 8652   1.915   1.701  16.523 -0.1420 -0.4049 -0.2710
  583MPD2    H7 8653   1.936   1.779  16.461 -0.6273  0.2007  0.3299
  584TMC3    C1 8654   1.749   2.228  16.999  0.3414  0.3700 -0.3881
  584TMC3    C2 8655   1.708   2.301  16.893 -0.1792  1.1516  0.6648
  584TMC3    C3 8656   1.643   2.426  16.911  0.2306  0.0245 -0.9434
  584TMC3    C4 8657   1.735   2.281  17.125 -0.4130 -0.2783  0.1441
  584TMC3    C5 8658   1.684   2.406  17.137  0.1677  0.3296  0.5442
  584TMC3    C6 8659   1.635   2.483  17.031 -0.3483  0.3365  0.1465
  584TMC3     C 8660   1.763   2.080  16.983 -0.2514  0.0635  0.5907
  584TMC3     O 8661   1.750   2.016  17.087  0.4161 -0.0562  0.2493
  584TMC3     H 8662   1.676   2.247  16.804  0.3352 -0.2735  1.3538
  584TMC3    H1 8663   1.763   2.220  17.210  0.2569 -2.0576 -1.3435
  584TMC3    H2 8664   1.586   2.579  17.042 -1.4044 -0.0002 -1.6513
  584TMC3    C7 8665   1.647   2.445  17.271  0.7132 -0.1335  0.0971
  584TMC3    C8 8666   1.632   2.506  16.783 -0.0745  0.1007  0.8882
  584TMC3    O1 8667   1.648   2.361  17.357 -0.1117 -0.3906  0.0424
  584TMC3    O2 8668   1.606   2.451  16.679  0.2861  0.1860  0.0061
  585MPD2     C 8669   1.427   1.276   0.157 -0.4997 -0.5801 -0.3690
  585MPD2    C1 8670   1.315   1.307   0.077  0.2089  0.2055 -0.4889
  585MPD2    C2 8671   1.260   1.204  17.702  0.5515  0.4296 -0.0092
  585MPD2    C3 8672   1.319   1.083  17.694  0.5841 -0.1977  0.0968
  585MPD2    C4 8673   1.421   1.058   0.069 -0.0803 -0.0315  0.5083
  585MPD2    C5 8674   1.479   1.148   0.147  0.9370 -0.5564  0.0446
  585MPD2     H 8675   1.179   1.228  17.634  1.3476 -0.1780 -1.1690
  585MPD2    H1 8676   1.478   0.969   0.044  1.6347  0.8172  1.4197
  585MPD2    H2 8677   1.472   1.350   0.223 -1.8203 -1.6740  1.7601
  585MPD2    H3 8678   1.564   1.116   0.206 -0.4480 -3.5558  0.4025
  585MPD2     N 8679   1.271   0.985  17.616  0.0822 -0.7394  0.5876
  585MPD2    H5 8680   1.304   0.889  17.628  1.9621 -0.2088 -0.5097
  585MPD2    N1 8681   1.269   1.439   0.087 -0.3407  0.0552  0.3107
  585MPD2    H7 8682   1.327   1.504   0.139 -2.8933  2.3872  0.2051
  586TMC3    C1 8683   1.124   0.880  17.459 -0.6246  0.3202 -0.0764
  586TMC3    C2 8684   1.178   0.755  17.500  0.0384 -0.1282 -0.2146
  586TMC3    C3 8685   1.126   0.644  17.439  0.2686 -0.1853  0.3055
  586TMC3    C4 8686   1.045   0.894  17.347 -0.5401  0.4866  0.1696
  586TMC3    C5 8687   1.012   0.773  17.286 -0.7188 -0.1079 -0.5370
  586TMC3    C6 8688   1.048   0.652  17.327 -0.2019 -0.1232  0.4826
  586TMC3     C 8689   1.181   1.000  17.516 -0.2187 -0.0973 -0.8395
  586TMC3     O 8690   1.151   1.104  17.464 -0.5662 -0.1192 -0.1110
  586TMC3     H 8691   1.246   0.744  17.584  0.0088  0.4513 -0.1203
  586TMC3    H1 8692   1.014   0.991  17.309  2.0077  0.9604 -0.7076
  586TMC3    H2 8693   0.998   0.567  17.282 -2.6420  0.3310  2.3533
  586TMC3    C7 8694   0.898   0.769  17.199 -0.3412 -0.1738  0.1226
  586TMC3    C8 8695   1.156   0.515  17.486  0.2268  1.3723 -0.2447
  586TMC3    O1 8696   0.811   0.688  17.234 -0.4582 -0.1492 -0.0584
  586TMC3    O2 8697   1.108   0.417  17.425  0.5576 -0.1018  0.5560
  587TMC3    C1 8698   2.937   4.207  16.159  0.1594 -0.0738  1.0189
  587TMC3    C2 8699   2.903   4.248  16.285  0.6629 -0.4657 -0.4517
  587TMC3    C3 8700   3.003   4.271  16.372 -0.5663 -0.0294  0.8657
  587TMC3    C4 8701   3.070   4.211  16.117  0.5867 -0.5336 -0.7826
  587TMC3    C5 8702   3.170   4.228  16.211 -0.7199  0.6156 -1.3023
  587TMC3    C6 8703   3.136   4.249  16.341 -0.3990 -0.3895  0.3399
  587TMC3     C 8704   2.837   4.194  16.055 -0.5111 -0.2048 -0.0807
  587TMC3     O 8705   2.878   4.209  15.940  0.0103  0.1281 -0.5732
  587TMC3     H 8706   2.800   4.245  16.319  1.0467 -0.1106  0.7221
  587TMC3    H1 8707   3.089   4.182  16.014  2.0431  1.0203 -0.9516
  587TMC3    H2 8708   3.212   4.226  16.415  0.2986 -0.0097 -0.2591
  587TMC3    C7 8709   3.296   4.173  16.184  0.0379 -1.1328  0.3930
  587TMC3    C8 8710   2.974   4.318  16.505 -0.6340  0.6906 -0.4391
  587TMC3    O1 8711   3.382   4.189  16.267 -0.4709 -0.2739  0.6104
  587TMC3    O2 8712   3.059   4.293  16.590 -0.2026 -0.1690  0.2045
  588TMC3    C1 8713   0.340   1.450   9.845  0.1303  0.2054 -0.8219
  588TMC3    C2 8714   0.268   1.338   9.827  0.3149 -0.1003 -0.6113
  588TMC3    C3 8715   0.321   1.224   9.883  0.2145  0.5354 -1.2897
  588TMC3    C4 8716   0.461   1.448   9.911 -0.6318  0.0791 -0.0742
  588TMC3    C5 8717   0.500   1.334   9.976  0.1729 -0.6123  0.0004
  588TMC3    C6 8718   0.435   1.215   9.962 -0.2323  0.7340 -0.2816
  588TMC3     C 8719   0.300   1.560   9.759 -0.3930  0.4334 -0.2147
  588TMC3     O 8720   0.227   1.538   9.666  0.0422 -0.0910 -0.0966
  588TMC3     H 8721   0.188   1.325   9.755  2.3360 -0.4277 -2.8145
  588TMC3    H1 8722   0.527   1.531   9.888  0.2046 -0.7769 -0.7232
  588TMC3    H2 8723   0.467   1.128  10.017  1.3235  1.1696 -0.5143
  588TMC3    C7 8724   0.630   1.339  10.036 -0.0306  0.0429  0.2137
  588TMC3    C8 8725   0.253   1.096   9.862 -0.1667 -0.1726  0.5622
  588TMC3    O1 8726   0.702   1.241  10.036 -0.1083  0.3780 -0.5070
  588TMC3    O2 8727   0.139   1.105   9.813  0.1634 -0.2250  0.0631
  589TMC3    C1 8728   0.034   4.304   1.284  0.1026 -0.4028  0.9267
  589TMC3    C2 8729   0.099   4.404   1.348  0.0971  0.2765 -0.2391
  589TMC3    C3 8730   0.228   4.369   1.401 -0.7393  0.3341  0.1704
  589TMC3    C4 8731   0.093   4.183   1.258  0.2049  0.3434 -0.3887
  589TMC3    C5 8732   0.211   4.149   1.314  0.3555  0.1010  0.3607
  589TMC3    C6 8733   0.280   4.245   1.386  0.8016  0.0325 -0.0349
  589TMC3     C 8734   4.618   4.307   1.252 -0.2297  0.6850  0.1777
  589TMC3     O 8735   4.573   4.215   1.185  0.4228  0.4507  0.5375
  589TMC3     H 8736   0.053   4.501   1.341 -1.6664 -0.6351 -1.4263
  589TMC3    H1 8737   0.043   4.099   1.212  0.3500 -0.4863  0.9612
  589TMC3    H2 8738   0.362   4.219   1.451  1.2481 -2.5233 -1.6180
  589TMC3    C7 8739   0.256   4.011   1.317  0.3890 -0.1944 -0.9078
  589TMC3    C8 8740   0.290   4.470   1.478  0.0536  0.0379  0.1327
  589TMC3    O1 8741   0.177   3.923   1.287  0.3587 -0.0887  0.5288
  589TMC3    O2 8742   0.217   4.567   1.509  0.7743  0.0653  0.0259
  590MPD2     C 8743   4.119   2.600  16.604  0.0799 -0.2011  0.4487
  590MPD2    C1 8744   4.094   2.727  16.547  0.0118 -0.1891  0.1370
  590MPD2    C2 8745   4.200   2.784  16.481 -0.6485 -0.2592 -0.0733
  590MPD2    C3 8746   4.321   2.712  16.467  0.0563  0.0609 -0.2114
  590MPD2    C4 8747   4.334   2.589  16.520  0.0756  0.3463  0.1347
  590MPD2    C5 8748   4.234   2.533  16.586  0.2868 -0.5502 -0.2248
  590MPD2     H 8749   4.203   2.881  16.433 -0.6526  0.5404  1.5282
  590MPD2    H1 8750   4.424   2.530  16.507 -1.9854 -2.8399  0.5651
  590MPD2    H2 8751   4.048   2.552  16.671 -0.1643 -0.8154 -0.2462
  590MPD2    H3 8752   4.234   2.433  16.629 -0.2291 -0.6896 -0.5502
  590MPD2     N 8753   4.423   2.762  16.382  0.3711 -0.1722  0.3187
  590MPD2    H5 8754   4.426   2.860  16.357  1.0506  0.0213  1.1541
  590MPD2    N1 8755   3.964   2.786  16.566 -0.4213 -0.4867 -0.0575
  590MPD2    H7 8756   3.896   2.723  16.609  2.4098 -1.7401  2.5845
  591TMC3    C1 8757   4.607   2.774  16.241 -0.1617 -0.2156  0.2654
  591TMC3    C2 8758   4.626   2.724  16.116  0.2593  0.2846 -0.0575
  591TMC3    C3 8759   4.650   2.818  16.014  0.8378  0.4942  0.0283
  591TMC3    C4 8760   4.597   2.912  16.264 -0.0538  0.3052 -0.6908
  591TMC3    C5 8761   4.606   2.995  16.156  0.2833  0.0533 -1.4453
  591TMC3    C6 8762   4.626   2.955  16.036 -0.4457  0.7404 -0.6319
  591TMC3     C 8763   4.522   2.687  16.325  0.2149 -0.0877  0.2515
  591TMC3     O 8764   4.536   2.569  16.317 -0.0318 -0.0897 -0.1234
  591TMC3     H 8765   4.618   2.616  16.104 -1.5926  0.5114 -0.8810
  591TMC3    H1 8766   4.602   2.947  16.366 -2.2710 -0.0265 -0.4614
  591TMC3    H2 8767   4.629   3.017  15.947  0.6732  0.3669 -0.8564
  591TMC3    C7 8768   4.556   3.126  16.183  0.6249  0.2923 -0.0580
  591TMC3    C8 8769   4.649   2.774  15.879  0.6011  0.5578  0.4106
  591TMC3    O1 8770   4.477   3.113  16.275  0.0040 -0.1621 -0.2621
  591TMC3    O2 8771   4.619   2.661  15.862  0.0197  0.3504 -0.2722
  592MPD2     C 8772   4.517   4.518  11.112 -0.2350 -0.7315  0.2925
  592MPD2    C1 8773   4.508   4.556  11.244  0.5274 -0.5031 -0.4751
  592MPD2    C2 8774   4.416   4.488  11.329 -0.3474 -0.1704 -0.2779
  592MPD2    C3 8775   4.336   4.390  11.277 -0.0771 -0.7452 -0.7423
  592MPD2    C4 8776   4.345   4.357  11.144 -1.0558  0.1046  0.5491
  592MPD2    C5 8777   4.431   4.421  11.058  0.4778 -0.4282  0.3932
  592MPD2     H 8778   4.404   4.509  11.435  0.7867  2.0570 -0.5769
  592MPD2    H1 8779   4.283   4.277  11.105 -0.1326  1.1631 -3.0819
  592MPD2    H2 8780   4.590   4.564  11.047  0.0137  0.0098  1.0921
  592MPD2    H3 8781   4.430   4.395  10.953 -1.6623  0.3054  0.2226
  592MPD2     N 8782   4.240   4.338  11.369 -0.6827 -0.6555 -0.7601
  592MPD2    H5 8783   4.266   4.341  11.467 -1.6067  0.8991 -0.5785
  592MPD2    N1 8784   4.589   4.669  11.280 -0.8198  0.1280  0.6150
  592MPD2    H7 8785   4.638   0.000  11.212 -1.1470 -0.3649 -0.0323
  593TMC3    C1 8786   4.666   0.115  11.426  0.4381 -0.6618 -0.2233
  593TMC3    C2 8787   4.640   0.189  11.535  0.2682 -0.5218  0.4352
  593TMC3    C3 8788   4.702   0.303  11.553  0.5272 -0.7629 -0.8236
  593TMC3    C4 8789   0.033   0.142  11.328 -0.2150  1.1161 -0.5182
  593TMC3    C5 8790   0.093   0.262  11.348 -0.2058 -0.4619  1.4111
  593TMC3    C6 8791   0.059   0.347  11.453  0.1739  0.1577 -0.4525
  593TMC3     C 8792   4.579   4.724  11.402 -0.4457  0.1406  1.2983
  593TMC3     O 8793   4.527   4.680  11.501 -0.1068 -0.3189  0.1530
  593TMC3     H 8794   4.572   0.150  11.609 -1.2761 -0.9464 -1.1871
  593TMC3    H1 8795   0.069   0.065  11.261  0.1246  0.6443  0.2127
  593TMC3    H2 8796   0.104   0.445  11.462 -3.5391  1.7321  1.2167
  593TMC3    C7 8797   0.181   0.327  11.246  1.4583  0.0445 -0.3536
  593TMC3    C8 8798   4.712   0.355  11.691 -0.4542  0.1901 -0.6369
  593TMC3    O1 8799   0.228   0.439  11.267  0.0476 -0.5970 -0.0605
  593TMC3    O2 8800   4.633   0.296  11.756 -0.5371 -0.1183 -0.0263
  594MPD2     C 8801   3.509   3.896  14.027  0.2176  0.7862 -0.2052
  594MPD2    C1 8802   3.590   3.839  14.122 -0.1784 -0.6247 -0.4234
  594MPD2    C2 8803   3.713   3.896  14.139  0.1937 -0.0043  0.3198
  594MPD2    C3 8804   3.753   4.004  14.059  0.4814 -0.9203 -0.4495
  594MPD2    C4 8805   3.672   4.047  13.955  0.2304 -0.4073 -0.3589
  594MPD2    C5 8806   3.547   3.997  13.941  0.3533  0.1085  0.3171
  594MPD2     H 8807   3.775   3.857  14.219  0.5349  0.7552  0.4312
  594MPD2    H1 8808   3.705   4.117  13.879  0.0675  0.4495  0.3538
  594MPD2    H2 8809   3.420   3.844  13.995 -1.0582  2.4741  0.5736
  594MPD2    H3 8810   3.486   4.029  13.857  0.5587  1.8172  0.8230
  594MPD2     N 8811   3.874   4.068  14.095  0.0251 -0.1525 -0.0005
  594MPD2    H5 8812   3.917   4.026  14.177  1.0053  0.5374 -0.1688
  594MPD2    N1 8813   3.542   3.720  14.186  0.0202  0.0263 -0.3672
  594MPD2    H7 8814   3.448   3.693  14.160 -0.0402 -0.5439  0.4613
  595TMC3    C1 8815   4.181   4.249  14.261 -0.4098 -0.8624  0.0172
  595TMC3    C2 8816   4.138   4.201  14.144 -0.7158 -0.3722 -0.4391
  595TMC3    C3 8817   4.015   4.248  14.113 -0.1411  0.2866  0.0177
  595TMC3    C4 8818   4.112   4.349  14.330  0.3543 -0.0614 -0.4815
  595TMC3    C5 8819   3.986   4.392  14.291  0.2831 -0.2735 -0.2462
  595TMC3    C6 8820   3.935   4.343  14.174 -0.2619  0.0377 -0.0265
  595TMC3     C 8821   4.314   4.236  14.312  0.3670 -0.0213 -0.4194
  595TMC3     O 8822   4.346   4.281  14.420 -0.0181  0.1387 -0.2000
  595TMC3     H 8823   4.186   4.122  14.088  1.8540  0.8612  0.0428
  595TMC3    H1 8824   4.159   4.402  14.412 -0.5009 -0.8085  0.5049
  595TMC3    H2 8825   3.839   4.370  14.131  0.2980 -0.9916 -1.9302
  595TMC3    C7 8826   3.891   4.378  14.392 -0.2156 -0.1222  0.3999
  595TMC3    C8 8827   3.934   4.167  14.025  0.6000 -0.2295 -0.6968
  595TMC3    O1 8828   3.782   4.336  14.354  0.0316 -0.5317  0.4951
  595TMC3    O2 8829   3.894   4.214  13.918 -0.6315  0.2618 -0.0451
  596MPD2     C 8830   2.588   1.522  16.752  1.0037  0.9461  0.9535
  596MPD2    C1 8831   2.634   1.628  16.681 -0.2299 -0.0870 -0.8020
  596MPD2    C2 8832   2.677   1.599  16.558 -0.2660 -0.6687 -0.6153
  596MPD2    C3 8833   2.670   1.472  16.495  0.0355 -0.6633 -0.5306
  596MPD2    C4 8834   2.628   1.365  16.568  0.4240  0.3040  0.4748
  596MPD2    C5 8835   2.588   1.393  16.697  1.1827  0.4132  0.4019
  596MPD2     H 8836   2.709   1.688  16.505 -1.4133 -1.9550 -3.4380
  596MPD2    H1 8837   2.621   1.264  16.529  4.2212 -0.6150  2.2022
  596MPD2    H2 8838   2.555   1.540  16.854  0.6105  1.7571  0.6858
  596MPD2    H3 8839   2.543   1.318  16.761 -0.7146  1.3405  0.1650
  596MPD2     N 8840   2.697   1.452  16.354  0.4226 -0.4652 -0.5496
  596MPD2    H5 8841   2.705   1.359  16.314 -2.3455 -0.3253 -1.4765
  596MPD2    N1 8842   2.637   1.763  16.711 -0.9978 -0.1561  0.1315
  596MPD2    H7 8843   2.671   1.823  16.636  0.8043 -1.0095  0.2704
  597TMC3    C1 8844   2.627   1.962  16.845 -0.4399 -0.8421 -0.6086
  597TMC3    C2 8845   2.705   2.016  16.749  0.3151 -0.1435  0.2430
  597TMC3    C3 8846   2.694   2.152  16.731  0.3166  0.4930  0.5227
  597TMC3    C4 8847   2.543   2.032  16.923  0.3142  0.8162 -0.3320
  597TMC3    C5 8848   2.540   2.168  16.911  1.2143 -0.4369 -0.4501
  597TMC3    C6 8849   2.610   2.236  16.811 -0.3691 -0.1328 -0.5940
  597TMC3     C 8850   2.612   1.817  16.838 -0.2989  0.2709  0.3277
  597TMC3     O 8851   2.551   1.774  16.935 -0.6558  0.1909  0.1601
  597TMC3     H 8852   2.770   1.959  16.683 -0.0935  1.5682 -1.6524
  597TMC3    H1 8853   2.478   1.983  16.994  2.0934 -0.2561  0.5375
  597TMC3    H2 8854   2.622   2.344  16.807 -2.4286  0.0803 -0.6238
  597TMC3    C7 8855   2.463   2.245  17.008 -0.9910  0.3342  0.7472
  597TMC3    C8 8856   2.725   2.212  16.603  0.0705  0.1125  0.4130
  597TMC3    O1 8857   2.413   2.186  17.100 -0.1198 -0.2757  0.0828
  597TMC3    O2 8858   2.641   2.294  16.564 -0.4914  0.3807  0.9526
  598TMC3    C1 8859   0.592   3.210  14.639 -0.0785 -0.1020 -0.1882
  598TMC3    C2 8860   0.549   3.117  14.546 -0.0527  0.6703 -0.0875
  598TMC3    C3 8861   0.566   3.148  14.410  0.1665  0.1796  0.1801
  598TMC3    C4 8862   0.657   3.316  14.591  0.0227  0.2613  0.1339
  598TMC3    C5 8863   0.670   3.353  14.459  0.2759 -0.3117  0.7100
  598TMC3    C6 8864   0.619   3.266  14.367 -0.1567 -0.6224  0.1788
  598TMC3     C 8865   0.540   3.208  14.776  0.6514 -0.0871 -0.0274
  598TMC3     O 8866   0.550   3.308  14.842  0.3947 -0.4759 -0.0783
  598TMC3     H 8867   0.491   3.033  14.584  1.5849 -0.9436 -1.1556
  598TMC3    H1 8868   0.698   3.381  14.667 -0.2075  1.6238 -0.9187
  598TMC3    H2 8869   0.635   3.284  14.261  1.0539  0.0543  0.4772
  598TMC3    C7 8870   0.739   3.468  14.415  0.0470  0.6652 -0.3890
  598TMC3    C8 8871   0.572   3.044  14.314 -0.3322 -0.2201 -0.6613
  598TMC3    O1 8872   0.700   3.510  14.311 -0.4430  0.0829 -0.0762
  598TMC3    O2 8873   0.560   3.060  14.193 -0.2071 -0.0737 -0.2645
  599MPD2     C 8874   0.732   0.803  15.698 -0.0405  0.5412  0.0904
  599MPD2    C1 8875   0.723   0.714  15.801 -0.3074 -0.0417 -0.1286
  599MPD2    C2 8876   0.615   0.739  15.888  0.3504 -0.9246 -0.5956
  599MPD2    C3 8877   0.535   0.847  15.880  0.0752  0.4503 -0.1864
  599MPD2    C4 8878   0.552   0.939  15.784  0.3535 -0.0231  0.1711
  599MPD2    C5 8879   0.649   0.909  15.691 -0.1232 -0.3145 -0.0007
  599MPD2     H 8880   0.616   0.671  15.973 -0.2366 -0.1736  0.0173
  599MPD2    H1 8881   0.492   1.029  15.774  1.2325  0.5743  0.2602
  599MPD2    H2 8882   0.813   0.805  15.626  1.1397 -1.1883  1.4067
  599MPD2    H3 8883   0.664   0.989  15.619 -0.6051 -0.8748 -0.7303
  599MPD2     N 8884   0.435   0.873  15.974  0.1769 -0.4151  0.9002
  599MPD2    H5 8885   0.399   0.968  15.967  1.6929  0.0743 -0.2009
  599MPD2    N1 8886   0.814   0.610  15.813 -0.5177 -0.5947  0.1145
  599MPD2    H7 8887   0.797   0.553  15.895 -0.4676 -0.8000 -0.0157
  600TMC3    C1 8888   0.277   0.840  16.131  0.7004 -0.0463 -0.5505
  600TMC3    C2 8889   0.190   0.752  16.191  0.0039  0.0614  0.3579
  600TMC3    C3 8890   0.079   0.803  16.253  0.2959 -0.2104 -0.0010
  600TMC3    C4 8891   0.256   0.979  16.135  0.3670  0.3255  0.0410
  600TMC3    C5 8892   0.147   1.019  16.205 -0.1107 -0.2802 -0.2419
  600TMC3    C6 8893   0.060   0.935  16.264  1.1429 -0.0674 -0.2382
  600TMC3     C 8894   0.382   0.776  16.060 -0.0663  0.2809 -0.3230
  600TMC3     O 8895   0.396   0.654  16.069  0.3570 -0.1610  0.2977
  600TMC3     H 8896   0.209   0.645  16.188 -0.7908 -0.1134  1.8053
  600TMC3    H1 8897   0.306   1.059  16.082  0.7892  0.0774  0.0645
  600TMC3    H2 8898   4.696   0.971  16.314  0.2793 -2.0688 -0.3520
  600TMC3    C7 8899   0.137   1.165  16.240 -0.1602 -0.5231 -0.1934
  600TMC3    C8 8900   0.021   0.714  16.340 -0.5498  0.5214  0.1999
  600TMC3    O1 8901   0.022   1.204  16.257  0.3741 -0.1711  0.4777
  600TMC3    O2 8902   0.085   0.618  16.378 -0.3612  0.5610 -0.4945
  601MPD2     C 8903   2.448   3.660   0.087 -0.2286  0.6253 -0.3765
  601MPD2    C1 8904   2.403   3.670  17.659 -0.2388  0.6733  0.1648
  601MPD2    C2 8905   2.403   3.559  17.582 -0.6135 -0.5467 -0.1408
  601MPD2    C3 8906   2.460   3.433  17.632  0.8105  0.5250  1.2933
  601MPD2    C4 8907   2.508   3.430   0.058 -0.1978  0.6998  0.0617
  601MPD2    C5 8908   2.507   3.543   0.131  0.2120 -0.2504  0.2691
  601MPD2     H 8909   2.384   3.566  17.475 -1.1237  1.0343  0.0475
  601MPD2    H1 8910   2.538   3.337   0.104 -0.9478  0.4598  0.0652
  601MPD2    H2 8911   2.450   3.749   0.150 -2.1362 -1.4304  2.5980
  601MPD2    H3 8912   2.545   3.539   0.233 -1.1233  0.1778  0.7800
  601MPD2     N 8913   2.457   3.304  17.571 -0.0954  0.3093 -0.3941
  601MPD2    H5 8914   2.510   3.228  17.612 -2.6522 -0.1925  1.9232
  601MPD2    N1 8915   2.370   3.793  17.599 -0.9419  0.0303  0.2751
  601MPD2    H7 8916   2.350   3.791  17.500  1.2394  0.1499 -0.1706
  602TMC3    C1 8917   2.304   4.001  17.560  0.2154 -0.0558  0.1252
  602TMC3    C2 8918   2.212   4.103  17.596 -0.2960 -0.1251 -0.2628
  602TMC3    C3 8919   2.177   4.194  17.506  0.0127  0.5597  0.5306
  602TMC3    C4 8920   2.355   3.989  17.432 -0.1389  0.1381  0.3272
  602TMC3    C5 8921   2.310   4.083  17.343  0.0245 -0.3731  0.3766
  602TMC3    C6 8922   2.230   4.186  17.384 -0.1445 -0.2858 -0.1316
  602TMC3     C 8923   2.346   3.912  17.665  0.6740  0.8527 -0.2084
  602TMC3     O 8924   2.333   3.939   0.080  0.4475  0.1290  0.0777
  602TMC3     H 8925   2.169   4.109  17.695  0.4745 -0.9214  0.1277
  602TMC3    H1 8926   2.423   3.913  17.394  0.6510  0.1516  1.7181
  602TMC3    H2 8927   2.197   4.263  17.314 -0.3977  1.2137  1.6431
  602TMC3    C7 8928   2.287   4.040  17.211 -0.5419  0.1681  0.7547
  602TMC3    C8 8929   2.062   4.285  17.536  0.2411  0.7454  1.4546
  602TMC3    O1 8930   2.380   4.015  17.138 -0.3778 -0.0350 -0.0787
  602TMC3    O2 8931   2.044   4.302  17.654 -0.2626  0.5227  0.4340
  603TMC3    C1 8932   0.884   3.773  10.888  0.7195 -0.4419 -0.1921
  603TMC3    C2 8933   0.940   3.755  11.013  0.0906 -0.2466  0.2615
  603TMC3    C3 8934   0.959   3.859  11.100  0.1134 -0.5184  0.8586
  603TMC3    C4 8935   0.828   3.897  10.865  0.2109 -0.0539  0.1033
  603TMC3    C5 8936   0.833   3.999  10.957  0.0948 -0.0790  0.3063
  603TMC3    C6 8937   0.897   3.982  11.077  0.1867  0.0129  0.6667
  603TMC3     C 8938   0.845   3.655  10.808 -0.2766  0.8653  0.0872
  603TMC3     O 8939   0.760   3.674  10.727  0.0190  0.3555  0.3488
  603TMC3     H 8940   0.969   3.653  11.037  0.9858 -0.0314  0.0853
  603TMC3    H1 8941   0.796   3.912  10.763 -1.3069 -1.1734  0.4144
  603TMC3    H2 8942   0.921   4.070  11.136 -1.3114  1.5228 -0.9668
  603TMC3    C7 8943   0.785   4.134  10.929  0.1931  0.3870 -0.0360
  603TMC3    C8 8944   0.992   3.818  11.225 -0.1011  0.5059 -0.0327
  603TMC3    O1 8945   0.801   4.219  11.015 -0.0817  0.1826 -0.1922
  603TMC3    O2 8946   1.003   3.698  11.247  0.3989  0.4039  0.2266
  604MPD2     C 8947   1.756   2.945  16.108 -0.0458 -1.1056  0.8314
  604MPD2    C1 8948   1.663   2.852  16.062 -0.0991  0.9388 -0.3170
  604MPD2    C2 8949   1.689   2.792  15.942 -0.4254 -0.0245 -0.0832
  604MPD2    C3 8950   1.802   2.823  15.867  0.0235 -0.7539 -0.6153
  604MPD2    C4 8951   1.895   2.914  15.915 -0.1009 -0.8805  0.4123
  604MPD2    C5 8952   1.869   2.976  16.036  0.2476  0.7997  0.2213
  604MPD2     H 8953   1.624   2.713  15.907 -0.6874 -0.4553  1.3963
  604MPD2    H1 8954   1.984   2.938  15.859  1.0157 -1.1840  2.0333
  604MPD2    H2 8955   1.743   2.997  16.202 -1.3770  0.3750 -0.1709
  604MPD2    H3 8956   1.928   3.057  16.076  1.5397  0.2010 -0.4282
  604MPD2     N 8957   1.832   2.761  15.746 -0.2493 -0.1502 -0.4590
  604MPD2    H5 8958   1.769   2.710  15.684 -0.7899  0.4627 -0.4122
  604MPD2    N1 8959   1.544   2.843  16.137 -0.3036  0.2576  0.1959
  604MPD2    H7 8960   1.552   2.908  16.215 -0.0345  1.0779 -0.5137
  605TMC3    C1 8961   1.332   2.830  16.202 -0.6000  0.1580 -0.1320
  605TMC3    C2 8962   1.379   2.877  16.317 -0.1580  0.2891  0.6714
  605TMC3    C3 8963   1.331   2.999  16.362 -0.0163  0.5629 -0.3294
  605TMC3    C4 8964   1.220   2.890  16.142 -0.1720 -0.2755  0.7517
  605TMC3    C5 8965   1.161   2.993  16.208  0.4893  0.6600  0.2679
  605TMC3    C6 8966   1.217   3.056  16.313  0.0299 -0.5401  0.3636
  605TMC3     C 8967   1.427   2.773  16.112  0.2516 -0.4558  0.1904
  605TMC3     O 8968   1.400   2.705  16.012  0.0050  0.1714 -0.1463
  605TMC3     H 8969   1.462   2.827  16.366  0.7631  0.8661 -0.2922
  605TMC3    H1 8970   1.197   2.860  16.041 -3.0092 -1.5829  1.7678
  605TMC3    H2 8971   1.189   3.155  16.348  1.2082  0.0498 -0.3546
  605TMC3    C7 8972   1.043   3.051  16.155  0.5408  0.9303 -0.3223
  605TMC3    C8 8973   1.429   3.096  16.390  0.2020 -0.3863 -0.3858
  605TMC3    O1 8974   1.013   3.162  16.192  0.3134  0.3525 -0.4981
  605TMC3    O2 8975   1.528   3.063  16.327  0.3651 -0.0331 -0.1672
  606TMC3    C1 8976   2.952   1.487  16.819  0.4704 -0.6388  0.4871
  606TMC3    C2 8977   2.953   1.558  16.937  0.1703  0.0106 -0.3666
  606TMC3    C3 8978   2.872   1.504  17.040  0.0571 -0.2225  0.2915
  606TMC3    C4 8979   2.891   1.363  16.810  0.3751  0.2723 -0.2023
  606TMC3    C5 8980   2.828   1.316  16.923  0.8805  0.7550  0.4693
  606TMC3    C6 8981   2.818   1.382  17.044  0.1151 -0.0413  0.3484
  606TMC3     C 8982   2.990   1.562  16.701 -0.0323  0.5760 -0.6532
  606TMC3     O 8983   3.008   1.682  16.718 -0.1057 -0.4065 -0.2680
  606TMC3     H 8984   2.991   1.659  16.944  0.4513 -0.2014  1.1763
  606TMC3    H1 8985   2.870   1.314  16.716  0.1437  0.1449 -0.0835
  606TMC3    H2 8986   2.779   1.327  17.129 -1.1033  0.0856 -0.1237
  606TMC3    C7 8987   2.765   1.182  16.912  0.1665 -0.9251  0.3664
  606TMC3    C8 8988   2.886   1.575  17.167  0.0699 -0.1196  0.4837
  606TMC3    O1 8989   2.809   1.108  16.825 -0.3189  0.1647 -0.0257
  606TMC3    O2 8990   2.993   1.623  17.193 -0.2214 -0.0599 -0.2590
  607MPD2     C 8991   4.323   3.830  11.693  0.0020  0.0690 -0.3936
  607MPD2    C1 8992   4.369   3.901  11.801  0.7802  0.0696  0.0591
  607MPD2    C2 8993   4.376   3.846  11.923  0.0922  0.3277 -0.0178
  607MPD2    C3 8994   4.322   3.719  11.944  0.5816  0.5719  0.5302
  607MPD2    C4 8995   4.263   3.650  11.842 -0.0849 -0.0624  0.2296
  607MPD2    C5 8996   4.264   3.708  11.718  0.1158  1.0763 -0.0233
  607MPD2     H 8997   4.423   3.891  12.010 -0.2435 -2.5065  1.6403
  607MPD2    H1 8998   4.225   3.549  11.848 -1.3293  0.4352  0.6779
  607MPD2    H2 8999   4.331   3.868  11.592  0.2060 -1.1346 -0.8277
  607MPD2    H3 9000   4.220   3.658  11.633  2.0534 -2.4369  1.0631
  607MPD2     N 9001   4.338   3.676  12.077  0.2961  0.1783  0.0583
  607MPD2    H5 9002   4.365   3.744  12.147 -1.5695  0.9280  0.0647
  607MPD2    N1 9003   4.442   4.024  11.785  0.0570  0.3071 -0.6757
  607MPD2    H7 9004   4.508   4.045  11.860  0.7313  0.6879 -1.3752
  608TMC3    C1 9005   4.518   4.223  11.701 -0.5539 -0.1012 -0.0549
  608TMC3    C2 9006   4.521   4.256  11.837  0.4614  0.0248 -0.4189
  608TMC3    C3 9007   4.620   4.340  11.885  0.5416  0.0471  0.3985
  608TMC3    C4 9008   4.598   4.278  11.609  0.5734 -0.0513 -0.5118
  608TMC3    C5 9009   4.689   4.373  11.659  0.1545 -0.0445 -0.3720
  608TMC3    C6 9010   4.705   4.397  11.793  0.0013  0.7517 -0.2754
  608TMC3     C 9011   4.442   4.101  11.681  1.2960  0.0248 -0.4231
  608TMC3     O 9012   4.408   4.082  11.566  0.2696 -0.2157 -0.2463
  608TMC3     H 9013   4.432   4.228  11.892 -0.4627  2.2570 -0.7714
  608TMC3    H1 9014   4.581   4.274  11.502  0.2092  1.1440 -0.4982
  608TMC3    H2 9015   0.058   4.451  11.843  0.1931  0.3848 -0.1828
  608TMC3    C7 9016   0.047   4.445  11.562 -0.1124  1.1626 -0.8900
  608TMC3    C8 9017   4.645   4.352  12.028  0.1950 -0.1852 -0.0791
  608TMC3    O1 9018   0.049   4.411  11.444  0.3546 -0.3647  0.2349
  608TMC3    O2 9019   4.715   4.447  12.063  0.1706  0.2721 -0.1064
  609TMC3    C1 9020   4.018   3.656   9.081 -0.6873  0.4569 -0.5915
  609TMC3    C2 9021   4.055   3.778   9.030  0.2865 -0.2749  1.2747
  609TMC3    C3 9022   4.188   3.786   8.991  0.1613  0.0714  0.4180
  609TMC3    C4 9023   4.106   3.561   9.113  0.0565 -0.3097 -0.5317
  609TMC3    C5 9024   4.231   3.576   9.067  0.2418 -0.1368 -0.1705
  609TMC3    C6 9025   4.278   3.685   9.005  0.8191  0.7729  0.3794
  609TMC3     C 9026   3.895   3.652   9.158  0.5123  0.2048  0.0872
  609TMC3     O 9027   3.858   3.547   9.205  0.2043 -0.1569  0.0679
  609TMC3     H 9028   3.978   3.841   8.987  0.2669 -0.4232  1.0913
  609TMC3    H1 9029   4.080   3.472   9.169 -0.1893 -0.7458 -1.3525
  609TMC3    H2 9030   4.377   3.693   8.960  0.4370 -1.4682 -0.8459
  609TMC3    C7 9031   4.317   3.459   9.086 -0.5468  0.4440  0.5373
  609TMC3    C8 9032   4.221   3.881   8.883  0.6880 -0.2620  0.0669
  609TMC3    O1 9033   4.290   3.376   9.171 -0.1019  0.0795  0.5061
  609TMC3    O2 9034   4.301   3.844   8.798 -0.0649 -0.0733  0.2568
  610TMC3    C1 9035   0.286   3.988  12.712 -0.3266  0.5561 -0.7811
  610TMC3    C2 9036   0.253   3.974  12.583  0.1375  0.2844  0.1891
  610TMC3    C3 9037   0.348   3.946  12.485  0.1969 -1.0437  0.0914
  610TMC3    C4 9038   0.413   3.983  12.758  0.3099 -0.3208 -0.4259
  610TMC3    C5 9039   0.502   3.963  12.663 -0.1869 -0.0561  0.3304
  610TMC3    C6 9040   0.482   3.939  12.530  0.1481  0.2339  0.0561
  610TMC3     C 9041   0.186   4.068  12.783 -0.2408 -0.2611 -0.1855
  610TMC3     O 9042   0.071   4.026  12.784 -0.2064  0.1185  0.0853
  610TMC3     H 9043   0.148   3.973  12.555  0.0190  0.9735  0.6191
  610TMC3    H1 9044   0.440   3.999  12.862  0.2006 -1.3392 -0.2398
  610TMC3    H2 9045   0.567   3.920  12.466  0.5158  0.7413  0.3944
  610TMC3    C7 9046   0.636   3.926  12.710 -0.2993  0.3043 -0.1384
  610TMC3    C8 9047   0.309   3.951  12.351 -0.0662 -0.2524  0.7999
  610TMC3    O1 9048   0.689   3.823  12.678 -0.4992  0.1156 -0.0213
  610TMC3    O2 9049   0.190   3.959  12.323  0.7481  0.3916 -0.5008
  611MPD2     C 9050   4.709   3.815  10.152 -0.5430 -0.1173  0.5030
  611MPD2    C1 9051   4.640   3.932  10.133 -0.1464  0.8694 -0.0847
  611MPD2    C2 9052   4.719   4.045  10.101 -0.3324 -0.4189 -0.2338
  611MPD2    C3 9053   0.132   4.042  10.117  0.4161 -0.2262 -0.1089
  611MPD2    C4 9054   0.194   3.926  10.122  0.1145 -0.2090 -0.1537
  611MPD2    C5 9055   0.122   3.812  10.135  0.4356 -0.3603 -0.3430
  611MPD2     H 9056   4.669   4.140  10.087  0.1749 -0.2473 -0.8708
  611MPD2    H1 9057   0.301   3.909  10.129  0.5773  2.9145  0.6464
  611MPD2    H2 9058   4.653   3.723  10.161  0.2537 -0.3004  3.3481
  611MPD2    H3 9059   0.169   3.714  10.139 -0.4926 -0.7910 -0.2072
  611MPD2     N 9060   0.222   4.157  10.121  0.4192 -0.0668 -0.1357
  611MPD2    H5 9061   0.318   4.142  10.150  0.3825  0.4948  0.2723
  611MPD2    N1 9062   4.500   3.918  10.119 -0.2415  0.1570 -0.3340
  611MPD2    H7 9063   4.458   3.828  10.138 -1.5569  0.6440 -0.9900
  612TMC3    C1 9064   0.307   4.371  10.099 -0.2087 -0.5245 -0.3265
  612TMC3    C2 9065   0.399   4.372  10.209 -0.1457  0.1400 -0.1876
  612TMC3    C3 9066   0.485   4.480  10.213  0.3963  0.1798 -0.7964
  612TMC3    C4 9067   0.314   4.465   9.999 -0.5233 -0.0172 -0.2730
  612TMC3    C5 9068   0.396   4.578  10.011 -0.3107 -0.6689 -0.3651
  612TMC3    C6 9069   0.476   4.588  10.122  0.0399  0.0408 -0.1827
  612TMC3     C 9070   0.193   4.285  10.096  0.4628  0.2898  0.2124
  612TMC3     O 9071   0.094   4.335  10.043 -0.8624 -0.3412 -0.3318
  612TMC3     H 9072   0.384   4.303  10.291  0.3824  2.1227  1.5501
  612TMC3    H1 9073   0.241   4.450   9.921  2.3251 -1.4129 -2.6569
  612TMC3    H2 9074   0.531   4.680  10.138 -1.1066  0.6655  0.1375
  612TMC3    C7 9075   0.413   4.677   9.908  0.0211  0.4985  0.6032
  612TMC3    C8 9076   0.576   4.498  10.327  0.0712 -0.4630 -0.1523
  612TMC3    O1 9077   0.492   0.038   9.931  0.6989 -0.3549  0.1193
  612TMC3    O2 9078   0.648   4.598  10.331 -0.3140  0.0011  0.0290
  613MPD2     C 9079   3.803   2.096  16.102 -0.2034 -0.6311 -0.2694
  613MPD2    C1 9080   3.841   2.074  15.977 -0.5610 -0.4278  0.4338
  613MPD2    C2 9081   3.899   1.953  15.941 -0.2056  0.1905  0.3769
  613MPD2    C3 9082   3.907   1.847  16.030  0.3139 -0.0863 -0.1519
  613MPD2    C4 9083   3.856   1.869  16.153 -0.0413 -0.3148  0.3352
  613MPD2    C5 9084   3.810   1.992  16.195  0.5658 -0.2280  0.1505
  613MPD2     H 9085   3.929   1.941  15.837  0.5727  1.4811  0.4505
  613MPD2    H1 9086   3.845   1.788  16.225 -1.2502 -1.4643 -1.1324
  613MPD2    H2 9087   3.757   2.188  16.134  1.1261 -1.0355  2.8756
  613MPD2    H3 9088   3.763   1.997  16.293 -1.5000  0.5615 -0.8893
  613MPD2     N 9089   3.968   1.727  15.998 -0.4010  0.2699  0.0019
  613MPD2    H5 9090   3.948   1.654  16.066 -1.0327  0.2466 -0.2050
  613MPD2    N1 9091   3.843   2.175  15.876  0.7105  0.0038  0.6894
  613MPD2    H7 9092   3.889   2.142  15.792  1.4675  0.7366  0.8093
  614TMC3    C1 9093   3.775   2.339  15.735 -0.0576 -0.1577  0.1802
  614TMC3    C2 9094   3.874   2.288  15.655 -0.0707 -0.3527 -0.6037
  614TMC3    C3 9095   3.837   2.231  15.538  0.6996 -0.4273  0.3136
  614TMC3    C4 9096   3.648   2.339  15.689  0.2840  0.7800  0.1185
  614TMC3    C5 9097   3.618   2.297  15.561  0.6869 -0.3034  0.1155
  614TMC3    C6 9098   3.716   2.246  15.483  0.6273 -0.2972  0.4318
  614TMC3     C 9099   3.777   2.296  15.875  0.6975 -0.5517  0.3668
  614TMC3     O 9100   3.687   2.328  15.952  0.6156 -0.0592  0.0391
  614TMC3     H 9101   3.975   2.290  15.694  0.2191 -0.1897 -1.3659
  614TMC3    H1 9102   3.571   2.366  15.760 -1.8960 -2.9849 -0.8600
  614TMC3    H2 9103   3.700   2.224  15.378  0.7977 -0.9910  0.5473
  614TMC3    C7 9104   3.477   2.254  15.541 -0.1497 -0.1648 -0.3856
  614TMC3    C8 9105   3.909   2.113  15.514  0.0530  0.4059  0.2379
  614TMC3    O1 9106   3.387   2.291  15.620  1.0407  0.1096  0.2635
  614TMC3    O2 9107   3.993   2.084  15.598  0.1571  0.2267 -0.2619
  615MPD2     C 9108   3.644   3.282  16.201 -0.5153 -0.1759  0.3277
  615MPD2    C1 9109   3.520   3.328  16.165 -0.2328 -0.0559  0.5389
  615MPD2    C2 9110   3.454   3.253  16.073  0.4324  0.5867 -0.1014
  615MPD2    C3 9111   3.523   3.152  16.003 -0.4775 -0.6280  0.0830
  615MPD2    C4 9112   3.642   3.107  16.039  0.8283  0.5427  0.1020
  615MPD2    C5 9113   3.710   3.172  16.136  0.4291 -0.3550 -0.8764
  615MPD2     H 9114   3.360   3.287  16.032  0.1494  0.2096  0.2437
  615MPD2    H1 9115   3.702   3.029  15.992 -0.8252 -0.1765 -0.7888
  615MPD2    H2 9116   3.689   3.336  16.285 -2.0209 -0.6871  1.4618
  615MPD2    H3 9117   3.813   3.146  16.157  1.0951  2.8320 -0.2352
  615MPD2     N 9118   3.451   3.100  15.892  0.0994  0.5057 -0.0436
  615MPD2    H5 9119   3.353   3.123  15.883  0.0339  0.5148  0.6413
  615MPD2    N1 9120   3.459   3.440  16.225  0.0865  0.3636 -0.4943
  615MPD2    H7 9121   3.362   3.458  16.202 -0.5968  0.5299  2.4593
  616TMC3    C1 9122   3.459   3.665  16.292 -0.2447 -0.2563  0.0903
  616TMC3    C2 9123   3.475   3.741  16.398 -0.4354  0.1258  0.1308
  616TMC3    C3 9124   3.381   3.834  16.423 -0.3142 -0.8951 -0.0619
  616TMC3    C4 9125   3.354   3.678  16.202 -0.6098  0.8628 -0.6827
  616TMC3    C5 9126   3.265   3.777  16.227 -0.1552 -0.6002 -0.4161
  616TMC3    C6 9127   3.276   3.859  16.336 -0.3927 -0.1634  0.0315
  616TMC3     C 9128   3.528   3.537  16.291 -0.1991 -0.6115  0.2672
  616TMC3     O 9129   3.650   3.544  16.317 -0.4346 -0.2924  0.1057
  616TMC3     H 9130   3.556   3.710  16.464  0.3481 -0.4279 -1.0917
  616TMC3    H1 9131   3.340   3.609  16.120 -1.1869  1.4334 -1.0669
  616TMC3    H2 9132   3.198   3.933  16.352  0.4571  0.9253 -0.9457
  616TMC3    C7 9133   3.159   3.802  16.130 -0.2838 -0.4096 -0.2079
  616TMC3    C8 9134   3.408   3.931  16.522 -0.1759  0.5964  0.5596
  616TMC3    O1 9135   3.079   3.890  16.164  0.8013  0.2640 -0.1308
  616TMC3    O2 9136   3.311   3.974  16.579  0.2198 -0.7752  0.1825
  617MPD2     C 9137   1.068   1.508  14.152  0.2699 -0.0206 -0.2013
  617MPD2    C1 9138   1.098   1.391  14.091 -0.2314 -0.3041  0.4999
  617MPD2    C2 9139   0.997   1.307  14.046  0.0279 -0.1705  0.4417
  617MPD2    C3 9140   0.866   1.339  14.063  0.1999 -0.1416 -0.4739
  617MPD2    C4 9141   0.828   1.462  14.122 -0.3094 -0.3281 -0.0673
  617MPD2    C5 9142   0.934   1.539  14.160  0.4924  0.3036  0.8638
  617MPD2     H 9143   1.021   1.213  13.996  0.0140 -0.3988  0.8665
  617MPD2    H1 9144   0.722   1.486  14.125 -0.2340  0.0214 -0.1947
  617MPD2    H2 9145   1.146   1.575  14.185  0.0663 -0.3023  0.8525
  617MPD2    H3 9146   0.910   1.636  14.202 -0.7670  0.6495 -0.6413
  617MPD2     N 9147   0.763   1.247  14.035 -0.0544 -0.0819 -0.6480
  617MPD2    H5 9148   0.667   1.276  14.051 -0.0052  0.6128 -1.6091
  617MPD2    N1 9149   1.238   1.369  14.065 -0.0681 -0.2141  0.2627
  617MPD2    H7 9150   1.295   1.453  14.073 -1.5257  0.9432 -1.5544
  618TMC3    C1 9151   1.443   1.267  14.035 -0.2026  0.3712  0.3410
  618TMC3    C2 9152   1.520   1.170  14.089  0.0279 -0.8776 -0.0841
  618TMC3    C3 9153   1.650   1.169  14.049  0.1860 -0.7934 -0.5485
  618TMC3    C4 9154   1.493   1.365  13.954 -0.3044  0.1673  0.1154
  618TMC3    C5 9155   1.630   1.361  13.918  1.1029 -0.1069  0.2448
  618TMC3    C6 9156   1.704   1.264  13.965 -0.5427  0.2548 -0.1305
  618TMC3     C 9157   1.298   1.247  14.035  0.9800 -0.0156  1.1187
  618TMC3     O 9158   1.253   1.136  14.052 -0.1326 -0.2864  0.4935
  618TMC3     H 9159   1.469   1.099  14.154 -0.8711 -0.5564 -0.4326
  618TMC3    H1 9160   1.422   1.421  13.894 -1.2650  1.3853  2.4022
  618TMC3    H2 9161   1.806   1.264  13.930 -0.4507  1.9503  0.1705
  618TMC3    C7 9162   1.665   1.451  13.806 -0.6359  0.6939 -0.1280
  618TMC3    C8 9163   1.718   1.051  14.082 -0.4037  0.4576 -0.3485
  618TMC3    O1 9164   1.576   1.514  13.755 -0.1036  0.0058  0.1529
  618TMC3    O2 9165   1.669   0.967  14.160 -0.1430  0.6215  0.0446
  619MPD2     C 9166   2.529   2.359  13.877 -0.6380 -0.6334  0.1852
  619MPD2    C1 9167   2.505   2.283  13.764 -0.2574 -0.7081  0.8836
  619MPD2    C2 9168   2.378   2.247  13.742  0.0528  0.4033 -0.2216
  619MPD2    C3 9169   2.279   2.261  13.837 -0.6779 -0.0906 -0.8545
  619MPD2    C4 9170   2.306   2.339  13.952 -0.5062 -0.1320  0.2390
  619MPD2    C5 9171   2.429   2.398  13.961  0.2277  0.4088  0.1285
  619MPD2     H 9172   2.354   2.199  13.648  1.8659 -0.5603 -0.1860
  619MPD2    H1 9173   2.232   2.365  14.027  0.0443  0.3886  0.5931
  619MPD2    H2 9174   2.625   2.400  13.908 -0.2462 -1.0646 -0.4413
  619MPD2    H3 9175   2.470   2.462  14.039 -0.4220  0.3176  0.5476
  619MPD2     N 9176   2.147   2.222  13.817 -0.1100 -0.0413  0.0756
  619MPD2    H5 9177   2.073   2.254  13.879 -0.1823 -0.6975  0.3238
  619MPD2    N1 9178   2.604   2.259  13.664  0.2093  0.5400 -0.3780
  619MPD2    H7 9179   2.575   2.210  13.580  1.6788  0.5812 -0.9014
  620TMC3    C1 9180   2.788   2.342  13.546  0.4523  0.1414  0.1030
  620TMC3    C2 9181   2.709   2.345  13.436  0.0446  0.0013  0.0148
  620TMC3    C3 9182   2.740   2.430  13.330  0.2041 -0.3916 -0.2503
  620TMC3    C4 9183   2.896   2.426  13.548  0.2656 -0.2373 -0.1382
  620TMC3    C5 9184   2.925   2.503  13.437 -0.1339 -0.3874 -0.3959
  620TMC3    C6 9185   2.848   2.519  13.329  0.3617 -0.0849 -0.0589
  620TMC3     C 9186   2.730   2.315  13.671  0.1114  0.2305  0.2973
  620TMC3     O 9187   2.793   2.345  13.775  0.2821  0.4301 -0.1907
  620TMC3     H 9188   2.628   2.274  13.428 -0.8537  1.2088 -1.4907
  620TMC3    H1 9189   2.961   2.427  13.635  0.9090 -0.3772 -0.6176
  620TMC3    H2 9190   2.867   2.587  13.247  0.8469  2.4422  2.1244
  620TMC3    C7 9191   3.006   2.616  13.471 -0.5682 -0.1511 -0.5324
  620TMC3    C8 9192   2.664   2.408  13.200 -0.4812  0.2942  0.2838
  620TMC3    O1 9193   3.126   2.593  13.486 -0.2749 -0.0129  0.3643
  620TMC3    O2 9194   2.729   2.426  13.097 -0.5912 -0.2680 -0.4191
  621MPD2     C 9195   3.163   2.041  10.157 -0.0422 -0.6889 -0.7398
  621MPD2    C1 9196   3.191   2.094  10.033 -0.2463  0.0263 -0.4472
  621MPD2    C2 9197   3.239   2.228  10.029 -0.8368  0.1537 -0.2987
  621MPD2    C3 9198   3.262   2.299  10.141  0.8543 -0.6998  0.0562
  621MPD2    C4 9199   3.217   2.250  10.262 -0.2685  0.0367  0.0936
  621MPD2    C5 9200   3.162   2.125  10.266 -0.3599  0.2673 -0.1856
  621MPD2     H 9201   3.266   2.277   9.936 -1.7194  0.5497 -0.3449
  621MPD2    H1 9202   3.216   2.317  10.348  1.9971  0.3467 -0.1393
  621MPD2    H2 9203   3.129   1.940  10.178  0.5633 -0.5917  0.6842
  621MPD2    H3 9204   3.130   2.094  10.364  1.8979 -0.0234  0.4645
  621MPD2     N 9205   3.307   2.431  10.126 -0.5557  0.3542  0.7064
  621MPD2    H5 9206   3.330   2.461  10.032 -0.9126  1.4133  0.9605
  621MPD2    N1 9207   3.159   2.034   9.907 -0.0776  0.4557 -0.0683
  621MPD2    H7 9208   3.167   2.083   9.818  0.1900  0.7175  0.1040
  622TMC3    C1 9209   3.076   1.860   9.768  0.9152 -0.0928  0.4918
  622TMC3    C2 9210   2.966   1.777   9.766 -0.7543 -0.3073 -0.3904
  622TMC3    C3 9211   2.894   1.773   9.647  0.7784 -0.0235 -0.1483
  622TMC3    C4 9212   3.120   1.935   9.662 -0.3250 -0.8846  0.2264
  622TMC3    C5 9213   3.056   1.907   9.541 -0.4415  0.0930 -0.4989
  622TMC3    C6 9214   2.949   1.827   9.532  0.3648 -0.1127 -0.0779
  622TMC3     C 9215   3.118   1.898   9.903  0.2961  0.2130 -0.2398
  622TMC3     O 9216   3.102   1.821   9.995  0.3096  0.1137 -0.1527
  622TMC3     H 9217   2.918   1.743   9.857 -1.1693  2.3434  0.3840
  622TMC3    H1 9218   3.208   1.997   9.674  0.3363 -1.7647 -0.0682
  622TMC3    H2 9219   2.899   1.809   9.437 -0.7230 -1.5422  0.7667
  622TMC3    C7 9220   3.107   1.956   9.415 -0.2528  0.9548  0.5048
  622TMC3    C8 9221   2.755   1.722   9.641  0.2724  1.1250  0.5037
  622TMC3    O1 9222   3.054   1.918   9.311 -0.3072  1.1917  0.8178
  622TMC3    O2 9223   2.715   1.702   9.528 -0.5176 -0.2778 -0.2784
  623MPD2     C 9224   1.781   3.019  15.413  0.0219  0.5788  0.3309
  623MPD2    C1 9225   1.704   3.084  15.512 -0.2746  0.4141  0.4271
  623MPD2    C2 9226   1.765   3.144  15.625  0.2021  0.3802 -0.1305
  623MPD2    C3 9227   1.898   3.139  15.636 -0.8508  0.6101 -0.2229
  623MPD2    C4 9228   1.979   3.080  15.540 -0.4351 -0.0776  0.8942
  623MPD2    C5 9229   1.918   3.013  15.431 -0.0747  0.1929  0.6510
  623MPD2     H 9230   1.712   3.175  15.714  1.5832 -1.4595  1.3340
  623MPD2    H1 9231   2.085   3.079  15.558 -0.4585  0.8032  1.0390
  623MPD2    H2 9232   1.743   2.971  15.324 -0.5701  3.5425 -1.0076
  623MPD2    H3 9233   1.972   2.949  15.361 -1.1077 -0.3570  0.3526
  623MPD2     N 9234   1.949   3.194  15.757 -0.0804  0.7910  0.0228
  623MPD2    H5 9235   1.878   3.220  15.825  1.0460  0.7977  1.2081
  623MPD2    N1 9236   1.559   3.088  15.521  0.6948  0.1502 -0.0332
  623MPD2    H7 9237   1.516   3.142  15.595 -0.7020 -0.5486 -0.3340
  624TMC3    C1 9238   2.206   3.392  16.088  0.0883 -0.4500  0.0117
  624TMC3    C2 9239   2.097   3.398  16.175 -0.1268 -0.0667 -0.3243
  624TMC3    C3 9240   1.978   3.355  16.127  0.3620  0.4221 -0.2179
  624TMC3    C4 9241   2.197   3.342  15.964  1.2005  0.2073  0.1372
  624TMC3    C5 9242   2.079   3.287  15.924 -0.0800 -0.3991 -0.1283
  624TMC3    C6 9243   1.970   3.299  16.005 -0.7410 -0.0920 -0.3659
  624TMC3     C 9244   2.326   3.453  16.139 -0.1773  0.2477  0.5883
  624TMC3     O 9245   2.328   3.461  16.259  0.1566 -0.3699  0.1019
  624TMC3     H 9246   2.103   3.420  16.281 -0.2320  3.4511 -1.0692
  624TMC3    H1 9247   2.280   3.327  15.895  1.0400 -2.3178  0.5030
  624TMC3    H2 9248   1.870   3.266  15.978  0.6303 -3.3017 -1.6018
  624TMC3    C7 9249   2.076   3.232  15.789 -0.5902  0.4304  0.3899
  624TMC3    C8 9250   1.858   3.337  16.203 -0.3350 -0.0982 -0.4773
  624TMC3    O1 9251   2.177   3.220  15.721 -0.3665  0.0100 -0.8814
  624TMC3    O2 9252   1.809   3.226  16.188 -0.2623 -0.3493  0.3275
  625MPD2     C 9253   2.103   4.579   0.960 -0.0749  0.2705  0.2693
  625MPD2    C1 9254   2.228   4.616   0.907  0.5299  0.1266 -0.2715
  625MPD2    C2 9255   2.336   4.543   0.942  0.2656 -0.4358 -0.7094
  625MPD2    C3 9256   2.336   4.435   1.030 -0.4446  0.7373  0.7691
  625MPD2    C4 9257   2.217   4.405   1.084 -0.8821  0.1248 -0.2379
  625MPD2    C5 9258   2.100   4.472   1.052 -0.2853  0.0493  0.3282
  625MPD2     H 9259   2.432   4.562   0.896  1.0181  0.6013  1.2863
  625MPD2    H1 9260   2.196   4.318   1.145  0.8228 -0.9638 -1.2108
  625MPD2    H2 9261   2.012   4.630   0.931 -0.4522  0.2701  1.4571
  625MPD2    H3 9262   2.006   4.446   1.101  0.3946 -1.1927  0.9670
  625MPD2     N 9263   2.455   4.374   1.063  0.7586  0.5146  0.1205
  625MPD2    H5 9264   2.543   4.400   1.020 -0.3301  1.1419 -1.7145
  625MPD2    N1 9265   2.244   4.722   0.814 -0.0248 -0.4117 -0.2187
  625MPD2    H7 9266   2.336   0.010   0.774  1.1599 -2.1813  1.8886
  626TMC3    C1 9267   2.189   0.183   0.669 -0.5783  0.1368  0.0804
  626TMC3    C2 9268   2.102   0.248   0.582  0.5723 -0.0104 -0.5870
  626TMC3    C3 9269   2.115   0.379   0.553 -0.1659 -0.2870 -0.0472
  626TMC3    C4 9270   2.287   0.248   0.734  0.4444 -0.4981  0.1693
  626TMC3    C5 9271   2.290   0.383   0.708  0.1770  0.4455  0.6796
  626TMC3    C6 9272   2.209   0.452   0.625  0.8891  0.1355 -0.4642
  626TMC3     C 9273   2.144   0.074   0.753  0.2928 -0.1856  0.0339
  626TMC3     O 9274   2.023   0.054   0.766  0.1051  0.4708  0.3414
  626TMC3     H 9275   2.026   0.193   0.528  0.3856 -0.7216  0.4035
  626TMC3    H1 9276   2.351   0.198   0.806 -0.7542 -0.3073  1.3703
  626TMC3    H2 9277   2.233   0.553   0.594  0.6703  0.1065 -0.7349
  626TMC3    C7 9278   2.358   0.464   0.813 -0.1255  0.3584  0.3176
  626TMC3    C8 9279   2.029   0.437   0.453 -0.0947 -0.1302  0.1811
  626TMC3    O1 9280   2.456   0.420   0.870  0.3639  0.3905 -0.0703
  626TMC3    O2 9281   1.954   0.369   0.388 -0.3768  0.2554  0.2143
  627MPD2     C 9282   1.357   0.286  14.366 -0.7867 -0.0895 -0.0720
  627MPD2    C1 9283   1.304   0.246  14.483 -0.3278  0.1299 -0.6357
  627MPD2    C2 9284   1.254   0.118  14.490  0.2343 -0.3398 -0.6588
  627MPD2    C3 9285   1.259   0.027  14.387  0.1351 -0.1886 -0.5527
  627MPD2    C4 9286   1.315   0.067  14.271  1.1338  0.1049 -0.7527
  627MPD2    C5 9287   1.361   0.202  14.260 -0.5118  0.5089  0.4850
  627MPD2     H 9288   1.200   0.084  14.578 -0.5267  0.0693 -0.9693
  627MPD2    H1 9289   1.313   0.011  14.178  1.3870 -0.7326 -0.2507
  627MPD2    H2 9290   1.396   0.386  14.347 -0.2006 -0.1667  0.7437
  627MPD2    H3 9291   1.390   0.240  14.163 -1.0455  0.8849  0.4752
  627MPD2     N 9292   1.187   4.636  14.410 -0.3667 -0.1967 -0.1496
  627MPD2    H5 9293   1.153   4.632  14.505 -0.9290  0.2548 -0.3271
  627MPD2    N1 9294   1.291   0.342  14.583  0.1091 -0.0684 -0.2525
  627MPD2    H7 9295   1.309   0.437  14.552 -2.7539  0.7913  0.7061
  628TMC3    C1 9296   1.254   0.425  14.800 -0.2215 -0.4715 -0.0959
  628TMC3    C2 9297   1.298   0.426  14.932  0.0568 -0.5062  1.1375
  628TMC3    C3 9298   1.248   0.524  15.014 -0.3584  0.4570 -0.0541
  628TMC3    C4 9299   1.162   0.511  14.748  0.0277 -0.5759 -0.3595
  628TMC3    C5 9300   1.115   0.606  14.836  0.5200 -0.0273 -0.4184
  628TMC3    C6 9301   1.144   0.595  14.971 -0.1721  0.1476  0.5419
  628TMC3     C 9302   1.278   0.307  14.714 -0.2979  0.0708  0.2597
  628TMC3     O 9303   1.320   0.206  14.770 -0.3630  0.6133  0.0155
  628TMC3     H 9304   1.384   0.363  14.952  0.6999  0.8691  2.6743
  628TMC3    H1 9305   1.129   0.527  14.646 -2.6469 -1.8799  0.2969
  628TMC3    H2 9306   1.114   0.679  15.034 -1.1463  0.9529 -0.9916
  628TMC3    C7 9307   1.059   0.739  14.798 -0.4490  0.4533 -0.1272
  628TMC3    C8 9308   1.317   0.560  15.132 -0.1692 -0.1514  0.9340
  628TMC3    O1 9309   1.083   0.838  14.871  0.1672  0.1522  0.4172
  628TMC3    O2 9310   1.265   0.647  15.197  0.1741  0.9194 -0.4967
  629MPD2     C 9311   3.722   4.040  16.917  0.4274  0.5063  0.2685
  629MPD2    C1 9312   3.794   4.025  16.800 -0.7045  0.1639  0.0896
  629MPD2    C2 9313   3.729   4.007  16.676 -0.1447 -0.1965  0.7435
  629MPD2    C3 9314   3.597   3.994  16.667  0.2798 -0.2028  0.0715
  629MPD2    C4 9315   3.524   4.013  16.780  0.1031 -0.0382  0.3378
  629MPD2    C5 9316   3.582   4.038  16.905 -0.0699  0.2881  0.9285
  629MPD2     H 9317   3.788   3.984  16.588 -1.6009 -0.1434 -0.2555
  629MPD2    H1 9318   3.415   4.008  16.776 -0.0203  3.3140 -0.7384
  629MPD2    H2 9319   3.765   4.068  17.012 -1.4096 -2.4729  1.9670
  629MPD2    H3 9320   3.513   4.049  16.987 -2.6051 -0.2178 -1.1527
  629MPD2     N 9321   3.539   3.938  16.553 -0.2447  0.1253  0.0910
  629MPD2    H5 9322   3.599   3.912  16.476  1.5531 -0.7041  1.7741
  629MPD2    N1 9323   3.936   4.033  16.799 -0.4109 -0.0979  0.3195
  629MPD2    H7 9324   3.981   4.038  16.708  0.7215 -3.4793  0.6799
  630TMC3    C1 9325   4.154   4.025  16.894  0.0718  0.1670  0.7589
  630TMC3    C2 9326   4.202   4.096  16.785  0.0069 -0.6970 -0.2143
  630TMC3    C3 9327   4.329   4.078  16.751  0.2217 -0.9475 -0.0490
  630TMC3    C4 9328   4.231   3.942  16.971 -0.0775 -0.7221 -0.0251
  630TMC3    C5 9329   4.356   3.923  16.930 -0.7291  0.2773 -0.2464
  630TMC3    C6 9330   4.405   3.988  16.824  0.1714 -0.4675 -0.9256
  630TMC3     C 9331   4.011   4.025  16.917  0.6939  0.5359  0.3921
  630TMC3     O 9332   3.970   3.991  17.030 -0.1686  0.2185  0.3150
  630TMC3     H 9333   4.142   4.168  16.731  0.1229  1.4480  2.4899
  630TMC3    H1 9334   4.186   3.873  17.042  0.0671 -1.7299 -0.9125
  630TMC3    H2 9335   4.507   3.976  16.789  0.6367 -1.1495  0.6648
  630TMC3    C7 9336   4.447   3.839  17.002 -0.1729  0.8819 -0.4678
  630TMC3    C8 9337   4.394   4.176  16.667 -0.2642 -0.0385  0.5652
  630TMC3    O1 9338   4.564   3.845  16.967  0.0062  0.4234 -0.1554
  630TMC3    O2 9339   4.517   4.174  16.670  0.1171  0.4554 -0.2788
  631MPD2     C 9340   2.654   2.922  15.525 -0.3544 -0.1226  0.1708
  631MPD2    C1 9341   2.737   2.987  15.436 -0.7041 -0.4606 -0.3184
  631MPD2    C2 9342   2.874   2.972  15.453  0.1656  0.3966 -0.3361
  631MPD2    C3 9343   2.926   2.899  15.555 -0.3966 -0.0039  0.1665
  631MPD2    C4 9344   2.845   2.861  15.657  0.1977 -0.6315  0.1132
  631MPD2    C5 9345   2.708   2.868  15.638 -0.2667 -0.0685  0.5723
  631MPD2     H 9346   2.945   3.007  15.379 -1.2327 -1.2394 -2.4801
  631MPD2    H1 9347   2.882   2.824  15.752  0.2843 -0.5783  0.1003
  631MPD2    H2 9348   2.550   2.901  15.502 -0.5741 -1.2356  2.2210
  631MPD2    H3 9349   2.629   2.838  15.707  1.2543 -1.7739  1.5834
  631MPD2     N 9350   3.065   2.888  15.561 -0.2469  0.0386  0.0303
  631MPD2    H5 9351   3.125   2.913  15.483  1.5338 -1.7264  0.8355
  631MPD2    N1 9352   2.677   3.060  15.328  0.1572 -0.5173 -0.0915
  631MPD2    H7 9353   2.576   3.068  15.325 -0.1098 -3.4713  0.7808
  632TMC3    C1 9354   2.652   3.183  15.135 -0.7396  0.3866  0.0662
  632TMC3    C2 9355   2.536   3.238  15.185  0.3542 -0.0869  0.3161
  632TMC3    C3 9356   2.470   3.320  15.097 -0.1143 -0.1139 -0.4079
  632TMC3    C4 9357   2.702   3.214  15.009  0.0344 -0.1765 -0.2131
  632TMC3    C5 9358   2.630   3.300  14.928  0.2257 -0.5926  0.6599
  632TMC3    C6 9359   2.523   3.362  14.974 -0.4148  0.6928  0.3607
  632TMC3     C 9360   2.748   3.121  15.222  0.1937  0.2549 -0.4694
  632TMC3     O 9361   2.864   3.098  15.182  0.7870 -0.1249  0.5857
  632TMC3     H 9362   2.499   3.227  15.286  0.4655 -0.0676  0.3581
  632TMC3    H1 9363   2.793   3.167  14.973 -0.9766 -2.3643  0.0723
  632TMC3    H2 9364   2.474   3.430  14.906 -1.4101 -0.6949 -0.2943
  632TMC3    C7 9365   2.687   3.347  14.804 -0.2102  0.0837  0.0801
  632TMC3    C8 9366   2.356   3.388  15.151 -0.1178 -0.3522 -0.1217
  632TMC3    O1 9367   2.601   3.374  14.715  0.4949 -0.1009 -0.1363
  632TMC3    O2 9368   2.306   3.342  15.257  0.5620 -0.2380  0.5410
  633MPD2     C 9369   2.072   1.697  17.362  1.2032  0.7482  0.3928
  633MPD2    C1 9370   2.103   1.617  17.253 -0.3771  0.2560  0.6732
  633MPD2    C2 9371   2.086   1.480  17.278 -0.7553 -0.2247 -0.0338
  633MPD2    C3 9372   2.027   1.426  17.394 -0.7073  0.4971  1.3709
  633MPD2    C4 9373   1.998   1.510  17.498  0.1342  0.3803 -0.0650
  633MPD2    C5 9374   2.025   1.643  17.483  0.2633 -0.6620  0.3196
  633MPD2     H 9375   2.115   1.415  17.196 -0.9987 -0.9803  0.4761
  633MPD2    H1 9376   1.948   1.467  17.585 -0.6042 -2.0522 -1.6692
  633MPD2    H2 9377   2.068   1.805  17.364  4.1133  0.8518  0.8014
  633MPD2    H3 9378   2.003   1.715  17.561 -0.5898  1.8100 -2.1861
  633MPD2     N 9379   2.021   1.291  17.425 -0.6794  0.2016  0.0807
  633MPD2    H5 9380   1.982   1.264  17.515  0.4379 -0.1887  0.4420
  633MPD2    N1 9381   2.146   1.666  17.128 -0.2353  0.1541  0.1859
  633MPD2    H7 9382   2.170   1.595  17.060 -1.1763 -0.0705  0.0807
  634TMC3    C1 9383   2.217   1.798  16.945  0.8318  0.4237  0.0454
  634TMC3    C2 9384   2.240   1.677  16.876  0.1729 -0.5458  0.2665
  634TMC3    C3 9385   2.260   1.684  16.745  0.7891  0.3263  0.5074
  634TMC3    C4 9386   2.211   1.915  16.877 -0.0903 -0.5285 -0.5923
  634TMC3    C5 9387   2.214   1.909  16.736  0.3147 -1.3044  0.3557
  634TMC3    C6 9388   2.249   1.799  16.667 -0.6427 -0.3127  0.1147
  634TMC3     C 9389   2.165   1.792  17.086 -0.1191 -0.7531 -0.2048
  634TMC3     O 9390   2.156   1.901  17.141  0.3775  0.2635 -0.4148
  634TMC3     H 9391   2.248   1.576  16.916  0.5313 -0.2630  0.9068
  634TMC3    H1 9392   2.165   1.998  16.930  1.1951 -0.5238  0.5284
  634TMC3    H2 9393   2.263   1.800  16.559 -2.0047 -3.7931 -0.0784
  634TMC3    C7 9394   2.139   2.003  16.661 -0.0050 -0.2553  0.7402
  634TMC3    C8 9395   2.251   1.557  16.677 -0.3058  0.0071  0.4149
  634TMC3    O1 9396   2.113   1.979  16.541 -0.0507 -0.0066  0.3781
  634TMC3    O2 9397   2.203   1.462  16.736  0.1376 -0.6318  0.2091
  635TMC3    C1 9398   1.971   2.638   0.430 -0.0386 -0.2997  0.5039
  635TMC3    C2 9399   1.955   2.746   0.518  0.8239  0.1048  0.2145
  635TMC3    C3 9400   1.866   2.732   0.629  0.4722  0.3019 -0.3182
  635TMC3    C4 9401   1.913   2.520   0.460  0.2459 -0.1946 -0.4470
  635TMC3    C5 9402   1.833   2.502   0.572 -0.3217 -0.1385 -0.3497
  635TMC3    C6 9403   1.808   2.610   0.657 -0.5771 -0.4309  0.3004
  635TMC3     C 9404   2.075   2.642   0.318 -0.3055  0.5063 -0.2204
  635TMC3     O 9405   2.125   2.754   0.305  0.2628  0.3994 -0.1765
  635TMC3     H 9406   1.973   2.845   0.478  1.9728  0.6675  2.1503
  635TMC3    H1 9407   1.909   2.441   0.386  0.8406 -1.7520  1.1799
  635TMC3    H2 9408   1.736   2.606   0.738 -0.7390 -2.3666  0.0476
  635TMC3    C7 9409   1.741   2.392   0.569  0.7032  0.1782  0.5503
  635TMC3    C8 9410   1.838   2.837   0.717  0.3265 -1.0321 -0.1638
  635TMC3    O1 9411   1.714   2.345   0.465  0.1887 -0.2643  0.0670
  635TMC3    O2 9412   1.747   2.824   0.792  0.1246  0.2304 -0.1800
  636MPD2     C 9413   3.471   1.830  15.551 -0.4375  0.0182 -0.1468
  636MPD2    C1 9414   3.494   1.862  15.681 -0.4613 -0.2642  0.1340
  636MPD2    C2 9415   3.584   1.774  15.751  0.0304 -0.4177 -0.6432
  636MPD2    C3 9416   3.631   1.649  15.701 -0.3467  0.2025 -0.3049
  636MPD2    C4 9417   3.586   1.621  15.575 -0.3869 -0.1667 -0.4052
  636MPD2    C5 9418   3.512   1.708  15.504 -0.1452  0.1337 -0.0769
  636MPD2     H 9419   3.610   1.798  15.853  0.2068  0.4227 -0.8781
  636MPD2    H1 9420   3.616   1.529  15.525  1.5290  1.0524 -1.5074
  636MPD2    H2 9421   3.411   1.883  15.479  1.2988 -0.3381 -1.8457
  636MPD2    H3 9422   3.487   1.664  15.407 -0.9109 -0.5766  0.4383
  636MPD2     N 9423   3.714   1.556  15.776 -0.3396 -0.0743  0.0037
  636MPD2    H5 9424   3.749   1.577  15.869 -2.9231  2.6282  0.3516
  636MPD2    N1 9425   3.433   1.980  15.738 -0.5083  0.1881  0.0291
  636MPD2    H7 9426   3.396   2.053  15.678  1.2595  1.5843  0.6283
  637TMC3    C1 9427   3.871   1.395  15.797 -0.2830  0.2591 -0.3189
  637TMC3    C2 9428   3.908   1.495  15.879 -0.2578  0.3627  0.2360
  637TMC3    C3 9429   4.029   1.561  15.851  0.2446 -0.3077 -1.1064
  637TMC3    C4 9430   3.960   1.352  15.696 -0.2714 -0.1320 -0.0113
  637TMC3    C5 9431   4.069   1.429  15.673 -0.2284 -0.0343 -0.2320
  637TMC3    C6 9432   4.110   1.532  15.749  0.1184 -0.4968 -0.1106
  637TMC3     C 9433   3.751   1.427  15.739  0.6200  0.1213  0.1223
  637TMC3     O 9434   3.709   1.349  15.649 -0.0127  0.3001  0.6838
  637TMC3     H 9435   3.846   1.520  15.964  0.0130 -1.3711  0.9389
  637TMC3    H1 9436   3.914   1.302  15.612 -2.4608  0.2153  0.9563
  637TMC3    H2 9437   4.203   1.582  15.727 -1.2173  0.9455 -2.4302
  637TMC3    C7 9438   4.063   1.482  15.539  0.8394 -0.5096  0.2256
  637TMC3    C8 9439   4.040   1.704  15.882 -0.5327 -0.5951 -0.7442
  637TMC3    O1 9440   4.052   1.395  15.449 -0.3376 -0.7682 -0.2920
  637TMC3    O2 9441   4.097   1.773  15.802  0.4290  0.1538 -0.5729
  638MPD2     C 9442   3.280   0.681  14.634 -0.6197  0.0241 -0.8366
  638MPD2    C1 9443   3.216   0.577  14.580 -0.2225 -0.3599  0.2410
  638MPD2    C2 9444   3.159   0.482  14.668  0.0780 -0.0929 -0.4764
  638MPD2    C3 9445   3.152   0.506  14.803 -0.2729  0.0953 -1.2093
  638MPD2    C4 9446   3.213   0.618  14.853  0.4203 -0.4773  0.6925
  638MPD2    C5 9447   3.273   0.703  14.771  0.1091 -0.1978 -0.3532
  638MPD2     H 9448   3.118   0.389  14.631  1.7985 -0.7511 -0.7080
  638MPD2    H1 9449   3.209   0.654  14.955  1.2014  1.0181  0.1986
  638MPD2    H2 9450   3.328   0.762  14.580 -2.5128  0.9422 -1.1451
  638MPD2    H3 9451   3.326   0.781  14.824  0.4284 -0.6148 -0.0587
  638MPD2     N 9452   3.074   0.406  14.877 -0.2966  0.4499 -0.7937
  638MPD2    H5 9453   3.042   0.328  14.820  2.0847 -0.7100 -0.5415
  638MPD2    N1 9454   3.242   0.550  14.442  0.0123  0.0066  0.4262
  638MPD2    H7 9455   3.318   0.598  14.395 -0.5814  1.1854  0.6616
  639TMC3    C1 9456   3.018   0.267  15.067 -0.3623  0.9623  0.1350
  639TMC3    C2 9457   2.910   0.210  15.000  0.0322 -0.7090 -0.2581
  639TMC3    C3 9458   2.843   0.112  15.077  1.1187  0.0330 -0.6854
  639TMC3    C4 9459   3.071   0.212  15.183  0.5874  0.2690  0.6539
  639TMC3    C5 9460   3.006   0.111  15.248 -0.7508  0.1983 -0.6160
  639TMC3    C6 9461   2.892   0.055  15.194 -0.4006 -0.4004 -0.7162
  639TMC3     C 9462   3.067   0.396  15.015 -0.1716  0.2616  0.1606
  639TMC3     O 9463   3.135   0.463  15.093 -0.0128  0.0300  0.0590
  639TMC3     H 9464   2.855   0.265  14.924  1.1706  0.3420 -0.3256
  639TMC3    H1 9465   3.160   0.259  15.224  2.5853 -1.6561 -1.4963
  639TMC3    H2 9466   2.834   4.715  15.258  0.4656  0.7584  1.2878
  639TMC3    C7 9467   3.097   0.009  15.303  0.1673  0.6967 -0.6136
  639TMC3    C8 9468   2.756   0.032  14.983 -0.3906 -1.1478  0.2160
  639TMC3    O1 9469   3.037   4.655  15.378  0.0074  0.0398  0.5774
  639TMC3    O2 9470   2.755   0.058  14.862  0.0526 -0.6925  0.0417
  640MPD2     C 9471   3.651   3.623   9.893  0.4619  0.4217 -0.4510
  640MPD2    C1 9472   3.676   3.750   9.843  0.5381 -0.0528 -0.1087
  640MPD2    C2 9473   3.610   3.856   9.894 -0.1770  0.4010 -0.1002
  640MPD2    C3 9474   3.504   3.837   9.974  0.1891  0.9206  0.3035
  640MPD2    C4 9475   3.476   3.709  10.022  0.2833 -0.0960 -0.4707
  640MPD2    C5 9476   3.553   3.602   9.989 -0.7993  0.1884 -0.3083
  640MPD2     H 9477   3.635   3.957   9.863  3.8636 -0.8852 -1.0250
  640MPD2    H1 9478   3.395   3.688  10.091  1.5600  1.2554  1.4392
  640MPD2    H2 9479   3.709   3.541   9.854  1.3598  0.9729 -0.2689
  640MPD2    H3 9480   3.538   3.504  10.034  2.3033  0.2799  0.9373
  640MPD2     N 9481   3.418   3.949  10.013 -0.4451  0.4071 -0.2139
  640MPD2    H5 9482   3.328   3.925  10.052  0.0690 -0.7661  0.2579
  640MPD2    N1 9483   3.787   3.762   9.756  0.2791 -0.3294 -0.6743
  640MPD2    H7 9484   3.824   3.674   9.723 -0.2018 -0.8718  0.2328
  641TMC3    C1 9485   3.950   3.832   9.601  0.1955 -0.0155 -0.2974
  641TMC3    C2 9486   4.001   3.701   9.615 -0.2624  0.8216 -0.4757
  641TMC3    C3 9487   4.110   3.675   9.529 -0.0467 -0.1503  0.0171
  641TMC3    C4 9488   4.000   3.927   9.515  0.0551 -0.4172  0.4205
  641TMC3    C5 9489   4.107   3.898   9.434  0.2615 -0.8932  0.6434
  641TMC3    C6 9490   4.161   3.774   9.449 -0.1105  0.2073  0.4775
  641TMC3     C 9491   3.844   3.873   9.696 -0.1804  0.1158 -0.2543
  641TMC3     O 9492   3.802   3.988   9.703 -0.3685  0.2831 -0.3081
  641TMC3     H 9493   3.963   3.624   9.681 -0.9589  0.4724 -1.3000
  641TMC3    H1 9494   3.954   4.024   9.503 -0.9536 -1.2964 -2.9996
  641TMC3    H2 9495   4.249   3.753   9.390 -1.1082 -0.9989 -0.5881
  641TMC3    C7 9496   4.180   4.008   9.375 -0.4676  0.0174 -0.1951
  641TMC3    C8 9497   4.192   3.557   9.553  0.4421  0.3418 -0.9393
  641TMC3    O1 9498   4.123   4.114   9.374  0.2686  0.1211  0.1074
  641TMC3    O2 9499   4.274   3.528   9.468 -0.2559 -0.2718 -0.2319
  642TMC3    C1 9500   4.401   0.269  12.064  0.7395 -0.2525  0.6467
  642TMC3    C2 9501   4.524   0.255  12.111 -0.9336  0.4203 -0.2422
  642TMC3    C3 9502   4.565   0.133  12.167 -0.0946 -0.6859  0.0510
  642TMC3    C4 9503   4.322   0.154  12.057 -0.2606  0.5231 -0.7956
  642TMC3    C5 9504   4.373   0.030  12.100  0.3241  0.0996 -0.1332
  642TMC3    C6 9505   4.503   0.013  12.148 -1.1943  0.0815 -0.1221
  642TMC3     C 9506   4.350   0.389  12.007  0.2358 -0.0651  0.8832
  642TMC3     O 9507   4.403   0.422  11.902 -0.2738  0.0820 -0.2882
  642TMC3     H 9508   4.589   0.339  12.089  2.1152 -2.0938 -0.8344
  642TMC3    H1 9509   4.226   0.154  12.008 -1.5719 -1.0749  1.7599
  642TMC3    H2 9510   4.549   4.646  12.177  0.4468  0.4565 -1.5429
  642TMC3    C7 9511   4.300   4.635  12.043  0.1353  0.0665  0.1509
  642TMC3    C8 9512   4.700   0.125  12.211 -0.0921  0.4980  0.4515
  642TMC3    O1 9513   4.212   4.647  11.962 -0.2266  0.0773 -0.3949
  642TMC3    O2 9514   0.036   0.025  12.185 -0.6145  0.1124  0.3998
  643TMC3    C1 9515   3.464   4.717   0.337  0.5975 -1.0495  0.4334
  643TMC3    C2 9516   3.395   0.075   0.254 -0.7109  0.0980 -0.2720
  643TMC3    C3 9517   3.407   0.059   0.117  0.3166  0.2812 -0.0889
  643TMC3    C4 9518   3.532   4.608   0.286 -1.2331  0.5116  0.7541
  643TMC3    C5 9519   3.514   4.576   0.153 -0.2707  0.0326 -0.1467
  643TMC3    C6 9520   3.455   4.665   0.063  0.1794 -0.0689 -0.1017
  643TMC3     C 9521   3.452   0.011   0.480 -0.3040  0.4276  0.0930
  643TMC3     O 9522   3.352   0.053   0.537 -0.1260 -0.4567 -0.0177
  643TMC3     H 9523   3.355   0.166   0.296  1.8683 -0.2678  2.9878
  643TMC3    H1 9524   3.567   4.529   0.352 -0.0986  0.7078  0.3822
  643TMC3    H2 9525   3.454   4.638  17.663 -1.7421  2.7727 -0.8205
  643TMC3    C7 9526   3.619   4.491   0.085  0.0850 -0.1296 -0.1643
  643TMC3    C8 9527   3.374   0.166   0.022  1.1568 -0.2130 -0.7655
  643TMC3    O1 9528   3.587   4.434  17.683 -0.8178  0.1176  0.0930
  643TMC3    O2 9529   3.400   0.149  17.607  0.4007  0.3708  0.1869
  644MPD2     C 9530   4.711   4.555   9.824  0.1243  0.3999  0.1925
  644MPD2    C1 9531   4.687   4.546   9.689  0.1027 -0.5092 -0.5298
  644MPD2    C2 9532   4.683   4.662   9.621 -0.5974 -0.6656  0.3427
  644MPD2    C3 9533   4.689   0.061   9.685 -0.1384  0.1784  0.8180
  644MPD2    C4 9534   4.724   0.059   9.816  0.1547 -0.1465  0.2697
  644MPD2    C5 9535   0.019   4.668   9.884  0.1499 -0.1106 -0.0900
  644MPD2     H 9536   4.661   4.668   9.515  0.2915 -3.4493 -0.0030
  644MPD2    H1 9537   0.008   0.148   9.876 -2.4904 -0.2293  0.8230
  644MPD2    H2 9538   4.715   4.466   9.887 -4.0321  1.9064  2.5813
  644MPD2    H3 9539   0.036   4.658   9.991  0.9744 -2.3583 -0.4398
  644MPD2     N 9540   4.660   0.171   9.602  0.4387  0.3571 -0.0892
  644MPD2    H5 9541   4.616   0.153   9.512  0.8634  2.1724 -0.6610
  644MPD2    N1 9542   4.667   4.418   9.625  0.1901  0.3943  0.3691
  644MPD2    H7 9543   4.654   4.343   9.692  1.8858  1.1188  1.4934
  645TMC3    C1 9544   4.641   0.399   9.521  0.2161 -0.1966  0.4255
  645TMC3    C2 9545   4.664   0.356   9.392 -0.5095  0.1156  0.3094
  645TMC3    C3 9546   4.652   0.462   9.307 -0.1625 -0.2072 -0.0044
  645TMC3    C4 9547   4.640   0.525   9.559 -0.2713 -0.4131 -0.1973
  645TMC3    C5 9548   4.629   0.625   9.468 -0.3110  0.0975 -0.5163
  645TMC3    C6 9549   4.640   0.596   9.340 -0.2789 -0.1479  0.3045
  645TMC3     C 9550   4.679   0.301   9.633  0.6927  0.1924 -0.9429
  645TMC3     O 9551   4.698   0.347   9.742 -0.4254 -0.0122 -0.4139
  645TMC3     H 9552   4.664   0.253   9.358 -0.9647  0.1478  0.2105
  645TMC3    H1 9553   4.628   0.553   9.663  0.0459  1.6075 -0.6974
  645TMC3    H2 9554   4.647   0.677   9.269  0.9106  1.1780  1.9221
  645TMC3    C7 9555   4.642   0.759   9.514  0.2676  0.6257 -0.3564
  645TMC3    C8 9556   4.628   0.419   9.172  1.1652  0.1074 -0.4265
  645TMC3    O1 9557   4.661   0.780   9.632 -0.2958 -0.1810 -0.3270
  645TMC3    O2 9558   4.621   0.297   9.142 -0.2909 -0.1016 -0.0479
  646MPD2     C 9559   3.286   3.999  14.282 -0.0164  0.3380  0.4469
  646MPD2    C1 9560   3.233   3.970  14.402 -0.1652  0.1946 -0.3862
  646MPD2    C2 9561   3.094   3.987  14.427 -0.1810 -0.8240 -0.0897
  646MPD2    C3 9562   3.017   4.029  14.321 -0.2679  0.3615 -0.4301
  646MPD2    C4 9563   3.077   4.063  14.203  0.1265  0.3302 -0.3650
  646MPD2    C5 9564   3.211   4.041  14.180 -0.1828  0.2548 -0.4837
  646MPD2     H 9565   3.053   3.970  14.526  0.8230 -1.3545  0.2404
  646MPD2    H1 9566   3.014   4.103  14.124  1.0559 -0.8698 -1.7163
  646MPD2    H2 9567   3.394   3.990  14.268  0.0280  4.6346 -2.0549
  646MPD2    H3 9568   3.249   4.051  14.079  0.7415 -1.4769 -0.3055
  646MPD2     N 9569   2.879   4.052  14.353 -0.2171  0.2207 -0.3749
  646MPD2    H5 9570   2.848   4.036  14.448 -0.5189 -1.9934 -0.8509
  646MPD2    N1 9571   3.309   3.923  14.509 -0.3577 -0.9831 -0.9364
  646MPD2    H7 9572   3.262   3.875  14.586  0.7538  1.9826  1.5939
  647TMC3    C1 9573   3.506   3.845  14.622 -0.3970 -0.1105  0.0418
  647TMC3    C2 9574   3.444   3.730  14.658 -0.0138  0.2184 -0.4559
  647TMC3    C3 9575   3.507   3.650  14.758  0.2984 -0.1749 -0.7129
  647TMC3    C4 9576   3.629   3.886  14.665  0.5253 -0.2069 -0.3413
  647TMC3    C5 9577   3.682   3.808  14.762 -1.0596  0.4095 -0.3843
  647TMC3    C6 9578   3.628   3.698  14.817  0.0992 -0.7987 -0.9204
  647TMC3     C 9579   3.446   3.935  14.529  0.1430 -0.3668  0.3764
  647TMC3     O 9580   3.515   4.010  14.462 -0.1292 -0.4562  0.0414
  647TMC3     H 9581   3.346   3.718  14.615 -0.5226 -0.1680  0.8102
  647TMC3    H1 9582   3.664   3.986  14.639 -1.9338  0.7534 -0.0437
  647TMC3    H2 9583   3.666   3.645  14.904 -2.0228 -1.4957 -0.4077
  647TMC3    C7 9584   3.805   3.847  14.835  0.1730 -0.2468 -0.4716
  647TMC3    C8 9585   3.437   3.531  14.800  0.4300 -0.3416  0.1237
  647TMC3    O1 9586   3.807   3.843  14.955  0.6141  0.0260 -0.1273
  647TMC3    O2 9587   3.317   3.521  14.774  0.5424  0.4270 -0.0071
  648TMC3    C1 9588   2.686   1.508  16.122 -0.0396  0.8340 -0.2715
  648TMC3    C2 9589   2.743   1.389  16.075  0.1034 -0.8595 -0.3579
  648TMC3    C3 9590   2.723   1.358  15.940  0.0390 -0.6300  0.5907
  648TMC3    C4 9591   2.619   1.592  16.036 -0.0674 -0.4221 -0.1384
  648TMC3    C5 9592   2.615   1.566  15.900  0.0235 -0.4143  0.4918
  648TMC3    C6 9593   2.670   1.449  15.848  0.4518 -0.7428  0.4394
  648TMC3     C 9594   2.694   1.551  16.264  0.1575 -0.0867  0.1122
  648TMC3     O 9595   2.647   1.666  16.285 -0.2784 -0.0027 -0.0140
  648TMC3     H 9596   2.794   1.313  16.134  2.2136 -0.3724 -1.5331
  648TMC3    H1 9597   2.576   1.684  16.073  0.6520 -0.7563  1.5063
  648TMC3    H2 9598   2.662   1.444  15.740 -1.9331 -1.5156  0.6450
  648TMC3    C7 9599   2.576   1.667  15.805  0.1917 -0.1147  0.3370
  648TMC3    C8 9600   2.703   1.218  15.911  0.7376 -0.8977  0.6526
  648TMC3    O1 9601   2.601   1.643  15.689  0.0539 -0.0772  0.9571
  648TMC3    O2 9602   2.672   1.147  16.005 -0.1631 -0.3803  0.1984
  649TMC3    C1 9603   1.349   2.550  12.747  0.1582  0.1194  0.3832
  649TMC3    C2 9604   1.486   2.579  12.733 -0.5462  0.0699 -0.4569
  649TMC3    C3 9605   1.545   2.621  12.847 -0.3346  0.2128 -0.0153
  649TMC3    C4 9606   1.284   2.538  12.866  0.3742  0.0540 -0.4476
  649TMC3    C5 9607   1.361   2.555  12.975 -0.0224  0.3793 -0.4305
  649TMC3    C6 9608   1.493   2.597  12.971 -0.0727  0.5183  0.1678
  649TMC3     C 9609   1.272   2.548  12.625  0.2021  0.8497  0.4808
  649TMC3     O 9610   1.158   2.587  12.637 -0.8737  0.3083  0.2873
  649TMC3     H 9611   1.526   2.594  12.633  1.9680  0.6885  0.6385
  649TMC3    H1 9612   1.180   2.508  12.864  0.1462  0.9387 -1.6028
  649TMC3    H2 9613   1.541   2.634  13.061  0.6268 -0.0881  0.0344
  649TMC3    C7 9614   1.320   2.501  13.105  0.0836  0.1941 -0.4192
  649TMC3    C8 9615   1.694   2.618  12.841 -0.5608 -0.5152 -0.6811
  649TMC3    O1 9616   1.358   2.555  13.211 -0.3253 -0.1351  0.4752
  649TMC3    O2 9617   1.752   2.601  12.951  0.1218 -0.3245  0.4822
  650TMC3    C1 9618   3.872   4.348  12.546  0.1149  0.2008 -0.0236
  650TMC3    C2 9619   3.824   4.461  12.605 -0.5389  0.1349 -0.5584
  650TMC3    C3 9620   3.689   4.490  12.591  0.0739  0.1554  0.4751
  650TMC3    C4 9621   3.795   4.270  12.473  0.4817  0.0201  0.2831
  650TMC3    C5 9622   3.668   4.306  12.467  0.2545  1.0081  0.2135
  650TMC3    C6 9623   3.604   4.411  12.520  1.3987  0.3682 -0.4829
  650TMC3     C 9624   4.019   4.321  12.566 -0.3305  0.0903 -0.8344
  650TMC3     O 9625   4.080   4.413  12.623  0.4450  0.0895 -0.0296
  650TMC3     H 9626   3.893   4.526  12.657 -0.4431 -1.5619  1.4313
  650TMC3    H1 9627   3.829   4.187  12.411 -2.8783 -1.0304 -0.1325
  650TMC3    H2 9628   3.505   4.440  12.486  0.6308 -1.8566 -0.1427
  650TMC3    C7 9629   3.606   4.246  12.349 -0.2899  0.1395 -0.2396
  650TMC3    C8 9630   3.650   4.625  12.607  0.7826 -0.3033  0.4395
  650TMC3    O1 9631   3.652   4.139  12.306  0.5582  0.2068 -0.7096
  650TMC3    O2 9632   3.731   4.717  12.603 -0.0212 -0.0585  0.6231
  651MPD2     C 9633   2.661   1.530  10.958  0.3759  0.3541  0.7726
  651MPD2    C1 9634   2.659   1.630  10.858 -0.0009  0.0100 -1.1687
  651MPD2    C2 9635   2.778   1.694  10.812 -0.2027 -0.7945  0.6181
  651MPD2    C3 9636   2.896   1.659  10.879  0.0744 -0.5467  0.4556
  651MPD2    C4 9637   2.894   1.559  10.980  0.1093 -0.5572 -0.1823
  651MPD2    C5 9638   2.776   1.492  11.019  0.8736  0.0869  0.1351
  651MPD2     H 9639   2.778   1.765  10.730 -0.0687 -2.4962 -0.8619
  651MPD2    H1 9640   2.982   1.520  11.031 -0.5421  0.5482  1.8291
  651MPD2    H2 9641   2.571   1.474  10.980 -0.2239  1.9636  2.4113
  651MPD2    H3 9642   2.769   1.408  11.087 -1.1028  2.4478  2.8050
  651MPD2     N 9643   3.009   1.726  10.837  0.1435  0.2418  0.4732
  651MPD2    H5 9644   2.994   1.797  10.766 -1.9252  0.4412  1.0984
  651MPD2    N1 9645   2.534   1.662  10.795  0.7047  0.2612  0.5660
  651MPD2    H7 9646   2.542   1.713  10.708 -0.5320  0.0341  0.3313
  652TMC3    C1 9647   3.452   1.823  10.774 -0.1049 -0.1723 -0.0692
  652TMC3    C2 9648   3.350   1.733  10.799  0.9798 -0.0120 -0.0714
  652TMC3    C3 9649   3.226   1.783  10.807 -0.3143  0.5494  0.8325
  652TMC3    C4 9650   3.431   1.957  10.780 -0.0795 -0.0026 -0.1371
  652TMC3    C5 9651   3.305   2.005  10.779 -0.0373  0.4884 -0.0364
  652TMC3    C6 9652   3.198   1.920  10.807 -0.0661 -0.6295 -0.4037
  652TMC3     C 9653   3.590   1.769  10.768 -0.4280 -0.7305 -0.0972
  652TMC3     O 9654   3.628   1.685  10.850  0.4738 -0.0662  0.6964
  652TMC3     H 9655   3.375   1.628  10.809 -1.1806 -0.4426  0.7658
  652TMC3    H1 9656   3.504   2.035  10.764 -0.6419  0.3693 -0.9254
  652TMC3    H2 9657   3.099   1.955  10.833  0.1089 -1.2357  1.0369
  652TMC3    C7 9658   3.283   2.128  10.853  0.4331  0.6032 -0.2630
  652TMC3    C8 9659   3.136   1.696  10.881  0.2071  0.1049  0.4305
  652TMC3    O1 9660   3.213   2.130  10.949 -0.3123 -0.7907  0.4005
  652TMC3    O2 9661   3.184   1.638  10.973 -0.2167 -0.4330 -0.6346
  653MPD2     C 9662   1.792   2.006  17.672  0.1567 -0.1693  0.8196
  653MPD2    C1 9663   1.737   2.092  17.576 -0.1632 -0.4140  0.1687
  653MPD2    C2 9664   1.634   2.034  17.496  0.1542 -0.0856  0.0869
  653MPD2    C3 9665   1.603   1.899  17.498  0.5700 -0.1226 -0.4850
  653MPD2    C4 9666   1.661   1.825  17.594 -0.4472  0.0313 -0.2882
  653MPD2    C5 9667   1.752   1.878  17.684 -0.3118 -0.2310 -0.5029
  653MPD2     H 9668   1.587   2.098  17.422  0.9122 -0.5869 -0.8289
  653MPD2    H1 9669   1.628   1.724  17.618 -1.1467 -0.1059 -1.8965
  653MPD2    H2 9670   1.864   2.048   0.037 -0.8462 -1.6090  2.7319
  653MPD2    H3 9671   1.804   1.819   0.054 -0.5645  1.3055  0.8830
  653MPD2     N 9672   1.501   1.856  17.407  0.3236 -0.3002  0.9465
  653MPD2    H5 9673   1.459   1.929  17.350 -0.7350 -0.6512  1.2781
  653MPD2    N1 9674   1.770   2.226  17.555  0.3293 -0.5316 -0.6386
  653MPD2    H7 9675   1.722   2.268  17.475  0.0197 -1.4189 -0.9137
  654TMC3    C1 9676   1.367   1.711  17.280  0.0208 -0.8221  0.5705
  654TMC3    C2 9677   1.279   1.809  17.236  0.6068 -0.2151 -1.2577
  654TMC3    C3 9678   1.181   1.770  17.142 -0.2341  0.5069 -0.6913
  654TMC3    C4 9679   1.360   1.586  17.225  0.3844 -0.0086 -0.1273
  654TMC3    C5 9680   1.264   1.553  17.139  0.5968 -0.3313  0.2401
  654TMC3    C6 9681   1.176   1.643  17.090 -0.8536  0.4334  0.1267
  654TMC3     C 9682   1.456   1.727  17.385  0.6304  0.3350  0.3782
  654TMC3     O 9683   1.503   1.628  17.434  0.9570  0.1540  0.1543
  654TMC3     H 9684   1.279   1.907  17.281  0.1363 -0.5456 -0.5285
  654TMC3    H1 9685   1.433   1.514  17.258 -0.3729  0.3311  2.3075
  654TMC3    H2 9686   1.103   1.616  17.015 -2.0741 -0.8390  1.7705
  654TMC3    C7 9687   1.265   1.424  17.074  0.1717  0.1654 -0.0107
  654TMC3    C8 9688   1.104   1.871  17.063  0.5276  1.0334  0.2780
  654TMC3    O1 9689   1.213   1.413  16.964  0.4513 -0.4005  0.0910
  654TMC3    O2 9690   1.033   1.821  16.980  0.4541 -0.4342 -0.2293
  655MPD2     C 9691   3.145   1.632  15.566 -0.6109 -0.0773 -0.5049
  655MPD2    C1 9692   3.078   1.743  15.523 -0.0081  1.0109  0.0516
  655MPD2    C2 9693   3.035   1.758  15.394  0.1475  0.2502  0.5799
  655MPD2    C3 9694   3.075   1.659  15.301  0.0336  0.0581 -0.2075
  655MPD2    C4 9695   3.156   1.555  15.338 -0.6043  0.1715  0.0110
  655MPD2    C5 9696   3.197   1.543  15.469 -0.0997 -0.1119  0.6473
  655MPD2     H 9697   2.974   1.843  15.367  0.5695  0.0187 -1.1223
  655MPD2    H1 9698   3.193   1.491  15.259 -1.8379 -0.2701 -0.2164
  655MPD2    H2 9699   3.166   1.620  15.672 -1.7576 -0.5898 -0.3381
  655MPD2    H3 9700   3.263   1.461  15.493  1.0880  0.9612  1.0622
  655MPD2     N 9701   3.032   1.651  15.167  0.3229 -0.1652  0.7272
  655MPD2    H5 9702   3.061   1.564  15.125  0.0664 -0.3913  1.0120
  655MPD2    N1 9703   3.040   1.849  15.606  0.6201 -0.6157 -0.5681
  655MPD2    H7 9704   3.006   1.929  15.553  1.7817 -0.3243 -0.8766
  656TMC3    C1 9705   2.967   1.970  15.788 -0.1189 -0.6733  0.0007
  656TMC3    C2 9706   2.895   1.952  15.903 -0.3962  0.2871  0.7470
  656TMC3    C3 9707   2.803   2.045  15.923  0.1302 -0.4474  0.8988
  656TMC3    C4 9708   2.947   2.081  15.704 -0.6312 -0.7963 -0.1365
  656TMC3    C5 9709   2.848   2.172  15.728 -0.3424 -0.2833  0.5020
  656TMC3    C6 9710   2.762   2.143  15.831 -0.6292  0.3440 -0.1924
  656TMC3     C 9711   3.054   1.861  15.743 -0.0806 -0.2093 -0.5826
  656TMC3     O 9712   3.092   1.785  15.830  0.4020 -0.0117  0.1415
  656TMC3     H 9713   2.905   1.872  15.975 -0.1909  0.2355  0.6608
  656TMC3    H1 9714   3.012   2.098  15.619 -1.9071 -0.3558 -1.0249
  656TMC3    H2 9715   2.673   2.200  15.852 -1.6279 -1.5507  0.7943
  656TMC3    C7 9716   2.783   2.187  15.599  0.0441  0.0410 -0.2765
  656TMC3    C8 9717   2.717   2.016  16.030  0.0568 -1.2422 -0.5781
  656TMC3    O1 9718   2.802   2.105  15.509  0.5036  0.5372  0.0514
  656TMC3    O2 9719   2.721   1.902  16.074 -0.4628  0.3585 -0.3235
  657TMC3    C1 9720   1.585   1.330  14.879 -0.0291  0.2348  0.3449
  657TMC3    C2 9721   1.604   1.336  15.014 -0.6533  0.7277 -0.2649
  657TMC3    C3 9722   1.536   1.430  15.075  0.4333 -0.4661  0.1470
  657TMC3    C4 9723   1.488   1.401  14.814  0.3544 -0.4252  0.3057
  657TMC3    C5 9724   1.414   1.489  14.889  0.1257 -0.0235  0.2408
  657TMC3    C6 9725   1.442   1.509  15.020 -1.1350  0.2925  0.3183
  657TMC3     C 9726   1.632   1.199  14.819  0.3223 -0.1576  0.1180
  657TMC3     O 9727   1.540   1.144  14.760 -0.3400  0.5542 -0.1428
  657TMC3     H 9728   1.691   1.283  15.051 -0.0606  2.8950  1.4117
  657TMC3    H1 9729   1.478   1.394  14.707  0.9302 -1.6730  0.3377
  657TMC3    H2 9730   1.366   1.559  15.079 -0.3798  1.3087  0.4296
  657TMC3    C7 9731   1.299   1.565  14.838 -0.2433  0.2084  0.2410
  657TMC3    C8 9732   1.575   1.464  15.211  0.0602 -0.0783  0.0842
  657TMC3    O1 9733   1.263   1.663  14.901  0.0565 -0.2301 -0.1135
  657TMC3    O2 9734   1.666   1.399  15.256  0.0626 -0.4180 -0.1299
  658MPD2     C 9735   3.199   1.180  14.794  0.8784 -0.4895  0.1944
  658MPD2    C1 9736   3.118   1.265  14.724 -0.3713  0.1684  0.2065
  658MPD2    C2 9737   3.147   1.298  14.594  0.0315  0.2141 -0.4138
  658MPD2    C3 9738   3.259   1.258  14.537 -1.0444 -0.3536 -0.6280
  658MPD2    C4 9739   3.337   1.167  14.599  0.3034 -0.4217 -0.2570
  658MPD2    C5 9740   3.305   1.130  14.723  0.8783  0.0014  0.7381
  658MPD2     H 9741   3.095   1.379  14.543 -1.0236 -0.9245 -1.1588
  658MPD2    H1 9742   3.428   1.122  14.561 -0.2666 -1.1273 -0.7809
  658MPD2    H2 9743   3.193   1.147  14.898 -0.7044 -2.5418 -0.5590
  658MPD2    H3 9744   3.372   1.063  14.776  1.3508  0.0838  0.2489
  658MPD2     N 9745   3.281   1.299  14.406 -0.8004 -0.0749 -0.0816
  658MPD2    H5 9746   3.210   1.349  14.354  0.5682 -1.0448 -2.8479
  658MPD2    N1 9747   3.016   1.333  14.790 -0.0193  0.2099  0.1215
  658MPD2    H7 9748   3.016   1.314  14.890 -0.8613 -1.8378 -0.2604
  659TMC3    C1 9749   2.845   1.494  14.834 -0.3539 -0.3937 -0.3625
  659TMC3    C2 9750   2.909   1.541  14.948 -0.0856 -0.7948  0.2205
  659TMC3    C3 9751   2.858   1.660  15.002 -0.3817 -0.8304  0.2333
  659TMC3    C4 9752   2.737   1.547  14.780  0.3711 -0.1377  0.4875
  659TMC3    C5 9753   2.689   1.661  14.836  0.0196 -0.0924 -0.3449
  659TMC3    C6 9754   2.752   1.717  14.943 -0.0250  0.0120 -0.3304
  659TMC3     C 9755   2.919   1.415  14.738 -0.1211 -0.2325 -0.3489
  659TMC3     O 9756   2.885   1.421  14.619 -0.3554  0.0959  0.3259
  659TMC3     H 9757   2.982   1.477  14.996  1.2711  0.2853 -0.3887
  659TMC3    H1 9758   2.699   1.509  14.686  3.2188  1.3160 -1.2534
  659TMC3    H2 9759   2.717   1.810  14.987  3.6597  2.1723 -1.9101
  659TMC3    C7 9760   2.552   1.715  14.813 -0.0101 -0.2290  0.7121
  659TMC3    C8 9761   2.928   1.722  15.118 -0.3969 -0.0936 -0.0767
  659TMC3    O1 9762   2.513   1.801  14.885 -0.2752  0.1568 -0.1352
  659TMC3    O2 9763   2.877   1.819  15.167 -0.6700 -0.9173 -0.1718
  660MPD2     C 9764   1.151   0.400  12.466  0.6739 -0.3113  0.1653
  660MPD2    C1 9765   1.021   0.356  12.434 -0.0143  0.1438  0.6569
  660MPD2    C2 9766   0.972   0.245  12.496  0.5064 -0.2914 -0.0340
  660MPD2    C3 9767   1.060   0.159  12.568 -0.5818 -0.0112 -0.4341
  660MPD2    C4 9768   1.185   0.201  12.598  0.4583 -0.6979 -0.3338
  660MPD2    C5 9769   1.225   0.326  12.555  0.4854  0.2125 -0.6600
  660MPD2     H 9770   0.871   0.209  12.478  0.1556 -0.3487  2.0016
  660MPD2    H1 9771   1.257   0.144  12.656 -0.2843 -0.5017  0.7792
  660MPD2    H2 9772   1.197   0.489  12.425 -3.3121  2.1564  1.0228
  660MPD2    H3 9773   1.328   0.354  12.574  0.3003  0.6642 -0.3114
  660MPD2     N 9774   1.036   0.029  12.615  0.0778  0.0498 -0.5945
  660MPD2    H5 9775   1.106   4.716  12.678 -0.6201  1.4796  1.0812
  660MPD2    N1 9776   0.944   0.438  12.352  0.3389  1.1493  0.3818
  660MPD2    H7 9777   0.995   0.515  12.310  1.8590  0.8894  1.7520
  661TMC3    C1 9778   0.744   0.534  12.237  0.4519  0.2353 -0.3013
  661TMC3    C2 9779   0.820   0.574  12.132 -0.2087  0.6912  0.5756
  661TMC3    C3 9780   0.767   0.653  12.041 -0.1308  0.4685 -0.0153
  661TMC3    C4 9781   0.628   0.589  12.269 -0.0213 -0.1688 -0.9324
  661TMC3    C5 9782   0.571   0.665  12.176  0.0398  0.1586  0.0538
  661TMC3    C6 9783   0.637   0.700  12.064 -0.3629  0.8205  0.1409
  661TMC3     C 9784   0.805   0.443  12.341 -0.1877  0.2511  0.6475
  661TMC3     O 9785   0.724   0.369  12.395 -0.2905  0.3418  0.2806
  661TMC3     H 9786   0.919   0.532  12.118  0.0100  2.1372 -2.4048
  661TMC3    H1 9787   0.568   0.546  12.349  3.0100 -3.0707 -0.1916
  661TMC3    H2 9788   0.594   0.773  11.997 -0.0126 -0.4112 -1.4180
  661TMC3    C7 9789   0.427   0.654  12.166 -0.2258  0.3571  0.4582
  661TMC3    C8 9790   0.845   0.674  11.914  1.1512  0.2424  0.3229
  661TMC3    O1 9791   0.368   0.692  12.266 -0.6684 -0.2009  0.0765
  661TMC3    O2 9792   0.919   0.589  11.871 -0.2677 -0.6711 -0.3819
  662MPD2     C 9793   1.285   0.200   0.179 -0.4961 -0.1688 -0.3196
  662MPD2    C1 9794   1.272   0.167   0.043  0.3726  0.1643 -0.0105
  662MPD2    C2 9795   1.243   0.267  17.651  0.3474 -0.4838  0.1064
  662MPD2    C3 9796   1.221   0.396  17.697 -0.5217 -0.2588 -0.2402
  662MPD2    C4 9797   1.246   0.425   0.123  0.0564  0.0890 -0.1575
  662MPD2    C5 9798   1.270   0.329   0.214  0.1435 -0.4689 -0.0216
  662MPD2     H 9799   1.226   0.248  17.546  1.8713  0.0507 -0.2289
  662MPD2    H1 9800   1.240   0.522   0.172  1.3366  0.9674 -1.7483
  662MPD2    H2 9801   1.307   0.121   0.249  0.0785  0.2882  0.0139
  662MPD2    H3 9802   1.287   0.355   0.318 -0.7014  1.8222 -0.4513
  662MPD2     N 9803   1.206   0.511  17.616 -0.5296  0.1204  0.3946
  662MPD2    H5 9804   1.211   0.599  17.666 -2.0374 -0.1464  1.0124
  662MPD2    N1 9805   1.278   0.034  17.703  0.4183 -0.7779  0.2247
  662MPD2    H7 9806   1.249   0.020  17.607  2.3480 -2.5474 -0.0853
  663TMC3    C1 9807   1.292   4.524   0.006  0.9637 -0.2247 -0.1588
  663TMC3    C2 9808   1.317   4.414   0.088  0.6771  0.0819  0.0318
  663TMC3    C3 9809   1.372   4.304   0.034 -0.6950 -0.2919 -0.3132
  663TMC3    C4 9810   1.307   4.517  17.578  0.1437 -0.0107 -0.8905
  663TMC3    C5 9811   1.361   4.398  17.530  0.0093 -0.1192 -0.7566
  663TMC3    C6 9812   1.390   4.294  17.607  0.1262 -0.5159  0.0479
  663TMC3     C 9813   1.313   4.647   0.077 -0.1924 -0.2282  0.2269
  663TMC3     O 9814   1.354   4.641   0.190 -0.2038 -0.2765  0.1977
  663TMC3     H 9815   1.287   4.430   0.191 -1.0133  0.1418 -0.4578
  663TMC3    H1 9816   1.281   4.600  17.513  3.7735  1.1124 -0.8875
  663TMC3    H2 9817   1.451   4.216  17.563  0.5938 -0.1239 -0.0068
  663TMC3    C7 9818   1.320   4.360  17.400  0.4084  0.7247 -0.1991
  663TMC3    C8 9819   1.294   4.186   0.068  0.5517 -0.0893  0.0362
  663TMC3    O1 9820   1.343   4.430  17.300 -0.5108  0.0151  0.3067
  663TMC3    O2 9821   1.238   4.121  17.688 -0.3593  0.1182  1.0014
  664MPD2     C 9822   4.343   3.766  17.582 -0.7645  0.1656 -0.2475
  664MPD2    C1 9823   4.441   3.769  17.673 -0.6226  0.5054  0.7595
  664MPD2    C2 9824   4.445   3.679   0.071  0.3883  0.6201 -0.1807
  664MPD2    C3 9825   4.348   3.583   0.078  0.0504 -0.1848  0.2268
  664MPD2    C4 9826   4.243   3.575  17.682 -0.3512 -0.5735 -1.0663
  664MPD2    C5 9827   4.245   3.671  17.585 -0.4836  0.1448 -0.1765
  664MPD2     H 9828   4.520   3.687   0.149  0.6135  0.1083 -0.3428
  664MPD2    H1 9829   4.166   3.498  17.679 -1.7092  0.6921  0.5277
  664MPD2    H2 9830   4.335   3.838  17.501  0.4005  2.1947  1.4336
  664MPD2    H3 9831   4.162   3.674  17.515 -0.4288 -0.7161 -0.2795
  664MPD2     N 9832   4.339   3.509   0.201  0.9605 -0.0064  0.1818
  664MPD2    H5 9833   4.426   3.503   0.253 -0.1064 -0.3371  1.9025
  664MPD2    N1 9834   4.551   3.859  17.658  0.2467  0.0500 -0.7694
  664MPD2    H7 9835   4.625   3.843   0.020 -1.3120  0.3022  1.0366
  665TMC3    C1 9836   4.255   3.405   0.390  0.2463 -0.3442  0.5586
  665TMC3    C2 9837   4.137   3.359   0.447 -0.0284  0.9434 -0.0297
  665TMC3    C3 9838   4.128   3.380   0.588  0.5251 -0.0119  0.1778
  665TMC3    C4 9839   4.354   3.479   0.453 -0.1962 -0.0892 -0.5617
  665TMC3    C5 9840   4.331   3.511   0.585  0.0289  0.5156 -0.1486
  665TMC3    C6 9841   4.220   3.465   0.652 -0.4565 -0.2311  0.0933
  665TMC3     C 9842   4.238   3.433   0.252 -0.0225  0.6460  0.3611
  665TMC3     O 9843   4.130   3.398   0.208  0.5329 -0.2501  0.3601
  665TMC3     H 9844   4.080   3.284   0.393  0.3800  0.2504  0.4974
  665TMC3    H1 9845   4.445   3.514   0.407  0.4142 -0.6546  0.2270
  665TMC3    H2 9846   4.195   3.487   0.756 -0.5286  1.5854 -0.3077
  665TMC3    C7 9847   4.429   3.607   0.637 -0.3008 -0.2985  0.4289
  665TMC3    C8 9848   4.006   3.345   0.652 -1.3690 -0.3679  0.6158
  665TMC3    O1 9849   4.518   3.635   0.556 -0.6809  0.5868  0.6716
  665TMC3    O2 9850   3.980   3.380   0.765  0.0356  0.4012 -0.0673
  666TMC3    C1 9851   3.396   2.641  10.170 -0.0741  0.8140  0.3831
  666TMC3    C2 9852   3.508   2.629  10.096  0.2378 -0.1234  0.1282
  666TMC3    C3 9853   3.591   2.738  10.085 -0.1673 -0.1646  0.1252
  666TMC3    C4 9854   3.355   2.763  10.229  0.3350 -0.1182 -0.1200
  666TMC3    C5 9855   3.434   2.876  10.199 -0.1590  0.0020  0.2358
  666TMC3    C6 9856   3.553   2.863  10.128 -0.2511 -0.3567 -0.3751
  666TMC3     C 9857   3.324   2.528  10.218 -0.1667 -0.5890 -0.2394
  666TMC3     O 9858   3.293   2.522  10.337  0.0305  0.3088 -0.0678
  666TMC3     H 9859   3.532   2.534  10.050  1.3543 -0.4142  1.3002
  666TMC3    H1 9860   3.260   2.776  10.279 -0.1744  0.5058 -1.2492
  666TMC3    H2 9861   3.598   2.953  10.091 -0.2658  1.0089  2.8824
  666TMC3    C7 9862   3.376   3.011  10.221 -0.0980  0.0813  0.3347
  666TMC3    C8 9863   3.740   2.706  10.102 -0.2664 -0.0966  0.5258
  666TMC3    O1 9864   3.257   3.016  10.194  0.3152 -1.3445  0.3908
  666TMC3    O2 9865   3.774   2.598  10.146  0.6481 -0.1247  0.5513
  667MPD2     C 9866   0.381   3.472  14.383  0.0303 -0.3815  0.2765
  667MPD2    C1 9867   0.310   3.447  14.501 -0.6698 -0.0058  0.3381
  667MPD2    C2 9868   0.216   3.346  14.506 -0.2057  0.1208 -0.1633
  667MPD2    C3 9869   0.183   3.273  14.389 -0.6152 -0.1393  0.5762
  667MPD2    C4 9870   0.259   3.298  14.273  0.1674 -0.3807  0.1558
  667MPD2    C5 9871   0.362   3.394  14.277  0.7203 -0.0125  1.0238
  667MPD2     H 9872   0.172   3.322  14.602  1.5705 -0.3532  0.5318
  667MPD2    H1 9873   0.255   3.237  14.184 -2.6583 -1.0726  0.7474
  667MPD2    H2 9874   0.460   3.546  14.388  0.8363 -1.3672  2.3050
  667MPD2    H3 9875   0.433   3.422  14.201 -2.2451  1.8867 -1.0305
  667MPD2     N 9876   0.069   3.186  14.383 -0.1734  0.3464 -0.1885
  667MPD2    H5 9877   0.043   3.141  14.295 -4.0189 -0.8691  1.5691
  667MPD2    N1 9878   0.330   3.506  14.624  0.2225  0.2525  0.1078
  667MPD2    H7 9879   0.262   3.496  14.700 -0.2756 -0.0207 -0.3712
  668TMC3    C1 9880   0.391   3.669  14.793  0.3169 -0.3690  0.4304
  668TMC3    C2 9881   0.468   3.784  14.804  0.6378 -0.2127  0.4680
  668TMC3    C3 9882   0.520   3.808  14.928 -0.0708 -0.0331  0.0541
  668TMC3    C4 9883   0.385   3.576  14.895 -0.4493 -0.3950  0.2613
  668TMC3    C5 9884   0.425   3.619  15.015  0.6420  0.0604 -0.1092
  668TMC3    C6 9885   0.501   3.730  15.035 -0.5690 -0.3974 -0.7438
  668TMC3     C 9886   0.415   3.605  14.658 -0.0231  0.3624 -0.2580
  668TMC3     O 9887   0.503   3.651  14.590  0.3229 -0.0480  0.3354
  668TMC3     H 9888   0.471   3.854  14.722 -0.0412 -0.6050  0.1065
  668TMC3    H1 9889   0.343   3.477  14.885  0.9379 -0.7027 -2.7455
  668TMC3    H2 9890   0.545   3.761  15.129 -3.3742 -1.0764  0.8097
  668TMC3    C7 9891   0.355   3.571  15.126 -0.0787 -0.4217 -0.1565
  668TMC3    C8 9892   0.613   3.919  14.939 -0.0226 -0.3352  0.3879
  668TMC3    O1 9893   0.411   3.570  15.234  0.4065  0.3879  0.2175
  668TMC3    O2 9894   0.613   3.971  15.048  0.1795  0.4707  0.2892
  669TMC3    C1 9895   3.513   3.307  14.396 -0.0622 -0.5100 -0.9642
  669TMC3    C2 9896   3.458   3.254  14.279  0.2813 -1.1093 -0.4656
  669TMC3    C3 9897   3.466   3.329  14.165 -0.0177  0.3112 -0.4431
  669TMC3    C4 9898   3.566   3.435  14.397  0.1985  0.7513  0.4516
  669TMC3    C5 9899   3.557   3.508  14.278  0.1575 -0.2705  0.1816
  669TMC3    C6 9900   3.499   3.461  14.164 -0.0781  0.2663  0.0236
  669TMC3     C 9901   3.512   3.222  14.519 -0.1629  0.3491  0.0087
  669TMC3     O 9902   3.415   3.144  14.523 -0.4831  0.3156 -0.1280
  669TMC3     H 9903   3.425   3.151  14.282 -0.6876 -0.7909 -0.2738
  669TMC3    H1 9904   3.623   3.480  14.477  0.9093  0.3965  0.1432
  669TMC3    H2 9905   3.512   3.519  14.073  1.8628 -1.2907 -0.6947
  669TMC3    C7 9906   3.615   3.640  14.265  0.5140 -0.3496 -0.4703
  669TMC3    C8 9907   3.361   3.288  14.066  0.0032  0.3878 -0.5076
  669TMC3    O1 9908   3.703   3.678  14.338 -0.1574  0.2868 -0.1836
  669TMC3    O2 9909   3.332   3.170  14.067  0.1807 -0.5386  0.2786
  670MPD2     C 9910   1.029   1.303  13.158 -0.5351  0.3221 -0.0235
  670MPD2    C1 9911   1.154   1.314  13.206 -0.3532  0.2492  0.5605
  670MPD2    C2 9912   1.185   1.261  13.327  0.0544  0.0720  0.2272
  670MPD2    C3 9913   1.082   1.210  13.402  0.1879  0.3227  0.1836
  670MPD2    C4 9914   0.951   1.199  13.355 -0.3326  0.0458  0.4450
  670MPD2    C5 9915   0.927   1.246  13.230  0.5988 -0.3274 -0.1746
  670MPD2     H 9916   1.283   1.258  13.373  0.2249  1.3462 -0.0487
  670MPD2    H1 9917   0.876   1.149  13.416  0.4984 -0.8950  0.7055
  670MPD2    H2 9918   0.992   1.355  13.070 -0.7558  1.2454  0.6277
  670MPD2    H3 9919   0.826   1.263  13.195  0.9667 -0.8921 -1.5076
  670MPD2     N 9920   1.123   1.149  13.526 -0.2198  0.6106 -0.4474
  670MPD2    H5 9921   1.222   1.131  13.541  0.1596  1.0019 -2.5076
  670MPD2    N1 9922   1.258   1.383  13.137 -0.1941 -0.3260 -0.2715
  670MPD2    H7 9923   1.349   1.385  13.181 -1.4118  0.4174  2.2125
  671TMC3    C1 9924   1.098   1.005  13.716  0.3179  0.5166 -0.6317
  671TMC3    C2 9925   1.234   1.018  13.729  0.6876 -0.5419  0.4105
  671TMC3    C3 9926   1.293   0.912  13.796 -0.2813  0.6978 -0.3045
  671TMC3    C4 9927   1.033   0.887  13.751 -0.6573  0.2348  1.2455
  671TMC3    C5 9928   1.101   0.788  13.805 -0.3211  0.0165 -0.0050
  671TMC3    C6 9929   1.233   0.801  13.837  0.0819  0.2024 -0.6368
  671TMC3     C 9930   1.031   1.092  13.618  0.3255 -0.0023 -0.1494
  671TMC3     O 9931   0.912   1.083  13.627  0.3473  0.6517 -0.0208
  671TMC3     H 9932   1.272   1.120  13.730 -1.1483  0.1659 -0.4728
  671TMC3    H1 9933   0.930   0.867  13.721 -0.6888  1.5185  0.4803
  671TMC3    H2 9934   1.283   0.724  13.894 -1.5852  0.3865  1.0863
  671TMC3    C7 9935   1.037   0.663  13.833  0.0041 -0.1134  0.5887
  671TMC3    C8 9936   1.440   0.921  13.782  0.7789  0.2675 -0.2216
  671TMC3    O1 9937   0.960   0.617  13.749  0.1674 -0.1267 -0.3940
  671TMC3    O2 9938   1.480   1.026  13.731  0.5615  0.2200 -0.4494
  672MPD2     C 9939   0.444   1.803   1.254  0.3374  0.4211  0.9929
  672MPD2    C1 9940   0.503   1.881   1.162  0.2408 -0.2255 -0.1876
  672MPD2    C2 9941   0.560   2.000   1.205  0.4063 -0.5563 -0.0806
  672MPD2    C3 9942   0.562   2.037   1.336  0.3420  0.1684  0.5791
  672MPD2    C4 9943   0.495   1.955   1.424  0.9305 -1.0525 -0.1950
  672MPD2    C5 9944   0.432   1.839   1.383  0.5982  1.0636  0.0676
  672MPD2     H 9945   0.611   2.062   1.132 -0.8846  0.3589 -0.2118
  672MPD2    H1 9946   0.491   1.992   1.526  0.0239  1.1871 -1.0469
  672MPD2    H2 9947   0.391   1.709   1.245  0.0897  0.8450 -1.8609
  672MPD2    H3 9948   0.371   1.778   1.448  0.0242  1.9195  0.3349
  672MPD2     N 9949   0.645   2.138   1.388  0.0169  0.8249  0.5608
  672MPD2    H5 9950   0.651   2.156   1.488 -0.8423 -1.1532  0.9536
  672MPD2    N1 9951   0.516   1.849   1.024  0.1381 -0.0616  0.1316
  672MPD2    H7 9952   0.547   1.926   0.966  0.9311 -2.3355 -2.5181
  673TMC3    C1 9953   0.568   1.713   0.847  0.7297  0.1685 -0.2871
  673TMC3    C2 9954   0.651   1.606   0.823  0.2688  0.9364  0.1635
  673TMC3    C3 9955   0.728   1.600   0.712  0.1934 -1.2864 -0.2407
  673TMC3    C4 9956   0.570   1.821   0.766 -0.2566 -0.6443  0.7080
  673TMC3    C5 9957   0.632   1.797   0.646  0.1931 -0.0419  0.9222
  673TMC3    C6 9958   0.716   1.693   0.617 -0.1153  0.0703  0.4085
  673TMC3     C 9959   0.516   1.720   0.980 -0.1281  0.2573  0.4077
  673TMC3     O 9960   0.497   1.613   1.040  0.4122  0.2359  0.2323
  673TMC3     H 9961   0.650   1.516   0.882  1.5007  0.3195 -0.7402
  673TMC3    H1 9962   0.511   1.909   0.786 -2.2930 -1.8289 -0.0043
  673TMC3    H2 9963   0.765   1.681   0.521  1.4250  1.6136  1.0044
  673TMC3    C7 9964   0.615   1.896   0.542 -0.0204  0.4291 -0.0721
  673TMC3    C8 9965   0.812   1.479   0.695  0.1398 -0.1833 -0.3413
  673TMC3    O1 9966   0.522   1.974   0.558 -0.1493  0.2633  0.0738
  673TMC3    O2 9967   0.848   1.442   0.588  0.5865 -0.1220 -0.7888
  674MPD2     C 9968   1.640   2.196   0.224 -0.5253  0.0512 -0.2636
  674MPD2    C1 9969   1.636   2.072   0.278  0.0621  0.4118 -0.0852
  674MPD2    C2 9970   1.538   1.984   0.243 -0.0930  1.1900  0.2222
  674MPD2    C3 9971   1.446   2.015   0.147 -0.4655 -0.4313  0.1440
  674MPD2    C4 9972   1.459   2.135   0.087  0.3273 -0.5331  0.2098
  674MPD2    C5 9973   1.553   2.227   0.123  0.1749 -0.0274 -0.1510
  674MPD2     H 9974   1.529   1.883   0.284 -0.4690  2.2510  2.7716
  674MPD2    H1 9975   1.391   2.163   0.007  0.3021 -1.9391 -0.2512
  674MPD2    H2 9976   1.713   2.270   0.251 -0.5229 -0.1393  0.2521
  674MPD2    H3 9977   1.560   2.322   0.071 -2.8158  0.3474  0.1642
  674MPD2     N 9978   1.337   1.930   0.127 -1.0135 -0.3197  0.1297
  674MPD2    H5 9979   1.342   1.837   0.167  0.7259 -0.6355 -0.8382
  674MPD2    N1 9980   1.721   2.047   0.388  0.2635 -0.3517 -0.1128
  674MPD2    H7 9981   1.764   2.132   0.423  2.5439 -1.2217 -0.8109
  675TMC3    C1 9982   1.792   1.959   0.593 -0.2500 -0.0004 -0.1517
  675TMC3    C2 9983   1.739   1.896   0.704 -1.0265 -0.1370 -0.6576
  675TMC3    C3 9984   1.769   1.951   0.823  0.6272  0.0741 -0.2266
  675TMC3    C4 9985   1.862   2.076   0.602 -0.1724  0.2331 -0.5971
  675TMC3    C5 9986   1.910   2.106   0.730 -0.1652  0.0914  0.4652
  675TMC3    C6 9987   1.857   2.051   0.842 -0.3587 -0.8413 -0.1627
  675TMC3     C 9988   1.729   1.936   0.471 -0.0859  0.0736 -0.1754
  675TMC3     O 9989   1.661   1.831   0.461  0.0652  0.2590 -0.1340
  675TMC3     H 9990   1.667   1.814   0.703 -1.1781  0.0367 -2.7004
  675TMC3    H1 9991   1.895   2.130   0.514  0.5433  2.5009  1.0565
  675TMC3    H2 9992   1.890   2.079   0.941  1.4847  0.6325 -1.1876
  675TMC3    C7 9993   2.006   2.213   0.748 -0.0601  0.2520 -0.4775
  675TMC3    C8 9994   1.698   1.902   0.940  0.1509  0.0359  0.2376
  675TMC3    O1 9995   1.990   2.278   0.850 -0.1139  0.2777  0.5651
  675TMC3    O2 9996   1.658   1.987   1.022 -0.3467  0.3246  0.1482
  676MPD2     C 9997   3.887   4.161  10.952  0.1158 -0.7778  0.3256
  676MPD2    C1 9998   3.765   4.114  10.936 -0.8246  0.1996  0.5141
  676MPD2    C2 9999   3.746   3.983  10.894  0.0255 -0.3852 -0.7895
  676MPD2    C310000   3.853   3.895  10.869 -0.6638 -0.3359  0.5951
  676MPD2    C410001   3.984   3.943  10.885  0.5428  0.1832 -0.5611
  676MPD2    C510002   3.999   4.074  10.924  0.2200  0.0037 -0.3549
  676MPD2     H10003   3.643   3.948  10.891 -0.3353  0.5243  1.0596
  676MPD2    H110004   4.069   3.879  10.867  0.6824 -0.3118  1.9009
  676MPD2    H210005   3.908   4.258  10.996 -0.6220  0.6124 -2.3865
  676MPD2    H310006   4.100   4.109  10.940  0.1744 -0.7301  1.4711
  676MPD2     N10007   3.837   3.759  10.850  0.2172  0.1313 -0.0505
  676MPD2    H510008   3.924   3.709  10.836 -0.5074 -1.4716  1.0947
  676MPD2    N110009   3.651   4.180  10.975  0.0862  0.1222 -0.4902
  676MPD2    H710010   3.569   4.123  10.993  1.7998 -1.6693  1.5293
  677TMC3    C110011   3.520   4.326  11.090  0.0700 -0.4012  0.3271
  677TMC3    C210012   3.431   4.218  11.092 -0.5590 -0.0773 -0.4932
  677TMC3    C310013   3.333   4.217  11.186 -0.4919 -0.3600  0.9495
  677TMC3    C410014   3.529   4.403  11.199 -0.5419 -0.4258 -0.1810
  677TMC3    C510015   3.437   4.396  11.295 -0.2448 -0.4986 -0.1655
  677TMC3    C610016   3.335   4.304  11.290 -0.2344 -0.4309  0.4433
  677TMC3     C10017   3.642   4.312  11.013  0.3295 -0.4399 -0.5604
  677TMC3     O10018   3.722   4.401  10.989  0.0488  0.1022  0.0254
  677TMC3     H10019   3.397   4.161  11.006  2.4579  0.1722 -1.8475
  677TMC3    H110020   3.608   4.477  11.205 -1.1410  0.2190 -0.3671
  677TMC3    H210021   3.251   4.300  11.359  1.0169 -1.2474  1.9318
  677TMC3    C710022   3.458   4.455  11.428  0.0398 -0.5993  0.1565
  677TMC3    C810023   3.228   4.112  11.173  0.4191  0.0260 -0.7587
  677TMC3    O110024   3.368   4.442  11.505 -0.5927 -0.4483 -0.2678
  677TMC3    O210025   3.189   4.070  11.066  0.2357  0.0082  0.3007
  678MPD2     C10026   0.676   4.700   1.698 -0.4862  0.0980 -0.0386
  678MPD2    C110027   0.728   4.597   1.623  0.0930  0.7855 -0.3413
  678MPD2    C210028   0.643   4.506   1.572  0.0431 -0.1615 -0.0270
  678MPD2    C310029   0.503   4.530   1.577  0.0222 -0.3143 -0.0528
  678MPD2    C410030   0.455   4.628   1.660  0.7817 -0.5785 -0.4809
  678MPD2    C510031   0.542   4.703   1.727 -0.4559  0.1409 -0.4329
  678MPD2     H10032   0.684   4.431   1.506 -2.7863 -0.8042 -1.0221
  678MPD2    H110033   0.347   4.637   1.670  0.9405  0.9149 -0.0818
  678MPD2    H210034   0.743   0.042   1.751 -2.2120  2.5388 -0.9817
  678MPD2    H310035   0.496   0.043   1.800  0.5601  0.0712  0.2631
  678MPD2     N10036   0.422   4.445   1.505 -0.0391  0.4303  0.2576
  678MPD2    H510037   0.461   4.373   1.445  0.6176 -0.1278  1.3382
  678MPD2    N110038   0.868   4.577   1.604 -0.1410  0.4238  0.1167
  678MPD2    H710039   0.904   4.487   1.572 -2.1491 -0.9565  1.6868
  679TMC3    C110040   1.247   4.446   1.636  0.4357  0.7443 -0.6423
  679TMC3    C210041   1.117   4.487   1.639 -0.1292  0.1838  0.1957
  679TMC3    C310042   1.097   4.622   1.621  0.5618  0.1870 -1.1644
  679TMC3    C410043   1.353   4.534   1.640  0.4787  0.1812  0.3557
  679TMC3    C510044   1.332   4.663   1.610 -0.2029 -0.2830 -0.0611
  679TMC3    C610045   1.203   4.711   1.606  0.5233 -0.4817 -0.2974
  679TMC3     C10046   1.275   4.315   1.596 -0.4123  0.0137 -0.1733
  679TMC3     O10047   1.212   4.222   1.650  0.3093  1.0026 -0.0498
  679TMC3     H10048   1.039   4.412   1.647 -0.4399  0.4516 -0.3261
  679TMC3    H110049   1.458   4.508   1.635  0.3783 -0.0811 -0.4258
  679TMC3    H210050   1.174   0.089   1.592  1.6754 -0.2437 -0.8792
  679TMC3    C710051   1.378   4.680   1.474  0.1203  0.4485 -0.3040
  679TMC3    C810052   0.960   4.675   1.625 -0.6888  0.2413 -0.4499
  679TMC3    O110053   1.292   4.723   1.394 -0.1118  0.1666 -0.0968
  679TMC3    O210054   0.952   0.068   1.627 -0.0668  0.3574 -0.7472
  680MPD2     C10055   0.927   2.919  13.511 -0.1831  0.2496  0.1052
  680MPD2    C110056   0.961   2.890  13.642 -0.1915  0.3342 -0.1757
  680MPD2    C210057   1.050   2.970  13.713 -0.2806 -0.4288  0.9785
  680MPD2    C310058   1.092   3.087  13.645  0.6325 -0.5448  0.4375
  680MPD2    C410059   1.056   3.116  13.518 -0.4688  0.3645  0.4515
  680MPD2    C510060   0.979   3.024  13.444 -0.0432 -0.5540  0.5106
  680MPD2     H10061   1.092   2.952  13.811 -1.7041  2.2253  2.0825
  680MPD2    H110062   1.079   3.205  13.459  0.0915  1.0895  1.7632
  680MPD2    H210063   0.863   2.851  13.456 -1.1196  0.2808  1.1524
  680MPD2    H310064   0.955   3.053  13.342  0.1940 -1.4602  0.1950
  680MPD2     N10065   1.181   3.177  13.704  0.4269  0.1664  0.0497
  680MPD2    H510066   1.242   3.241  13.655  1.0851  1.7623  2.9755
  680MPD2    N110067   0.925   2.762  13.693 -0.1214 -0.4270  0.1643
  680MPD2    H710068   0.886   2.689  13.635 -2.1311 -1.3111  2.6690
  681TMC3    C110069   0.951   2.571  13.843  0.3743 -0.4264  1.2457
  681TMC3    C210070   0.978   2.524  13.966  0.1571  0.6250 -0.0991
  681TMC3    C310071   0.994   2.384  13.983  0.4841 -0.1702  0.1182
  681TMC3    C410072   0.944   2.492  13.729 -0.7034 -0.4936  0.1635
  681TMC3    C510073   0.960   2.356  13.749  0.0193  0.2079 -0.0243
  681TMC3    C610074   0.982   2.302  13.877 -0.4791 -0.0441 -0.0541
  681TMC3     C10075   0.959   2.717  13.819 -0.1237  0.7193 -0.6186
  681TMC3     O10076   0.991   2.783  13.916 -0.5799  0.3324  0.8560
  681TMC3     H10077   0.970   2.588  14.052 -2.6220 -1.3247  1.0880
  681TMC3    H110078   0.951   2.521  13.625  1.2547 -0.3369  0.3314
  681TMC3    H210079   1.012   2.198  13.891 -0.4118 -0.0299 -0.0965
  681TMC3    C710080   0.989   2.273  13.639  0.1903  0.5401 -0.0058
  681TMC3    C810081   1.077   2.342  14.096  0.1398  0.5333  0.4703
  681TMC3    O110082   0.948   2.158  13.645  0.7568 -0.1544  0.4006
  681TMC3    O210083   1.083   2.225  14.121 -0.3015 -0.1629 -0.0307
  682MPD2     C10084   2.785   4.124  10.714 -0.0598  0.1995 -0.7943
  682MPD2    C110085   2.749   3.988  10.721  0.0166  0.5445 -0.1240
  682MPD2    C210086   2.662   3.950  10.815  0.3488 -0.1859  0.8310
  682MPD2    C310087   2.617   4.040  10.912  0.4965  0.1732 -0.0862
  682MPD2    C410088   2.671   4.168  10.918 -0.6948  0.7683  1.1065
  682MPD2    C510089   2.751   4.214  10.811  0.4754  0.4392 -0.2181
  682MPD2     H10090   2.631   3.846  10.818  1.3344 -0.4897  0.2012
  682MPD2    H110091   2.653   4.239  10.998 -0.6962 -0.4848  2.2017
  682MPD2    H210092   2.860   4.148  10.640  1.2398  1.9473  1.0649
  682MPD2    H310093   2.789   4.315  10.809  0.7241  0.3419 -0.5604
  682MPD2     N10094   2.527   3.982  11.007 -0.6955 -0.2297  0.0778
  682MPD2    H510095   2.487   3.891  10.990  0.7643 -1.2467  2.0435
  682MPD2    N110096   2.783   3.890  10.624  0.7781  0.3207 -0.2692
  682MPD2    H710097   2.756   3.794  10.642  1.5413  0.0565 -0.5667
  683TMC3    C110098   2.432   3.838  11.430 -0.5504  0.1923  0.0798
  683TMC3    C210099   2.373   3.726  11.374 -0.1728  0.1056  0.0949
  683TMC3    C310100   2.343   3.720  11.237  0.9677  0.1190  0.5457
  683TMC3    C410101   2.452   3.950  11.351 -0.3458 -0.0722 -0.7013
  683TMC3    C510102   2.427   3.934  11.217  0.8560  0.7402  0.1890
  683TMC3    C610103   2.368   3.822  11.156  0.0115 -0.2011  0.1721
  683TMC3     C10104   2.494   3.825  11.557 -0.2481  0.2007  0.1540
  683TMC3     O10105   2.565   3.923  11.593 -0.0437  0.4231  0.0302
  683TMC3     H10106   2.323   3.659  11.443  1.1179 -1.1004 -0.1339
  683TMC3    H110107   2.506   4.033  11.396 -2.3892 -0.1700  1.9832
  683TMC3    H210108   2.327   3.817  11.056  2.0372 -1.4548 -0.6036
  683TMC3    C710109   2.481   4.042  11.125 -0.1772  0.1904  0.3498
  683TMC3    C810110   2.343   3.594  11.171 -0.4046 -0.7503  0.2750
  683TMC3    O110111   2.510   4.154  11.171  0.3179  0.0719  0.2357
  683TMC3    O210112   2.335   3.588  11.052 -0.0240  0.4028  0.2030
  684MPD2     C10113   1.282   3.340  16.082 -0.3452 -0.1904  0.3476
  684MPD2    C110114   1.285   3.386  15.952  0.2811 -0.2471 -0.0153
  684MPD2    C210115   1.292   3.518  15.930 -0.4315  0.0426  1.4657
  684MPD2    C310116   1.296   3.608  16.039  0.4132  0.4093  0.4646
  684MPD2    C410117   1.291   3.558  16.166  0.4213  0.2287 -0.0505
  684MPD2    C510118   1.279   3.425  16.186 -0.0515 -0.0064  0.4345
  684MPD2     H10119   1.303   3.554  15.828 -0.6873  0.0284  1.4332
  684MPD2    H110120   1.283   3.630  16.246 -1.3806 -1.2794  1.1373
  684MPD2    H210121   1.280   3.234  16.105  1.5862 -0.5886 -1.3306
  684MPD2    H310122   1.274   3.380  16.285 -0.0231  0.7556  0.7787
  684MPD2     N10123   1.324   3.742  16.014 -0.3176 -0.0897  1.0873
  684MPD2    H510124   1.315   3.798  16.099 -0.1987 -1.7378  2.2005
  684MPD2    N110125   1.278   3.297  15.834  0.2471  0.1273 -0.3814
  684MPD2    H710126   1.292   3.347  15.747 -0.4614 -0.0842 -0.6186
  685TMC3    C110127   1.274   3.133  15.693  0.3494  0.6947 -1.0148
  685TMC3    C210128   1.176   3.192  15.625 -0.4087  0.0838 -0.0752
  685TMC3    C310129   1.166   3.174  15.485  0.2670 -0.0440 -0.0533
  685TMC3    C410130   1.351   3.039  15.634  0.3092 -0.2882 -0.2139
  685TMC3    C510131   1.341   3.026  15.499 -0.3888  0.4394  0.6683
  685TMC3    C610132   1.258   3.092  15.418  0.3710 -0.0298  1.0218
  685TMC3     C10133   1.282   3.167  15.832  0.1825  0.0175 -0.2979
  685TMC3     O10134   1.298   3.084  15.916 -0.0771  1.0288  0.1667
  685TMC3     H10135   1.107   3.252  15.685 -0.7562 -0.6469  0.2563
  685TMC3    H110136   1.423   2.991  15.699  2.4584  2.5006 -0.5817
  685TMC3    H210137   1.266   3.085  15.311  0.1323 -0.7450  1.0511
  685TMC3    C710138   1.471   3.018  15.442  0.0665  0.0924 -0.2503
  685TMC3    C810139   1.081   3.271  15.408 -0.7727 -0.2104 -0.3555
  685TMC3    O110140   1.495   2.963  15.332 -0.3293 -0.3672  0.0264
  685TMC3    O210141   1.110   3.300  15.294  0.2027  0.7146  0.3104
  686MPD2     C10142   3.157   3.500  15.247  0.3690  0.6614  0.3957
  686MPD2    C110143   3.096   3.404  15.330  0.1598  0.1979  0.3697
  686MPD2    C210144   3.174   3.288  15.357  0.4478 -0.1917 -0.1696
  686MPD2    C310145   3.304   3.275  15.317 -0.0503 -0.2985 -1.0320
  686MPD2    C410146   3.368   3.380  15.251 -0.5231 -0.5549  0.5680
  686MPD2    C510147   3.289   3.492  15.211 -0.3491  0.1115 -0.3105
  686MPD2     H10148   3.123   3.208  15.410  0.1599 -0.1346 -0.3571
  686MPD2    H110149   3.465   3.362  15.204 -0.1780  1.4319  0.5226
  686MPD2    H210150   3.099   3.585  15.211 -1.5479 -0.0580  1.7935
  686MPD2    H310151   3.332   3.564  15.142  0.1494 -0.4191 -0.5578
  686MPD2     N10152   3.375   3.159  15.347  0.2141  0.0107 -0.5784
  686MPD2    H510153   3.475   3.164  15.359  0.1772 -0.6208 -0.0521
  686MPD2    N110154   2.967   3.421  15.386 -0.2612  0.3387 -0.1538
  686MPD2    H710155   2.900   3.478  15.336 -0.2189  2.6910  2.5411
  687TMC3    C110156   3.389   2.951  15.455  0.3729 -0.0248  0.6324
  687TMC3    C210157   3.297   2.858  15.499  0.1044  0.2158 -0.3358
  687TMC3    C310158   3.269   2.847  15.633  0.5950 -0.2300 -0.3626
  687TMC3    C410159   3.459   3.021  15.544  0.0040 -0.4163 -0.5766
  687TMC3    C510160   3.426   3.003  15.679  0.4461  0.1117  0.1996
  687TMC3    C610161   3.333   2.918  15.727  0.0877  0.7182 -0.2871
  687TMC3     C10162   3.316   3.043  15.372 -1.1481  0.6155 -0.2595
  687TMC3     O10163   3.212   3.001  15.333  0.0502 -0.5937  0.6632
  687TMC3     H10164   3.260   2.787  15.426 -1.5068  0.0973  0.5960
  687TMC3    H110165   3.538   3.092  15.524  1.1351 -0.3944  3.9109
  687TMC3    H210166   3.311   2.909  15.833 -2.0137  0.1973 -0.7586
  687TMC3    C710167   3.521   3.047  15.781  0.1255 -0.4994 -0.7951
  687TMC3    C810168   3.131   2.831  15.664 -1.0788 -1.2256 -0.0817
  687TMC3    O110169   3.639   3.056  15.746  0.3316  0.1065 -0.0539
  687TMC3    O210170   3.106   2.812  15.782 -0.5972 -0.5567 -0.0333
  688MPD2     C10171   2.115   2.626  17.039 -0.4751  0.3398  0.1373
  688MPD2    C110172   2.140   2.523  17.129 -0.1833  0.5452  0.2676
  688MPD2    C210173   2.238   2.430  17.101 -0.4279  0.4494  1.3018
  688MPD2    C310174   2.309   2.437  16.986  0.1189  0.3340 -0.1776
  688MPD2    C410175   2.276   2.542  16.896  0.2143  0.1878 -0.1684
  688MPD2    C510176   2.200   2.643  16.930  0.1594 -0.0513 -0.5313
  688MPD2     H10177   2.271   2.356  17.173  0.3698 -0.0764  0.4085
  688MPD2    H110178   2.328   2.558  16.802 -1.4175  1.2343 -0.8945
  688MPD2    H210179   2.045   2.707  17.050 -0.4007  0.2896  0.9843
  688MPD2    H310180   2.192   2.723  16.856 -0.5483  0.2893 -0.0843
  688MPD2     N10181   2.428   2.366  16.949 -0.0072 -0.7103  0.6118
  688MPD2    H510182   2.475   2.404  16.867 -0.1587  0.1752  0.9337
  688MPD2    N110183   2.069   2.518  17.252  0.5984  0.3843 -0.5635
  688MPD2    H710184   2.111   2.454  17.318 -0.8349 -0.0548 -0.0974
  689TMC3    C110185   1.940   2.584  17.436  0.3887 -0.3674 -0.0543
  689TMC3    C210186   1.934   2.688  17.523  0.1319 -0.7815  0.3330
  689TMC3    C310187   1.891   2.667  17.649  0.2243  0.6713 -0.2265
  689TMC3    C410188   1.912   2.459  17.465 -0.4747  0.4338  0.4295
  689TMC3    C510189   1.871   2.437  17.590 -0.3815 -0.5349 -0.1262
  689TMC3    C610190   1.870   2.538  17.692  0.0723 -0.4171  0.4014
  689TMC3     C10191   1.992   2.617  17.310  0.1481 -0.4458 -0.5587
  689TMC3     O10192   1.963   2.728  17.271 -0.4781 -0.1943  0.1146
  689TMC3     H10193   1.954   2.789  17.489 -2.0871 -0.2769  0.4740
  689TMC3    H110194   1.908   2.380  17.390  0.0750  2.0182 -1.2866
  689TMC3    H210195   1.845   2.514   0.089  2.0866 -0.3874  0.9077
  689TMC3    C710196   1.850   2.298  17.642  0.1881  0.5696  0.1195
  689TMC3    C810197   1.909   2.786   0.034  0.0371 -0.0458 -0.1436
  689TMC3    O110198   1.885   2.274   0.053  0.1300 -0.1736  0.1482
  689TMC3    O210199   1.977   2.877  17.703 -0.0622  0.5939 -0.1503
  690MPD2     C10200   4.166   4.477  15.543  0.1477  0.3632 -0.1793
  690MPD2    C110201   4.172   4.405  15.424  0.2119  0.0990 -0.3879
  690MPD2    C210202   4.274   4.437  15.335 -0.2924 -0.4353  0.0197
  690MPD2    C310203   4.363   4.544  15.358  0.2085  0.0943  0.6053
  690MPD2    C410204   4.353   4.605  15.478  0.1671 -0.2837 -0.0614
  690MPD2    C510205   4.261   4.572  15.570 -0.1608  0.6189  0.2642
  690MPD2     H10206   4.292   4.376  15.248  0.3455  2.5039 -1.9103
  690MPD2    H110207   4.425   4.683  15.500 -0.7741  0.7660 -0.6499
  690MPD2    H210208   4.099   4.446  15.623 -0.1177  2.3052  0.3560
  690MPD2    H310209   4.270   4.627  15.663  4.8323 -0.5506  0.4700
  690MPD2     N10210   4.452   4.576  15.255 -0.0182  0.2469  0.0239
  690MPD2    H510211   4.443   4.517  15.173 -0.7453  0.2854  0.0772
  690MPD2    N110212   4.089   4.293  15.399 -0.6234  0.3683  0.4961
  690MPD2    H710213   4.100   4.241  15.313  0.1237  1.9497 -0.3588
  691TMC3    C110214   3.910   4.137  15.401 -0.5821 -0.5885 -0.0828
  691TMC3    C210215   3.779   4.116  15.424 -0.3717  0.1613  0.6989
  691TMC3    C310216   3.739   3.987  15.410  0.0492  0.8117  0.0369
  691TMC3    C410217   4.004   4.036  15.396  0.8663  0.0278 -0.5730
  691TMC3    C510218   3.958   3.905  15.391  0.4296  0.2660  0.3477
  691TMC3    C610219   3.821   3.876  15.396 -0.2024 -0.5222 -0.0685
  691TMC3     C10220   3.971   4.252  15.466 -0.3801 -1.0715  0.1623
  691TMC3     O10221   3.926   4.294  15.570 -0.1732  0.4118 -0.6565
  691TMC3     H10222   3.720   4.206  15.435  1.3435  1.3163  0.4051
  691TMC3    H110223   4.109   4.043  15.421  0.6915 -1.1192  0.4758
  691TMC3    H210224   3.780   3.775  15.390 -3.4863  0.7903  0.2945
  691TMC3    C710225   4.038   3.802  15.454 -0.6786  0.3264  0.2309
  691TMC3    C810226   3.609   3.947  15.461 -0.4081  0.0952  0.5305
  691TMC3    O110227   4.113   3.839  15.541  0.6789 -0.1684  0.6613
  691TMC3    O210228   3.566   3.835  15.434 -0.0968 -0.4014  0.5968
  692TMC3    C110229   0.932   0.424  15.742  0.6368 -0.0739 -0.3253
  692TMC3    C210230   1.029   0.427  15.850  0.3567  0.6342 -0.2611
  692TMC3    C310231   1.135   0.342  15.844  0.0385  0.0670 -0.3376
  692TMC3    C410232   0.937   0.332  15.646 -0.8710 -0.2119 -0.6114
  692TMC3    C510233   1.038   0.243  15.651  0.6269 -0.1862 -0.0457
  692TMC3    C610234   1.132   0.242  15.749 -0.1351 -0.0818 -0.3920
  692TMC3     C10235   0.878   0.554  15.709  0.2155  0.1341  0.3825
  692TMC3     O10236   0.877   0.586  15.592 -0.0110  0.5580  0.3883
  692TMC3     H10237   1.052   0.517  15.906  0.5752 -0.4076  1.3224
  692TMC3    H110238   0.869   0.336  15.562 -1.3510 -0.8028 -0.2481
  692TMC3    H210239   1.224   0.185  15.737 -0.8171 -1.3337  0.3488
  692TMC3    C710240   1.039   0.125  15.565  0.0806  0.7072 -0.3137
  692TMC3    C810241   1.205   0.304  15.965  0.3312 -0.6795  0.4947
  692TMC3    O110242   0.972   0.147  15.462  0.1037 -0.1841 -0.1434
  692TMC3    O210243   1.292   0.218  15.956 -0.2287  0.1946  0.5998
  693MPD2     C10244   0.338   3.325  10.954  0.3367 -0.0056 -0.3919
  693MPD2    C110245   0.301   3.242  10.852 -0.1715 -0.4293  0.1448
  693MPD2    C210246   0.372   3.121  10.826  0.7117 -0.6504 -0.1236
  693MPD2    C310247   0.472   3.092  10.903 -0.3957  0.3932 -0.0142
  693MPD2    C410248   0.507   3.180  11.003  0.2029  0.1621  0.6911
  693MPD2    C510249   0.441   3.293  11.032  0.6248 -0.0813  0.6905
  693MPD2     H10250   0.332   3.051  10.753  0.3923  1.3211 -1.8371
  693MPD2    H110251   0.598   3.165  11.058 -0.6228 -0.0860  1.9873
  693MPD2    H210252   0.281   3.412  10.985  0.5304 -0.0940  0.2057
  693MPD2    H310253   0.461   3.361  11.114 -0.2093  2.0647 -0.9099
  693MPD2     N10254   0.535   2.964  10.897 -0.0681 -0.2536  0.3380
  693MPD2    H510255   0.608   2.952  10.967 -1.5331 -0.3804  1.8618
  693MPD2    N110256   0.180   3.277  10.793  0.2365  0.4736 -0.5968
  693MPD2    H710257   0.125   3.346  10.842 -0.1938 -0.6544  0.5257
  694TMC3    C110258   4.712   3.196  10.696  0.1590 -0.2042 -0.2068
  694TMC3    C210259   4.668   3.111  10.598  0.4329  0.2908 -0.5651
  694TMC3    C310260   4.552   3.038  10.627 -0.5637 -0.4380  0.2809
  694TMC3    C410261   4.654   3.202  10.822 -0.0524 -0.6352  0.3138
  694TMC3    C510262   4.553   3.108  10.845  0.9931  0.0223  0.2041
  694TMC3    C610263   4.498   3.029  10.750 -0.4122 -0.1720 -0.5128
  694TMC3     C10264   0.126   3.211  10.687 -0.0262 -0.2130 -0.1944
  694TMC3     O10265   0.191   3.156  10.604 -0.1644  0.2234 -0.0379
  694TMC3     H10266   4.708   3.128  10.499  1.8011  0.4596  0.0133
  694TMC3    H110267   4.696   3.257  10.905  1.1323 -1.6619  0.3895
  694TMC3    H210268   4.425   2.952  10.772 -1.1333  0.0481 -2.0782
  694TMC3    C710269   4.523   3.093  10.985 -0.9705  0.1943 -0.0753
  694TMC3    C810270   4.487   2.969  10.519 -0.5356  0.0880  0.7321
  694TMC3    O110271   4.521   3.197  11.051 -0.0984  0.6267  0.7997
  694TMC3    O210272   4.386   2.907  10.549 -0.0740  0.1569 -0.5914
  695MPD2     C10273   1.614   4.601  13.517  0.4142  0.2180 -0.1267
  695MPD2    C110274   1.588   4.710  13.604  0.2302 -0.5360  0.8277
  695MPD2    C210275   1.456   0.043  13.591 -0.3540 -0.0540 -0.3420
  695MPD2    C310276   1.356   4.710  13.516  0.6983  0.0282 -0.6556
  695MPD2    C410277   1.385   4.599  13.439  0.8395 -0.0050  0.0073
  695MPD2    C510278   1.512   4.547  13.443  0.5076  0.2437 -0.4417
  695MPD2     H10279   1.424   0.121  13.660  2.7614  0.7726  0.1757
  695MPD2    H110280   1.321   4.552  13.364  1.6973  0.2938 -0.9062
  695MPD2    H210281   1.708   4.548  13.524  0.6434  0.6423  0.0113
  695MPD2    H310282   1.535   4.463  13.378  0.1742  0.5368 -0.9392
  695MPD2     N10283   1.223   0.034  13.525  0.6323  0.3754 -0.2607
  695MPD2    H510284   1.205   0.092  13.607 -0.2395 -2.5548  1.6164
  695MPD2    N110285   1.687   0.048  13.683 -0.2377 -0.3089  0.4904
  695MPD2    H710286   1.671   0.144  13.710 -0.5338 -0.3300  0.3873
  696TMC3    C110287   0.995   0.043  13.493  0.2856  0.1209 -0.0712
  696TMC3    C210288   0.971   0.041  13.628 -0.4086  0.8468  0.2978
  696TMC3    C310289   0.850   0.084  13.670 -0.0098 -0.3919 -0.1661
  696TMC3    C410290   0.897   0.074  13.400 -0.4906  0.6650 -1.1864
  696TMC3    C510291   0.786   0.132  13.441  0.3934 -0.5181 -0.4084
  696TMC3    C610292   0.757   0.122  13.573 -0.1879  0.2851  0.6962
  696TMC3     C10293   1.123   0.003  13.440 -0.3578  0.2390 -0.4485
  696TMC3     O10294   1.132   4.686  13.326 -0.1562  0.3066 -0.5626
  696TMC3     H10295   1.050   0.011  13.696  0.2688  0.8754 -0.4778
  696TMC3    H110296   0.913   0.069  13.293 -1.1021  2.2466 -1.3470
  696TMC3    H210297   0.665   0.163  13.612 -1.4657 -2.2798  0.3902
  696TMC3    C710298   0.738   0.251  13.376  0.0488 -0.1936  0.0665
  696TMC3    C810299   0.852   0.170  13.784  0.8704  0.1617 -0.5467
  696TMC3    O110300   0.724   0.260  13.256  0.5087  0.2423  0.4061
  696TMC3    O210301   0.778   0.268  13.779  0.1921  0.0298 -0.0563
  697MPD2     C10302   0.131   1.954  15.397 -0.3257 -0.8512 -0.7857
  697MPD2    C110303   0.198   1.890  15.292 -0.4475 -0.1734 -0.1629
  697MPD2    C210304   0.274   1.973  15.208  0.3090 -0.0327  0.4158
  697MPD2    C310305   0.279   2.109  15.224  0.2223 -0.7853  0.6147
  697MPD2    C410306   0.202   2.169  15.322  0.2672 -0.0582  0.0422
  697MPD2    C510307   0.134   2.088  15.410 -0.0928 -0.6256  0.1315
  697MPD2     H10308   0.330   1.918  15.133 -1.4473 -1.0079 -0.1759
  697MPD2    H110309   0.194   2.275  15.346  0.9635  0.3536 -1.5168
  697MPD2    H210310   0.069   1.901  15.468  0.3555 -0.9676 -0.2774
  697MPD2    H310311   0.087   2.137  15.495  1.7839 -1.3370  1.5780
  697MPD2     N10312   0.350   2.197  15.136  0.2700  0.0493 -0.6874
  697MPD2    H510313   0.414   2.161  15.065  0.3331 -2.8005  0.8031
  697MPD2    N110314   0.199   1.751  15.279 -0.3802  0.6758 -0.0649
  697MPD2    H710315   0.250   1.712  15.201 -1.4930  1.3946 -1.1647
  698TMC3    C110316   0.500   2.370  15.106 -0.0700  0.2460  0.7991
  698TMC3    C210317   0.594   2.431  15.178  0.2379 -0.0384  0.1065
  698TMC3    C310318   0.713   2.460  15.113  0.7144 -0.2640 -0.4729
  698TMC3    C410319   0.516   2.352  14.972 -0.2466  0.1588  0.0029
  698TMC3    C510320   0.639   2.373  14.914  0.2587 -0.9610 -0.1657
  698TMC3    C610321   0.746   2.423  14.983  0.0884  0.0512 -1.0581
  698TMC3     C10322   0.380   2.329  15.169 -0.0492  0.4482  0.2072
  698TMC3     O10323   0.348   2.406  15.257  0.6939  0.1178  0.0892
  698TMC3     H10324   0.578   2.469  15.278 -0.2487 -0.2776  0.1183
  698TMC3    H110325   0.441   2.298  14.916  0.5684 -0.2290 -0.7116
  698TMC3    H210326   0.840   2.433  14.931  2.5224  1.6437  3.5629
  698TMC3    C710327   0.640   2.384  14.765  0.2618  0.6280  0.2024
  698TMC3    C810328   0.821   2.486  15.212 -0.1080 -0.5278 -0.1524
  698TMC3    O110329   0.534   2.419  14.710 -0.1332  0.4253  0.3919
  698TMC3    O210330   0.795   2.452  15.329  0.1352  0.1963  0.6691
  699TMC3    C110331   0.894   4.553  12.642 -0.3272  0.3695  0.4115
  699TMC3    C210332   0.949   4.520  12.767 -0.1184  0.4968 -0.1694
  699TMC3    C310333   0.894   4.415  12.836 -0.5575 -0.2975  0.4911
  699TMC3    C410334   0.791   4.478  12.580  0.1486 -0.6861  0.2800
  699TMC3    C510335   0.735   4.371  12.654 -0.6986  0.1821  1.2624
  699TMC3    C610336   0.791   4.338  12.783 -0.1046  0.4843  0.0962
  699TMC3     C10337   0.923   4.681  12.576  0.3061  0.5909  0.2614
  699TMC3     O10338   0.846   4.709  12.490 -0.4331 -0.2478  0.1203
  699TMC3     H10339   1.029   4.579  12.809 -0.7276  1.6924 -0.6898
  699TMC3    H110340   0.762   4.501  12.478  0.6410  0.4844  0.4065
  699TMC3    H210341   0.752   4.256  12.844  2.1803 -0.8882 -0.2823
  699TMC3    C710342   0.587   4.351  12.644  0.2526 -0.6409  0.1178
  699TMC3    C810343   0.906   4.407  12.974 -0.7610  0.2204 -0.0577
  699TMC3    O110344   0.527   4.326  12.750 -0.2246  0.0766  0.3643
  699TMC3    O210345   0.802   4.437  13.032  0.6317 -0.2007  0.2851
  700TMC3    C110346   4.230   2.690  17.035 -0.7268  0.5151 -0.1855
  700TMC3    C210347   4.302   2.584  16.993  0.2104  0.5613 -0.0662
  700TMC3    C310348   4.388   2.519  17.081 -0.3033 -0.2177  0.3646
  700TMC3    C410349   4.249   2.745  17.162  0.2352  0.6262 -0.7180
  700TMC3    C510350   4.346   2.683  17.240  1.0769 -0.7663  0.2201
  700TMC3    C610351   4.409   2.570  17.208 -0.2213 -0.0102 -0.1043
  700TMC3     C10352   4.209   2.798  16.940 -0.2833  0.3740  0.0970
  700TMC3     O10353   4.106   2.863  16.960 -0.5089 -0.0318 -0.2634
  700TMC3     H10354   4.292   2.555  16.889 -1.1743 -0.4358  0.3512
  700TMC3    H110355   4.203   2.835  17.201  2.3094  1.2145  0.3871
  700TMC3    H210356   4.461   2.527  17.293  0.4296 -1.1188 -1.0650
  700TMC3    C710357   4.420   2.765  17.331  0.4714  0.5377  0.3961
  700TMC3    C810358   4.489   2.426  17.035 -0.5082 -1.1184 -0.0019
  700TMC3    O110359   4.541   2.738  17.344  0.0036  0.1100 -0.4606
  700TMC3    O210360   4.592   2.416  17.102 -0.3711  0.0482 -0.2569
  701TMC3    C110361   4.476   1.146  15.075  0.3831  0.5927  0.2094
  701TMC3    C210362   4.428   1.149  14.942 -0.6884 -0.4415  1.1774
  701TMC3    C310363   4.464   1.262  14.867  0.1244 -0.7738  0.1720
  701TMC3    C410364   4.554   1.248  15.122  0.8507 -0.0761  0.2065
  701TMC3    C510365   4.589   1.353  15.045 -0.0789  0.8442  0.0911
  701TMC3    C610366   4.554   1.358  14.915 -0.1904 -0.8216  0.4393
  701TMC3     C10367   4.383   1.082  15.163 -0.0308 -0.0854 -0.4816
  701TMC3     O10368   4.346   1.144  15.259 -0.2221  0.1432  0.3604
  701TMC3     H10369   4.353   1.079  14.906  1.5137 -0.0136 -4.2445
  701TMC3    H110370   4.604   1.255  15.218  0.7927 -0.7926  0.2908
  701TMC3    H210371   4.575   1.448  14.859 -0.5266 -0.0297  1.5812
  701TMC3    C710372   4.606   1.479  15.112 -0.4424 -1.1805 -0.2906
  701TMC3    C810373   4.480   1.242  14.723 -0.5147 -0.5835 -0.5467
  701TMC3    O110374   4.677   1.558  15.056  0.3801  0.1159  0.3231
  701TMC3    O210375   4.508   1.346  14.668  0.3074  0.7400  0.4310
  702MPD2     C10376   3.916   3.287  10.305 -0.0257  0.3053 -0.8936
  702MPD2    C110377   3.957   3.387  10.390  0.5307 -0.0192  0.4809
  702MPD2    C210378   4.013   3.497  10.334 -0.1568  0.0797  0.8695
  702MPD2    C310379   4.012   3.519  10.196 -0.4360  0.5128 -0.1593
  702MPD2    C410380   3.952   3.423  10.117 -0.1248  0.0788 -0.3169
  702MPD2    C510381   3.917   3.301  10.167 -0.1145 -0.2185 -0.4071
  702MPD2     H10382   4.056   3.572  10.399  0.5733  0.9454 -0.6224
  702MPD2    H110383   3.930   3.443  10.012 -2.0343  0.5557  0.1686
  702MPD2    H210384   3.860   3.200  10.339  0.6117  0.7565  1.2789
  702MPD2    H310385   3.860   3.232  10.104 -4.8510  1.9034  1.5490
  702MPD2     N10386   4.068   3.638  10.152  0.4169  0.4576 -0.1102
  702MPD2    H510387   4.100   3.704  10.223 -2.0221  1.2460  0.2584
  702MPD2    N110388   3.931   3.385  10.530 -0.2132  0.5068 -0.1714
  702MPD2    H710389   3.957   3.476  10.568  1.7712 -1.0186  2.1002
  703TMC3    C110390   4.123   3.810  10.002  0.2127  0.0072  0.3039
  703TMC3    C210391   4.017   3.891  10.018  0.1356  0.0061  0.0467
  703TMC3    C310392   4.039   4.011  10.074 -0.6824  0.4810  0.6526
  703TMC3    C410393   4.251   3.846  10.040 -0.1135 -0.4954 -0.5509
  703TMC3    C510394   4.275   3.972  10.078 -0.6627  0.5124  0.0035
  703TMC3    C610395   4.167   4.062  10.086  0.3464  0.4303  0.0478
  703TMC3     C10396   4.084   3.674  10.022 -0.5291  0.3966 -0.0858
  703TMC3     O10397   4.062   3.612   9.919 -0.0734  0.1354  0.1010
  703TMC3     H10398   3.917   3.852  10.004 -0.2769  1.5337 -1.1798
  703TMC3    H110399   4.338   3.782  10.026  0.4707 -0.4014  2.5108
  703TMC3    H210400   4.179   4.166  10.114  0.1428  0.8746 -1.4994
  703TMC3    C710401   4.413   4.018  10.078 -0.4278  0.1322  0.1867
  703TMC3    C810402   3.937   4.107  10.074  0.4963  0.2728 -0.7766
  703TMC3    O110403   4.439   4.136  10.055  0.0476 -0.2893 -0.0045
  703TMC3    O210404   3.954   4.204  10.003 -0.4214 -0.3021 -0.6068
  704TMC3    C110405   1.652   1.487  12.571 -0.2326  0.0032 -0.4107
  704TMC3    C210406   1.755   1.568  12.541  0.4832  0.5677 -0.3874
  704TMC3    C310407   1.883   1.519  12.554  0.6823  0.3276  0.1466
  704TMC3    C410408   1.663   1.359  12.598  0.5252  0.4071 -0.7784
  704TMC3    C510409   1.792   1.308  12.597  0.3466  0.1113  0.4860
  704TMC3    C610410   1.905   1.386  12.581  0.3133 -0.1531 -0.1040
  704TMC3     C10411   1.520   1.516  12.530 -0.1288 -0.0866  0.6153
  704TMC3     O10412   1.421   1.474  12.592 -0.2325  0.2978 -0.0702
  704TMC3     H10413   1.734   1.668  12.504  0.1057  0.7426  0.2980
  704TMC3    H110414   1.578   1.293  12.611  0.7176  0.4662  0.8147
  704TMC3    H210415   2.003   1.340  12.587  0.9656  1.3014  0.2325
  704TMC3    C710416   1.811   1.172  12.547  0.4900  0.0432  0.4009
  704TMC3    C810417   1.974   1.570  12.455 -0.5035 -0.8864  0.0496
  704TMC3    O110418   1.914   1.159  12.481 -0.3039 -0.0831 -0.2690
  704TMC3    O210419   1.931   1.647  12.369 -0.2155 -0.3276  0.1583
  705MPD2     C10420   1.510   0.080  16.839  0.4092 -0.3234  0.6138
  705MPD2    C110421   1.459   0.062  16.715  0.4471 -0.5260 -0.0865
  705MPD2    C210422   1.317   0.049  16.706  0.2808 -0.0187 -0.5632
  705MPD2    C310423   1.232   0.073  16.815 -0.3309  0.2828  0.3060
  705MPD2    C410424   1.293   0.084  16.938 -0.2284 -0.2218 -0.0996
  705MPD2    C510425   1.427   0.088  16.948 -0.0352  0.2479 -0.3729
  705MPD2     H10426   1.280   0.017  16.609 -1.2858 -1.4560  0.5247
  705MPD2    H110427   1.238   0.095  17.030  0.6276 -0.2882  0.4171
  705MPD2    H210428   1.614   0.100  16.863  0.1437  1.2868  0.4700
  705MPD2    H310429   1.465   0.120  17.045  0.4061 -0.9084 -0.1672
  705MPD2     N10430   1.088   0.085  16.807 -0.0930  0.0626  0.4822
  705MPD2    H510431   1.036   0.119  16.887 -1.2930 -0.5661 -0.0258
  705MPD2    N110432   1.544   0.070  16.598 -0.2661 -0.6579  0.2406
  705MPD2    H710433   1.503   0.080  16.506 -0.7404 -1.6411  0.3414
  706TMC3    C110434   1.894   0.165  16.311  0.2744  0.5722  0.9411
  706TMC3    C210435   1.810   0.252  16.243 -0.7466 -0.3499 -0.1729
  706TMC3    C310436   1.688   0.289  16.299  0.5203  0.1258 -0.2180
  706TMC3    C410437   1.859   0.112  16.431 -0.0931  0.4382 -0.0098
  706TMC3    C510438   1.730   0.141  16.468 -0.6471 -0.1793 -0.7444
  706TMC3    C610439   1.636   0.221  16.405 -0.8017  0.2719 -0.8896
  706TMC3     C10440   2.025   0.117  16.258  0.3110 -0.2444  0.3348
  706TMC3     O10441   2.096   0.049  16.327  0.4823 -0.6182 -0.2808
  706TMC3     H10442   1.835   0.308  16.153 -0.9089 -0.2449 -0.1533
  706TMC3    H110443   1.910   0.039  16.493  1.3387 -0.0958 -1.8306
  706TMC3    H210444   1.542   0.247  16.452 -0.4467 -1.2031  0.6181
  706TMC3    C710445   1.679   0.075  16.594  0.7682  0.0970  0.3892
  706TMC3    C810446   1.615   0.394  16.234  1.1627 -0.9558  0.4869
  706TMC3    O110447   1.758   0.051  16.681  0.1695 -0.3969  0.1062
  706TMC3    O210448   1.650   0.421  16.120 -0.0322  0.0978 -0.2274
  707TMC3    C110449   3.838   3.963   1.736 -0.2066 -0.5257  0.0547
  707TMC3    C210450   3.722   3.902   1.692  0.2337 -0.0556 -0.4911
  707TMC3    C310451   3.604   3.949   1.738  0.0607  0.6948 -0.5600
  707TMC3    C410452   3.839   4.085   1.798  0.2353  0.1344  0.2395
  707TMC3    C510453   3.714   4.134   1.830  0.5755  0.4685 -0.1359
  707TMC3    C610454   3.598   4.061   1.811  0.1914 -1.1117  0.6474
  707TMC3     C10455   3.961   3.903   1.684 -0.2216  0.2183 -0.3637
  707TMC3     O10456   3.958   3.815   1.601  0.6761  0.0305  0.3256
  707TMC3     H10457   3.722   3.817   1.624 -1.8166 -0.2869 -0.2152
  707TMC3    H110458   3.929   4.144   1.811 -0.4302  0.9788  1.0458
  707TMC3    H210459   3.505   4.104   1.847  0.8898 -1.8170  3.2906
  707TMC3    C710460   3.708   4.249   1.914  0.4641  0.7139 -0.0624
  707TMC3    C810461   3.478   3.906   1.668 -0.1778  0.0003  0.6097
  707TMC3    O110462   3.809   4.272   1.977  0.2213 -0.9500  0.1827
  707TMC3    O210463   3.393   3.997   1.658 -0.0643  0.3563 -0.1064
  708MPD2     C10464   4.610   3.938  13.715 -0.1729  0.5722 -0.1823
  708MPD2    C110465   4.543   3.820  13.746 -0.1484 -0.2156 -0.1768
  708MPD2    C210466   4.598   3.729  13.836  0.0074 -0.5114 -0.5380
  708MPD2    C310467   4.719   3.754  13.903 -0.1659 -0.1270  0.6741
  708MPD2    C410468   0.064   3.866  13.867  0.4752  0.4059  0.4384
  708MPD2    C510469   0.011   3.948  13.766  0.3534  0.3813  0.0629
  708MPD2     H10470   4.548   3.635  13.858  0.6830 -0.5613  0.7849
  708MPD2    H110471   0.158   3.885  13.916 -0.1864 -0.3170  1.9671
  708MPD2    H210472   4.572   3.998  13.633 -0.0719 -0.0567 -0.6835
  708MPD2    H310473   0.078   4.018  13.716  0.8233  0.8661  1.3816
  708MPD2     N10474   0.056   3.669  13.994 -0.1016 -0.1617  0.1389
  708MPD2    H510475   0.145   3.699  14.033 -1.3504  5.2762 -1.2436
  708MPD2    N110476   4.416   3.795  13.687 -0.3929 -1.0882 -0.1119
  708MPD2    H710477   4.369   3.871  13.639  0.7631 -0.7534 -0.7033
  709TMC3    C110478   4.210   3.696  13.619  0.3321 -0.3404  0.0465
  709TMC3    C210479   4.160   3.589  13.549 -0.4037  0.3577  0.6894
  709TMC3    C310480   4.037   3.537  13.579 -0.2559 -0.1519  0.5087
  709TMC3    C410481   4.136   3.757  13.720 -1.5411  0.8996 -0.2947
  709TMC3    C510482   4.012   3.695  13.755 -0.2264  0.1727  0.0002
  709TMC3    C610483   3.964   3.593  13.679  0.3044 -0.1529 -0.3744
  709TMC3     C10484   4.345   3.673  13.668  0.8577 -0.2395  0.6091
  709TMC3     O10485   4.385   3.556  13.678  0.4687  0.0171 -0.1541
  709TMC3     H10486   4.235   3.538  13.489  0.5930 -1.4877  3.5063
  709TMC3    H110487   4.184   3.839  13.773 -0.1706 -1.0489  1.4465
  709TMC3    H210488   3.860   3.572  13.698  0.4727  1.3157  2.1524
  709TMC3    C710489   3.994   3.679  13.895  0.5872  0.0144  0.5101
  709TMC3    C810490   3.971   3.438  13.495 -0.0624  0.8162 -0.4043
  709TMC3    O110491   3.882   3.691  13.944 -0.2311 -0.4268 -0.1638
  709TMC3    O210492   3.849   3.438  13.506  0.2277  0.2726  0.3129
  710TMC3    C110493   1.025   4.133   1.010  0.5318 -0.6320  0.6527
  710TMC3    C210494   1.059   4.062   0.898  0.4776 -0.5513 -0.1831
  710TMC3    C310495   1.189   4.098   0.854  0.0641 -0.4497  0.1696
  710TMC3    C410496   1.115   4.189   1.098 -0.3540 -0.0480 -0.0592
  710TMC3    C510497   1.236   4.220   1.050  0.0770 -0.1191 -0.1429
  710TMC3    C610498   1.277   4.175   0.926 -0.3149  0.7968  0.4154
  710TMC3     C10499   0.883   4.153   1.016 -1.1861  0.6458  0.1771
  710TMC3     O10500   0.814   4.066   0.964  0.5131  0.0857 -0.0328
  710TMC3     H10501   0.993   4.000   0.838 -0.7344 -1.8085  2.4404
  710TMC3    H110502   1.090   4.217   1.200 -1.1362 -0.6580 -0.0855
  710TMC3    H210503   1.362   4.221   0.875  0.5992 -0.5512  0.7257
  710TMC3    C710504   1.298   4.340   1.099  0.4984 -0.5356 -0.7654
  710TMC3    C810505   1.212   4.089   0.707 -1.0209  0.0758 -0.0242
  710TMC3    O110506   1.219   4.411   1.159  0.4331 -0.1651 -0.2858
  710TMC3    O210507   1.294   4.173   0.668 -0.3066  0.1522 -0.1192
  711TMC3    C110508   0.483   0.788  14.748 -0.2837 -0.1010  0.0706
  711TMC3    C210509   0.535   0.904  14.795 -0.0444  0.1698 -0.6949
  711TMC3    C310510   0.647   0.905  14.867  1.0511  0.4960 -0.4411
  711TMC3    C410511   0.547   0.667  14.751  0.1769  0.4862  0.2921
  711TMC3    C510512   0.669   0.676  14.820  0.3111  0.1533 -0.3236
  711TMC3    C610513   0.711   0.786  14.889 -0.4668 -0.0806 -0.7825
  711TMC3     C10514   0.389   0.800  14.634 -0.7374 -0.1360  0.8535
  711TMC3     O10515   0.298   0.718  14.643  0.5966  0.4404 -1.0348
  711TMC3     H10516   0.478   0.995  14.777 -1.1932 -0.3520  0.3034
  711TMC3    H110517   0.507   0.576  14.706  3.8856 -0.3609 -1.3651
  711TMC3    H210518   0.800   0.792  14.950  1.2171 -0.5740 -3.1847
  711TMC3    C710519   0.746   0.551  14.829  0.0063  0.5158 -0.1841
  711TMC3    C810520   0.658   1.009  14.979  0.3231 -0.2748 -0.4104
  711TMC3    O110521   0.777   0.532  14.945  0.4094 -1.0946  0.2337
  711TMC3    O210522   0.555   1.077  14.983 -0.2507  0.3405  0.5277
  712MPD2     C10523   1.211   1.790  13.621 -0.0387 -0.2005 -0.7199
  712MPD2    C110524   1.336   1.733  13.587  0.1783 -0.8475  0.3720
  712MPD2    C210525   1.440   1.813  13.549 -0.2450  0.8340  1.1953
  712MPD2    C310526   1.435   1.949  13.555  0.0805 -0.3403 -0.0133
  712MPD2    C410527   1.313   2.004  13.583  0.0835 -0.3592  0.6463
  712MPD2    C510528   1.204   1.926  13.606  0.7291 -0.8475 -0.1435
  712MPD2     H10529   1.531   1.769  13.510 -2.8119 -1.8671 -1.7020
  712MPD2    H110530   1.296   2.111  13.588  1.0079 -0.0434 -3.2456
  712MPD2    H210531   1.125   1.729  13.646 -1.5228  3.2715  2.6494
  712MPD2    H310532   1.111   1.977  13.627  0.2579 -0.9747 -1.9038
  712MPD2     N10533   1.543   2.045  13.547 -0.7698 -0.3796 -0.5689
  712MPD2    H510534   1.522   2.144  13.552 -1.1613 -0.4963  0.0382
  712MPD2    N110535   1.364   1.595  13.595 -0.4205  0.1301  0.6063
  712MPD2    H710536   1.461   1.576  13.573  0.1500  1.1065  2.2937
  713TMC3    C110537   1.761   2.127  13.594 -0.3410 -0.6946  0.0304
  713TMC3    C210538   1.883   2.089  13.637  0.6503 -0.0255  0.2438
  713TMC3    C310539   1.961   2.176  13.699 -0.2750 -0.5207  0.0410
  713TMC3    C410540   1.709   2.254  13.620  0.2983  0.0868 -0.3522
  713TMC3    C510541   1.796   2.341  13.676  0.9576 -0.1958  0.2139
  713TMC3    C610542   1.920   2.304  13.720  0.0275  0.2427  0.2427
  713TMC3     C10543   1.674   2.011  13.573  0.2475  0.0735 -0.7448
  713TMC3     O10544   1.722   1.897  13.575  0.2814  0.3097  0.6553
  713TMC3     H10545   1.931   1.998  13.603  1.1422  0.8845 -1.4769
  713TMC3    H110546   1.608   2.281  13.595  0.2129 -0.1562 -0.2672
  713TMC3    H210547   1.986   2.381  13.756  0.9940 -0.4645 -0.0238
  713TMC3    C710548   1.758   2.482  13.682 -1.1445 -1.1956  0.2657
  713TMC3    C810549   2.103   2.145  13.714 -0.2023 -0.0825  0.2949
  713TMC3    O110550   1.831   2.552  13.751  0.1129 -0.2315 -0.1447
  713TMC3    O210551   2.170   2.065  13.648  0.3245 -0.1566 -0.6901
  714MPD2     C10552   3.505   0.864   1.061 -0.6057  0.3709 -0.7934
  714MPD2    C110553   3.572   0.935   1.152  0.6131 -0.7392  0.5127
  714MPD2    C210554   3.535   1.065   1.159 -0.6495 -0.1693  0.5343
  714MPD2    C310555   3.423   1.114   1.094  0.5016  0.1363 -0.8412
  714MPD2    C410556   3.347   1.039   1.014 -1.5433 -0.0766  0.1298
  714MPD2    C510557   3.401   0.913   0.989 -0.5258  0.3682 -0.4850
  714MPD2     H10558   3.589   1.135   1.222  1.1184  0.5978 -1.8210
  714MPD2    H110559   3.275   1.084   0.947 -2.4586 -1.1765  0.3768
  714MPD2    H210560   3.536   0.762   1.040 -0.5627 -0.0135  1.1233
  714MPD2    H310561   3.365   0.860   0.901 -1.1957 -0.7172  0.4491
  714MPD2     N10562   3.390   1.251   1.105 -0.2857  0.0526 -0.7711
  714MPD2    H510563   3.460   1.317   1.139 -0.6256  0.1541 -0.2699
  714MPD2    N110564   3.659   0.874   1.243 -0.2793 -0.6387  0.7570
  714MPD2    H710565   3.665   0.774   1.229 -0.5244 -0.8519  2.1779
  715TMC3    C110566   3.805   0.840   1.426 -1.1600  0.3164  1.2376
  715TMC3    C210567   3.855   0.724   1.363 -0.8473 -0.2374 -0.1612
  715TMC3    C310568   3.939   0.649   1.439  0.3508  0.0972 -0.3018
  715TMC3    C410569   3.845   0.876   1.553  1.0283  0.0727 -0.5451
  715TMC3    C510570   3.935   0.796   1.614  0.0420 -0.4565  0.1501
  715TMC3    C610571   3.977   0.672   1.570  0.3973 -0.2659 -0.7002
  715TMC3     C10572   3.714   0.936   1.357  0.0892  0.4169 -0.7755
  715TMC3     O10573   3.698   1.053   1.395 -0.1796  0.1782 -0.5145
  715TMC3     H10574   3.841   0.707   1.257 -0.4187  0.3744 -0.3145
  715TMC3    H110575   3.794   0.955   1.607 -2.4348 -1.3209 -1.7622
  715TMC3    H210576   4.045   0.609   1.625  1.4626  1.0776 -0.4686
  715TMC3    C710577   4.012   0.844   1.727 -0.3909 -0.2106 -0.6016
  715TMC3    C810578   4.009   0.551   1.359 -0.1301 -0.3631 -1.0069
  715TMC3    O110579   4.109   0.769   1.751 -0.4563 -0.6201 -0.3263
  715TMC3    O210580   3.948   0.506   1.262 -0.7030  0.0333 -0.2755
  716MPD2     C10581   4.209   3.343   9.850 -0.1002 -0.2007  0.0393
  716MPD2    C110582   4.235   3.378   9.718  0.3746  0.2385 -0.0012
  716MPD2    C210583   4.329   3.297   9.650 -0.1575 -0.4705  0.0135
  716MPD2    C310584   4.379   3.179   9.705  0.8048  0.0844  0.6715
  716MPD2    C410585   4.338   3.146   9.831 -0.0876  0.7500  0.0255
  716MPD2    C510586   4.251   3.223   9.898 -0.6111  0.1473  0.2883
  716MPD2     H10587   4.357   3.329   9.551  2.7364 -1.6979  0.4270
  716MPD2    H110588   4.367   3.059   9.889  2.1375  1.7656  0.4262
  716MPD2    H210589   4.129   3.395   9.902 -0.9380 -1.1775 -0.2575
  716MPD2    H310590   4.215   3.194   9.996  2.7320  0.8420  1.7112
  716MPD2     N10591   4.474   3.103   9.635 -0.1862 -0.3808 -0.4111
  716MPD2    H510592   4.505   3.145   9.548 -1.1126  0.8393 -0.1575
  716MPD2    N110593   4.173   3.497   9.676  0.1236 -0.2758 -0.1545
  716MPD2    H710594   4.123   3.550   9.745  1.7135  1.7566 -0.5698
  717TMC3    C110595   4.588   2.914   9.572 -0.3891  0.5462 -0.7602
  717TMC3    C210596   4.658   3.001   9.490 -0.3313 -0.2688 -0.2098
  717TMC3    C310597   4.672   2.969   9.353  0.2034  0.9822  0.2721
  717TMC3    C410598   4.565   2.785   9.541 -0.0878 -0.0558 -0.1433
  717TMC3    C510599   4.589   2.759   9.413  0.1466 -0.9708  0.3424
  717TMC3    C610600   4.632   2.846   9.309  0.0332  0.4681 -0.8481
  717TMC3     C10601   4.501   2.974   9.674 -0.1755  0.6012  0.6604
  717TMC3     O10602   4.440   2.892   9.744  0.4088 -0.6105  0.1694
  717TMC3     H10603   4.697   3.094   9.532  0.9878 -1.9122  2.1987
  717TMC3    H110604   4.520   2.715   9.610  1.6329 -2.4904 -1.5039
  717TMC3    H210605   4.652   2.814   9.207 -1.0463  0.1502 -0.9542
  717TMC3    C710606   4.562   2.625   9.375 -0.1397 -0.4342  0.3431
  717TMC3    C810607   4.627   3.090   9.281 -0.1897 -0.3280  0.4708
  717TMC3    O110608   4.548   2.605   9.255 -0.1885  0.0753 -0.1066
  717TMC3    O210609   4.576   3.179   9.348  0.0470 -0.4048 -0.2855
  718MPD2     C10610   3.252   2.067  12.484  0.3623 -0.5988  0.4870
  718MPD2    C110611   3.178   2.103  12.369  0.4343 -0.2418  0.1414
  718MPD2    C210612   3.038   2.089  12.378 -1.1625 -0.3146  0.5940
  718MPD2    C310613   2.981   2.035  12.490  0.3035 -0.5116  0.0213
  718MPD2    C410614   3.058   1.989  12.596 -0.9814 -0.8194  0.0590
  718MPD2    C510615   3.193   2.003  12.591  0.1038 -0.4023  0.1704
  718MPD2     H10616   2.969   2.104  12.295  0.7138 -1.3791 -1.1386
  718MPD2    H110617   3.017   1.928  12.675  0.0757 -1.4068  0.1571
  718MPD2    H210618   3.358   2.088  12.487  0.5003 -1.2208  0.0675
  718MPD2    H310619   3.247   1.967  12.678 -0.0299 -0.8302  0.0736
  718MPD2     N10620   2.845   2.028  12.490  0.1208 -0.0686 -1.2152
  718MPD2    H510621   2.805   2.063  12.403  0.5376 -0.0875 -1.4152
  718MPD2    N110622   3.246   2.154  12.259  0.4303 -0.2360 -0.3748
  718MPD2    H710623   3.346   2.169  12.270  0.1240  0.3342  1.5526
  719TMC3    C110624   3.246   2.292  12.063  0.5082 -0.3232  0.4781
  719TMC3    C210625   3.151   2.355  11.990  0.0483  0.4723  0.2077
  719TMC3    C310626   3.165   2.484  11.959 -0.1249 -0.2514  0.3980
  719TMC3    C410627   3.368   2.348  12.092 -0.0075 -0.2583  0.1379
  719TMC3    C510628   3.379   2.479  12.059 -0.4090  0.5081  0.0478
  719TMC3    C610629   3.282   2.548  11.994 -0.9307 -0.4885  0.2691
  719TMC3     C10630   3.180   2.198  12.145  0.3779 -0.2819 -0.1249
  719TMC3     O10631   3.059   2.209  12.124  0.0464 -0.5038  0.2574
  719TMC3     H10632   3.067   2.308  11.939 -0.1230  2.2427 -1.1346
  719TMC3    H110633   3.445   2.294  12.146  0.9556  0.6762 -0.3161
  719TMC3    H210634   3.306   2.647  11.956  2.4741 -0.7889  1.6283
  719TMC3    C710635   3.509   2.543  12.077 -0.3210  0.4862 -0.4061
  719TMC3    C810636   3.049   2.562  11.994  0.4748  0.5274  0.2874
  719TMC3    O110637   3.553   2.624  12.002 -0.2945 -1.2139  0.0797
  719TMC3    O210638   3.038   2.678  11.956 -0.0305 -0.1888 -0.8751
  720MPD2     C10639   2.042   3.882  13.884 -0.2410 -0.0515  0.0094
  720MPD2    C110640   2.108   3.857  13.764  0.3487 -0.1919  0.5549
  720MPD2    C210641   2.227   3.775  13.769  0.3721  0.5016 -0.3468
  720MPD2    C310642   2.270   3.720  13.888  0.0614 -0.1361  0.8043
  720MPD2    C410643   2.191   3.737  14.001  0.4106 -0.2519 -0.1787
  720MPD2    C510644   2.075   3.816  13.998 -0.2590  0.1743 -0.2901
  720MPD2     H10645   2.295   3.749  13.689 -0.9599  0.9053 -1.6052
  720MPD2    H110646   2.210   3.694  14.099  1.4740 -2.4857 -1.3613
  720MPD2    H210647   1.951   3.941  13.886 -0.8671 -1.0405  0.4889
  720MPD2    H310648   2.016   3.833  14.087 -0.5056  1.2797 -0.6699
  720MPD2     N10649   2.391   3.660  13.897  0.0260  0.9307 -0.1435
  720MPD2    H510650   2.444   3.652  13.811  0.6359 -1.5201  0.4469
  720MPD2    N110651   2.048   3.911  13.648 -0.1094  0.0615  0.0500
  720MPD2    H710652   1.954   3.948  13.652 -0.2758 -0.5736  2.2891
  721TMC3    C110653   2.598   3.631  14.007 -0.1470 -1.3379  0.1959
  721TMC3    C210654   2.674   3.576  14.110  0.1514  0.7113 -0.0604
  721TMC3    C310655   2.810   3.600  14.113  0.1792  0.3047 -0.2769
  721TMC3    C410656   2.657   3.718  13.915 -0.3205 -0.1829 -0.3267
  721TMC3    C510657   2.792   3.740  13.932  0.1478  0.4021  0.7644
  721TMC3    C610658   2.869   3.678  14.023 -0.6530  0.4431 -0.5326
  721TMC3     C10659   2.455   3.617  14.015 -0.0432  0.3842 -0.1199
  721TMC3     O10660   2.415   3.608  14.130  0.3812  0.0462  0.3546
  721TMC3     H10661   2.616   3.514  14.178 -0.7043  2.9545  1.2557
  721TMC3    H110662   2.600   3.745  13.827 -2.1039 -1.3551  0.4854
  721TMC3    H210663   2.975   3.697  14.034 -0.1747 -1.1159 -2.3640
  721TMC3    C710664   2.858   3.838  13.843 -0.4134  0.5532  1.0204
  721TMC3    C810665   2.900   3.547  14.223 -0.3506 -0.6390  0.7872
  721TMC3    O110666   2.976   3.844  13.842  0.1767 -0.2062  0.5334
  721TMC3    O210667   3.019   3.569  14.211 -0.3346  0.2581 -1.2868
  722MPD2     C10668   0.729   2.421  13.167 -0.3129  0.7516 -0.1294
  722MPD2    C110669   0.701   2.545  13.121  0.1379 -0.8542  0.3176
  722MPD2    C210670   0.569   2.572  13.090 -0.0363  0.5673 -0.1067
  722MPD2    C310671   0.478   2.465  13.083  0.2548 -0.0714 -1.1581
  722MPD2    C410672   0.513   2.332  13.132  0.4241  0.2950  0.3600
  722MPD2    C510673   0.640   2.319  13.172 -0.1893 -0.5819  0.1512
  722MPD2     H10674   0.537   2.671  13.061 -2.4517 -0.6030 -1.3697
  722MPD2    H110675   0.445   2.248  13.141 -1.4306  1.7420 -0.0755
  722MPD2    H210676   0.823   2.388  13.210 -2.0897 -0.7091  2.6038
  722MPD2    H310677   0.669   2.224  13.215 -0.1693 -0.0817  1.2401
  722MPD2     N10678   0.356   2.479  13.025  0.0035  0.1022  0.2021
  722MPD2    H510679   0.316   2.388  13.008  1.9831 -1.1930  2.4291
  722MPD2    N110680   0.805   2.640  13.119 -0.0573 -0.6360 -0.0781
  722MPD2    H710681   0.787   2.717  13.055 -0.9943 -0.0586  0.8665
  723TMC3    C110682   0.160   2.587  12.944  0.4704 -0.0990 -0.1162
  723TMC3    C210683   0.145   2.498  12.836  0.1848  0.1983  0.1138
  723TMC3    C310684   0.022   2.493  12.779 -0.0765 -0.3575 -0.1531
  723TMC3    C410685   0.059   2.672  12.981 -0.2592  0.1075 -0.5378
  723TMC3    C510686   4.668   2.673  12.911 -0.0417  0.2105  0.1558
  723TMC3    C610687   4.651   2.587  12.799 -0.0023 -0.1253 -0.2855
  723TMC3     C10688   0.290   2.602  13.008  0.3043  0.3701  0.0846
  723TMC3     O10689   0.310   2.714  13.050  0.3712 -0.1761 -0.6147
  723TMC3     H10690   0.220   2.432  12.795  0.0888  2.3423 -3.4528
  723TMC3    H110691   0.081   2.736  13.065  0.9589 -1.0117 -0.0171
  723TMC3    H210692   4.557   2.586  12.746  0.2085 -1.9137 -0.6154
  723TMC3    C710693   4.559   2.752  12.965 -0.4292  0.6035 -0.9271
  723TMC3    C810694   4.706   2.379  12.701 -0.2042 -0.4899  0.0801
  723TMC3    O110695   4.448   2.716  12.930  0.0270 -0.5506 -0.4541
  723TMC3    O210696   4.643   2.410  12.602  0.2877  0.7272  0.4101
  724TMC3    C110697   0.924   1.457   9.303  0.4254 -0.1819 -0.8047
  724TMC3    C210698   0.966   1.587   9.339  0.0879 -0.2200  0.0035
  724TMC3    C310699   1.093   1.590   9.391 -0.1850 -0.2463 -0.2866
  724TMC3    C410700   1.002   1.345   9.323 -0.0060 -0.1589  1.1603
  724TMC3    C510701   1.122   1.360   9.394 -0.3064  0.0648 -0.5653
  724TMC3    C610702   1.174   1.483   9.428 -0.5124  0.3279  0.4035
  724TMC3     C10703   0.788   1.446   9.253 -0.0738 -0.2892 -0.0899
  724TMC3     O10704   0.736   1.553   9.221 -0.0538  0.3770  0.3779
  724TMC3     H10705   0.897   1.671   9.336  0.5658  0.1824  0.3949
  724TMC3    H110706   0.969   1.253   9.277 -0.7887  0.8858 -0.3789
  724TMC3    H210707   1.269   1.488   9.480  0.2811 -0.2097 -0.9853
  724TMC3    C710708   1.227   1.254   9.386 -0.0375 -0.5223  0.0780
  724TMC3    C810709   1.157   1.725   9.392 -0.1636  0.1058 -0.5216
  724TMC3    O110710   1.340   1.284   9.425 -0.1802 -0.0552 -0.2070
  724TMC3    O210711   1.099   1.821   9.344 -0.3150 -0.2204 -0.1123
  725TMC3    C110712   2.554   4.560  12.859  0.5489 -0.1773  0.0865
  725TMC3    C210713   2.452   4.566  12.764 -0.6221 -0.0054  0.0953
  725TMC3    C310714   2.361   4.467  12.772  0.8252  0.1807  0.3401
  725TMC3    C410715   2.578   4.446  12.930 -0.6865  0.3341  0.2042
  725TMC3    C510716   2.480   4.351  12.935  0.1271 -0.5095  0.1397
  725TMC3    C610717   2.370   4.359  12.858  0.4278  0.1234 -0.0656
  725TMC3     C10718   2.586   4.688  12.934  0.0611  0.7914 -0.3304
  725TMC3     O10719   2.577   0.071  12.886  0.4797 -0.1807  0.1808
  725TMC3     H10720   2.427   4.664  12.725  0.6774 -0.0142 -0.7522
  725TMC3    H110721   2.669   4.432  12.986 -1.0337 -0.0917  0.6677
  725TMC3    H210722   2.301   4.276  12.854  0.3909  0.2043 -1.4090
  725TMC3    C710723   2.531   4.211  12.941  0.0520 -0.4414 -0.3658
  725TMC3    C810724   2.260   4.456  12.671  1.3034  0.0955  0.0667
  725TMC3    O110725   2.486   4.132  12.858 -0.6508  0.1124 -0.6633
  725TMC3    O210726   2.171   4.376  12.694 -0.1605 -0.2650  0.0600
  726MPD2     C10727   0.494   0.602  10.438  0.0192  0.2445  0.7464
  726MPD2    C110728   0.440   0.699  10.515  0.0650 -0.2577  0.0219
  726MPD2    C210729   0.328   0.675  10.592 -0.8020 -0.4576 -0.0002
  726MPD2    C310730   0.276   0.545  10.584  1.3035 -0.2824 -0.6370
  726MPD2    C410731   0.327   0.448  10.501  0.0535  0.1322  0.1076
  726MPD2    C510732   0.434   0.479  10.430 -0.6375  0.2720 -0.0866
  726MPD2     H10733   0.284   0.756  10.648 -0.8432  0.5600 -1.5068
  726MPD2    H110734   0.293   0.345  10.502  0.4523 -0.0088 -1.5094
  726MPD2    H210735   0.585   0.610  10.381  1.1151  0.5150  2.5318
  726MPD2    H310736   0.480   0.408  10.362  0.1388  2.5375 -1.9352
  726MPD2     N10737   0.156   0.517  10.652  0.3045 -0.0170  0.4562
  726MPD2    H510738   0.114   0.426  10.636 -0.4114  0.5844 -1.0772
  726MPD2    N110739   0.497   0.826  10.520 -0.6031 -0.1023  0.2571
  726MPD2    H710740   0.448   0.891  10.582 -3.3082 -0.0803 -1.9028
  727TMC3    C110741   0.644   1.003  10.509 -0.0743 -0.2380  0.6828
  727TMC3    C210742   0.770   1.050  10.529 -0.0268 -0.0764 -0.5747
  727TMC3    C310743   0.788   1.187  10.508  0.6547  0.5624  0.8775
  727TMC3    C410744   0.545   1.082  10.464  0.2860 -0.3409 -0.3437
  727TMC3    C510745   0.568   1.213  10.432 -1.1990  0.4825 -0.1355
  727TMC3    C610746   0.688   1.268  10.452  0.4591  0.4265 -0.1333
  727TMC3     C10747   0.619   0.864  10.476  0.4200 -0.3589 -0.1299
  727TMC3     O10748   0.701   0.796  10.420 -0.2591  0.0867 -1.2093
  727TMC3     H10749   0.855   0.984  10.545  0.0629 -0.0219 -0.8321
  727TMC3    H110750   0.454   1.037  10.424 -0.5622  0.3435  0.8163
  727TMC3    H210751   0.714   1.360  10.401 -0.7705  0.2131 -1.1520
  727TMC3    C710752   0.469   1.299  10.368  0.3818 -0.3123  0.1650
  727TMC3    C810753   0.924   1.228  10.498 -0.4672  0.4725  0.0448
  727TMC3    O110754   0.509   1.414  10.347 -0.4464 -0.0737 -0.4305
  727TMC3    O210755   1.009   1.140  10.497  0.4531  0.2677 -0.1483
  728TMC3    C110756   4.615   4.691  15.138 -0.1807  0.1397 -0.4158
  728TMC3    C210757   0.024   4.717  15.154  0.5255  0.0290 -0.2800
  728TMC3    C310758   0.100   0.018  15.039  0.3293  0.2061  0.3392
  728TMC3    C410759   4.555   4.690  15.015 -0.0046  0.1220  0.1978
  728TMC3    C510760   4.632   0.000  14.911  0.2348  0.4471  0.4975
  728TMC3    C610761   0.042   0.017  14.919  0.4704  0.5644 -0.3588
  728TMC3     C10762   4.542   4.681  15.257  0.1322 -0.2469  0.2766
  728TMC3     O10763   4.587   0.023  15.350 -0.6414  0.1870 -0.5259
  728TMC3     H10764   0.065   4.719  15.254  0.6457 -0.3969 -0.3190
  728TMC3    H110765   4.448   4.693  15.001 -0.1729 -0.4547  1.4123
  728TMC3    H210766   0.106   0.023  14.832  1.8026 -1.3899  0.4837
  728TMC3    C710767   4.575   4.673  14.785 -0.0142 -0.2377  0.5360
  728TMC3    C810768   0.246   4.725  15.045  0.9205  0.3262  0.4541
  728TMC3    O110769   4.493   4.581  14.782  0.0860  0.2607  0.6823
  728TMC3    O210770   0.298   4.690  14.940  0.1810  0.0371 -0.1190
  729MPD2     C10771   1.689   1.071  16.798  0.1803 -0.3384 -0.3736
  729MPD2    C110772   1.777   0.971  16.829 -0.4520 -0.2981 -0.1485
  729MPD2    C210773   1.791   0.932  16.961 -0.5991 -0.6926 -0.9808
  729MPD2    C310774   1.726   0.996  17.067 -0.0587  0.1285 -0.9266
  729MPD2    C410775   1.638   1.094  17.031  0.1950  0.0705 -0.1179
  729MPD2    C510776   1.617   1.130  16.899  0.1439  0.2932  0.3753
  729MPD2     H10777   1.861   0.852  16.986  1.5462  1.8475  1.1054
  729MPD2    H110778   1.598   1.149  17.115 -0.4410  0.0607 -0.4168
  729MPD2    H210779   1.673   1.109  16.698 -0.4351  2.2969  0.7038
  729MPD2    H310780   1.548   1.211  16.877 -0.3445  0.0709  1.0792
  729MPD2     N10781   1.772   0.978  17.201  0.1079  0.0855  1.1480
  729MPD2    H510782   1.740   1.050  17.265 -0.2097  1.2709 -0.3155
  729MPD2    N110783   1.861   0.924  16.724  0.2560  0.4225  0.1860
  729MPD2    H710784   1.862   0.977  16.637  0.2253 -0.8837 -0.6052
  730TMC3    C110785   1.914   0.880  17.366  0.1812 -0.8299 -0.1405
  730TMC3    C210786   2.024   0.799  17.359  0.2415  0.1010  0.8090
  730TMC3    C310787   2.144   0.854  17.368  0.5550  0.0656 -0.4605
  730TMC3    C410788   1.923   1.016  17.411  0.1152  0.5926  1.1107
  730TMC3    C510789   2.055   1.060  17.432  0.0060  0.3691  0.3759
  730TMC3    C610790   2.162   0.980  17.418 -0.3835  0.4680  0.9215
  730TMC3     C10791   1.836   0.867  17.243 -0.1222  0.3937 -0.3182
  730TMC3     O10792   1.861   0.766  17.184 -0.3185  0.1778  0.8226
  730TMC3     H10793   2.017   0.695  17.329 -0.7695  0.6502 -0.9008
  730TMC3    H110794   1.839   1.084  17.411 -0.2501  0.1380 -1.0211
  730TMC3    H210795   2.257   1.032  17.423  0.7847 -1.6054  0.5199
  730TMC3    C710796   2.079   1.192  17.365 -0.1504 -0.2462  0.2885
  730TMC3    C810797   2.225   0.817  17.256  0.2684  1.2510 -0.5924
  730TMC3    O110798   2.150   1.183  17.265 -0.4291  0.2176 -0.1775
  730TMC3    O210799   2.229   0.698  17.217  0.0180  0.4803 -0.2830
  731MPD2     C10800   1.927   4.110  12.429  0.6842  0.0659 -0.1017
  731MPD2    C110801   1.942   3.980  12.370  0.4579 -0.0717 -0.0470
  731MPD2    C210802   1.935   3.876  12.465 -1.3445  0.2195  0.9131
  731MPD2    C310803   1.903   3.898  12.593 -0.0080 -0.5513 -0.3694
  731MPD2    C410804   1.881   4.030  12.648 -0.5297  0.0636  0.1546
  731MPD2    C510805   1.893   4.135  12.565 -0.2098 -0.4882  0.8364
  731MPD2     H10806   1.945   3.775  12.426 -0.4085  0.4466  0.5677
  731MPD2    H110807   1.868   4.057  12.752  1.2566 -0.3711  0.4988
  731MPD2    H210808   1.934   4.196  12.365  0.8571  2.4540  3.1031
  731MPD2    H310809   1.887   4.238  12.598  0.6841  0.4759 -2.0376
  731MPD2     N10810   1.889   3.787  12.679 -1.2169 -0.2234  0.5207
  731MPD2    H510811   1.928   3.698  12.647 -0.5406  1.0694 -2.3266
  731MPD2    N110812   1.970   3.950  12.233 -0.4210  0.6538  0.0264
  731MPD2    H710813   1.991   3.853  12.212  1.6320  0.4453  3.0258
  732TMC3    C110814   2.043   3.990  12.017 -0.2430 -0.2027 -0.9260
  732TMC3    C210815   1.999   3.863  11.977 -0.2784 -0.8592 -0.0226
  732TMC3    C310816   2.076   3.805  11.881  0.3834  0.6708  0.2143
  732TMC3    C410817   2.144   4.048  11.953 -0.5598  1.3967 -0.4900
  732TMC3    C510818   2.226   3.984  11.869  0.2993 -0.4317 -0.1059
  732TMC3    C610819   2.187   3.856  11.825  0.2255 -0.8882 -0.1551
  732TMC3     C10820   2.000   4.049  12.142 -0.3386 -0.7289 -0.7112
  732TMC3     O10821   1.992   4.173  12.148  0.4024 -0.6056  0.0697
  732TMC3     H10822   1.925   3.801  12.027  0.0293 -1.0943  0.1410
  732TMC3    H110823   2.182   4.139  11.999  0.7757  0.7612 -0.3358
  732TMC3    H210824   2.248   3.803  11.752 -1.5247 -1.3037 -1.3259
  732TMC3    C710825   2.372   4.010  11.874 -0.2686 -0.3801 -0.1675
  732TMC3    C810826   2.037   3.674  11.823  0.6576 -0.1339  0.7567
  732TMC3    O110827   2.404   4.123  11.844  0.5014 -0.0557  0.2593
  732TMC3    O210828   2.130   3.610  11.776 -0.3437  0.6130 -0.5506
  733TMC3    C110829   2.427   2.112  12.667  0.5149  0.6561  0.2340
  733TMC3    C210830   2.525   2.021  12.648  0.0968 -0.4498  0.2181
  733TMC3    C310831   2.631   2.064  12.575  0.0420  0.5235  0.1416
  733TMC3    C410832   2.413   2.217  12.588  0.0279 -0.9675  0.2298
  733TMC3    C510833   2.519   2.248  12.516  0.8866  0.3330  0.5728
  733TMC3    C610834   2.637   2.176  12.508  0.0103 -0.7733 -0.3084
  733TMC3     C10835   2.324   2.089  12.768  0.0139  0.1927 -0.3844
  733TMC3     O10836   2.248   2.180  12.784  0.2180  0.0904  0.4787
  733TMC3     H10837   2.535   1.932  12.708 -1.1406 -0.3139  0.6207
  733TMC3    H110838   2.330   2.285  12.596  0.5308 -0.3695  0.4137
  733TMC3    H210839   2.726   2.231  12.477 -2.1174  1.2794 -2.7755
  733TMC3    C710840   2.501   2.361  12.427 -0.2857  0.4114  0.4104
  733TMC3    C810841   2.757   2.002  12.593 -0.9481 -0.4819 -0.1136
  733TMC3    O110842   2.432   2.455  12.459  0.4425 -0.1413  0.2722
  733TMC3    O210843   2.782   1.932  12.689  0.2324  0.5427  0.4728
  734MPD2     C10844   4.634   4.132  12.489 -0.6872  0.1509 -0.2066
  734MPD2    C110845   4.571   4.052  12.400  0.0489 -0.1103  0.4164
  734MPD2    C210846   4.560   4.096  12.271  0.1112 -0.0954 -0.1960
  734MPD2    C310847   4.622   4.208  12.228 -0.2610  0.1727  0.6808
  734MPD2    C410848   4.690   4.287  12.315 -0.1361  0.4541  0.2514
  734MPD2    C510849   4.693   4.250  12.447 -0.0606  0.1261 -0.3098
  734MPD2     H10850   4.517   4.033  12.194  0.3783  1.4916 -1.6557
  734MPD2    H110851   0.003   4.383  12.283 -0.9980  1.0617  1.0231
  734MPD2    H210852   4.646   4.105  12.593  0.3193  1.4229  0.0031
  734MPD2    H310853   0.010   4.321  12.516 -2.4580  0.9545  0.3411
  734MPD2     N10854   4.603   4.239  12.093  0.5913  0.4396 -0.5648
  734MPD2    H510855   4.556   4.173  12.032  2.1149 -1.3502  0.2156
  734MPD2    N110856   4.509   3.931  12.448  0.4711 -0.0746 -0.0630
  734MPD2    H710857   4.538   3.904  12.542  2.7662 -0.2320 -0.8097
  735TMC3    C110858   4.421   3.709  12.396  0.0584  0.2397  0.0445
  735TMC3    C210859   4.329   3.654  12.315  0.1576  0.5367 -0.4594
  735TMC3    C310860   4.361   3.539  12.248  0.6198 -0.2430  0.1926
  735TMC3    C410861   4.553   3.667  12.402 -0.4112 -0.5813  0.4186
  735TMC3    C510862   4.586   3.556  12.333 -0.3686  0.0709  0.4124
  735TMC3    C610863   4.488   3.487  12.262  1.1155 -0.0697  0.0525
  735TMC3     C10864   4.427   3.855  12.366 -0.2982 -0.1281 -0.1021
  735TMC3     O10865   4.370   3.881  12.260 -0.0377  0.2716  0.0498
  735TMC3     H10866   4.232   3.699  12.300  0.3392  1.5431  1.4278
  735TMC3    H110867   4.639   3.721  12.440  0.8077 -1.5093 -1.0439
  735TMC3    H210868   4.513   3.396  12.209  0.2099 -0.9855  1.1936
  735TMC3    C710869   4.721   3.531  12.299  0.1861 -0.2149 -0.4734
  735TMC3    C810870   4.317   3.547  12.112  0.0233  0.6513  0.0552
  735TMC3    O110871   0.067   3.631  12.278 -0.0050 -0.1578  0.1141
  735TMC3    O210872   4.300   3.446  12.047  0.2935  0.2354 -0.0788
  736MPD2     C10873   0.162   3.227  12.389 -0.1948  0.3334 -0.2772
  736MPD2    C110874   0.157   3.342  12.328  0.2851  0.0272  0.4421
  736MPD2    C210875   0.271   3.386  12.258  0.0879  0.3719  0.3635
  736MPD2    C310876   0.386   3.311  12.256 -0.0474 -0.3652  0.4924
  736MPD2    C410877   0.383   3.190  12.327 -0.4089 -0.2413  0.4752
  736MPD2    C510878   0.270   3.149  12.391  0.2829  0.8248  0.5777
  736MPD2     H10879   0.253   3.479  12.205 -2.8949 -0.5821 -0.3031
  736MPD2    H110880   0.470   3.125  12.329 -1.2752 -1.3170  3.2853
  736MPD2    H210881   0.084   3.179  12.447  0.5932 -1.4158 -0.6836
  736MPD2    H310882   0.273   3.063  12.457 -0.5255 -1.6390 -2.5987
  736MPD2     N10883   0.504   3.341  12.180  0.0133 -0.0214  0.1430
  736MPD2    H510884   0.585   3.280  12.187 -0.5782 -1.0075 -1.7669
  736MPD2    N110885   0.021   3.396  12.316  0.2365 -0.4955 -0.2826
  736MPD2    H710886   4.668   3.338  12.342  0.2578  0.5433  2.0653
  737TMC3    C110887   0.643   3.442  12.031 -0.0791  0.4473 -0.8664
  737TMC3    C210888   0.688   3.563  11.977 -0.7147 -0.2494 -0.0641
  737TMC3    C310889   0.753   3.570  11.855 -0.5271 -0.1960  0.1384
  737TMC3    C410890   0.656   3.330  11.957  0.8611 -0.1783  0.3507
  737TMC3    C510891   0.730   3.340  11.840 -1.1530  0.5539  0.0502
  737TMC3    C610892   0.768   3.456  11.781 -0.3536 -0.0974  0.8555
  737TMC3     C10893   0.531   3.456  12.118 -0.0909  0.1718 -0.5396
  737TMC3     O10894   0.475   3.568  12.116 -0.4024  0.3558 -0.1116
  737TMC3     H10895   0.673   3.650  12.040  0.5083 -0.2307  0.2120
  737TMC3    H110896   0.617   3.234  11.990  0.6526 -0.1605  0.1548
  737TMC3    H210897   0.839   3.455  11.699 -1.0765 -0.8507  0.2431
  737TMC3    C710898   0.757   3.210  11.787 -0.2945  0.2877  0.4410
  737TMC3    C810899   0.847   3.679  11.846 -0.9330  0.3643  0.0588
  737TMC3    O110900   0.671   3.124  11.817 -0.1967 -0.9219 -0.0136
  737TMC3    O210901   0.863   3.754  11.939 -0.0360 -0.4247 -0.3226
  738MPD2     C10902   1.057   2.566  15.366  0.0525 -0.7588 -0.4638
  738MPD2    C110903   1.051   2.579  15.228 -0.0971  0.3550  0.3216
  738MPD2    C210904   1.147   2.645  15.161  0.1677 -0.0284 -0.0900
  738MPD2    C310905   1.259   2.695  15.226 -0.4653  0.3575 -0.0151
  738MPD2    C410906   1.269   2.682  15.360 -0.9459  0.3153  0.5532
  738MPD2    C510907   1.170   2.622  15.428  0.6348 -0.1500 -0.0112
  738MPD2     H10908   1.137   2.639  15.053  1.1834  1.1562 -0.2540
  738MPD2    H110909   1.353   2.712  15.422 -0.2696  0.4409 -0.4041
  738MPD2    H210910   0.981   2.519  15.427  1.6970 -3.0848 -0.2072
  738MPD2    H310911   1.185   2.612  15.535  2.2992 -2.1846 -0.4490
  738MPD2     N10912   1.366   2.758  15.158  0.6070 -0.0592  0.0903
  738MPD2    H510913   1.437   2.803  15.216  1.4646 -0.6198 -0.5198
  738MPD2    N110914   0.937   2.531  15.150 -0.3492  0.4332 -0.4115
  738MPD2    H710915   0.941   2.548  15.050  0.5920  1.5589 -0.1801
  739TMC3    C110916   1.488   2.861  14.966 -0.1332 -0.1701 -0.0101
  739TMC3    C210917   1.485   2.908  14.839 -0.1035 -0.2290 -0.5747
  739TMC3    C310918   1.602   2.960  14.791 -0.2819 -0.3860  0.0583
  739TMC3    C410919   1.603   2.848  15.045  0.4843 -0.4200 -0.2709
  739TMC3    C510920   1.716   2.897  14.986  0.3031 -0.7685  0.6196
  739TMC3    C610921   1.720   2.957  14.864 -0.1701 -0.1279 -0.6566
  739TMC3     C10922   1.367   2.787  15.018  0.2820  0.7677  0.2468
  739TMC3     O10923   1.285   2.767  14.932 -0.8881  0.2572 -0.2625
  739TMC3     H10924   1.385   2.911  14.797  0.2460  2.1665 -1.2513
  739TMC3    H110925   1.614   2.819  15.149 -3.9120  2.7257  1.0845
  739TMC3    H210926   1.815   2.981  14.818 -0.2189  1.0330 -0.1759
  739TMC3    C710927   1.841   2.857  15.054  0.0926  0.6573  1.3172
  739TMC3    C810928   1.598   3.043  14.672 -0.4529 -0.0904  0.8117
  739TMC3    O110929   1.851   2.745  15.102  0.0104  0.2535 -0.5153
  739TMC3    O210930   1.498   3.037  14.604 -0.1811  0.7450 -0.8605
  740TMC3    C110931   2.228   4.109  14.178  0.4080  0.8110 -0.0196
  740TMC3    C210932   2.293   4.023  14.260  0.0453 -0.6021  0.4373
  740TMC3    C310933   2.397   3.963  14.203  0.3141  0.6743  0.4527
  740TMC3    C410934   2.239   4.118  14.040 -0.1705  0.7890 -0.4702
  740TMC3    C510935   2.350   4.057  13.989  0.2698  0.4883 -0.1652
  740TMC3    C610936   2.420   3.966  14.065 -0.1261  0.1888  0.8661
  740TMC3     C10937   2.131   4.195  14.235  0.0449 -0.5404 -0.2470
  740TMC3     O10938   2.107   4.294  14.166  0.2781 -0.3182 -0.4804
  740TMC3     H10939   2.284   4.038  14.367  0.0006  1.5093  0.1369
  740TMC3    H110940   2.197   4.196  13.978 -1.3125 -0.1236 -0.8498
  740TMC3    H210941   2.507   3.913  14.026 -1.6021 -1.2894 -0.3926
  740TMC3    C710942   2.385   4.056  13.844  0.9882  0.2510  0.2640
  740TMC3    C810943   2.492   3.880  14.286 -0.1519  0.0597  0.1144
  740TMC3    O110944   2.465   3.973  13.805  0.2200  0.0546 -0.6400
  740TMC3    O210945   2.588   3.840  14.230 -0.5088 -0.2850 -0.2248
  741TMC3    C110946   1.542   3.692  14.414 -0.3471 -0.4170 -0.5931
  741TMC3    C210947   1.431   3.634  14.352 -0.3865  0.1108 -0.3920
  741TMC3    C310948   1.381   3.516  14.394 -0.7344 -0.1007  0.4892
  741TMC3    C410949   1.592   3.635  14.527  0.0634  0.0736 -1.2969
  741TMC3    C510950   1.534   3.522  14.573 -0.5972  0.4607  0.1759
  741TMC3    C610951   1.427   3.464  14.514  0.5259 -0.2260 -0.6777
  741TMC3     C10952   1.614   3.803  14.363  0.6664  0.6658  0.5879
  741TMC3     O10953   1.700   3.857  14.434 -0.9260 -0.2298  0.4610
  741TMC3     H10954   1.375   3.684  14.274 -1.1556 -0.4555 -0.1927
  741TMC3    H110955   1.683   3.678  14.567 -0.3375  0.9692 -1.3298
  741TMC3    H210956   1.422   3.357  14.534  1.0630 -0.3646 -1.2837
  741TMC3    C710957   1.597   3.466  14.692 -0.0840  0.3440  0.2358
  741TMC3    C810958   1.280   3.449  14.316 -0.6842  0.3124 -0.3312
  741TMC3    O110959   1.708   3.506  14.726 -0.6367 -0.7135  0.0185
  741TMC3    O210960   1.284   3.489  14.200  0.0223  0.9352 -0.0489
  742TMC3    C110961   1.182   2.296  15.670  0.2635  0.1108  0.3750
  742TMC3    C210962   1.085   2.229  15.592  0.1727 -0.4824  0.1261
  742TMC3    C310963   1.128   2.196  15.466  0.3906 -0.8367  0.0021
  742TMC3    C410964   1.305   2.327  15.623  0.2702 -0.4756  0.6281
  742TMC3    C510965   1.343   2.286  15.494  0.0129 -0.1877 -0.5186
  742TMC3    C610966   1.255   2.222  15.411  0.4800 -0.0877  0.6313
  742TMC3     C10967   1.130   2.375  15.784 -0.6010  0.0487 -0.4482
  742TMC3     O10968   1.209   2.401  15.870 -0.5269 -0.7720  0.7140
  742TMC3     H10969   0.997   2.186  15.639 -0.1265 -0.6649 -0.5955
  742TMC3    H110970   1.378   2.373  15.688  1.4013  0.5727 -1.3883
  742TMC3    H210971   1.270   2.206  15.305  2.5626 -2.8366  1.3747
  742TMC3    C710972   1.484   2.259  15.462 -0.1312 -0.8621  0.3156
  742TMC3    C810973   1.044   2.111  15.387 -0.7718  0.0870 -0.2327
  742TMC3    O110974   1.499   2.192  15.357  0.0561 -0.2610 -0.0887
  742TMC3    O210975   1.100   2.051  15.290  0.4879  0.0941 -0.4724
  743MPD2     C10976   3.605   2.695   1.687  0.6492 -0.2587  0.1540
  743MPD2    C110977   3.698   2.771   1.632 -0.1258 -0.2264 -0.9726
  743MPD2    C210978   3.833   2.730   1.641 -0.3594  0.3119  0.4413
  743MPD2    C310979   3.871   2.602   1.689  0.1278 -0.0731  0.1193
  743MPD2    C410980   3.765   2.520   1.723  0.3443 -0.3405 -0.1005
  743MPD2    C510981   3.640   2.566   1.720 -0.2378  0.0841  0.6462
  743MPD2     H10982   3.910   2.796   1.601 -0.0334 -0.4534 -0.2050
  743MPD2    H110983   3.779   2.417   1.752  1.6150  0.2264  1.3061
  743MPD2    H210984   3.501   2.720   1.669  0.7401 -0.3908 -0.5545
  743MPD2    H310985   3.562   2.497   1.751 -0.0789  0.4018  1.7817
  743MPD2     N10986   4.007   2.569   1.710  0.2937  0.2852 -0.3094
  743MPD2    H510987   4.077   2.634   1.677 -1.1010  1.7588 -0.3438
  743MPD2    N110988   3.645   2.876   1.548  0.4947  0.3334 -0.3269
  743MPD2    H710989   3.552   2.916   1.551 -0.4300 -1.7104 -1.8670
  744TMC3    C110990   3.643   3.016   1.354 -0.2176  0.6059  0.8919
  744TMC3    C210991   3.544   3.101   1.390 -1.0053  0.4694  0.2772
  744TMC3    C310992   3.483   3.189   1.304  0.3980  0.7106 -0.2400
  744TMC3    C410993   3.694   3.015   1.225 -0.1191  0.2970  0.3161
  744TMC3    C510994   3.627   3.086   1.139  0.2489 -0.5141 -0.6293
  744TMC3    C610995   3.529   3.178   1.176  1.2436 -0.1045 -0.3051
  744TMC3     C10996   3.720   2.931   1.442  0.3090  0.3064 -0.1452
  744TMC3     O10997   3.839   2.925   1.418  0.1632 -0.1486  0.1975
  744TMC3     H10998   3.523   3.129   1.493  2.3360 -0.1878  1.1466
  744TMC3    H110999   3.764   2.936   1.200  0.0511  0.3281  0.6924
  744TMC3    H211000   3.495   3.244   1.097 -2.1436 -1.1278  0.2827
  744TMC3    C711001   3.685   3.098   1.006 -0.3972 -0.2680 -0.9227
  744TMC3    C811002   3.481   3.312   1.368  0.4100 -0.3796 -0.3500
  744TMC3    O111003   3.800   3.066   1.000  0.2259  0.1232  0.5179
  744TMC3    O211004   3.570   3.336   1.447 -0.2861 -0.6492  0.2035
  745TMC3    C111005   1.146   1.495  13.587 -0.7480  0.0104 -0.2476
  745TMC3    C211006   1.051   1.451  13.675 -0.4923  0.9015  0.1843
  745TMC3    C311007   0.920   1.478  13.637  0.1728  0.8503 -0.6523
  745TMC3    C411008   1.121   1.545  13.458  0.3920 -1.2663  0.8393
  745TMC3    C511009   0.984   1.562  13.425  0.6749  0.0256 -0.3077
  745TMC3    C611010   0.886   1.523  13.512  0.1617 -0.5825  0.2535
  745TMC3     C11011   1.280   1.488  13.630  1.2591 -0.3059 -0.5088
  745TMC3     O11012   1.330   1.381  13.664  0.4289 -0.1534  0.3738
  745TMC3     H11013   1.073   1.400  13.768  1.3885  1.5780  0.1193
  745TMC3    H111014   1.202   1.564  13.389  0.9316 -3.5642  0.8413
  745TMC3    H211015   0.782   1.545  13.489  0.1846  0.6564  1.3532
  745TMC3    C711016   0.950   1.609  13.286  0.0517  1.1714  0.0139
  745TMC3    C811017   0.855   1.554  13.740  0.5384  0.2711 -0.4066
  745TMC3    O111018   0.831   1.607  13.257 -0.5863 -0.1080 -0.4673
  745TMC3    O211019   0.733   1.565  13.758  0.9083 -0.5999 -0.1183
  746TMC3    C111020   3.756   3.545  10.848  0.9305 -0.0672 -0.2486
  746TMC3    C211021   3.832   3.493  10.748 -1.0796 -0.2722 -0.0643
  746TMC3    C311022   3.826   3.351  10.726 -1.5222  0.8280 -0.4503
  746TMC3    C411023   3.696   3.465  10.939  0.2371  0.2276  0.3652
  746TMC3    C511024   3.694   3.328  10.918  0.5621  0.0040 -0.3477
  746TMC3    C611025   3.756   3.269  10.811  0.5867 -0.8435  0.6095
  746TMC3     C11026   3.722   3.684  10.846  0.0004  0.2471  0.7999
  746TMC3     O11027   3.607   3.719  10.867  0.2685  0.3993  0.1911
  746TMC3     H11028   3.870   3.568  10.680 -1.3050 -0.4494 -0.3857
  746TMC3    H111029   3.623   3.522  10.995 -0.8217  2.0590 -2.8711
  746TMC3    H211030   3.740   3.163  10.791  1.0286 -0.3529 -2.4448
  746TMC3    C711031   3.578   3.257  10.963 -0.1690  0.0479  0.3149
  746TMC3    C811032   3.871   3.290  10.603 -0.3395  0.0484 -0.2694
  746TMC3    O111033   3.542   3.157  10.895 -0.4930  0.5113  0.3500
  746TMC3    O211034   3.824   3.182  10.580 -0.0117  0.2569  0.2788
  747TMC3    C111035   1.588   2.926  11.206 -0.0043 -0.0891  0.2460
  747TMC3    C211036   1.463   2.878  11.240  0.5402 -0.0330  0.5764
  747TMC3    C311037   1.381   2.960  11.309 -0.0548 -0.5070  0.3260
  747TMC3    C411038   1.625   3.056  11.242  0.1428  0.0624 -0.1812
  747TMC3    C511039   1.540   3.128  11.319  0.1415  0.2925 -0.7645
  747TMC3    C611040   1.412   3.087  11.351 -0.1237  0.8990  0.2122
  747TMC3     C11041   1.687   2.822  11.195 -0.1008  0.1501 -0.6284
  747TMC3     O11042   1.796   2.840  11.251 -0.4807  0.2938  0.4807
  747TMC3     H11043   1.437   2.773  11.233  1.6212 -0.2514 -0.2137
  747TMC3    H111044   1.722   3.093  11.209  0.1491  0.2521  0.0502
  747TMC3    H211045   1.353   3.145  11.421  1.2695 -0.7980  2.8261
  747TMC3    C711046   1.568   3.261  11.356  0.2756  0.3193 -0.0392
  747TMC3    C811047   1.263   2.898  11.364  0.1368 -0.5875 -0.1016
  747TMC3    O111048   1.472   3.338  11.366 -0.2439 -0.3718 -0.0064
  747TMC3    O211049   1.242   2.778  11.351 -0.1344  0.5292 -0.1933
  748MPD2     C11050   2.798   4.349   1.580  0.0193 -0.1822 -0.5552
  748MPD2    C111051   2.800   4.470   1.515 -0.0795  0.4965  0.8377
  748MPD2    C211052   2.922   4.532   1.500  0.4711  0.5700  0.1575
  748MPD2    C311053   3.037   4.481   1.540  0.5068 -0.2817 -0.2563
  748MPD2    C411054   3.039   4.358   1.605  0.5163 -0.7934  0.6195
  748MPD2    C511055   2.917   4.290   1.606  0.6881  0.2156 -0.1331
  748MPD2     H11056   2.925   4.623   1.441 -0.0492  0.7633  0.4228
  748MPD2    H111057   3.132   4.316   1.641  1.4795  1.3055  0.6130
  748MPD2    H211058   2.710   4.289   1.600 -1.9523  2.4630 -1.3269
  748MPD2    H311059   2.912   4.191   1.648  0.7726 -0.0691 -0.7864
  748MPD2     N11060   3.159   4.549   1.510  0.1145  0.9132  0.2647
  748MPD2    H511061   3.152   4.641   1.467 -0.4681  0.9332  0.4095
  748MPD2    N111062   2.674   4.521   1.488  0.4771  0.2322  0.8282
  748MPD2    H711063   2.595   4.460   1.507  0.8070 -0.2666  0.6011
  749TMC3    C111064   3.388   4.593   1.498 -0.1627 -0.1151  0.1512
  749TMC3    C211065   3.509   4.568   1.556  0.0355  0.0970  0.6064
  749TMC3    C311066   3.583   4.678   1.556 -0.2305 -0.1997  0.5931
  749TMC3    C411067   3.354   4.707   1.427  0.4581 -0.0260 -0.1681
  749TMC3    C511068   3.434   0.085   1.448  1.2827 -0.1870  0.1156
  749TMC3    C611069   3.550   0.076   1.511  0.2313  0.2679  0.0050
  749TMC3     C11070   3.284   4.506   1.544  0.0766 -0.2246  0.1336
  749TMC3     O11071   3.320   4.420   1.623 -0.7221 -0.8345 -0.0363
  749TMC3     H11072   3.529   4.482   1.619 -0.1619 -0.1386  0.3477
  749TMC3    H111073   3.262   4.715   1.371  0.3599 -3.2001 -0.4456
  749TMC3    H211074   3.619   0.159   1.519  0.6774 -0.0146 -0.8779
  749TMC3    C711075   3.425   0.183   1.347  0.2882  0.3821  0.6034
  749TMC3    C811076   3.703   4.674   1.639 -0.4430  0.1423 -0.1359
  749TMC3    O111077   3.536   0.228   1.321 -0.2951  0.2892  0.5970
  749TMC3    O211078   3.723   0.049   1.710 -0.0867 -0.4714  0.0987
  750MPD2     C11079   4.003   0.551  11.395  0.7247 -0.8351  0.0693
  750MPD2    C111080   3.870   0.561  11.352 -0.1664 -0.0778 -0.2150
  750MPD2    C211081   3.815   0.480  11.253 -0.2307 -0.2154  0.3489
  750MPD2    C311082   3.876   0.361  11.219  0.2926 -0.4036  0.5687
  750MPD2    C411083   4.004   0.349  11.272  0.3430 -0.3508 -0.7319
  750MPD2    C511084   4.066   0.435  11.356  0.6554  0.4013  0.3389
  750MPD2     H11085   3.714   0.495  11.217  0.6993 -1.1152 -2.6134
  750MPD2    H111086   4.051   0.252  11.259 -2.3293 -1.5176 -1.4944
  750MPD2    H211087   4.053   0.606  11.473  0.0971  1.8418 -1.4295
  750MPD2    H311088   4.167   0.407  11.383 -0.3691 -1.3304  2.3352
  750MPD2     N11089   3.824   0.251  11.144 -0.2213  0.0288  0.0851
  750MPD2    H511090   3.887   0.177  11.112 -2.4866 -0.8592 -2.2913
  750MPD2    N111091   3.799   0.665  11.410 -0.3586 -0.4314 -0.5528
  750MPD2    H711092   3.841   0.694  11.497  0.7185 -2.7280 -0.3329
  751TMC3    C111093   3.679   0.142  11.001  0.7418  0.5005  0.8186
  751TMC3    C211094   3.550   0.095  10.994 -0.0279 -0.4854 -0.2727
  751TMC3    C311095   3.532   4.726  10.897 -0.1409  0.3478  0.4131
  751TMC3    C411096   3.792   0.091  10.929 -0.2772  0.6183 -0.1138
  751TMC3    C511097   3.764   4.705  10.856  0.0428 -0.1233 -0.8375
  751TMC3    C611098   3.634   4.662  10.830  0.2534  0.3444 -0.2025
  751TMC3     C11099   3.697   0.246  11.099  0.0079  0.1027 -0.0939
  751TMC3     O11100   3.596   0.312  11.126  0.0990  0.5703  0.0484
  751TMC3     H11101   3.466   0.148  11.037  1.6377  1.5463  0.5094
  751TMC3    H111102   3.887   0.143  10.923 -0.9129  1.9568  1.4119
  751TMC3    H211103   3.602   4.583  10.764  0.3804 -0.4701  0.7034
  751TMC3    C711104   3.868   4.640  10.783 -0.2116  0.0459  0.3481
  751TMC3    C811105   3.402   4.676  10.861 -0.5718  0.1933 -0.3487
  751TMC3    O111106   3.971   4.708  10.775  0.0476  0.0772  0.1828
  751TMC3    O211107   3.378   4.646  10.747  0.0893 -0.4444 -0.1222
  752TMC3    C111108   2.399   0.086  17.258  0.2412  0.0734  0.2662
  752TMC3    C211109   2.413   4.689  17.312 -0.3053  0.1518  0.2112
  752TMC3    C311110   2.373   4.674  17.446 -0.5289  0.1667 -0.0734
  752TMC3    C411111   2.357   0.196  17.332 -0.4127 -0.3562 -0.4221
  752TMC3    C511112   2.303   0.168  17.448  0.7613 -0.1765 -0.0201
  752TMC3    C611113   2.309   0.050  17.512  0.0889  0.4187 -0.1308
  752TMC3     C11114   2.444   0.103  17.125 -0.5994 -0.4395 -0.4683
  752TMC3     O11115   2.486   0.005  17.071 -0.2295  0.3563 -0.1374
  752TMC3     H11116   2.445   4.599  17.262 -1.3947 -0.8640  1.3457
  752TMC3    H111117   2.361   0.298  17.295  0.7219 -0.4917 -0.6739
  752TMC3    H211118   2.275   0.049  17.615 -1.8417 -0.0166 -0.7628
  752TMC3    C711119   2.269   0.285  17.524  0.1634 -0.2461  0.1353
  752TMC3    C811120   2.414   4.560  17.522  0.3726  0.4811 -0.0360
  752TMC3    O111121   2.170   0.266  17.594  0.2290  0.3416  0.2318
  752TMC3    O211122   2.428   4.457  17.461  0.4090 -0.4276 -0.2065
  753TMC3    C111123   4.558   1.785  13.027  0.5754  0.0191 -0.9509
  753TMC3    C211124   4.578   1.906  13.088  0.1165 -0.6669  0.6576
  753TMC3    C311125   4.609   1.897  13.224 -0.4242 -0.4565  0.3870
  753TMC3    C411126   4.570   1.668  13.091 -0.1484  0.5909 -0.2701
  753TMC3    C511127   4.600   1.662  13.223  0.3564  0.0728 -0.7427
  753TMC3    C611128   4.616   1.778  13.293 -0.3976 -0.0151 -0.6649
  753TMC3     C11129   4.502   1.773  12.896  0.2859 -0.2986 -0.2391
  753TMC3     O11130   4.517   1.666  12.842  0.1185 -0.3137  0.5137
  753TMC3     H11131   4.564   2.001  13.037 -1.1840 -2.2192 -1.8469
  753TMC3    H111132   4.569   1.579  13.030  1.5994 -0.6765  1.5363
  753TMC3    H211133   4.651   1.778  13.396 -1.2801  1.8387 -0.3650
  753TMC3    C711134   4.588   1.533  13.290 -0.3926 -1.0560  0.2600
  753TMC3    C811135   4.600   2.027  13.295 -0.0797  0.6682 -0.2502
  753TMC3    O111136   4.694   1.482  13.322  0.1652 -0.2608 -0.1000
  753TMC3    O211137   4.510   2.093  13.245 -0.2315  1.0043  0.1452
  754MPD2     C11138   3.804   0.680  12.688 -0.0831 -0.0070 -0.5313
  754MPD2    C111139   3.762   0.590  12.788 -0.4739  0.0539 -0.0351
  754MPD2    C211140   3.626   0.596  12.825  0.2416 -0.7154  0.0558
  754MPD2    C311141   3.539   0.682  12.763 -0.0012 -0.2528  0.7772
  754MPD2    C411142   3.593   0.783  12.680 -0.2581  0.9110 -0.3780
  754MPD2    C511143   3.722   0.775  12.644  0.3214 -0.2828  0.3907
  754MPD2     H11144   3.588   0.527  12.900  0.1813 -2.8317 -1.9314
  754MPD2    H111145   3.536   0.862  12.632  0.5721  0.5165 -2.0274
  754MPD2    H211146   3.911   0.691  12.673 -0.1543  2.6020  0.9012
  754MPD2    H311147   3.765   0.844  12.573  2.9303 -0.7444  1.5313
  754MPD2     N11148   3.398   0.679  12.784 -0.5409 -0.0895 -0.2024
  754MPD2    H511149   3.344   0.754  12.741  0.3143  1.3077  1.1716
  754MPD2    N111150   3.846   0.490  12.841 -0.0019 -0.1211  0.6065
  754MPD2    H711151   3.807   0.424  12.907  0.0762  1.5864  2.3977
  755MPD2     C11152   2.721   1.118  13.284  0.0617 -0.0874 -0.2950
  755MPD2    C111153   2.773   1.007  13.350 -0.0231  0.0011  0.3747
  755MPD2    C211154   2.870   0.939  13.288  0.3990 -0.0335  0.1656
  755MPD2    C311155   2.902   0.959  13.160  0.0436 -0.7210 -0.2225
  755MPD2    C411156   2.837   1.061  13.091 -0.0341  0.5922 -0.3256
  755MPD2    C511157   2.756   1.148  13.157 -0.8897 -0.0265  1.1868
  755MPD2     H11158   2.897   0.848  13.341  0.6224  0.5225  1.0024
  755MPD2    H111159   2.866   1.091  12.991  0.2705  1.7606  0.1152
  755MPD2    H211160   2.661   1.196  13.330  2.2100  0.8170  0.9661
  755MPD2    H311161   2.717   1.234  13.102 -0.2274  0.1440  0.9742
  755MPD2     N11162   2.993   0.878  13.091 -0.5453 -0.0343 -0.1388
  755MPD2    H511163   2.971   0.879  12.992 -0.5447  1.6220 -0.1145
  755MPD2    N111164   2.729   0.966  13.477  0.6821  0.8799  0.1636
  755MPD2    H711165   2.770   0.880  13.514  2.2303  0.7890 -1.7958
  756MPD2     C11166   3.298   0.792   9.647 -0.1449  0.2894  0.3337
  756MPD2    C111167   3.396   0.757   9.738 -0.6363  0.1661  1.1316
  756MPD2    C211168   3.443   0.625   9.746  0.4258 -0.8007  0.0425
  756MPD2    C311169   3.392   0.529   9.664 -0.1096  0.6252 -0.2505
  756MPD2    C411170   3.292   0.565   9.574  0.5738  0.4840  0.3924
  756MPD2    C511171   3.246   0.699   9.568 -0.0348 -0.2643  0.1558
  756MPD2     H11172   3.521   0.602   9.818  0.3918  1.5492  0.8145
  756MPD2    H111173   3.250   0.489   9.508  0.8584  1.1404 -0.5498
  756MPD2    H211174   3.254   0.891   9.646 -0.8635 -0.0326 -0.4489
  756MPD2    H311175   3.174   0.723   9.491  0.8184 -1.3423 -0.9785
  756MPD2     N11176   3.451   0.398   9.673 -0.1787  0.4076 -0.2625
  756MPD2    H511177   3.528   0.387   9.739  0.8702  1.0474 -1.3693
  756MPD2    N111178   3.453   0.847   9.827 -0.9898 -0.2541  0.1524
  756MPD2    H711179   3.540   0.821   9.870 -1.0635  1.0625  1.1091
  757MPD2     C11180   3.326   4.111   9.688  0.1647  0.5074 -0.3567
  757MPD2    C111181   3.235   4.207   9.659  0.1019  0.3017  0.1651
  757MPD2    C211182   3.280   4.333   9.641 -0.1337 -0.0437 -0.3842
  757MPD2    C311183   3.413   4.363   9.639  0.3808 -0.0479 -0.0468
  757MPD2    C411184   3.504   4.258   9.649  0.4196  0.1501  0.1995
  757MPD2    C511185   3.458   4.138   9.684  0.2106 -0.4108 -0.2629
  757MPD2     H11186   3.206   4.411   9.625 -1.6822 -1.0364  1.9697
  757MPD2    H111187   3.609   4.282   9.641  0.3085 -0.2316 -2.4480
  757MPD2    H211188   3.290   4.009   9.696  0.9781  0.0697 -2.3270
  757MPD2    H311189   3.533   4.061   9.698 -0.2408 -0.6136  1.0647
  757MPD2     N11190   3.444   4.503   9.617 -0.2800 -0.5285  0.5766
  757MPD2    H511191   3.367   4.565   9.599  0.6540  0.9608  1.7070
  757MPD2    N111192   3.096   4.165   9.665 -1.0605 -0.5158 -0.2956
  757MPD2    H711193   3.082   4.067   9.682 -0.1490 -0.5006  0.5775
  758MPD2     C11194   3.326   0.365  15.853  0.2703 -0.4686 -0.7716
  758MPD2    C111195   3.408   0.288  15.931 -0.3079 -0.3087 -0.1165
  758MPD2    C211196   3.361   0.199  16.024 -0.0819  0.2730 -0.2127
  758MPD2    C311197   3.225   0.190  16.049  0.1498  0.0073  0.4016
  758MPD2    C411198   3.141   0.260  15.971 -0.5314 -0.5008  0.1726
  758MPD2    C511199   3.191   0.346  15.870 -0.8748  0.5838 -0.7874
  758MPD2     H11200   3.428   0.146  16.090  1.6692 -0.6250 -2.7020
  758MPD2    H111201   3.034   0.250  15.985 -0.5875 -1.4643 -0.8945
  758MPD2    H211202   3.362   0.436  15.780 -1.8319  1.4476  0.0401
  758MPD2    H311203   3.125   0.404  15.808 -0.6611  1.1521 -0.4805
  758MPD2     N11204   3.167   0.101  16.144 -0.0929  0.1288 -0.2062
  758MPD2    H511205   3.068   0.105  16.165 -0.5898 -0.2979 -2.5114
  758MPD2    N111206   3.551   0.306  15.909 -0.4753 -0.0198 -0.4849
  758MPD2    H711207   3.572   0.364  15.828 -0.2091  1.4592  0.6532
  759MPD2     C11208   3.404   2.669   9.769 -0.0125  0.6366  0.3409
  759MPD2    C111209   3.294   2.734   9.827  0.5987 -0.4906 -0.2201
  759MPD2    C211210   3.299   2.869   9.841 -0.2163 -0.2845 -0.0392
  759MPD2    C311211   3.401   2.944   9.796 -0.3152 -0.7133  0.5232
  759MPD2    C411212   3.512   2.884   9.735 -0.4085 -0.3917  0.2552
  759MPD2    C511213   3.519   2.744   9.730  0.2486  0.6892  0.2808
  759MPD2     H11214   3.223   2.908   9.907 -0.4391 -0.1528 -0.3728
  759MPD2    H111215   3.605   2.917   9.689 -0.6799  1.1677  0.8161
  759MPD2    H211216   3.415   2.562   9.760  2.9123  0.9192  0.5112
  759MPD2    H311217   3.601   2.690   9.685 -0.7016  0.7272 -1.5046
  759MPD2     N11218   3.380   3.080   9.807 -0.2854  0.3741  0.2740
  759MPD2    H511219   3.290   3.113   9.839 -1.1669 -0.5232 -1.2724
  759MPD2    N111220   3.178   2.670   9.878  0.0093 -0.3767  0.1686
  759MPD2    H711221   3.105   2.719   9.928 -0.4319  1.4821 -2.3317
  760MPD2     C11222   1.771   0.683  11.529  0.1742 -0.6965 -0.0666
  760MPD2    C111223   1.910   0.689  11.527 -0.9065  0.1558 -0.1218
  760MPD2    C211224   1.994   0.595  11.588 -0.2546  0.0648  0.1217
  760MPD2    C311225   1.926   0.481  11.639  0.1925  0.1549 -0.7530
  760MPD2    C411226   1.789   0.456  11.625 -0.0701  0.5254  0.5919
  760MPD2    C511227   1.718   0.561  11.569  0.5204 -0.3602 -0.2643
  760MPD2     H11228   2.101   0.601  11.573 -0.3669  1.5228 -0.0983
  760MPD2    H111229   1.746   0.360  11.655  1.4026 -1.3300 -3.2096
  760MPD2    H211230   1.703   0.759  11.494 -0.2481  0.7352  3.8644
  760MPD2    H311231   1.610   0.545  11.569  0.2121  1.6779 -1.2107
  760MPD2     N11232   1.995   0.372  11.685 -0.2046 -0.2077  0.3116
  760MPD2    H511233   1.931   0.297  11.710 -1.2945  0.7718  0.4601
  760MPD2    N111234   1.972   0.805  11.474  0.3387  1.1804 -0.1522
  760MPD2    H711235   2.071   0.809  11.498  0.7045  2.4168 -1.9249
  761MPD2     C11236   3.029   4.391  11.043  0.2961  0.0348 -0.3448
  761MPD2    C111237   3.103   4.377  10.929 -0.1958 -0.2702  0.2015
  761MPD2    C211238   3.206   4.467  10.903 -0.1153 -0.4259  0.3998
  761MPD2    C311239   3.236   4.565  10.995  0.0070  0.7047 -0.2889
  761MPD2    C411240   3.161   4.562  11.112  0.2422 -0.7403 -0.0291
  761MPD2    C511241   3.057   4.478  11.135 -0.3177  0.3359  0.5944
  761MPD2     H11242   3.276   4.451  10.822  0.5192  1.7412  0.5187
  761MPD2    H111243   3.184   4.627  11.195 -1.4840  0.9453 -0.8808
  761MPD2    H211244   2.937   4.335  11.058 -0.4699  0.8730 -1.9302
  761MPD2    H311245   3.001   4.485  11.227 -0.5627  0.9716  0.3930
  761MPD2     N11246   3.337   4.659  10.985  0.2015  0.2156 -0.2486
  761MPD2    H511247   3.363   4.710  11.069 -0.9256 -1.1705  0.9624
  761MPD2    N111248   3.080   4.260  10.846  0.5755 -0.4948  0.1844
  761MPD2    H711249   3.023   4.185  10.882 -0.7857 -0.7008 -2.4024
  762MPD2     C11250   3.719   3.825  10.450  0.1040 -0.3623 -0.0597
  762MPD2    C111251   3.618   3.905  10.395  1.0823  0.0159  0.4251
  762MPD2    C211252   3.665   3.988  10.298 -0.0627  0.4068  0.1758
  762MPD2    C311253   3.793   3.981  10.242 -0.2516  0.4818  0.4334
  762MPD2    C411254   3.886   3.895  10.302 -0.5340  0.6792 -0.5251
  762MPD2    C511255   3.846   3.819  10.402 -0.9651  0.2119  0.0853
  762MPD2     H11256   3.596   4.062  10.257  1.4395  0.4537 -2.2590
  762MPD2    H111257   3.992   3.890  10.284 -0.2178  3.4716  0.4859
  762MPD2    H211258   3.690   3.747  10.520  0.2422  0.2023  0.6201
  762MPD2    H311259   3.914   3.763  10.465 -2.2514 -1.9183 -0.4357
  762MPD2     N11260   3.814   4.075  10.143 -0.0369 -0.2469  1.0376
  762MPD2    H511261   3.734   4.134  10.125  0.6513  0.1420 -0.8438
  762MPD2    N111262   3.490   3.907  10.459 -0.5277 -0.5024  0.1389
  762MPD2    H711263   3.477   3.853  10.544 -1.4039 -0.6219 -0.0647
  763MPD2     C11264   1.010   4.598  16.015 -0.1245 -0.3415 -0.6044
  763MPD2    C111265   0.909   4.682  15.965 -0.2751  0.2416 -0.1554
  763MPD2    C211266   0.861   0.058  16.050 -0.0072  0.3097  0.7621
  763MPD2    C311267   0.907   0.065  16.182  0.7508 -0.0195 -0.3990
  763MPD2    C411268   1.006   4.700  16.227 -0.7271  0.1637 -0.0272
  763MPD2    C511269   1.060   4.613  16.138 -0.1202 -0.0869 -0.0059
  763MPD2     H11270   0.785   0.125  16.012  1.1028 -0.0506 -2.1286
  763MPD2    H111271   1.056   4.715  16.322 -0.6130  1.6216 -0.3180
  763MPD2    H211272   1.047   4.521  15.949 -1.5108 -0.8138 -0.8356
  763MPD2    H311273   1.124   4.538  16.183 -0.8153 -0.0994  0.9665
  763MPD2     N11274   0.860   0.161  16.274  0.1729 -0.6135 -0.3342
  763MPD2    H511275   0.912   0.155  16.362 -1.7320 -0.4744  0.8092
  763MPD2    N111276   0.836   4.645  15.842  0.3236 -0.2826 -0.5923
  763MPD2    H711277   0.764   4.709  15.812  1.2627  1.0849  0.0914
  764MPD2     C11278   3.266   2.600  17.253  0.4628 -0.1474  0.2904
  764MPD2    C111279   3.256   2.478  17.198 -0.2911  0.1408  0.0590
  764MPD2    C211280   3.262   2.361  17.278 -0.1419  0.1768  0.2926
  764MPD2    C311281   3.291   2.380  17.415 -1.1077 -0.5995 -0.9188
  764MPD2    C411282   3.300   2.507  17.469 -0.1224  0.6734  0.0411
  764MPD2    C511283   3.286   2.617  17.385  0.0492 -0.0256  0.5733
  764MPD2     H11284   3.248   2.260  17.242 -1.3715 -0.1638  1.7259
  764MPD2    H111285   3.322   2.520  17.574 -1.6007 -0.6071  0.5140
  764MPD2    H211286   3.261   2.692  17.196  1.2260 -1.2866 -1.6170
  764MPD2    H311287   3.293   2.714  17.431  2.4208 -0.4662  1.1441
  764MPD2     N11288   3.290   2.264  17.487 -0.1485  0.3029 -0.2455
  764MPD2    H511289   3.260   2.183  17.433  0.7789  1.6766 -2.8411
  764MPD2    N111290   3.239   2.465  17.059 -0.5170 -0.7504  0.0412
  764MPD2    H711291   3.256   2.375  17.014  0.2439 -0.5310 -0.1176
  765MPD2     C11292   3.135   4.021  15.649  0.2956  0.0448  0.1117
  765MPD2    C111293   3.200   4.139  15.679  0.1896 -0.5683 -0.3289
  765MPD2    C211294   3.344   4.140  15.638 -0.5753 -0.1059  0.6100
  765MPD2    C311295   3.400   4.035  15.560 -0.0971 -0.1784  0.9579
  765MPD2    C411296   3.317   3.928  15.526  0.4767  0.8885 -0.5053
  765MPD2    C511297   3.197   3.918  15.586 -0.4432  0.0970 -0.5430
  765MPD2     H11298   3.403   4.230  15.647 -2.5294  1.5383 -2.9369
  765MPD2    H111299   3.355   3.850  15.460  1.5248  1.7562 -0.9350
  765MPD2    H211300   3.029   4.010  15.669  0.1652 -0.2830 -0.7492
  765MPD2    H311301   3.127   3.838  15.564 -0.6036 -0.3135  1.4398
  765MPD2     N11302   3.532   4.047  15.520  0.1462  0.3219 -0.3631
  765MPD2    H511303   3.576   4.134  15.551  0.4968 -0.3218  0.9427
  765MPD2    N111304   3.127   4.249  15.732 -0.0657  0.1535 -0.2787
  765MPD2    H711305   3.030   4.234  15.756 -0.4807 -0.4271 -2.3430
  766MPD2     C11306   2.656   4.377  15.386 -0.7163 -0.4863 -0.0035
  766MPD2    C111307   2.780   4.436  15.375 -0.9251  0.9573  0.8054
  766MPD2    C211308   2.853   4.417  15.264 -0.5321 -0.3077 -0.1490
  766MPD2    C311309   2.810   4.337  15.164  0.3021  0.4777  0.0315
  766MPD2    C411310   2.683   4.276  15.185  0.1058 -0.0278  0.0667
  766MPD2    C511311   2.601   4.300  15.291  0.1667  0.1192  1.1348
  766MPD2     H11312   2.948   4.467  15.254 -3.1723  4.6273 -0.5399
  766MPD2    H111313   2.654   4.199  15.114  2.0205 -2.6977  2.1600
  766MPD2    H211314   2.592   4.381  15.473 -0.3692 -0.7324  0.2614
  766MPD2    H311315   2.503   4.255  15.297  0.2797 -0.1944  0.6472
  766MPD2     N11316   2.883   4.314  15.044 -0.4805 -0.0031 -0.6344
  766MPD2    H511317   2.842   4.247  14.980 -0.8991 -0.0097 -0.3586
  766MPD2    N111318   2.833   4.510  15.482  0.2987  0.1552  0.1299
  766MPD2    H711319   2.918   4.565  15.476  0.9088 -0.9131 -1.0842
  767MPD2     C11320   2.503   4.521  15.071 -0.1800  0.2148 -0.0281
  767MPD2    C111321   2.596   4.578  14.993 -0.3276  0.5257  0.6793
  767MPD2    C211322   2.620   4.536  14.859 -0.7168  0.6191 -0.2117
  767MPD2    C311323   2.551   4.423  14.815  0.5856 -0.4394 -0.2713
  767MPD2    C411324   2.462   4.351  14.898  0.1453  0.5181 -0.9029
  767MPD2    C511325   2.442   4.406  15.024  0.2257 -0.0339 -0.2915
  767MPD2     H11326   2.697   4.572  14.793 -1.2344  0.1905 -1.0457
  767MPD2    H111327   2.414   4.257  14.869  0.5590 -1.0121  3.4849
  767MPD2    H211328   2.474   4.557  15.169  1.0695 -0.7591  0.6898
  767MPD2    H311329   2.372   4.356  15.090  0.8280  1.4956  1.4994
  767MPD2     N11330   2.582   4.380  14.685  0.2743 -0.2579 -0.6225
  767MPD2    H511331   2.635   4.447  14.629 -1.3875  0.8306 -0.9049
  767MPD2    N111332   2.668   4.681  15.050 -0.3252  0.2513 -0.3828
  767MPD2    H711333   2.674   4.686  15.151 -1.2068 -0.2057 -0.3165
  768MPD2     C11334   3.461   2.701  10.679  0.3996 -0.1404 -0.1935
  768MPD2    C111335   3.419   2.754  10.796 -0.1986  0.0929  0.5145
  768MPD2    C211336   3.511   2.806  10.884  0.5758 -0.1578  0.5735
  768MPD2    C311337   3.642   2.840  10.842 -0.3083 -0.0570 -0.8091
  768MPD2    C411338   3.683   2.782  10.723 -0.1701  0.1303 -0.0638
  768MPD2    C511339   3.592   2.716  10.644 -0.4993  0.1054  0.5266
  768MPD2     H11340   3.474   2.838  10.981  3.2040 -1.2399  1.9477
  768MPD2    H111341   3.787   2.774  10.692 -0.3150  1.7690 -0.9553
  768MPD2    H211342   3.392   2.658  10.607  1.6522  0.9202 -2.0254
  768MPD2    H311343   3.640   2.661  10.564 -1.1173  1.3530 -0.7037
  768MPD2     N11344   3.745   2.911  10.914  0.1452 -0.1838 -0.2341
  768MPD2    H511345   3.829   2.935  10.863  0.1854 -0.7124 -0.4214
  768MPD2    N111346   3.284   2.749  10.847  0.7425  0.1689  0.1634
  768MPD2    H711347   3.265   2.802  10.932 -0.9087  0.5681 -0.4466
  769MPD2     C11348   4.604   0.997  14.289  0.2942  0.3523  0.4154
  769MPD2    C111349   4.523   0.914  14.360 -0.0555 -0.1592  0.4196
  769MPD2    C211350   4.483   0.955  14.490 -0.6794 -0.0514 -0.3059
  769MPD2    C311351   4.525   1.076  14.542 -0.4089  0.4650  0.4601
  769MPD2    C411352   4.618   1.153  14.481 -0.2483  0.3125 -0.1163
  769MPD2    C511353   4.649   1.109  14.355 -0.2384  0.1441 -0.2802
  769MPD2     H11354   4.412   0.899  14.549 -1.2777  1.5208  0.4742
  769MPD2    H111355   4.658   1.245  14.521  0.9845 -0.5301  0.5711
  769MPD2    H211356   4.638   0.963  14.192  0.3213  0.3795  0.4152
  769MPD2    H311357   0.003   1.164  14.308 -0.6563 -0.3088 -1.5139
  769MPD2     N11358   4.476   1.111  14.671  0.1925 -0.2144  0.6222
  769MPD2    H511359   4.445   1.030  14.724 -1.2602  0.4143  0.7318
  769MPD2    N111360   4.476   0.796  14.298 -0.1599 -0.5639  0.0725
  769MPD2    H711361   4.485   0.788  14.197  0.2818 -0.9199  0.1393
  770MPD2     C11362   3.776   0.080  14.497 -0.0483  0.3089  0.2285
  770MPD2    C111363   3.900   0.073  14.559  0.5760 -0.5901  0.3170
  770MPD2    C211364   3.997   0.155  14.511  0.5099  0.1029  0.4805
  770MPD2    C311365   3.978   0.234  14.397 -0.3569 -1.1011 -0.0731
  770MPD2    C411366   3.861   0.224  14.324 -0.0871 -0.1541  0.1163
  770MPD2    C511367   3.760   0.139  14.376  0.2698  0.0419 -0.1310
  770MPD2     H11368   4.089   0.157  14.568  1.1744 -0.1684 -0.6004
  770MPD2    H111369   3.843   0.271  14.228 -0.8156 -2.6101 -0.9566
  770MPD2    H211370   3.691   0.020  14.528  1.3803 -0.8802  1.8691
  770MPD2    H311371   3.663   0.123  14.329  0.9418 -1.1992 -1.0895
  770MPD2     N11372   4.090   0.302  14.355 -0.2131 -0.3445  0.5963
  770MPD2    H511373   4.167   0.282  14.418  0.4868 -0.5056 -0.3063
  770MPD2    N111374   3.926   4.714  14.667 -0.6076  0.8979  0.0926
  770MPD2    H711375   4.024   4.694  14.683 -0.5796  1.2638  0.3728
  771MPD2     C11376   0.591   3.761  13.684 -0.2832  0.6740 -0.5311
  771MPD2    C111377   0.504   3.866  13.678  0.2646 -0.0809 -0.4864
  771MPD2    C211378   0.371   3.824  13.663  0.4102  0.7039 -0.4456
  771MPD2    C311379   0.331   3.692  13.630  0.4442 -0.6011 -0.9763
  771MPD2    C411380   0.424   3.593  13.628  0.6053  0.4940  0.1548
  771MPD2    C511381   0.553   3.634  13.659  0.4343 -0.1411 -0.0081
  771MPD2     H11382   0.298   3.904  13.661  0.2475  0.5638 -0.0082
  771MPD2    H111383   0.403   3.487  13.623  1.5317  0.3943 -1.6370
  771MPD2    H211384   0.692   3.775  13.720 -0.7166  0.7541  0.6586
  771MPD2    H311385   0.626   3.557  13.682 -0.2947  0.1757  3.3878
  771MPD2     N11386   0.196   3.663  13.599 -0.8054  0.5295  0.5254
  771MPD2    H511387   0.148   3.752  13.593  1.7022  1.9622  1.7255
  771MPD2    N111388   0.545   3.999  13.702  0.4570  0.4498  0.1731
  771MPD2    H711389   0.469   4.066  13.714  1.2509  1.3333  0.2734
  772MPD2     C11390   0.310   4.523  14.082  0.1119  0.9467 -0.4187
  772MPD2    C111391   0.290   4.440  13.978 -0.0114 -0.0179  0.2964
  772MPD2    C211392   0.166   4.399  13.949 -0.0900  0.8850  0.2610
  772MPD2    C311393   0.059   4.428  14.035 -0.7701 -0.0144  0.2406
  772MPD2    C411394   0.081   4.508  14.143 -0.5861 -0.4501 -0.0980
  772MPD2    C511395   0.208   4.562  14.161 -0.1450  0.5145 -0.1642
  772MPD2     H11396   0.149   4.339  13.861 -0.7300  0.3593  0.7459
  772MPD2    H111397   0.005   4.520  14.219  0.0637  2.9470  0.0007
  772MPD2    H211398   0.411   4.562  14.090 -1.0341  3.3210  2.1889
  772MPD2    H311399   0.227   4.629  14.244  1.0267 -0.7717  0.5982
  772MPD2     N11400   4.651   4.390  14.013  0.2049  0.2472  0.2913
  772MPD2    H511401   4.585   4.420  14.085 -0.9046  0.5223 -0.8517
  772MPD2    N111402   0.399   4.397  13.903 -0.1722  0.0469  0.4003
  772MPD2    H711403   0.370   4.324  13.839 -1.5969  0.9539  0.0233
  773MPD2     C11404   3.551   1.002   0.664  0.7256 -0.5872 -0.5366
  773MPD2    C111405   3.549   0.958   0.531 -0.2828 -0.5093  0.7003
  773MPD2    C211406   3.660   0.894   0.480  0.2697  0.5740  0.4320
  773MPD2    C311407   3.774   0.881   0.552  0.0935 -0.2710 -0.0276
  773MPD2    C411408   3.777   0.918   0.685 -0.1907 -0.4441  0.0898
  773MPD2    C511409   3.666   0.979   0.737  0.2919  0.6417  0.2375
  773MPD2     H11410   3.665   0.861   0.377 -1.4545 -1.2628  0.9518
  773MPD2    H111411   3.867   0.912   0.745 -1.5867 -0.8870  2.1411
  773MPD2    H211412   3.468   1.042   0.720  0.4973 -0.1637 -1.1876
  773MPD2    H311413   3.666   1.012   0.840 -0.7964  2.0801 -0.2146
  773MPD2     N11414   3.881   0.821   0.486  0.2311 -0.2105 -0.4214
  773MPD2    H511415   3.869   0.758   0.407  1.4435  0.7441 -1.3661
  773MPD2    N111416   3.442   0.980   0.444  0.2331 -0.2323 -0.0460
  773MPD2    H711417   3.448   0.944   0.349  0.7029 -0.7346  0.1740
  774MPD2     C11418   3.809   4.270  12.996 -0.0355  0.2385 -0.0624
  774MPD2    C111419   3.722   4.359  13.052  0.3787 -0.2537  0.0241
  774MPD2    C211420   3.751   4.494  13.047  0.2184 -0.0163  0.5233
  774MPD2    C311421   3.866   4.538  12.987 -0.2950  0.2074 -0.2662
  774MPD2    C411422   3.945   4.447  12.918 -0.0009  0.3786 -0.2744
  774MPD2    C511423   3.911   4.311  12.917 -0.1605 -0.4878 -0.7600
  774MPD2     H11424   3.698   4.566  13.108 -0.9069 -1.2324  0.9725
  774MPD2    H111425   4.024   4.481  12.853  1.6922 -1.3178  0.9052
  774MPD2    H211426   3.792   4.163  12.997  0.2318  0.1923 -0.4826
  774MPD2    H311427   3.976   4.237  12.873  1.5766 -0.3170  1.4938
  774MPD2     N11428   3.894   4.677  12.992 -0.3710 -0.5575 -0.2919
  774MPD2    H511429   3.831   0.008  13.048 -0.3269  0.4413 -1.2532
  774MPD2    N111430   3.621   4.301  13.134 -0.6194  0.1736 -0.3015
  774MPD2    H711431   3.625   4.200  13.138  0.8587  0.2688  0.8217
  775MPD2     C11432   0.080   0.779  15.805  0.0831  0.5038  0.6345
  775MPD2    C111433   0.026   0.907  15.813  0.5810  0.1738 -0.1902
  775MPD2    C211434   0.079   1.017  15.740 -0.3592  0.0271  0.7694
  775MPD2    C311435   0.190   0.995  15.655  1.3081 -0.1128  0.3476
  775MPD2    C411436   0.252   0.871  15.651  0.1879 -0.1771  0.5631
  775MPD2    C511437   0.188   0.765  15.719 -0.7629 -0.7826  0.3595
  775MPD2     H11438   0.035   1.115  15.733  2.5630  1.3691  1.1574
  775MPD2    H111439   0.340   0.851  15.592  0.1166 -1.4032  0.8711
  775MPD2    H211440   0.040   0.689  15.851  0.9222 -0.2096 -0.0409
  775MPD2    H311441   0.229   0.665  15.717  0.3835 -0.3277  0.9130
  775MPD2     N11442   0.237   1.093  15.567 -0.0950  0.6300  0.2372
  775MPD2    H511443   0.289   1.050  15.492 -0.8427  0.8380 -0.3956
  775MPD2    N111444   4.635   0.931  15.891  0.0250 -0.4507  0.2652
  775MPD2    H711445   4.606   1.028  15.888 -0.4336 -0.6864 -2.4435
  776MPD2     C11446   4.038   1.121  11.694  0.3568 -0.0273 -0.3787
  776MPD2    C111447   3.925   1.172  11.632  0.5730 -0.5424  0.5825
  776MPD2    C211448   3.928   1.296  11.579  0.8791 -0.5486  0.6182
  776MPD2    C311449   4.045   1.369  11.575  0.0729  0.0400  0.5256
  776MPD2    C411450   4.157   1.315  11.632 -0.8611 -0.2532 -0.2971
  776MPD2    C511451   4.151   1.192  11.691  0.3639 -0.2545  0.5373
  776MPD2     H11452   3.843   1.338  11.527  2.6105 -0.4948 -2.1997
  776MPD2    H111453   4.256   1.359  11.628 -1.7796  1.8709  0.7402
  776MPD2    H211454   4.036   1.020  11.733  2.5931  1.0488  2.5311
  776MPD2    H311455   4.245   1.165  11.739 -0.3486 -0.5974  1.7470
  776MPD2     N11456   4.068   1.496  11.517 -0.1709  0.6643 -0.3577
  776MPD2    H511457   4.160   1.538  11.526 -0.2957  0.3672  2.2516
  776MPD2    N111458   3.813   1.097  11.620  0.1792 -0.4559 -0.0564
  776MPD2    H711459   3.823   1.005  11.662  0.5570 -1.6153 -2.7034
  777MPD2     C11460   4.556   4.005   0.926 -0.7343  0.0511  0.7773
  777MPD2    C111461   4.468   3.924   0.998 -0.1890  0.6440  1.2879
  777MPD2    C211462   4.416   3.811   0.940  0.0907 -0.4934  0.0824
  777MPD2    C311463   4.449   3.786   0.809 -0.1048  0.3919  0.1232
  777MPD2    C411464   4.535   3.860   0.736 -0.6588  0.0368  0.9703
  777MPD2    C511465   4.596   3.966   0.800 -0.2143  0.1475  0.0859
  777MPD2     H11466   4.341   3.751   0.992 -1.6729  0.0549 -1.8116
  777MPD2    H111467   4.559   3.850   0.631 -0.1867 -1.0922  1.1917
  777MPD2    H211468   4.603   4.090   0.974  0.0387 -0.3921  0.8016
  777MPD2    H311469   4.662   4.039   0.753 -0.1943  0.7827  1.0847
  777MPD2     N11470   4.390   3.672   0.750 -0.3147 -0.0186  0.4638
  777MPD2    H511471   4.328   3.615   0.806 -2.1664  2.3499  0.7996
  777MPD2    N111472   4.454   3.958   1.130  0.3066  0.1422 -0.0411
  777MPD2    H711473   4.502   4.044   1.154  1.0704  0.2847 -2.0708
  778MPD2     C11474   0.806   4.131  14.900 -0.2508 -0.1971 -0.4498
  778MPD2    C111475   0.803   4.022  14.817  0.2939 -0.0327  0.7945
  778MPD2    C211476   0.901   4.014  14.712 -0.6125 -0.2527 -0.0679
  778MPD2    C311477   1.000   4.111  14.698 -0.4068  0.2253  0.3910
  778MPD2    C411478   1.006   4.208  14.797  0.1835  0.1945 -0.2764
  778MPD2    C511479   0.908   4.213  14.894 -0.4485  0.6618  0.1159
  778MPD2     H11480   0.896   3.920  14.659 -0.1713  0.4712 -1.3910
  778MPD2    H111481   1.065   4.298  14.801  0.1760  0.1379  1.1696
  778MPD2    H211482   0.739   4.153  14.982  0.7363  1.5659 -0.1255
  778MPD2    H311483   0.905   4.297  14.962  0.4782  2.2888 -1.8620
  778MPD2     N11484   1.082   4.115  14.584 -0.1723 -0.7777 -0.1858
  778MPD2    H511485   1.065   4.055  14.504  2.3743  0.2182 -1.4604
  778MPD2    N111486   0.707   3.929  14.829 -0.6454 -0.5281 -0.3532
  778MPD2    H711487   0.706   3.857  14.758 -3.3765 -0.3819 -0.4570
  779MPD2     C11488   0.237   2.740  13.809 -0.6744  0.6739  0.5008
  779MPD2    C111489   0.288   2.746  13.942 -0.1357  0.4249  0.6924
  779MPD2    C211490   0.333   2.865  13.989 -0.4739 -0.9508 -0.2373
  779MPD2    C311491   0.326   2.980  13.910 -0.5122  0.0400 -0.0282
  779MPD2    C411492   0.272   2.974  13.782 -0.0151  0.0895  0.2707
  779MPD2    C511493   0.229   2.850  13.735  0.1588  0.4580  0.6188
  779MPD2     H11494   0.380   2.874  14.086 -1.3011 -1.4091  0.2036
  779MPD2    H111495   0.256   3.059  13.717 -0.9814 -0.5966 -0.3916
  779MPD2    H211496   0.196   2.650  13.765 -2.3412  1.2637  0.8156
  779MPD2    H311497   0.193   2.839  13.633  0.7572  1.0021  0.3471
  779MPD2     N11498   0.392   3.093  13.962 -0.4352 -0.0720  0.2672
  779MPD2    H511499   0.448   3.082  14.046  1.5851  0.5745 -0.9945
  779MPD2    N111500   0.293   2.623  14.025  0.0441 -0.2125 -0.1950
  779MPD2    H711501   0.337   2.624  14.117 -0.8676  1.2939  0.2310
  780MPD2     C11502   3.751   2.489   0.502  0.0674  0.1340  0.5126
  780MPD2    C111503   3.878   2.501   0.558  0.7637  0.0927  0.4585
  780MPD2    C211504   3.982   2.550   0.473  0.4847  0.3108  0.0894
  780MPD2    C311505   3.952   2.571   0.332 -0.3362 -0.6950 -0.9974
  780MPD2    C411506   3.827   2.556   0.284 -0.0628  0.1144  0.1225
  780MPD2    C511507   3.727   2.522   0.366 -0.4454  0.9157 -0.5469
  780MPD2     H11508   4.082   2.569   0.511  0.3038  2.2496 -0.4332
  780MPD2    H111509   3.799   2.578   0.181  0.8378  0.3842 -0.0624
  780MPD2    H211510   3.669   2.447   0.560 -0.5906  0.6561 -0.0413
  780MPD2    H311511   3.624   2.506   0.334 -0.5705 -1.3946  0.9818
  780MPD2     N11512   4.051   2.616   0.241 -0.0110  0.1773 -0.1548
  780MPD2    H511513   4.016   2.635   0.147  0.6466  2.8637  0.1319
  780MPD2    N111514   3.888   2.466   0.693 -0.2032  0.2726 -0.0135
  780MPD2    H711515   3.810   2.426   0.745 -0.1275  0.3431  0.1521
  781MPD2     C11516   1.282   4.552  11.943  0.2589  1.3080  0.4120
  781MPD2    C111517   1.318   4.420  11.970 -0.4809  0.1450  0.7268
  781MPD2    C211518   1.332   4.335  11.859 -0.1612  0.4326 -0.3044
  781MPD2    C311519   1.325   4.384  11.724  0.8506 -0.3291 -1.1487
  781MPD2    C411520   1.285   4.516  11.700  0.2885 -0.1666  0.4876
  781MPD2    C511521   1.269   4.592  11.817  0.8737  0.5237  0.0718
  781MPD2     H11522   1.357   4.233  11.884  1.2275  1.1632  1.2788
  781MPD2    H111523   1.292   4.563  11.603  0.9703 -2.1297 -0.4235
  781MPD2    H211524   1.278   4.636  12.011 -0.3443  1.0564  0.6856
  781MPD2    H311525   1.226   4.692  11.812  0.2467  0.2784  0.5050
  781MPD2     N11526   1.364   4.311  11.609 -0.2626 -0.8112 -0.1253
  781MPD2    H511527   1.363   4.360  11.520 -1.2241  2.0169  1.4439
  781MPD2    N111528   1.352   4.377  12.095 -0.0871 -0.4223  0.7880
  781MPD2    H711529   1.373   4.278  12.090 -2.0906 -0.7796 -0.3848
  782MPD2     C11530   4.249   0.235  10.198  0.8627  0.4246 -0.1724
  782MPD2    C111531   4.350   0.165  10.247 -0.0015 -0.0761  0.1768
  782MPD2    C211532   4.412   0.211  10.364  0.2314 -0.1988  0.1344
  782MPD2    C311533   4.363   0.327  10.425 -0.5616 -0.8483  0.2187
  782MPD2    C411534   4.248   0.392  10.375 -0.0125  0.8697 -0.2876
  782MPD2    C511535   4.194   0.340  10.263  0.3316 -0.3517  0.5445
  782MPD2     H11536   4.494   0.155  10.409  0.2314 -0.0269  0.3510
  782MPD2    H111537   4.203   0.481  10.418 -0.6275  0.0449  0.7743
  782MPD2    H211538   4.202   0.202  10.105  1.6239  0.8806 -0.7212
  782MPD2    H311539   4.092   0.368  10.235  0.7641 -0.0601 -0.7625
  782MPD2     N11540   4.430   0.377  10.541  0.2755 -0.1287 -0.1962
  782MPD2    H511541   4.528   0.358  10.560  0.4563 -1.3847 -2.4361
  782MPD2    N111542   4.371   0.037  10.199 -0.3757  0.0989  0.0071
  782MPD2    H711543   4.300   4.709  10.150  0.6966 -0.1769 -1.2565
  783MPD2     C11544   3.838   4.307  10.625 -0.2285 -0.7899  0.6331
  783MPD2    C111545   3.898   4.425  10.647 -0.2895  0.2152 -0.6811
  783MPD2    C211546   4.019   4.451  10.582  0.3282  0.0173  0.0341
  783MPD2    C311547   4.072   4.363  10.489  0.2627 -0.5272  0.9441
  783MPD2    C411548   4.009   4.243  10.474 -0.2627 -0.2912 -0.1847
  783MPD2    C511549   3.899   4.211  10.548  0.4329  0.2860  0.3326
  783MPD2     H11550   4.068   4.542  10.613 -0.0295  0.4312 -0.6345
  783MPD2    H111551   4.039   4.168  10.402 -0.5230 -1.0540  0.5043
  783MPD2    H211552   3.746   4.275  10.673  0.2891 -0.9714  1.5027
  783MPD2    H311553   3.850   4.116  10.528  1.2143  0.6346 -3.2632
  783MPD2     N11554   4.191   4.400  10.425  0.1528 -0.1822  0.1680
  783MPD2    H511555   4.205   4.500  10.437  2.5784 -0.5708  0.6401
  783MPD2    N111556   3.830   4.514  10.734  0.4814  0.1513 -0.1534
  783MPD2    H711557   3.744   4.472  10.769  0.3623  1.1766  0.7666
  784MPD2     C11558   1.202   1.218   0.923  0.3092  0.2670  0.5827
  784MPD2    C111559   1.122   1.279   1.018 -0.1773  0.0706 -0.2052
  784MPD2    C211560   1.010   1.354   0.975 -0.6003  0.6288 -0.0354
  784MPD2    C311561   0.978   1.367   0.844  0.0949 -0.1318  0.4093
  784MPD2    C411562   1.057   1.305   0.746  0.5493  0.2589 -0.2580
  784MPD2    C511563   1.162   1.229   0.793  0.0209 -0.9454  0.3416
  784MPD2     H11564   0.941   1.399   1.045 -1.0441  0.3245 -0.2802
  784MPD2    H111565   1.034   1.306   0.641 -0.4978 -0.2941 -0.0381
  784MPD2    H211566   1.285   1.152   0.947  0.6944  0.1637 -1.0234
  784MPD2    H311567   1.227   1.186   0.718  0.0804 -2.5493  1.3116
  784MPD2     N11568   0.866   1.448   0.820  0.9428  0.5709 -0.3707
  784MPD2    H511569   0.832   1.500   0.900  1.7712 -0.9378  0.9406
  784MPD2    N111570   1.137   1.279   1.161  0.3454 -0.5959  0.4532
  784MPD2    H711571   1.060   1.323   1.210  2.6794  3.8560  0.1049
  785MPD2     C11572   2.219   3.575  10.524  0.7095  0.3469 -0.1420
  785MPD2    C111573   2.157   3.505  10.628 -0.4831  1.0939  0.0298
  785MPD2    C211574   2.114   3.376  10.607 -0.1452 -0.1026  0.3570
  785MPD2    C311575   2.125   3.318  10.484 -1.0731  0.5995 -0.2403
  785MPD2    C411576   2.190   3.384  10.380  0.4817  0.3475  0.5119
  785MPD2    C511577   2.231   3.508  10.402  0.1745  0.0636 -0.1556
  785MPD2     H11578   2.074   3.310  10.684  1.0395  0.3921  1.3985
  785MPD2    H111579   2.192   3.347  10.278  0.8202 -2.0719  1.4035
  785MPD2    H211580   2.246   3.679  10.542  0.1502  0.6202 -0.8923
  785MPD2    H311581   2.279   3.568  10.326  1.2314 -0.8073 -0.1769
  785MPD2     N11582   2.069   3.191  10.471  0.0160 -0.0050  0.2383
  785MPD2    H511583   1.998   3.163  10.538 -0.7918  1.5049  0.0250
  785MPD2    N111584   2.147   3.568  10.758 -0.2485  0.3067  0.2893
  785MPD2    H711585   2.190   3.659  10.766 -0.2985  0.4722 -1.3229
  786MPD2     C11586   0.598   1.895  15.268 -0.2536  0.1075  0.3483
  786MPD2    C111587   0.723   1.868  15.227  0.4817 -0.2843 -0.0751
  786MPD2    C211588   0.827   1.933  15.283 -0.0547 -0.4852 -0.2238
  786MPD2    C311589   0.807   2.040  15.362 -0.4418 -0.4849  0.3788
  786MPD2    C411590   0.682   2.070  15.404 -0.3479 -0.0688 -0.1054
  786MPD2    C511591   0.576   1.990  15.359  0.1522 -0.3003  0.2867
  786MPD2     H11592   0.928   1.914  15.250 -0.1885 -2.5628  0.6114
  786MPD2    H111593   0.667   2.144  15.481  0.7666  1.2628 -1.1764
  786MPD2    H211594   0.516   1.831  15.238  0.6018 -0.6249 -0.3957
  786MPD2    H311595   0.482   2.011  15.409  0.2187  0.2273  0.1933
  786MPD2     N11596   0.909   2.116  15.424  0.1818 -0.0695  0.2322
  786MPD2    H511597   0.880   2.187  15.489  2.5586  2.5100 -1.5238
  786MPD2    N111598   0.758   1.780  15.119  0.4881 -0.1326 -0.5016
  786MPD2    H711599   0.857   1.767  15.103  0.6127 -0.9456  0.8786
  787MPD2     C11600   1.163   1.316  15.184 -0.1015 -0.0612  0.5640
  787MPD2    C111601   1.105   1.277  15.063  0.3360  0.1917 -0.7912
  787MPD2    C211602   1.164   1.171  14.999  0.2415  0.2066  0.0947
  787MPD2    C311603   1.273   1.102  15.046 -0.4819  0.5962  0.2155
  787MPD2    C411604   1.333   1.147  15.168 -0.1028  1.0029  0.1933
  787MPD2    C511605   1.278   1.255  15.236  0.2052  0.2180  0.1765
  787MPD2     H11606   1.130   1.147  14.899 -1.7705  0.3756  0.7390
  787MPD2    H111607   1.418   1.089  15.201 -2.0541 -2.2736 -0.5274
  787MPD2    H211608   1.127   1.409  15.226  1.7788  1.4277 -1.1225
  787MPD2    H311609   1.315   1.277  15.336 -1.5100  0.7360  0.7003
  787MPD2     N11610   1.313   0.996  14.962 -0.3216  0.0121  0.0778
  787MPD2    H511611   1.242   0.972  14.893 -0.6963 -0.3436  0.5844
  787MPD2    N111612   0.996   1.354  15.023  0.1785  0.2102  0.9758
  787MPD2    H711613   0.953   1.416  15.091  0.0671 -0.2636  1.3451
  788MPD2     C11614   3.127   4.628   1.095  0.6382 -0.0878  0.4155
  788MPD2    C111615   2.997   4.618   1.054 -1.2703 -0.4174 -0.0832
  788MPD2    C211616   2.952   4.710   0.967  0.0020 -0.0241 -0.2594
  788MPD2    C311617   3.042   0.073   0.906  0.4062 -0.2559 -0.1334
  788MPD2    C411618   3.174   0.087   0.951 -0.6393 -0.1472 -0.1953
  788MPD2    C511619   3.213   4.723   1.047 -0.4338  0.0970 -0.4000
  788MPD2     H11620   2.848   4.697   0.940 -0.1107  1.2969 -0.4648
  788MPD2    H111621   3.242   0.161   0.909 -0.2122  0.2531  1.2224
  788MPD2    H211622   3.168   4.564   1.172  1.8273  1.7957  1.3436
  788MPD2    H311623   3.318   4.718   1.074 -0.5890  0.7026  0.3032
  788MPD2     N11624   3.000   0.147   0.793  0.5667 -0.1360  0.0868
  788MPD2    H511625   3.072   0.205   0.750  0.1201  0.8353  0.6361
  788MPD2    N111626   2.906   4.517   1.105 -0.2138 -0.3684 -0.2825
  788MPD2    H711627   2.808   4.522   1.078 -0.9064 -0.3729  2.2937
  789MPD2     C11628   2.875   4.435  16.761 -0.1571  0.5800 -0.0273
  789MPD2    C111629   2.810   4.456  16.639 -0.4608  0.3248  0.6725
  789MPD2    C211630   2.688   4.517  16.635  0.4940  0.0777 -0.2647
  789MPD2    C311631   2.646   4.576  16.750  0.1949  0.4221 -0.0206
  789MPD2    C411632   2.707   4.558  16.866 -0.1255 -0.8827  0.1047
  789MPD2    C511633   2.823   4.484  16.877 -0.2243  0.3090  0.1055
  789MPD2     H11634   2.638   4.525  16.540 -0.5783 -1.8136  0.1329
  789MPD2    H111635   2.673   4.623  16.947 -0.2517 -1.3992  0.4656
  789MPD2    H211636   2.968   4.380  16.774  0.2179  0.8565 -1.5887
  789MPD2    H311637   2.880   4.475  16.969 -1.1788  4.1391  1.0538
  789MPD2     N11638   2.521   4.640  16.748 -0.3706 -0.6001 -0.6787
  789MPD2    H511639   2.474   4.653  16.837  0.8594 -0.2030 -0.0858
  789MPD2    N111640   2.866   4.402  16.519  0.2366  0.2616 -0.5265
  789MPD2    H711641   2.816   4.419  16.433  2.3460  0.4762 -1.7092
  790MPD2     C11642   4.015   2.232  12.963  0.2899  0.2312  0.0750
  790MPD2    C111643   4.054   2.124  13.036  0.1888 -0.7747 -0.9779
  790MPD2    C211644   4.053   2.004  12.970  0.2596 -0.1072 -0.9543
  790MPD2    C311645   4.006   1.988  12.838  0.8661  0.0264  0.0879
  790MPD2    C411646   3.956   2.102  12.774 -0.3934  0.5623  0.1801
  790MPD2    C511647   3.957   2.219  12.841  0.7037  0.8038  0.3651
  790MPD2     H11648   4.087   1.911  13.014 -1.0057  0.6178  1.5817
  790MPD2    H111649   3.903   2.102  12.680  2.5726  2.1256 -1.4830
  790MPD2    H211650   4.005   2.325  13.018  1.9935  0.6856 -0.3669
  790MPD2    H311651   3.915   2.308  12.794 -2.3697 -0.5423  0.5973
  790MPD2     N11652   4.009   1.859  12.778  0.6037  0.6475  0.2481
  790MPD2    H511653   4.047   1.782  12.833 -1.1828  0.8959  1.8365
  790MPD2    N111654   4.103   2.152  13.170 -0.5495 -0.1296  0.3619
  790MPD2    H711655   4.086   2.241  13.215 -3.2222 -0.2612 -0.3410
  791MPD2     C11656   3.364   1.682  12.512  1.0098 -0.3175 -0.0910
  791MPD2    C111657   3.431   1.562  12.531  0.0619 -0.8258  0.2613
  791MPD2    C211658   3.362   1.447  12.520 -0.3699 -0.5089 -0.0966
  791MPD2    C311659   3.227   1.445  12.477  0.0650  0.3787  0.3462
  791MPD2    C411660   3.160   1.558  12.460  0.9557  0.7559 -0.0751
  791MPD2    C511661   3.230   1.674  12.467 -0.2964  0.0526 -0.5533
  791MPD2     H11662   3.406   1.348  12.521 -2.3214 -1.3934 -1.4281
  791MPD2    H111663   3.058   1.555  12.423  0.6663 -1.1266  0.8890
  791MPD2    H211664   3.408   1.781  12.515 -0.6330  0.3964  0.5756
  791MPD2    H311665   3.183   1.766  12.436  0.9107  0.9383  0.2514
  791MPD2     N11666   3.161   1.324  12.474 -0.2301 -0.5540 -0.5953
  791MPD2    H511667   3.216   1.246  12.508 -2.1904 -2.2150 -1.2623
  791MPD2    N111668   3.566   1.558  12.565 -0.1930 -0.0227  0.4827
  791MPD2    H711669   3.605   1.651  12.578 -0.4926  0.0893  0.5765
  792MPD2     C11670   4.213   0.990  11.243  0.2642  0.3927 -0.7015
  792MPD2    C111671   4.135   1.095  11.215  0.0447  0.2173  0.5498
  792MPD2    C211672   3.995   1.081  11.204 -0.0827  0.5096  0.3118
  792MPD2    C311673   3.944   0.953  11.192  0.1302 -0.1949  0.2920
  792MPD2    C411674   4.030   0.843  11.208 -0.7373 -0.0690 -0.6177
  792MPD2    C511675   4.160   0.862  11.230 -0.3309 -0.4832 -0.2556
  792MPD2     H11676   3.933   1.169  11.197 -0.6043  0.0671 -0.6669
  792MPD2    H111677   3.994   0.741  11.216 -1.0867  0.1148  0.1027
  792MPD2    H211678   4.317   0.999  11.273  0.6551 -0.3154 -1.8479
  792MPD2    H311679   4.217   0.771  11.246  1.4511  0.3449 -1.8052
  792MPD2     N11680   3.814   0.919  11.164  0.5138  0.2996  0.4126
  792MPD2    H511681   3.790   0.821  11.172  3.1820 -0.4273 -0.4661
  792MPD2    N111682   4.200   1.219  11.197  0.0001  0.0588 -0.8761
  792MPD2    H711683   4.301   1.214  11.200 -0.1082 -0.6255  1.6878
  793MPD2     C11684   3.251   1.339  10.529  0.3330  0.4901  0.5803
  793MPD2    C111685   3.331   1.226  10.513  0.0566  0.1453  0.5176
  793MPD2    C211686   3.350   1.149  10.624  0.2371 -0.5595 -0.0423
  793MPD2    C311687   3.300   1.180  10.750  0.4164 -0.8476 -0.0219
  793MPD2    C411688   3.205   1.284  10.753  0.1743  0.5300 -0.3768
  793MPD2    C511689   3.195   1.375  10.652 -0.3699  0.3726 -0.3598
  793MPD2     H11690   3.412   1.059  10.626 -0.8183 -1.2586  0.9760
  793MPD2    H111691   3.142   1.303  10.840 -1.2183  0.9807 -1.4867
  793MPD2    H211692   3.235   1.406  10.446 -1.2515 -0.3653  0.1842
  793MPD2    H311693   3.145   1.470  10.667 -0.7867  0.1429 -0.2788
  793MPD2     N11694   3.320   1.093  10.862 -0.4168  0.6587 -0.4212
  793MPD2    H511695   3.354   0.999  10.840  1.4194  1.4130 -0.8153
  793MPD2    N111696   3.397   1.190  10.393  0.0356 -0.1781 -0.2517
  793MPD2    H711697   3.459   1.109  10.399  1.0662  0.7528  2.0620
  794MPD2     C11698   3.260   1.574  17.647  0.0787  0.5791 -0.4329
  794MPD2    C111699   3.252   1.449  17.590  0.3241 -0.4829  0.2131
  794MPD2    C211700   3.263   1.435  17.457 -0.0798 -0.5837 -0.2475
  794MPD2    C311701   3.307   1.540  17.372 -0.1251  0.1333  0.0740
  794MPD2    C411702   3.342   1.657  17.433 -0.2195 -0.0635 -0.5781
  794MPD2    C511703   3.308   1.677  17.565 -0.2082 -0.1007 -0.0976
  794MPD2     H11704   3.246   1.336  17.415  0.3631 -1.0762  0.7294
  794MPD2    H111705   3.382   1.742  17.379 -0.9851 -0.9399 -2.5006
  794MPD2    H211706   3.248   1.595   0.048 -0.8309 -0.9403 -0.2410
  794MPD2    H311707   3.324   1.773  17.611 -1.4140 -0.8201  1.8492
  794MPD2     N11708   3.327   1.520  17.236 -0.4991 -0.1385  0.1692
  794MPD2    H511709   3.366   1.605  17.197 -0.6350 -0.9025 -1.6355
  794MPD2    N111710   3.231   1.336  17.668 -0.4332 -0.0090 -0.3135
  794MPD2    H711711   3.229   1.245  17.623 -2.7609 -0.5402  0.8917
  795MPD2     C11712   1.497   2.894  13.520  0.0990 -0.4565 -0.9261
  795MPD2    C111713   1.458   2.786  13.442  0.0188  0.2276  0.0473
  795MPD2    C211714   1.525   2.667  13.467 -0.6489  0.6807  0.1298
  795MPD2    C311715   1.616   2.650  13.568  0.7002  0.2507  0.5956
  795MPD2    C411716   1.659   2.755  13.642  0.7896  0.8120 -0.3401
  795MPD2    C511717   1.594   2.880  13.617  0.1334 -0.1137 -0.3839
  795MPD2     H11718   1.491   2.581  13.410 -0.6749  0.7954 -0.0266
  795MPD2    H111719   1.737   2.751  13.718 -0.0098 -1.0008  0.3882
  795MPD2    H211720   1.467   2.996  13.499  2.0322  0.0429 -1.3031
  795MPD2    H311721   1.627   2.959  13.683 -2.0568 -0.9299  1.7078
  795MPD2     N11722   1.662   2.521  13.590 -0.4000 -0.2162  0.7390
  795MPD2    H511723   1.634   2.445  13.529  2.1435 -1.7622  1.5197
  795MPD2    N111724   1.361   2.797  13.343  0.2551 -0.0479  0.5301
  795MPD2    H711725   1.353   2.707  13.296 -0.2191  0.2661  0.0172
  796MPD2     C11726   1.139   4.354  15.439  0.3451  0.3815 -0.0424
  796MPD2    C111727   1.195   4.383  15.565 -1.5286  0.5390 -0.4564
  796MPD2    C211728   1.177   4.505  15.620  0.5519 -0.1418  0.7443
  796MPD2    C311729   1.112   4.611  15.548 -0.0729 -0.3219  0.2580
  796MPD2    C411730   1.079   4.578  15.417  0.0156 -0.1907  0.1523
  796MPD2    C511731   1.093   4.454  15.355  0.9572  0.8020  0.1057
  796MPD2     H11732   1.183   4.523  15.727  0.1096 -1.0221  0.9130
  796MPD2    H111733   1.048   4.658  15.351  1.8695 -0.1824 -0.7171
  796MPD2    H211734   1.147   4.254  15.399  0.9828  1.4316 -2.5303
  796MPD2    H311735   1.067   4.441  15.251 -0.6056  2.0850  0.3282
  796MPD2     N11736   1.099   0.013  15.612  0.7960  0.4534  0.0001
  796MPD2    H511737   1.134   0.021  15.707 -1.0198 -1.4934  0.8322
  796MPD2    N111738   1.262   4.278  15.639  0.3842 -0.2637 -0.2509
  796MPD2    H711739   1.276   4.192  15.587 -0.5447 -0.7439  0.2920
  797MPD2     C11740   2.160   4.072  16.947 -0.4844 -0.0463  0.3042
  797MPD2    C111741   2.091   4.061  17.065  0.1160  0.3861  0.3505
  797MPD2    C211742   1.958   4.081  17.066  0.7331  0.1924 -0.2505
  797MPD2    C311743   1.885   4.105  16.950 -0.2341  0.5522  0.4549
  797MPD2    C411744   1.955   4.108  16.830  0.3907  0.0474  0.2745
  797MPD2    C511745   2.091   4.095  16.827 -0.7838  0.3960  0.7273
  797MPD2     H11746   1.908   4.081  17.162  0.5640 -1.3283 -0.3448
  797MPD2    H111747   1.904   4.138  16.739  0.2464 -0.5341  0.1669
  797MPD2    H211748   2.267   4.054  16.942 -0.5288 -0.8082  2.4914
  797MPD2    H311749   2.146   4.105  16.734  1.1027  1.8332  1.9974
  797MPD2     N11750   1.743   4.122  16.939  0.1413 -0.1889 -0.3844
  797MPD2    H511751   1.709   4.117  16.844  0.4917 -0.1048 -0.5106
  797MPD2    N111752   2.158   4.050  17.190 -0.4584 -0.4107 -0.2277
  797MPD2    H711753   2.097   4.040  17.270 -0.6350  1.2931 -0.1523
  798MPD2     C11754   1.630   4.549  17.446 -0.0188 -0.4328 -0.1707
  798MPD2    C111755   1.693   4.512  17.323 -0.3186  0.0595  0.2083
  798MPD2    C211756   1.814   4.449  17.323 -0.5245 -0.0823  0.1332
  798MPD2    C311757   1.875   4.426  17.444 -0.3404 -0.6939 -0.4737
  798MPD2    C411758   1.822   4.480  17.559 -0.7708 -0.1665 -0.2170
  798MPD2    C511759   1.695   4.529  17.563 -0.3149  0.5947  0.2446
  798MPD2     H11760   1.856   4.417  17.228 -1.2755  0.4532 -0.3811
  798MPD2    H111761   1.877   4.466  17.652 -1.6849 -0.2303  0.3104
  798MPD2    H211762   1.538   4.606  17.448  0.5636  0.4985 -0.0015
  798MPD2    H311763   1.656   4.553  17.661  0.2681 -0.9087  0.8473
  798MPD2     N11764   1.990   4.338  17.428  0.2538  0.1131  0.2549
  798MPD2    H511765   2.019   4.313  17.334  1.3955 -2.4759  1.2904
  798MPD2    N111766   1.617   4.543  17.210  0.2210  0.9163  0.7790
  798MPD2    H711767   1.520   4.569  17.230  0.2166  2.1386 -0.8569
  799MPD2     C11768   0.977   0.987  14.646  0.3263 -0.1991 -0.2405
  799MPD2    C111769   0.938   0.855  14.612 -0.3103  0.4986  0.2100
  799MPD2    C211770   0.851   0.841  14.502  0.1434 -0.2973 -0.4779
  799MPD2    C311771   0.788   0.950  14.443  0.0808 -0.7722  0.0364
  799MPD2    C411772   0.824   1.075  14.483  0.4650 -0.1555 -0.9282
  799MPD2    C511773   0.918   1.088  14.584  0.5638  0.3204  0.6384
  799MPD2     H11774   0.827   0.741  14.469 -0.0398 -1.1801  2.3392
  799MPD2    H111775   0.775   1.162  14.441 -2.4662 -1.5264 -0.3226
  799MPD2    H211776   1.065   1.004  14.707 -0.8455  0.5915  1.2234
  799MPD2    H311777   0.953   1.187  14.609  1.9928  0.0253 -0.2194
  799MPD2     N11778   0.696   0.951  14.331  0.1045 -0.2416 -0.1345
  799MPD2    H511779   0.672   1.044  14.296 -0.3693  0.0857  1.0611
  799MPD2    N111780   0.986   0.739  14.678  0.1668  0.0395 -0.3435
  799MPD2    H711781   0.970   0.653  14.626  0.6026 -0.9878  1.2495
  800MPD2     C11782   0.938   1.973  14.021 -0.2401  0.2016 -0.0644
  800MPD2    C111783   1.064   1.912  13.999  0.0185 -0.3498  0.0313
  800MPD2    C211784   1.057   1.798  13.926 -0.4061 -0.6139 -0.2415
  800MPD2    C311785   0.941   1.733  13.898 -0.8696  0.8782 -0.2948
  800MPD2    C411786   0.820   1.785  13.933 -0.0847  0.8145 -0.3440
  800MPD2    C511787   0.823   1.904  14.003  0.1329  0.8202 -0.3583
  800MPD2     H11788   1.152   1.753  13.897  1.3945  0.7823  3.5075
  800MPD2    H111789   0.721   1.751  13.903 -0.7574  2.5793 -0.1388
  800MPD2    H211790   0.927   2.068  14.072  0.5255  1.3645 -2.0955
  800MPD2    H311791   0.726   1.948  14.021 -0.6019 -1.3549  1.0637
  800MPD2     N11792   0.953   1.624  13.806 -0.4009 -0.1635  0.3180
  800MPD2    H511793   1.049   1.603  13.782 -0.9632  0.1850 -2.2732
  800MPD2    N111794   1.182   1.979  14.027 -0.0309 -0.4122  0.0832
  800MPD2    H711795   1.173   2.073  14.064 -0.1024 -0.7353  0.8859
  801MPD2     C11796   1.429   2.684  13.910  0.7558 -0.3051 -0.4977
  801MPD2    C111797   1.538   2.628  13.976  0.0375  0.4720  0.3047
  801MPD2    C211798   1.639   2.710  14.017  0.4953  0.0545  0.5349
  801MPD2    C311799   1.628   2.847  14.002 -0.1561  0.2296 -0.1844
  801MPD2    C411800   1.516   2.897  13.934  0.0111 -0.4530  0.4857
  801MPD2    C511801   1.417   2.816  13.879 -0.1962 -0.7577  0.2673
  801MPD2     H11802   1.729   2.664  14.058 -0.1418  0.9037  2.9110
  801MPD2    H111803   1.497   3.003  13.920  0.0944 -0.3281  1.3463
  801MPD2    H211804   1.348   2.620  13.875  0.7734 -1.0976  0.8878
  801MPD2    H311805   1.325   2.857  13.840 -0.6171  0.2008  2.2584
  801MPD2     N11806   1.719   2.940  14.049  0.4817  0.4246  0.2977
  801MPD2    H511807   1.691   3.030  14.011 -1.6805 -0.8640 -1.1125
  801MPD2    N111808   1.541   2.488  13.995  0.1948 -0.4531 -0.1974
  801MPD2    H711809   1.607   2.451  14.062  0.4171 -1.5944 -1.0472
  802MPD2     C11810   0.531   2.617  16.586  0.7570  0.1762  0.2568
  802MPD2    C111811   0.609   2.566  16.688 -0.0185 -0.6936 -0.1714
  802MPD2    C211812   0.705   2.473  16.664 -0.2811  0.3396 -0.0518
  802MPD2    C311813   0.745   2.446  16.531 -0.1906  0.6369  0.4721
  802MPD2    C411814   0.675   2.506  16.424  0.1871  0.5903  0.2839
  802MPD2    C511815   0.564   2.581  16.459  1.2063  0.6902 -0.2312
  802MPD2     H11816   0.763   2.427  16.744 -1.5217 -1.2039 -0.0310
  802MPD2    H111817   0.699   2.476  16.323 -1.0744  3.0728 -0.7458
  802MPD2    H211818   0.457   2.697  16.593  2.9809  2.3724 -1.5514
  802MPD2    H311819   0.513   2.624  16.374 -0.7961  2.3047  1.7770
  802MPD2     N11820   0.852   2.360  16.504 -0.3348 -0.1159 -0.2809
  802MPD2    H511821   0.873   2.329  16.410 -1.6075 -0.2650 -0.5240
  802MPD2    N111822   0.597   2.602  16.825  0.0551  0.2622 -0.1253
  802MPD2    H711823   0.656   2.550  16.889  0.3407 -1.4788 -1.8069
  803MPD2     C11824   1.683   1.155  11.639 -0.0460  0.6910  0.1108
  803MPD2    C111825   1.812   1.173  11.682 -0.0114  0.0117 -0.1575
  803MPD2    C211826   1.863   1.074  11.760 -0.0408  0.9270  0.2031
  803MPD2    C311827   1.814   0.952  11.771  0.1629 -0.2557 -0.2437
  803MPD2    C411828   1.686   0.934  11.717  0.5391  0.0416  0.9608
  803MPD2    C511829   1.615   1.040  11.654 -0.0175 -0.5991 -0.0643
  803MPD2     H11830   1.962   1.086  11.804 -0.3595 -0.2609  1.2447
  803MPD2    H111831   1.646   0.833  11.726  2.3183 -0.5534  2.1276
  803MPD2    H211832   1.636   1.230  11.577 -1.2515 -0.3483 -0.2407
  803MPD2    H311833   1.515   1.025  11.614  0.4264 -2.3441 -0.5142
  803MPD2     N11834   1.868   0.847  11.849 -0.3004 -0.3569 -0.2462
  803MPD2    H511835   1.811   0.763  11.858 -0.3076 -0.4420 -1.1193
  803MPD2    N111836   1.889   1.296  11.667 -0.4726 -0.0756 -0.4718
  803MPD2    H711837   1.973   1.299  11.724  0.0589  0.5448 -1.2740
  804MPD2     C11838   1.705   2.685  16.553  0.3063 -0.2485  0.7021
  804MPD2    C111839   1.683   2.724  16.682  0.6783  0.1093 -0.2120
  804MPD2    C211840   1.699   2.849  16.717  1.0787  0.0595 -0.3423
  804MPD2    C311841   1.731   2.948  16.627  0.0165 -0.4733  0.1401
  804MPD2    C411842   1.748   2.911  16.491  0.0525 -0.0846  0.1933
  804MPD2    C511843   1.721   2.781  16.456  0.5612 -0.3902  0.5507
  804MPD2     H11844   1.686   2.885  16.818  3.2121 -0.8231  0.2444
  804MPD2    H111845   1.764   2.982  16.410  0.8538  0.2072  0.6084
  804MPD2    H211846   1.689   2.581  16.527  3.0698 -0.1191 -1.4154
  804MPD2    H311847   1.719   2.748  16.353 -1.1373 -0.7857  0.7177
  804MPD2     N11848   1.742   3.077  16.672 -0.2766 -0.6303 -0.8553
  804MPD2    H511849   1.730   3.094  16.771  4.7152  0.4515 -0.4280
  804MPD2    N111850   1.678   2.633  16.797  0.4327 -0.5288  0.0300
  804MPD2    H711851   1.691   2.673  16.890 -0.1649 -0.1625 -0.0444
  805MPD2     C11852   0.682   1.146  15.246 -0.7322  0.3667  0.2042
  805MPD2    C111853   0.782   1.064  15.192 -0.7135 -0.2986 -0.0333
  805MPD2    C211854   0.900   1.054  15.266  0.1843 -0.4487 -0.0091
  805MPD2    C311855   0.910   1.098  15.398  0.3694 -0.1948 -0.1958
  805MPD2    C411856   0.802   1.164  15.449  0.1868  0.1441  0.4724
  805MPD2    C511857   0.701   1.202  15.370 -0.3752 -0.0735  0.3853
  805MPD2     H11858   0.985   0.998  15.227  0.6079  0.1312  0.0785
  805MPD2    H111859   0.797   1.204  15.549 -0.8655  0.7226  0.1918
  805MPD2    H211860   0.588   1.165  15.196  0.2325  0.2729 -1.6227
  805MPD2    H311861   0.632   1.279  15.404 -0.5973 -0.7246  1.4024
  805MPD2     N11862   1.021   1.063  15.474  0.1042  0.3861 -0.4862
  805MPD2    H511863   1.094   1.009  15.429  1.8701 -0.2040  3.0965
  805MPD2    N111864   0.771   1.003  15.057  0.1713  0.1915  0.2528
  805MPD2    H711865   0.853   0.953  15.024 -0.9445 -0.3578 -1.6996
  806MPD2     C11866   1.558   1.526   1.265  0.5784  0.1416 -0.1508
  806MPD2    C111867   1.649   1.482   1.169  0.0500  0.0590  0.4823
  806MPD2    C211868   1.694   1.562   1.062  0.9879 -0.1385 -0.5474
  806MPD2    C311869   1.645   1.687   1.050 -0.2022  0.0201  0.2364
  806MPD2    C411870   1.554   1.736   1.141  0.3323 -0.6291  0.5078
  806MPD2    C511871   1.509   1.650   1.244 -0.6606 -0.3051  0.2826
  806MPD2     H11872   1.763   1.528   0.986 -1.5156  1.0007 -3.3312
  806MPD2    H111873   1.519   1.839   1.139 -1.9502 -1.3545  2.6732
  806MPD2    H211874   1.512   1.471   1.347 -0.5488 -0.1391 -0.9792
  806MPD2    H311875   1.429   1.687   1.309 -1.5335 -2.1080  0.2333
  806MPD2     N11876   1.701   1.765   0.950  0.3745 -0.1325  1.1977
  806MPD2    H511877   1.755   1.709   0.886  0.7870  0.8814  0.6571
  806MPD2    N111878   1.712   1.357   1.196  0.6693  0.3720  0.0321
  806MPD2    H711879   1.687   1.320   1.287 -1.9844 -0.0916 -0.8745
  807MPD2     C11880   1.943   0.938   1.787 -0.1059  0.0262  0.8825
  807MPD2    C111881   1.846   0.945   1.686 -0.1457 -0.2824 -0.1883
  807MPD2    C211882   1.732   0.874   1.701  0.6263 -0.8348 -0.4429
  807MPD2    C311883   1.706   0.798   1.815  0.4863 -0.1869  0.3129
  807MPD2    C411884   1.809   0.789   1.916 -0.3850 -0.1451  0.4079
  807MPD2    C511885   1.927   0.857   1.898  0.1521  0.3545 -0.2028
  807MPD2     H11886   1.651   0.888   1.630  0.9287  0.9516 -0.4395
  807MPD2    H111887   1.793   0.720   1.999 -0.6080  0.1074  0.5769
  807MPD2    H211888   2.036   0.993   1.783  0.8692 -1.3775  3.8624
  807MPD2    H311889   2.006   0.854   1.973 -0.7037  2.1198  0.7812
  807MPD2     N11890   1.580   0.722   1.816  0.1292  0.4094 -0.2876
  807MPD2    H511891   1.515   0.724   1.738  1.3933  0.2616 -1.3358
  807MPD2    N111892   1.862   1.022   1.569 -0.2100 -0.5463  1.6735
  807MPD2    H711893   1.798   1.002   1.492  1.5868 -1.5083  0.4394
  808MPD2     C11894   2.355   2.011  10.102 -0.2934 -0.5613 -0.9256
  808MPD2    C111895   2.317   2.054   9.973  0.9878  0.2341  0.5039
  808MPD2    C211896   2.348   2.182   9.935  0.3941 -0.4099 -0.0356
  808MPD2    C311897   2.424   2.265  10.023  0.3461  0.0393 -0.8883
  808MPD2    C411898   2.444   2.228  10.154  0.4331  0.3965  0.1432
  808MPD2    C511899   2.417   2.100  10.189  0.0597  0.2368  0.5477
  808MPD2     H11900   2.322   2.218   9.836 -0.2317 -1.6963 -0.3402
  808MPD2    H111901   2.490   2.294  10.226 -1.2939  1.8286 -0.0746
  808MPD2    H211902   2.337   1.908  10.131 -0.8665  0.2301  1.5710
  808MPD2    H311903   2.442   2.071  10.290  0.7794  1.1092  0.6144
  808MPD2     N11904   2.450   2.399   9.989 -0.3646  0.2775 -0.1693
  808MPD2    H511905   2.484   2.466  10.056  0.3950 -0.2597 -0.0254
  808MPD2    N111906   2.245   1.970   9.890 -0.2027 -0.0331 -0.4170
  808MPD2    H711907   2.226   1.878   9.929 -1.7281 -0.5290 -2.3211
  809MPD2     C11908   3.099   3.168   9.608  0.0511  0.2251  0.1602
  809MPD2    C111909   3.075   3.042   9.581  0.3003 -0.1821  0.1613
  809MPD2    C211910   2.968   2.970   9.629 -0.4432  0.2223 -0.1607
  809MPD2    C311911   2.869   3.032   9.702 -0.7037  0.5107  0.0022
  809MPD2    C411912   2.888   3.167   9.738 -0.5388 -0.5291  0.5076
  809MPD2    C511913   3.002   3.234   9.686 -0.5891 -0.3202 -0.3282
  809MPD2     H11914   2.960   2.865   9.602  0.2662 -0.0722  0.8012
  809MPD2    H111915   2.824   3.229   9.800 -0.2797  1.4589 -1.2071
  809MPD2    H211916   3.182   3.231   9.579 -0.0247 -0.4566 -1.5226
  809MPD2    H311917   3.025   3.335   9.717 -0.3555 -0.7103  0.7863
  809MPD2     N11918   2.753   2.962   9.756  0.3836 -0.6490 -0.0720
  809MPD2    H511919   2.686   3.021   9.806  2.7871  3.0444 -1.1956
  809MPD2    N111920   3.167   2.976   9.509 -0.1454 -0.2165  0.2037
  809MPD2    H711921   3.152   2.884   9.467 -3.1781  0.5334 -0.3697
  810MPD2     C11922   1.157   0.678   9.627  1.0870 -0.4457  0.1533
  810MPD2    C111923   1.152   0.689   9.763 -0.0517  0.2287 -0.0098
  810MPD2    C211924   1.223   0.782   9.843  1.3337  0.0530 -0.1277
  810MPD2    C311925   1.300   0.873   9.772  0.7137  0.5964  0.5132
  810MPD2    C411926   1.298   0.868   9.632 -0.7205  0.5542 -0.4053
  810MPD2    C511927   1.234   0.772   9.556 -0.9997  0.0699 -0.0041
  810MPD2     H11928   1.217   0.777   9.951 -0.3558  1.1990 -0.1631
  810MPD2    H111929   1.345   0.949   9.577 -0.0331 -0.2681 -1.0244
  810MPD2    H211930   1.104   0.602   9.571  1.7216 -1.0927  0.4350
  810MPD2    H311931   1.237   0.778   9.448 -3.5214  0.4660 -0.0516
  810MPD2     N11932   1.377   0.969   9.834  0.4316  0.8724 -0.8108
  810MPD2    H511933   1.432   1.032   9.777  1.0177  2.0583  1.0282
  810MPD2    N111934   1.059   0.597   9.815 -0.2958  0.8976  0.1575
  810MPD2    H711935   1.010   0.544   9.744 -0.2901  0.3760  0.5453
  811MPD2     C11936   0.234   0.582   9.922 -0.4783 -0.5785 -0.2647
  811MPD2    C111937   0.367   0.621   9.927  0.1955  0.0210 -0.0579
  811MPD2    C211938   0.389   0.758   9.914  0.0216 -0.3491  0.4314
  811MPD2    C311939   0.289   0.855   9.897 -0.1883  0.1913  0.7747
  811MPD2    C411940   0.158   0.814   9.901  0.6229 -0.5503  0.6216
  811MPD2    C511941   0.132   0.677   9.906  0.7054  0.0730 -0.0629
  811MPD2     H11942   0.493   0.787   9.921  0.5596 -2.5942  1.6325
  811MPD2    H111943   0.071   0.875   9.881  1.5678 -0.9871 -4.9936
  811MPD2    H211944   0.220   0.475   9.926  2.4171 -0.9434  0.3441
  811MPD2    H311945   0.028   0.646   9.898  0.7078 -0.1086  0.6104
  811MPD2     N11946   0.338   0.990   9.881  0.3188 -0.0450  0.3436
  811MPD2    H511947   0.436   1.009   9.898  0.9879 -0.6407 -2.7011
  811MPD2    N111948   0.473   0.531   9.929  0.5291  0.3315  0.1475
  811MPD2    H711949   0.449   0.437   9.959  0.3117  0.3256 -0.0447
  812MPD2     C11950   0.212   1.268  12.232  0.1640 -0.2468 -0.4627
  812MPD2    C111951   0.100   1.334  12.277 -0.4601 -0.1854 -0.3634
  812MPD2    C211952   0.035   1.284  12.383 -0.1430  0.5678  0.1010
  812MPD2    C311953   0.086   1.190  12.468 -0.1165 -0.0043  0.7756
  812MPD2    C411954   0.211   1.133  12.436  0.4146 -0.1491  0.1919
  812MPD2    C511955   0.263   1.169  12.312  1.2481 -0.1702  0.0494
  812MPD2     H11956   4.666   1.332  12.405  0.0196  1.4426 -1.1194
  812MPD2    H111957   0.250   1.039  12.475  0.2393 -0.5168 -0.5149
  812MPD2    H211958   0.257   1.310  12.143 -1.0200 -1.1634 -1.4917
  812MPD2    H311959   0.359   1.130  12.280 -0.5366 -1.9672 -3.0993
  812MPD2     N11960   0.008   1.146  12.571  0.3653 -0.3656  0.2247
  812MPD2    H511961   4.642   1.189  12.583 -0.3331 -0.9131 -3.2257
  812MPD2    N111962   0.068   1.456  12.215 -0.1504  0.3979  0.8737
  812MPD2    H711963   0.122   1.483  12.133  0.2746  0.7709  1.2783
  813MPD2     C11964   3.644   3.148  12.786 -0.2520 -0.2750  0.3162
  813MPD2    C111965   3.701   3.272  12.821 -0.2654 -0.3965 -0.1205
  813MPD2    C211966   3.644   3.333  12.934 -0.0848  0.0416 -0.0142
  813MPD2    C311967   3.545   3.272  13.018  0.1606  0.1672  0.2947
  813MPD2    C411968   3.492   3.158  12.965  0.0821  0.9204 -0.2220
  813MPD2    C511969   3.537   3.092  12.855 -0.9493  0.5798 -0.3913
  813MPD2     H11970   3.675   3.432  12.964 -0.7847  0.6951 -1.4545
  813MPD2    H111971   3.398   3.120  13.005  1.0380 -0.6299  0.5340
  813MPD2    H211972   3.690   3.090  12.707  0.6064  0.7184  0.0908
  813MPD2    H311973   3.494   3.003  12.810  1.2536 -1.4346  1.5340
  813MPD2     N11974   3.501   3.326  13.139  0.3003 -0.2679 -0.5655
  813MPD2    H511975   3.546   3.412  13.169  2.3087 -1.0198 -1.4284
  813MPD2    N111976   3.820   3.330  12.758 -0.3056  0.1900 -0.4313
  813MPD2    H711977   3.864   3.415  12.790 -0.2658 -0.3906  1.0771
  814MPD2     C11978   4.184   4.139  12.036 -0.1838  0.6704 -0.8353
  814MPD2    C111979   4.172   4.233  11.937  0.0317  0.2970 -0.7670
  814MPD2    C211980   4.210   4.365  11.969 -0.7369  0.3692 -0.1549
  814MPD2    C311981   4.270   4.399  12.088  0.8151  0.7527 -0.2925
  814MPD2    C411982   4.270   4.308  12.191 -0.5009  0.1536 -1.3021
  814MPD2    C511983   4.228   4.181  12.165 -0.2525  0.0897  0.0790
  814MPD2     H11984   4.200   4.427  11.881  1.3348  1.7532  0.6045
  814MPD2    H111985   4.304   4.338  12.289  0.4860 -1.0024 -1.2931
  814MPD2    H211986   4.152   4.037  12.016 -2.4303  1.1031  0.5842
  814MPD2    H311987   4.216   4.107  12.243  0.0316 -1.3991 -1.3011
  814MPD2     N11988   4.331   4.520  12.115  0.0105 -0.0134  0.8098
  814MPD2    H511989   4.381   4.538  12.201  0.1320  2.4203  0.2177
  814MPD2    N111990   4.128   4.197  11.806  0.6463 -0.3327  0.4395
  814MPD2    H711991   4.152   4.263  11.733  1.9298  1.1419  2.1900
  815MPD2     C11992   0.059   3.191  11.562  0.2617  1.4501  0.1198
  815MPD2    C111993   0.117   3.069  11.578 -0.3779 -0.0649  0.0118
  815MPD2    C211994   0.059   2.980  11.674 -0.0916 -0.2345 -0.0189
  815MPD2    C311995   4.663   3.005  11.732 -0.2543 -0.6573  0.0148
  815MPD2    C411996   4.606   3.125  11.705  0.4821  0.6618  0.4956
  815MPD2    C511997   4.666   3.221  11.625  0.5148  0.0521  0.0481
  815MPD2     H11998   0.093   2.878  11.682 -0.5919 -0.4178 -0.2175
  815MPD2    H111999   4.506   3.150  11.740 -0.3817 -1.6196 -0.3396
  815MPD2    H212000   0.109   3.265  11.500  3.1393 -1.0898 -0.5972
  815MPD2    H312001   4.614   3.316  11.614  4.2610  2.0936  0.1968
  815MPD2     N12002   4.594   2.902  11.809  0.4450  0.2886  0.5354
  815MPD2    H512003   4.639   2.812  11.817 -0.7914 -0.4625 -0.9250
  815MPD2    N112004   0.222   3.042  11.486 -0.0372 -0.5052  0.3969
  815MPD2    H712005   0.248   3.107  11.412 -1.8119  2.5150  2.3866
  816MPD2     C12006   4.427   2.160  16.795 -0.5299  0.3985 -0.7577
  816MPD2    C112007   4.505   2.244  16.869  0.1572  0.0345 -0.8136
  816MPD2    C212008   4.648   2.227  16.868  0.5583 -0.1770  0.1155
  816MPD2    C312009   4.705   2.135  16.769  0.9126  0.0385 -0.4157
  816MPD2    C412010   4.621   2.054  16.693 -0.0314  0.1041  0.6100
  816MPD2    C512011   4.483   2.066  16.710 -0.4543 -0.3749  0.3603
  816MPD2     H12012   4.711   2.294  16.925  1.9193 -1.5121  0.1776
  816MPD2    H112013   4.655   1.979  16.622  0.2114 -0.6774  1.5470
  816MPD2    H212014   4.319   2.168  16.802 -0.4383  1.1402 -0.1798
  816MPD2    H312015   4.420   2.002  16.649 -0.9821  1.9056 -1.5132
  816MPD2     N12016   0.119   2.146  16.744 -0.4795 -0.7398  0.1456
  816MPD2    H512017   0.168   2.198  16.817 -1.7642  0.9642 -0.2116
  816MPD2    N112018   4.433   2.337  16.948  0.2398 -0.1035  0.1271
  816MPD2    H712019   4.332   2.331  16.949  0.1427  1.0879 -1.7178
  817MPD2     C12020   4.533   3.503   9.844 -0.0937 -0.0475  0.0266
  817MPD2    C112021   4.646   3.506   9.757 -0.5783 -0.3055 -0.7378
  817MPD2    C212022   4.665   3.620   9.679  0.7142 -0.3703 -0.3415
  817MPD2    C312023   4.575   3.723   9.681  0.3691  0.1961 -0.3243
  817MPD2    C412024   4.460   3.708   9.753 -0.0058  0.6012 -0.0577
  817MPD2    C512025   4.446   3.610   9.846 -0.2271  0.3972 -0.2128
  817MPD2     H12026   0.027   3.619   9.615 -0.2853  0.8620 -1.7128
  817MPD2    H112027   4.387   3.788   9.749  1.1004  1.5780 -1.0865
  817MPD2    H212028   4.508   3.413   9.899  0.9787 -1.4452 -1.7650
  817MPD2    H312029   4.361   3.608   9.914 -1.0757  1.5914 -1.2373
  817MPD2     N12030   4.606   3.829   9.592 -0.0162 -0.0669 -0.8669
  817MPD2    H512031   4.691   3.811   9.539  0.4237 -1.2520  0.2358
  817MPD2    N112032   0.003   3.392   9.731  0.0781 -0.4488  0.5156
  817MPD2    H712033   0.068   3.399   9.653 -0.6781  2.5555  0.1491
  818MPD2     C12034   3.422   3.510  10.325 -0.3756  0.2128 -0.4574
  818MPD2    C112035   3.318   3.447  10.266  0.4459  0.7636 -0.3334
  818MPD2    C212036   3.336   3.319  10.222 -0.8992  0.0548  0.7532
  818MPD2    C312037   3.443   3.244  10.270  1.1914 -0.6810 -0.3099
  818MPD2    C412038   3.544   3.306  10.345  0.7633 -0.3339  0.4809
  818MPD2    C512039   3.533   3.440  10.364 -0.0833 -0.2495 -0.0124
  818MPD2     H12040   3.258   3.262  10.171 -0.6582  1.9904 -1.7724
  818MPD2    H112041   3.633   3.250  10.372  0.5867 -1.5808 -1.5794
  818MPD2    H212042   3.427   3.613  10.357  0.5609 -0.4577  1.5335
  818MPD2    H312043   3.615   3.489  10.416  1.7717 -3.2026 -0.1366
  818MPD2     N12044   3.467   3.105  10.256 -0.1487  0.3443 -0.4477
  818MPD2    H512045   3.556   3.069  10.289 -0.0360  0.3354 -0.7601
  818MPD2    N112046   3.190   3.514  10.231 -0.5151 -0.5142 -0.0205
  818MPD2    H712047   3.121   3.452  10.190  0.7433 -1.1278 -1.2506
  819MPD2     C12048   1.229   0.488  15.486 -0.2055  0.3177  0.3608
  819MPD2    C112049   1.318   0.385  15.483 -0.2963  0.0386  0.2653
  819MPD2    C212050   1.438   0.389  15.559  0.1406 -0.2682 -0.4534
  819MPD2    C312051   1.456   0.497  15.641 -0.0401  0.4411  0.2207
  819MPD2    C412052   1.359   0.599  15.648 -0.0822  0.1125 -0.6446
  819MPD2    C512053   1.250   0.596  15.567 -0.1818 -0.1545 -0.2214
  819MPD2     H12054   1.512   0.311  15.567 -0.5127 -1.0102 -1.5138
  819MPD2    H112055   1.380   0.692  15.699  1.2013 -0.7775  0.4747
  819MPD2    H212056   1.152   0.489  15.410  0.2747  2.8277 -0.1039
  819MPD2    H312057   1.194   0.687  15.545 -1.1605 -0.5092  0.7712
  819MPD2     N12058   1.581   0.508  15.699 -0.7878 -0.2969 -0.1055
  819MPD2    H512059   1.644   0.431  15.681 -0.5067  0.2344 -1.4078
  819MPD2    N112060   1.282   0.262  15.420  0.2530  0.2950  0.0418
  819MPD2    H712061   1.189   0.262  15.380  0.8197  0.1827 -1.3121
  820MPD2     C12062   0.752   0.239  14.630 -0.2431 -0.4345  0.9089
  820MPD2    C112063   0.788   0.329  14.733  0.0865 -0.1681  0.6300
  820MPD2    C212064   0.884   0.281  14.822 -0.1919  0.0415  0.6739
  820MPD2    C312065   0.949   0.162  14.804  0.3371 -0.3604  0.2624
  820MPD2    C412066   0.909   0.087  14.700 -0.6035 -0.3454 -0.2442
  820MPD2    C512067   0.819   0.121  14.607  0.0214  0.3568 -0.9245
  820MPD2     H12068   0.929   0.351  14.892 -1.1958  0.9443  0.4165
  820MPD2    H112069   0.948   4.712  14.695  3.1555  1.0947 -0.0151
  820MPD2    H212070   0.685   0.284  14.557 -0.3408 -0.4073  1.0150
  820MPD2    H312071   0.800   0.049  14.528 -0.4157  0.9047 -1.3185
  820MPD2     N12072   1.059   0.112  14.881  0.1475  0.4165  0.2605
  820MPD2    H512073   1.123   0.041  14.846 -1.7358 -1.0272 -0.2147
  820MPD2    N112074   0.738   0.461  14.727 -0.4836  0.0891 -0.0524
  820MPD2    H712075   0.689   0.486  14.642 -1.8562 -2.3174  0.0329
  821MPD2     C12076   0.964   1.742  13.024 -0.0461 -0.1011 -0.0869
  821MPD2    C112077   1.070   1.743  13.119  0.3142  0.5218 -0.5946
  821MPD2    C212078   1.187   1.805  13.093 -0.3365 -0.0381  0.1305
  821MPD2    C312079   1.201   1.875  12.975 -0.1860  0.2010 -0.4611
  821MPD2    C412080   1.098   1.868  12.875 -0.3310  0.3975  0.1320
  821MPD2    C512081   0.985   1.792  12.896  1.2235  0.0789 -0.1769
  821MPD2     H12082   1.259   1.814  13.174  1.7592 -0.4567 -1.6765
  821MPD2    H112083   1.094   1.925  12.782  1.9043 -0.8079 -0.7203
  821MPD2    H212084   0.867   1.703  13.055 -0.2743 -0.6650 -1.5115
  821MPD2    H312085   0.905   1.798  12.824  1.2308  0.9367 -0.1104
  821MPD2     N12086   1.315   1.954  12.943 -0.0911 -0.0355 -0.3054
  821MPD2    H512087   1.308   2.026  12.872  1.1910 -0.1618 -0.5627
  821MPD2    N112088   1.056   1.678  13.233  0.7963 -0.0072 -0.2903
  821MPD2    H712089   1.136   1.679  13.295  1.0525 -0.0702 -0.6167
  822MPD2     C12090   2.487   1.914  15.664 -0.2096  0.5238  0.3734
  822MPD2    C112091   2.452   1.884  15.795  0.1434  0.1044  0.2658
  822MPD2    C212092   2.353   1.959  15.863 -0.1445 -0.4875 -0.1516
  822MPD2    C312093   2.313   2.072  15.800  0.0207  0.0095  0.1137
  822MPD2    C412094   2.355   2.107  15.669 -0.2352 -0.3429  0.2469
  822MPD2    C512095   2.437   2.026  15.600 -0.9390 -0.4193 -0.5610
  822MPD2     H12096   2.333   1.936  15.967 -0.3577 -1.6396 -0.4393
  822MPD2    H112097   2.312   2.194  15.620  0.3797  0.1483  0.5849
  822MPD2    H212098   2.574   1.867  15.619 -0.7839  0.7082 -0.9269
  822MPD2    H312099   2.483   2.046  15.504  0.0516  0.4466  0.0837
  822MPD2     N12100   2.224   2.158  15.873 -0.4365 -0.3379 -0.5624
  822MPD2    H512101   2.177   2.124  15.956  0.9092 -0.1004  0.3076
  822MPD2    N112102   2.508   1.773  15.864  0.5870 -0.2217  0.4654
  822MPD2    H712103   2.481   1.755  15.961  1.3171 -0.7715  0.5592
  823MPD2     C12104   1.951   2.474  16.585  0.5106 -0.0067  0.6275
  823MPD2    C112105   1.969   2.376  16.485 -0.0168 -0.4122 -0.4435
  823MPD2    C212106   2.010   2.252  16.532 -0.4490  0.8781 -0.7044
  823MPD2    C312107   2.041   2.239  16.670  0.3051  0.4483 -0.0054
  823MPD2    C412108   2.012   2.339  16.763 -0.4589 -0.1446  0.1504
  823MPD2    C512109   1.963   2.455  16.718  0.2885  0.1427  0.3750
  823MPD2     H12110   2.031   2.176  16.457 -0.7873 -0.5343  0.6311
  823MPD2    H112111   2.035   2.337  16.869 -1.0789 -2.5396  0.2416
  823MPD2    H212112   1.930   2.579  16.566 -1.0388 -0.0238  2.1836
  823MPD2    H312113   1.939   2.532  16.791  0.6099 -0.5140  1.1737
  823MPD2     N12114   2.112   2.123  16.724  0.2766 -0.5241  0.0940
  823MPD2    H512115   2.126   2.127  16.824 -0.4282  0.7038  0.1375
  823MPD2    N112116   1.962   2.411  16.347 -0.3861 -0.2380 -0.0867
  823MPD2    H712117   1.933   2.507  16.327 -0.1626 -0.6112 -2.2113
  824MPD2     C12118   2.674   0.959  15.771 -0.5693  0.1688  0.3894
  824MPD2    C112119   2.751   1.064  15.725  0.2839  0.6342  0.6007
  824MPD2    C212120   2.833   1.048  15.618  0.1269 -0.5442 -0.1270
  824MPD2    C312121   2.855   0.914  15.568  0.3051 -0.6446  0.1256
  824MPD2    C412122   2.765   0.813  15.605 -0.1266 -0.2855 -0.4148
  824MPD2    C512123   2.681   0.836  15.714  0.1824 -0.1289 -0.5622
  824MPD2     H12124   2.895   1.126  15.575  1.6144 -1.8671 -0.3970
  824MPD2    H112125   2.759   0.711  15.568 -1.2459 -0.1834 -0.5243
  824MPD2    H212126   2.594   0.973  15.842 -0.5629 -1.7429  0.7877
  824MPD2    H312127   2.609   0.761  15.745 -0.5523  1.0945  0.6437
  824MPD2     N12128   2.970   0.893  15.479  0.4045  0.0632 -0.0425
  824MPD2    H512129   3.037   0.968  15.464 -0.7488  1.1632  0.3792
  824MPD2    N112130   2.745   1.191  15.790 -0.4462  0.0087  0.3611
  824MPD2    H712131   2.787   1.271  15.744  1.0867  0.5606  2.7125
  825MPD2     C12132   3.648   1.053  14.963 -1.0159  0.2398  0.3587
  825MPD2    C112133   3.529   1.081  15.027 -0.9246  0.1621  0.7482
  825MPD2    C212134   3.478   1.212  15.005  0.1645  0.2824 -0.3289
  825MPD2    C312135   3.539   1.304  14.925  0.0043  0.5119  0.1122
  825MPD2    C412136   3.654   1.265  14.864  0.3057  0.1884  0.7373
  825MPD2    C512137   3.712   1.148  14.886 -0.1458  0.5985 -0.4902
  825MPD2     H12138   3.385   1.230  15.058  0.0624 -1.3905  0.0654
  825MPD2    H112139   3.705   1.326  14.790 -0.1588 -0.0633  0.2058
  825MPD2    H212140   3.702   0.959  14.973 -1.5676 -0.1856 -0.6211
  825MPD2    H312141   3.798   1.117  14.828  0.4726 -0.6435  1.0838
  825MPD2     N12142   3.485   1.426  14.890  0.3032 -0.7564  0.2005
  825MPD2    H512143   3.542   1.480  14.825  0.6113  2.0434  2.7802
  825MPD2    N112144   3.456   0.988  15.096  0.6385  0.2369  0.1256
  825MPD2    H712145   3.469   0.890  15.072  0.7330  0.9064 -2.5626
  826MPD2     C12146   3.025   1.142  13.557  0.4255 -0.5729 -0.1944
  826MPD2    C112147   3.027   1.207  13.432  0.3142  0.0250 -0.0219
  826MPD2    C212148   2.947   1.320  13.418 -0.4997 -0.2193  0.0528
  826MPD2    C312149   2.862   1.356  13.518 -0.0058  0.4864  0.0863
  826MPD2    C412150   2.848   1.273  13.625 -0.4388  0.0324 -0.1890
  826MPD2    C512151   2.936   1.174  13.653 -1.2640  0.2764  0.6794
  826MPD2     H12152   2.941   1.382  13.330 -0.4788  0.8961  0.8342
  826MPD2    H112153   2.776   1.293  13.704  0.2600  1.0017  0.2125
  826MPD2    H212154   3.085   1.056  13.584 -1.4920 -1.0727  2.4717
  826MPD2    H312155   2.936   1.125  13.750  0.1814 -1.4190 -0.1861
  826MPD2     N12156   2.795   1.481  13.514 -0.1815 -0.3620 -0.7867
  826MPD2    H512157   2.735   1.496  13.594  0.8231  1.3733 -0.3443
  826MPD2    N112158   3.127   1.170  13.338  0.5150  0.2056  0.1028
  826MPD2    H712159   3.184   1.088  13.353 -1.5417 -1.3239 -0.3271
  827MPD2     C12160   3.887   2.690   9.708 -0.0192  0.0559  0.3396
  827MPD2    C112161   3.888   2.555   9.746  0.1262 -0.1398 -0.1291
  827MPD2    C212162   3.832   2.455   9.664 -0.0367  0.0397  1.0976
  827MPD2    C312163   3.787   2.488   9.533  0.2617 -0.1884 -0.4972
  827MPD2    C412164   3.783   2.615   9.508  0.4089  0.0914 -0.0480
  827MPD2    C512165   3.836   2.714   9.584 -0.2650  0.0363 -0.3671
  827MPD2     H12166   3.822   2.352   9.698 -0.4934  0.1076  1.1688
  827MPD2    H112167   3.742   2.647   9.413 -0.6668 -2.2934 -0.3751
  827MPD2    H212168   3.920   2.772   9.772  0.1448 -0.7084  1.2250
  827MPD2    H312169   3.834   2.817   9.549  2.0355 -0.1838 -1.1587
  827MPD2     N12170   3.732   2.386   9.453 -0.0339  0.0847  0.5374
  827MPD2    H512171   3.733   2.292   9.493 -0.9810 -1.0683 -2.1504
  827MPD2    N112172   3.945   2.530   9.874 -0.1454  0.4722  0.2475
  827MPD2    H712173   4.018   2.591   9.909  0.5854 -2.0716  3.2076
  828MPD2     C12174   2.027   1.815  12.662  0.7725  0.6047 -0.6148
  828MPD2    C112175   2.013   1.891  12.552 -0.5992 -0.3206 -0.4015
  828MPD2    C212176   2.117   1.908  12.462 -0.1366 -0.5951  0.4549
  828MPD2    C312177   2.225   1.826  12.473  0.3451  0.4154 -0.8537
  828MPD2    C412178   2.243   1.750  12.584  0.1574 -0.0265 -0.2372
  828MPD2    C512179   2.142   1.746  12.685 -0.1093 -0.2716  0.7816
  828MPD2     H12180   2.111   1.973  12.376 -0.9277  1.1711  1.8457
  828MPD2    H112181   2.327   1.683  12.593 -1.1785 -1.8882 -1.5431
  828MPD2    H212182   1.946   1.814  12.735  1.4657  1.8306  0.1618
  828MPD2    H312183   2.149   1.685  12.775  0.2143  0.2013  1.0745
  828MPD2     N12184   2.321   1.827  12.364  0.0381  0.7583 -0.4700
  828MPD2    H512185   2.414   1.787  12.371 -1.0897 -1.8376 -0.1308
  828MPD2    N112186   1.891   1.959  12.512  0.7014 -0.0557 -0.3432
  828MPD2    H712187   1.899   2.018  12.431 -0.0154 -0.9704 -1.0731
  829MPD2     C12188   2.007   2.218  11.789 -0.4821  0.3949  0.2030
  829MPD2    C112189   1.880   2.225  11.767  1.1269  0.1303 -0.2638
  829MPD2    C212190   1.801   2.182  11.877 -0.1141 -0.0105  0.0059
  829MPD2    C312191   1.859   2.126  11.999 -0.4012  0.3882  0.6395
  829MPD2    C412192   1.992   2.123  12.002 -0.5644  0.1279  0.3563
  829MPD2    C512193   2.064   2.172  11.902  0.6383  0.3914  1.2378
  829MPD2     H12194   1.693   2.173  11.865  0.1075 -0.5740 -1.5229
  829MPD2    H112195   2.037   2.087  12.093 -1.5669 -1.3919  0.2420
  829MPD2    H212196   2.079   2.241  11.711 -0.2799  3.3040  1.2330
  829MPD2    H312197   2.172   2.167  11.915  0.8859 -1.7499 -1.6840
  829MPD2     N12198   1.778   2.080  12.108 -0.7514  0.6234  0.3881
  829MPD2    H512199   1.818   2.020  12.179  0.4034  2.3469  1.1755
  829MPD2    N112200   1.840   2.271  11.639 -0.0387 -0.4586 -0.2096
  829MPD2    H712201   1.910   2.298  11.571 -0.0818  1.2423  0.4182
  830MPD2     C12202   2.426   0.497  15.709  0.5982 -0.6646 -0.5287
  830MPD2    C112203   2.312   0.554  15.647 -0.7394 -0.3601  0.1195
  830MPD2    C212204   2.325   0.593  15.522  0.1357  0.0039  0.2853
  830MPD2    C312205   2.441   0.564  15.454 -0.1455  0.1699  0.1359
  830MPD2    C412206   2.557   0.520  15.522 -0.1746 -1.0698 -0.1198
  830MPD2    C512207   2.544   0.485  15.654 -0.1350  0.1430  0.0692
  830MPD2     H12208   2.237   0.623  15.465 -0.9299 -0.6688  1.5727
  830MPD2    H112209   2.657   0.528  15.481  0.5285  1.6354  2.0823
  830MPD2    H212210   2.414   0.461  15.810  0.8551 -0.1285 -0.3080
  830MPD2    H312211   2.631   0.455  15.712 -1.9479 -0.4921  2.4398
  830MPD2     N12212   2.461   0.593  15.313  0.2405 -0.5315  0.0196
  830MPD2    H512213   2.555   0.585  15.274 -0.2065  0.1984 -1.1852
  830MPD2    N112214   2.192   0.560  15.715  0.2106 -0.0121 -0.6231
  830MPD2    H712215   2.193   0.515  15.806  3.3984 -1.9317 -1.6025
  831MPD2     C12216   2.493   2.231  16.236  0.6664 -0.5750  0.0282
  831MPD2    C112217   2.536   2.114  16.171 -0.7032  0.5536 -0.1413
  831MPD2    C212218   2.462   1.999  16.178 -0.1661 -0.1795  0.0158
  831MPD2    C312219   2.334   1.995  16.236 -0.3039 -0.5465  0.3765
  831MPD2    C412220   2.292   2.111  16.294  0.0778  0.1490 -0.4317
  831MPD2    C512221   2.367   2.225  16.300  0.1347  0.1477 -0.5172
  831MPD2     H12222   2.497   1.906  16.134  0.8868  0.1395  0.1781
  831MPD2    H112223   2.202   2.121  16.353 -1.0233 -0.4561 -2.0017
  831MPD2    H212224   2.539   2.329  16.230  0.8692 -0.7432 -1.1081
  831MPD2    H312225   2.326   2.307  16.358  0.3794  0.1447 -0.3348
  831MPD2     N12226   2.247   1.886  16.242  0.4281 -0.5247  0.4006
  831MPD2    H512227   2.150   1.901  16.271  0.4240 -1.7811  1.0086
  831MPD2    N112228   2.649   2.130  16.082  0.5445 -0.0781 -0.1464
  831MPD2    H712229   2.702   2.215  16.069 -0.3999  0.3796 -1.0009
  832MPD2     C12230   0.767   3.117  17.037 -0.6413  0.0338  0.2162
  832MPD2    C112231   0.722   3.246  17.045 -0.9058  0.8252  0.0279
  832MPD2    C212232   0.630   3.287  16.954  0.1998  0.0180  0.1202
  832MPD2    C312233   0.563   3.210  16.869  0.9716 -0.1411  0.1785
  832MPD2    C412234   0.603   3.076  16.864 -0.1044  0.3931 -0.0766
  832MPD2    C512235   0.690   3.032  16.962  0.3276  0.9512  0.2579
  832MPD2     H12236   0.592   3.388  16.960  0.6095  0.2579 -1.1288
  832MPD2    H112237   0.554   3.005  16.798 -1.8418  1.9871 -0.4909
  832MPD2    H212238   0.846   3.068  17.093 -0.9756 -3.4241 -2.3375
  832MPD2    H312239   0.695   2.924  16.963  1.5568  1.0026  0.4580
  832MPD2     N12240   0.456   3.271  16.794  0.3043 -0.0133  0.5964
  832MPD2    H512241   0.457   3.369  16.822 -0.1074 -0.4455  2.1275
  832MPD2    N112242   0.776   3.331  17.148 -0.7805  0.4589 -0.0286
  832MPD2    H712243   0.831   3.282  17.218  0.3204  0.8526 -0.6184
  833MPD2     C12244   2.900   4.332  12.782 -0.0146 -0.6358  0.3648
  833MPD2    C112245   2.901   4.373  12.647  0.1531 -0.6347 -0.7976
  833MPD2    C212246   2.923   4.274  12.553  0.2090 -0.0671 -0.6128
  833MPD2    C312247   2.955   4.146  12.598 -0.3017  0.3982 -0.2936
  833MPD2    C412248   2.957   4.111  12.729 -0.6234 -0.6837 -0.0202
  833MPD2    C512249   2.920   4.206  12.819 -0.0025 -0.0890 -0.0439
  833MPD2     H12250   2.932   4.295  12.446 -0.7836  0.5847 -0.5620
  833MPD2    H112251   2.970   4.012  12.772  0.0541  0.1377  1.6558
  833MPD2    H212252   2.906   4.413  12.854  0.2895 -0.2031 -0.1437
  833MPD2    H312253   2.928   4.184  12.925 -1.3553 -0.6259 -0.0545
  833MPD2     N12254   2.988   4.059  12.493  0.3423  0.5344 -0.3890
  833MPD2    H512255   2.987   4.114  12.408 -0.3409 -0.0083 -0.7310
  833MPD2    N112256   2.890   4.513  12.616 -0.1071 -0.2149 -0.3177
  833MPD2    H712257   2.859   4.579  12.687  2.4394  0.7045 -0.0468
  834MPD2     C12258   2.543   3.507  11.731  0.5306 -0.4028 -0.3648
  834MPD2    C112259   2.560   3.639  11.714 -0.3112 -0.0494 -0.1509
  834MPD2    C212260   2.629   3.718  11.802 -0.7033  0.0125  0.2621
  834MPD2    C312261   2.696   3.655  11.904 -1.0132  0.2596  0.3459
  834MPD2    C412262   2.689   3.515  11.918 -0.0165  0.3352  0.0540
  834MPD2    C512263   2.612   3.446  11.834  0.1227 -0.0488 -0.2485
  834MPD2     H12264   2.631   3.826  11.793  0.1091  0.0209  0.4941
  834MPD2    H112265   2.747   3.468  11.996 -2.3224 -0.7264  1.0911
  834MPD2    H212266   2.483   3.454  11.658 -2.8891  2.9019  0.0296
  834MPD2    H312267   2.599   3.340  11.854  2.5979 -0.1994  0.5943
  834MPD2     N12268   2.765   3.734  11.993 -0.3958  0.0653  0.0359
  834MPD2    H512269   2.764   3.832  11.967 -0.7967 -0.0733 -0.4761
  834MPD2    N112270   2.487   3.698  11.607 -0.5420 -0.2785 -0.6422
  834MPD2    H712271   2.422   3.630  11.569  0.7177 -1.9022  0.1014
  835MPD2     C12272   2.885   2.429  10.816 -0.8461 -0.1710  0.0087
  835MPD2    C112273   2.776   2.499  10.868 -0.5914  0.5758  0.0970
  835MPD2    C212274   2.754   2.487  11.000  0.0340 -0.9549  0.0671
  835MPD2    C312275   2.834   2.416  11.092  0.1715 -0.7918  0.0347
  835MPD2    C412276   2.944   2.358  11.037  0.6047  0.4379  1.0319
  835MPD2    C512277   2.968   2.368  10.901 -0.5985 -0.0329 -0.4728
  835MPD2     H12278   2.666   2.540  11.036  1.1275  0.9241 -0.0376
  835MPD2    H112279   3.011   2.294  11.093  0.8402  0.8979  1.2722
  835MPD2    H212280   2.906   2.447  10.711  0.8112  0.3537  0.4293
  835MPD2    H312281   3.059   2.329  10.858  0.3712  0.3617  1.2610
  835MPD2     N12282   2.800   2.400  11.227 -0.2979  0.1565 -0.2526
  835MPD2    H512283   2.870   2.343  11.274  0.6669  0.7202 -0.9973
  835MPD2    N112284   2.690   2.578  10.787  0.2578  0.0109 -0.6925
  835MPD2    H712285   2.612   2.627  10.830 -0.7496 -3.1855  1.1360
  836MPD2     C12286   2.113   2.410  11.379  0.0645 -0.6452  0.5811
  836MPD2    C112287   2.159   2.405  11.507 -0.1195 -0.0124  0.1689
  836MPD2    C212288   2.105   2.479  11.610  0.1116  0.0258 -0.0955
  836MPD2    C312289   1.982   2.540  11.590  0.0896 -0.0306  0.2526
  836MPD2    C412290   1.931   2.533  11.463  0.0376  0.3126 -0.7022
  836MPD2    C512291   2.001   2.478  11.359 -0.0295  0.5157 -0.1413
  836MPD2     H12292   2.150   2.477  11.708  0.0852 -1.2838 -0.1079
  836MPD2    H112293   1.839   2.587  11.440 -0.0491  1.2069  1.7735
  836MPD2    H212294   2.162   2.363  11.294 -0.3580 -1.7482  0.9458
  836MPD2    H312295   1.949   2.478  11.264 -1.6200  0.8452  0.7189
  836MPD2     N12296   1.900   2.595  11.690 -0.1833 -0.6053  0.9258
  836MPD2    H512297   1.811   2.636  11.662 -0.2280 -1.2816  0.0894
  836MPD2    N112298   2.285   2.340  11.516 -0.3339  0.0669  0.1693
  836MPD2    H712299   2.306   2.304  11.423  0.0546  1.1699 -0.1670
  837MPD2     C12300   0.902   1.467  10.091  0.0444  0.1672  0.1314
  837MPD2    C112301   0.783   1.533  10.093  0.0159 -0.1895  0.1890
  837MPD2    C212302   0.782   1.674  10.097  0.2974  0.3513 -0.2374
  837MPD2    C312303   0.894   1.747  10.106  0.4520  0.2997  0.9797
  837MPD2    C412304   1.015   1.685  10.101  0.6846 -0.7101 -0.1594
  837MPD2    C512305   1.016   1.547  10.103 -0.1125  0.0061  0.1927
  837MPD2     H12306   0.683   1.717  10.086 -0.2099 -0.7772 -0.0423
  837MPD2    H112307   1.104   1.743  10.123 -0.1269 -0.3100  2.1133
  837MPD2    H212308   0.913   1.359  10.093  0.9893  0.2494 -0.5088
  837MPD2    H312309   1.117   1.506  10.105  0.1708  0.7090  0.3773
  837MPD2     N12310   0.876   1.888  10.098 -0.0246  0.4576 -0.0006
  837MPD2    H512311   0.778   1.911  10.095 -0.2749 -0.7372 -1.0464
  837MPD2    N112312   0.661   1.471  10.067 -0.4475  0.8180  0.3234
  837MPD2    H712313   0.582   1.534  10.069 -0.2517  1.0425  1.1125
  838MPD2     C12314   3.670   0.357  11.559  0.3365  0.7280  0.1329
  838MPD2    C112315   3.678   0.269  11.666  0.2082 -0.3613  0.1225
  838MPD2    C212316   3.565   0.192  11.690 -0.3831 -0.0889 -0.2035
  838MPD2    C312317   3.457   0.186  11.594 -0.0457 -0.0892  0.1427
  838MPD2    C412318   3.462   0.275  11.492 -0.4683  0.2053  0.7431
  838MPD2    C512319   3.570   0.351  11.470  0.1495  0.1152  0.1578
  838MPD2     H12320   3.566   0.116  11.767  0.5583  0.0097 -0.1223
  838MPD2    H112321   3.383   0.286  11.419 -0.0788 -0.7601  0.1867
  838MPD2    H212322   3.756   0.419  11.532 -0.3385  1.4478 -0.3834
  838MPD2    H312323   3.562   0.412  11.380 -0.2966  2.4578  1.7872
  838MPD2     N12324   3.347   0.096  11.625 -0.4579  0.0421  0.0983
  838MPD2    H512325   3.362   0.054  11.716  0.7518 -1.1890 -0.6641
  838MPD2    N112326   3.798   0.252  11.745 -0.7314 -0.0620 -0.1289
  838MPD2    H712327   3.794   0.183  11.819 -2.8138 -1.6597 -1.7307
  839MPD2     C12328   3.566   4.441  11.708  0.0482 -0.0134 -0.4414
  839MPD2    C112329   3.638   4.497  11.597 -0.1358 -0.9252 -0.0420
  839MPD2    C212330   3.767   4.539  11.618 -0.5979  0.2361  0.1619
  839MPD2    C312331   3.824   4.545  11.744  0.2543 -0.1294  0.1121
  839MPD2    C412332   3.748   4.495  11.853 -0.1432  0.0669  0.3825
  839MPD2    C512333   3.629   4.436  11.831 -0.1274 -0.3443 -0.5904
  839MPD2     H12334   3.815   4.583  11.532  0.1310  0.1656  0.5247
  839MPD2    H112335   3.786   4.490  11.954 -1.0208  2.0865  0.8224
  839MPD2    H212336   3.464   4.406  11.698  0.4206 -1.8806  2.2788
  839MPD2    H312337   3.585   4.397  11.921  0.2119  0.0730 -0.2391
  839MPD2     N12338   3.940   4.621  11.772 -0.2035 -0.1133  0.2186
  839MPD2    H512339   3.956   4.651  11.867 -0.5114  0.2747  0.1455
  839MPD2    N112340   3.581   4.497  11.461  0.0005 -0.5902  0.5173
  839MPD2    H712341   3.637   4.522  11.380  1.0552 -1.2595  1.0571
  840MPD2     C12342   4.472   2.799  10.039 -0.3601 -0.0117 -0.4300
  840MPD2    C112343   4.405   2.754  10.149  0.5706  0.3714 -0.4762
  840MPD2    C212344   4.432   2.814  10.272 -0.8088  0.0359  0.1196
  840MPD2    C312345   4.509   2.932  10.277  0.1386 -0.5660 -0.2786
  840MPD2    C412346   4.561   2.979  10.163 -0.3216 -0.2810  0.6398
  840MPD2    C512347   4.551   2.909  10.042 -0.0812  0.2099  0.8291
  840MPD2     H12348   4.403   2.775  10.369 -1.2884 -0.0940 -0.0724
  840MPD2    H112349   4.636   3.058  10.154 -1.0432  0.4167  0.7482
  840MPD2    H212350   4.462   2.745   9.946  2.8097  1.1027 -1.4366
  840MPD2    H312351   4.611   2.946   9.960 -0.4591 -3.0051 -0.8982
  840MPD2     N12352   4.544   2.995  10.393 -0.4538  0.2734 -0.5731
  840MPD2    H512353   4.612   3.070  10.386  0.5638 -0.7179 -1.2703
  840MPD2    N112354   4.323   2.642  10.136 -0.7433 -0.3095 -0.0799
  840MPD2    H712355   4.293   2.617  10.043 -1.1013 -0.5539  0.1011
  841MPD2     C12356   3.969   2.781  13.894  0.2579 -0.2015  0.3507
  841MPD2    C112357   4.043   2.669  13.938 -0.3525  0.1815 -0.7905
  841MPD2    C212358   4.138   2.691  14.040 -0.1976  0.4042  0.0300
  841MPD2    C312359   4.185   2.815  14.085 -0.2654  0.3861 -0.2113
  841MPD2    C412360   4.119   2.923  14.029  0.0767  0.0020 -0.0083
  841MPD2    C512361   4.016   2.906  13.932  0.1115  0.0830 -0.3838
  841MPD2     H12362   4.188   2.601  14.073  0.0101  0.4469 -0.1631
  841MPD2    H112363   4.142   3.022  14.067  0.9886  0.1941 -1.0813
  841MPD2    H212364   3.884   2.785  13.827  2.0344  3.2152 -1.7277
  841MPD2    H312365   3.954   2.989  13.901  2.3089  1.8684  0.0847
  841MPD2     N12366   4.289   2.831  14.179 -0.4885 -0.0022 -0.3345
  841MPD2    H512367   4.311   2.750  14.236 -0.1154 -0.2715 -0.8533
  841MPD2    N112368   4.025   2.537  13.884  0.4583 -0.5794 -0.1312
  841MPD2    H712369   4.083   2.460  13.917  0.0010 -0.9853 -0.2766
  842MPD2     C12370   4.431   3.601  17.284 -0.0375  1.0680  0.2223
  842MPD2    C112371   4.481   3.703  17.206  0.2398  0.3885 -0.2568
  842MPD2    C212372   4.610   3.738  17.222 -0.2261  0.5653  0.6879
  842MPD2    C312373   4.695   3.683  17.320 -0.1099  1.1381  0.1023
  842MPD2    C412374   4.650   3.575  17.394  0.7339  0.5289 -0.8291
  842MPD2    C512375   4.517   3.534  17.371 -0.1576 -0.1157 -0.5880
  842MPD2     H12376   4.643   3.824  17.166 -1.0423  0.0784 -0.5322
  842MPD2    H112377   4.713   3.527  17.468 -0.6493  0.0512  0.0346
  842MPD2    H212378   4.333   3.555  17.270  0.5610 -0.4220  0.9581
  842MPD2    H312379   4.481   3.448  17.426 -1.5525  0.1776 -1.0471
  842MPD2     N12380   0.092   3.744  17.364  0.3309  0.2253 -0.1202
  842MPD2    H512381   0.126   3.724  17.457  1.3051 -2.0919 -0.9674
  842MPD2    N112382   4.401   3.768  17.110 -0.1045  0.3061  0.1012
  842MPD2    H712383   4.303   3.763  17.137 -0.5101  0.0954 -1.3878
  843MPD2     C12384   1.549   3.950  17.600 -0.2366 -0.2285 -0.6725
  843MPD2    C112385   1.559   3.922   0.032 -0.8840 -1.0021 -0.2671
  843MPD2    C212386   1.654   3.995   0.100 -0.1692  0.2114  0.1732
  843MPD2    C312387   1.735   4.078   0.029  0.5560  0.4921  0.0860
  843MPD2    C412388   1.715   4.104  17.605  0.2939 -0.1465 -0.5233
  843MPD2    C512389   1.628   4.034  17.533 -0.5584 -0.4481  0.7592
  843MPD2     H12390   1.681   3.973   0.203 -1.2351 -1.5579  0.0709
  843MPD2    H112391   1.782   4.174  17.557 -0.9959  1.4417  0.0094
  843MPD2    H212392   1.491   3.887  17.534 -0.1043  0.2160 -1.2122
  843MPD2    H312393   1.620   4.034  17.424  0.4998 -2.7354  0.6886
  843MPD2     N12394   1.830   4.162   0.094  0.1774  0.1457  0.3238
  843MPD2    H512395   1.847   4.249   0.045  2.2737 -0.8528 -0.6880
  843MPD2    N112396   1.470   3.826   0.086 -0.3453 -0.5592  0.4697
  843MPD2    H712397   1.410   3.777   0.019 -0.4498 -0.4383  0.4752
  844MPD2     C12398   0.220   2.639  16.156  0.0733  0.6037 -0.5085
  844MPD2    C112399   0.305   2.686  16.060 -0.6668  0.2884  0.6487
  844MPD2    C212400   0.397   2.781  16.103  0.1628  0.3780 -0.1535
  844MPD2    C312401   0.389   2.838  16.227 -0.4609  0.6167  0.2159
  844MPD2    C412402   0.306   2.782  16.325  0.9977 -0.1192 -0.5162
  844MPD2    C512403   0.230   2.678  16.285  0.0116 -0.2156  0.0494
  844MPD2     H12404   0.455   2.835  16.029 -0.5549 -0.5288 -1.3789
  844MPD2    H112405   0.306   2.814  16.429 -3.0709 -0.6479 -0.3659
  844MPD2    H212406   0.135   2.580  16.123  2.3931 -2.9482 -0.1748
  844MPD2    H312407   0.160   2.627  16.351 -1.6301  0.5657 -1.0813
  844MPD2     N12408   0.477   2.945  16.256  0.5851 -0.0855 -0.3869
  844MPD2    H512409   0.559   2.945  16.196  0.0550 -1.3380 -1.1273
  844MPD2    N112410   0.294   2.658  15.918 -0.4640 -0.8334  0.1949
  844MPD2    H712411   0.337   2.728  15.857  0.1217 -0.4804  1.0150
  845MPD2     C12412   0.734   3.880  16.453 -0.7272  0.3244  0.2199
  845MPD2    C112413   0.799   3.816  16.564 -0.4674  0.6148  0.9630
  845MPD2    C212414   0.777   3.682  16.576 -0.9105 -0.8563 -0.1131
  845MPD2    C312415   0.704   3.615  16.480  0.1729  0.5537  0.3845
  845MPD2    C412416   0.649   3.683  16.374  0.2607 -0.2508  0.3840
  845MPD2    C512417   0.663   3.816  16.358  0.1419  0.0769 -0.1739
  845MPD2     H12418   0.808   3.635  16.668 -1.4754  1.1796  1.1140
  845MPD2    H112419   0.595   3.623  16.302 -0.9357  0.3939  0.7376
  845MPD2    H212420   0.749   3.987  16.442  0.4845 -0.1011 -2.1069
  845MPD2    H312421   0.616   3.859  16.269 -0.9399 -0.2960  0.2189
  845MPD2     N12422   0.674   3.477  16.486  0.0992 -0.1224 -0.1268
  845MPD2    H512423   0.616   3.444  16.409 -1.5638  1.2366  0.5425
  845MPD2    N112424   0.857   3.899  16.667 -0.3092  0.3492 -0.2400
  845MPD2    H712425   0.852   4.000  16.653  0.6436  0.3376 -0.6816
  846MPD2     C12426   2.323   4.185  13.350 -0.1532  0.1240  0.6429
  846MPD2    C112427   2.292   4.298  13.431  0.2039 -0.5622 -0.3292
  846MPD2    C212428   2.283   4.279  13.562  0.2924  0.6956  0.2748
  846MPD2    C312429   2.326   4.163  13.625  0.1804  0.4765 -0.6645
  846MPD2    C412430   2.370   4.057  13.542 -0.4390 -0.1158  0.3906
  846MPD2    C512431   2.368   4.072  13.410  0.0661  0.8925  0.2934
  846MPD2     H12432   2.248   4.359  13.625 -1.9031 -0.3335  0.3821
  846MPD2    H112433   2.405   3.959  13.574  1.3680 -0.1995 -1.8374
  846MPD2    H212434   2.333   4.183  13.242 -1.4671  1.5029  0.4836
  846MPD2    H312435   2.389   3.989  13.343 -0.2044  1.8591 -0.9929
  846MPD2     N12436   2.327   4.156  13.766  0.7658 -0.0432 -0.4003
  846MPD2    H512437   2.284   4.238  13.810  4.1258  0.5943  1.7063
  846MPD2    N112438   2.259   4.423  13.381 -0.2101  0.3696 -0.2426
  846MPD2    H712439   2.263   4.496  13.451 -2.1744 -1.4130  1.7145
  847MPD2     C12440   2.267   0.709  14.316  0.3246  0.1014 -0.0875
  847MPD2    C112441   2.303   0.834  14.359  0.3392  0.0185 -1.0389
  847MPD2    C212442   2.436   0.871  14.396  0.4536  0.3286  0.0273
  847MPD2    C312443   2.528   0.762  14.399 -0.5968  0.0912  0.1832
  847MPD2    C412444   2.491   0.638  14.349 -0.2194  0.8326 -0.6402
  847MPD2    C512445   2.360   0.611  14.298  1.0525  0.6121 -0.6621
  847MPD2     H12446   2.463   0.970  14.429  2.7737 -0.8646  1.7637
  847MPD2    H112447   2.572   0.568  14.330  0.4005  1.5359 -0.5826
  847MPD2    H212448   2.168   0.691  14.276 -0.1981  1.4256  0.6300
  847MPD2    H312449   2.330   0.520  14.247  1.9463  0.1366 -0.3376
  847MPD2     N12450   2.654   0.791  14.459  0.5749  0.2016  0.4988
  847MPD2    H512451   2.671   0.889  14.476 -2.3380  1.3010 -2.8732
  847MPD2    N112452   2.216   0.943  14.365  1.0854 -0.8951  0.2511
  847MPD2    H712453   2.259   1.033  14.387  3.1693 -2.8728  4.1629
  848MPD2     C12454   0.322   3.714  16.185  0.1201 -0.5631  0.7445
  848MPD2    C112455   0.262   3.757  16.299  0.0642 -0.1740  0.4008
  848MPD2    C212456   0.231   3.890  16.320  0.0238  0.1463  0.4788
  848MPD2    C312457   0.271   3.983  16.226 -0.2761  0.3777  0.2117
  848MPD2    C412458   0.327   3.937  16.103 -0.1308 -0.2292 -0.6531
  848MPD2    C512459   0.351   3.804  16.086  0.5554 -0.0968 -0.6671
  848MPD2     H12460   0.174   3.929  16.404  0.3340  0.3438  0.5968
  848MPD2    H112461   0.351   4.008  16.026 -2.4281 -0.6499 -1.7701
  848MPD2    H212462   0.354   3.612  16.170  0.4004 -0.3136 -0.4113
  848MPD2    H312463   0.391   3.764  15.994 -0.3925 -2.1507 -0.1962
  848MPD2     N12464   0.242   4.121  16.231 -0.0621 -0.0990  0.6379
  848MPD2    H512465   0.259   4.182  16.151 -1.5065  0.0773  0.4604
  848MPD2    N112466   0.210   3.666  16.394 -0.1614  0.9491 -0.3796
  848MPD2    H712467   0.158   3.704  16.472 -0.5134 -2.0128  0.8448
  849MPD2     C12468   4.036   3.609  14.183 -0.4006 -0.3960 -0.3245
  849MPD2    C112469   4.132   3.607  14.087 -0.4293  0.3939  0.0839
  849MPD2    C212470   4.260   3.576  14.122 -0.1994 -0.8960 -0.1262
  849MPD2    C312471   4.303   3.546  14.253  0.4248 -0.0696 -0.4120
  849MPD2    C412472   4.207   3.556  14.344  0.5726 -0.1587 -0.3621
  849MPD2    C512473   4.076   3.588  14.316 -0.0094  0.8481  0.6847
  849MPD2     H12474   4.331   3.579  14.041  1.0919 -0.2974  1.0416
  849MPD2    H112475   4.237   3.531  14.445  3.1478 -0.4009 -1.2073
  849MPD2    H212476   3.932   3.627  14.157 -0.0619  2.4241  0.3909
  849MPD2    H312477   4.004   3.587  14.397  0.1243 -0.8802  0.7820
  849MPD2     N12478   4.437   3.510  14.276  0.2180  0.1887 -0.0306
  849MPD2    H512479   4.491   3.507  14.190 -0.2288 -0.2786 -0.2952
  849MPD2    N112480   4.115   3.630  13.949 -0.2218  0.7661  0.4735
  849MPD2    H712481   4.193   3.605  13.889  0.1644  0.2454  1.1823
  850MPD2     C12482   2.075   1.678  14.622  0.0764 -0.2694  0.7172
  850MPD2    C112483   2.126   1.728  14.741 -0.2365 -0.1674  0.5461
  850MPD2    C212484   2.259   1.727  14.763 -0.3858 -0.2666  0.0030
  850MPD2    C312485   2.353   1.679  14.670  0.6991 -0.6962  0.2048
  850MPD2    C412486   2.302   1.629  14.552  0.7443  0.1869 -0.8791
  850MPD2    C512487   2.167   1.628  14.529 -0.1873  0.1031  0.0228
  850MPD2     H12488   2.283   1.765  14.862  4.6004  2.2672 -2.1697
  850MPD2    H112489   2.375   1.586  14.484  0.3695 -0.5676 -0.8050
  850MPD2    H212490   1.969   1.673  14.601  0.2601  0.8111 -0.4968
  850MPD2    H312491   2.126   1.576  14.443  1.2358  4.0241 -3.0192
  850MPD2     N12492   2.491   1.663  14.703  0.5776  0.1213  0.1446
  850MPD2    H512493   2.542   1.595  14.647  1.6814  0.0649  1.2115
  850MPD2    N112494   2.031   1.770  14.836  0.2375  0.0023 -0.6395
  850MPD2    H712495   1.937   1.732  14.829  1.0099 -2.0963  0.5542
  851MPD2     C12496   2.410   1.428  15.443  0.3615 -0.1296 -0.5886
  851MPD2    C112497   2.322   1.410  15.340 -0.3831  0.7719 -0.3934
  851MPD2    C212498   2.329   1.299  15.255  0.2478  0.1822 -0.1985
  851MPD2    C312499   2.429   1.204  15.278  0.2702 -0.8042  0.3749
  851MPD2    C412500   2.518   1.228  15.377  0.2636 -0.1601 -0.3002
  851MPD2    C512501   2.506   1.334  15.463 -0.4534 -0.3538 -0.5600
  851MPD2     H12502   2.268   1.290  15.166  0.2050  1.5628 -0.3072
  851MPD2    H112503   2.594   1.157  15.406  1.2588  0.4310 -1.4539
  851MPD2    H212504   2.401   1.507  15.518 -1.3996  0.4252 -1.3766
  851MPD2    H312505   2.576   1.353  15.544 -0.3726 -0.0868 -0.6929
  851MPD2     N12506   2.444   1.101  15.190 -0.6811  0.1860  0.7764
  851MPD2    H512507   2.376   1.090  15.114  0.7144 -0.5221 -0.3694
  851MPD2    N112508   2.222   1.507  15.334 -0.6935  0.0225  0.3155
  851MPD2    H712509   2.237   1.583  15.400 -0.7861 -1.3188  1.8769
  852MPD2     C12510   1.486   3.220  10.034  0.2504 -0.0355 -0.1534
  852MPD2    C112511   1.607   3.250  10.099  0.2972  0.1866  0.5963
  852MPD2    C212512   1.659   3.378  10.087 -0.4657  0.0244  0.2156
  852MPD2    C312513   1.594   3.480  10.018  0.2879 -0.3228  0.0588
  852MPD2    C412514   1.485   3.442   9.947  0.4715 -0.0596 -1.1898
  852MPD2    C512515   1.427   3.319   9.961  0.2533  0.3824  0.9635
  852MPD2     H12516   1.744   3.402  10.150  0.7789 -2.1373 -0.6286
  852MPD2    H112517   1.429   3.510   9.884 -0.4218  1.0827  0.8091
  852MPD2    H212518   1.441   3.123  10.048  0.7022  0.0701  1.9068
  852MPD2    H312519   1.339   3.303   9.901  0.8003 -1.0430  0.5342
  852MPD2     N12520   1.661   3.605  10.016 -0.3047 -0.2355 -0.2215
  852MPD2    H512521   1.739   3.622  10.079  0.6325  2.2043 -2.0698
  852MPD2    N112522   1.668   3.158  10.185  0.2635  0.2349 -0.7973
  852MPD2    H712523   1.756   3.190  10.224 -1.0922  1.0663  1.6194
  853MPD2     C12524   3.264   3.595  12.467  0.6116  0.5506  0.5209
  853MPD2    C112525   3.324   3.708  12.418  0.0085 -0.0632 -0.3411
  853MPD2    C212526   3.339   3.732  12.280 -0.2382  1.1194 -0.0274
  853MPD2    C312527   3.291   3.634  12.192 -0.1353  0.2294 -0.4931
  853MPD2    C412528   3.212   3.533  12.238 -0.0184  0.5971 -0.0576
  853MPD2    C512529   3.201   3.515  12.376 -0.3476  0.4241 -0.0200
  853MPD2     H12530   3.381   3.824  12.241 -0.6369  0.4144 -2.1192
  853MPD2    H112531   3.179   3.461  12.164  0.3099  0.7600 -0.3653
  853MPD2    H212532   3.252   3.563  12.570  1.1903  0.9462  0.7038
  853MPD2    H312533   3.158   3.424  12.414  1.5079 -0.9643 -1.2139
  853MPD2     N12534   3.299   3.649  12.056  0.0495  0.4823 -0.1310
  853MPD2    H512535   3.247   3.584  11.998 -1.4662  0.9690  0.6872
  853MPD2    N112536   3.380   3.805  12.508  0.7648  0.2065  0.1511
  853MPD2    H712537   3.369   3.776  12.605 -2.7335  1.1298  0.0438
  854MPD2     C12538   0.802   4.052  13.022 -0.3771  0.2336  0.3966
  854MPD2    C112539   0.787   3.975  12.910 -0.2105  0.4584  0.0044
  854MPD2    C212540   0.871   3.870  12.896  0.1878  0.2761  0.1815
  854MPD2    C312541   0.968   3.848  12.997 -0.2538 -0.1580  0.0187
  854MPD2    C412542   0.987   3.942  13.092  0.7783  1.4331  0.4354
  854MPD2    C512543   0.900   4.042  13.106 -1.1382  0.9372 -0.1757
  854MPD2     H12544   0.858   3.800  12.813  0.3006  0.8359 -0.3069
  854MPD2    H112545   1.061   3.924  13.168 -0.4161 -1.7902  0.8125
  854MPD2    H212546   0.733   4.134  13.040 -0.6577 -0.0754  0.7283
  854MPD2    H312547   0.905   4.105  13.194  2.2880  3.0073 -1.8703
  854MPD2     N12548   1.071   3.745  12.999  0.3118 -0.1966 -0.0116
  854MPD2    H512549   1.155   3.773  13.050 -0.0682  1.3958 -0.2512
  854MPD2    N112550   0.673   3.993  12.821  0.0505 -0.8540  0.3976
  854MPD2    H712551   0.619   4.076  12.845 -1.1740 -1.6390  0.3702
  855MPD2     C12552   1.659   3.682  13.535  0.0334 -0.0018 -0.2812
  855MPD2    C112553   1.585   3.563  13.511 -0.4811  0.7692 -0.9530
  855MPD2    C212554   1.529   3.551  13.385  0.1696  0.2720 -0.0799
  855MPD2    C312555   1.546   3.645  13.290  0.1485  0.5822 -0.5501
  855MPD2    C412556   1.623   3.753  13.317  0.1425 -0.4771  0.3715
  855MPD2    C512557   1.687   3.770  13.433  0.3861  0.8205 -0.2314
  855MPD2     H12558   1.460   3.470  13.367  0.3428  0.1638 -0.2509
  855MPD2    H112559   1.620   3.835  13.246 -1.5847 -1.6060 -0.8541
  855MPD2    H212560   1.691   3.712  13.634  1.8144 -3.3728  0.1712
  855MPD2    H312561   1.738   3.863  13.454  0.3675  0.2877  2.2469
  855MPD2     N12562   1.493   3.619  13.162 -0.2127  0.6678  0.1378
  855MPD2    H512563   1.483   3.700  13.102 -1.3891 -0.7024 -1.5101
  855MPD2    N112564   1.539   3.474  13.611 -0.3005 -0.4287  0.3188
  855MPD2    H712565   1.484   3.394  13.582 -1.6287  0.4365  0.4317
  856MPD2     C12566   3.011   4.419  13.799  0.4757  0.6216  0.6924
  856MPD2    C112567   3.105   4.496  13.853 -0.2482 -0.0229 -1.1457
  856MPD2    C212568   3.098   4.638  13.842  0.0918 -0.4313 -0.3487
  856MPD2    C312569   3.002   4.702  13.762  0.6195  0.1160  0.1994
  856MPD2    C412570   2.896   4.626  13.712  0.3243 -0.1267  0.6616
  856MPD2    C512571   2.911   4.485  13.729  0.7969  0.5554  0.3773
  856MPD2     H12572   3.174   4.696  13.893 -0.0343 -0.7428  0.1894
  856MPD2    H112573   2.810   4.657  13.654  0.1144 -2.6692 -0.3666
  856MPD2    H212574   3.006   4.312  13.814  0.1196  0.3598 -1.3252
  856MPD2    H312575   2.830   4.424  13.689 -0.3971  0.9989  2.1015
  856MPD2     N12576   3.013   0.117  13.735 -0.1403  0.4393 -0.2951
  856MPD2    H512577   2.947   0.162  13.673  0.0308  1.5005  0.2998
  856MPD2    N112578   3.209   4.440  13.927 -0.9235 -0.6601  0.1668
  856MPD2    H712579   3.268   4.504  13.979  2.0944 -1.8462 -1.8069
  857MPD2     C12580   0.015   1.894  12.557 -0.6824  0.0343  0.4619
  857MPD2    C112581   0.077   1.906  12.678 -0.7700 -0.3362 -0.5263
  857MPD2    C212582   0.071   2.021  12.749  0.1244 -0.3972 -0.3947
  857MPD2    C312583   4.724   2.130  12.690  0.1845 -0.0342  0.2007
  857MPD2    C412584   4.674   2.119  12.561 -0.0507  0.2331  0.1261
  857MPD2    C512585   4.682   2.002  12.501  0.5702  1.1286 -0.3783
  857MPD2     H12586   0.112   2.037  12.848  1.1853  2.3524 -1.2886
  857MPD2    H112587   4.621   2.198  12.509  0.1114  1.0378  1.1815
  857MPD2    H212588   0.013   1.797  12.510 -1.5049  0.0745  0.4015
  857MPD2    H312589   4.642   1.994  12.401  2.5635 -0.7486 -1.0001
  857MPD2     N12590   0.013   2.252  12.750  0.4107 -0.7407  0.3542
  857MPD2    H512591   0.070   2.245  12.834 -0.6556 -0.7551  1.0721
  857MPD2    N112592   0.146   1.787  12.717  0.1362 -0.5508 -0.1680
  857MPD2    H712593   0.144   1.717  12.643  1.9792  0.3362 -1.0471
  858MPD2     C12594   0.311   0.830  16.506 -0.4517  0.1655  0.0657
  858MPD2    C112595   0.440   0.856  16.461  0.0604  0.3313 -0.6667
  858MPD2    C212596   0.486   0.987  16.466  0.2808 -0.3981 -0.1551
  858MPD2    C312597   0.408   1.090  16.516  1.0227  0.4326  0.0230
  858MPD2    C412598   0.281   1.057  16.558 -0.1197 -0.1590 -0.0539
  858MPD2    C512599   0.235   0.930  16.555 -1.1458 -0.1069  1.3500
  858MPD2     H12600   0.587   1.000  16.427  0.8815  2.2240  2.2587
  858MPD2    H112601   0.218   1.136  16.596 -0.6598 -1.0304  0.8380
  858MPD2    H212602   0.278   0.727  16.506 -0.7287  0.2563  0.0290
  858MPD2    H312603   0.136   0.907  16.594 -0.9117 -0.2296  1.8598
  858MPD2     N12604   0.455   1.223  16.544 -0.7174  0.5517 -0.0070
  858MPD2    H512605   0.390   1.292  16.579  1.3996  2.2520  0.5766
  858MPD2    N112606   0.536   0.760  16.419  0.7250  0.2206 -0.4165
  858MPD2    H712607   0.627   0.799  16.398  0.8355 -0.4615 -1.2192
  859MPD2     C12608   4.411   3.232  15.719  0.0878 -0.0650 -0.4373
  859MPD2    C112609   4.406   3.226  15.584  0.3830  0.4915  0.2351
  859MPD2    C212610   4.395   3.104  15.526 -0.6148 -0.0579 -0.8592
  859MPD2    C312611   4.363   2.995  15.603 -0.7537 -0.2320 -0.2715
  859MPD2    C412612   4.362   2.997  15.744  0.9682  0.2747  0.5495
  859MPD2    C512613   4.400   3.116  15.792  0.5915  0.3586 -0.0174
  859MPD2     H12614   4.415   3.084  15.421  3.4811  0.2929 -0.1532
  859MPD2    H112615   4.328   2.912  15.801  0.1279 -0.7163 -1.4221
  859MPD2    H212616   4.409   3.322  15.779  2.3682  0.5119 -1.2192
  859MPD2    H312617   4.402   3.117  15.901 -1.9066  0.0021  0.0249
  859MPD2     N12618   4.354   2.861  15.554  0.2101  0.6123 -0.1104
  859MPD2    H512619   4.337   2.784  15.618  1.2517  0.2238 -0.2920
  859MPD2    N112620   4.420   3.346  15.512 -0.6397  0.1108  0.7931
  859MPD2    H712621   4.437   3.433  15.562 -0.7817  0.0707  0.9145
  860MPD2     C12622   1.905   3.415  11.756 -0.6245 -0.1829 -0.1067
  860MPD2    C112623   1.843   3.530  11.814  0.2147 -0.7447 -1.1683
  860MPD2    C212624   1.710   3.520  11.854 -0.2810  0.0232 -0.0262
  860MPD2    C312625   1.634   3.406  11.833 -0.5017  0.3447 -0.0101
  860MPD2    C412626   1.690   3.302  11.765  0.7438  0.0477 -0.3859
  860MPD2    C512627   1.820   3.310  11.730  0.1139 -1.1525  0.3835
  860MPD2     H12628   1.661   3.604  11.902  1.5650  0.1518  1.6288
  860MPD2    H112629   1.642   3.210  11.733  2.7506 -0.2730 -2.5036
  860MPD2    H212630   2.009   3.405  11.726 -1.4036 -1.5874 -2.3968
  860MPD2    H312631   1.857   3.229  11.668  0.3456  0.5978 -1.7773
  860MPD2     N12632   1.497   3.413  11.873  0.3454 -0.7078  0.1789
  860MPD2    H512633   1.464   3.494  11.924 -0.2159  0.3560 -1.9134
  860MPD2    N112634   1.903   3.651  11.841 -0.4639 -0.8573 -0.3681
  860MPD2    H712635   1.848   3.722  11.890 -0.0285 -0.1161 -0.9551
  861MPD2     C12636   0.534   1.466  10.838  0.0857  0.1992 -0.3854
  861MPD2    C112637   0.511   1.581  10.912  0.8257  1.0812 -0.1736
  861MPD2    C212638   0.420   1.674  10.863  0.4207 -0.8492  0.3844
  861MPD2    C312639   0.352   1.649  10.744 -0.9396  0.6968  0.3563
  861MPD2    C412640   0.380   1.539  10.674  0.1011  0.5838  0.4112
  861MPD2    C512641   0.471   1.448  10.720 -0.4661 -0.3890 -0.7200
  861MPD2     H12642   0.413   1.772  10.909 -1.8814 -0.6882 -0.2988
  861MPD2    H112643   0.336   1.520  10.576 -0.2491  3.2399  0.0547
  861MPD2    H212644   0.609   1.395  10.870  0.2755  1.0769  1.0736
  861MPD2    H312645   0.493   1.360  10.660  1.5100 -0.4539  0.0853
  861MPD2     N12646   0.256   1.741  10.684  0.3963  1.3005 -0.3299
  861MPD2    H512647   0.226   1.710  10.592 -0.1679  1.3615 -0.1648
  861MPD2    N112648   0.598   1.597  11.028  0.4851 -0.1967 -0.0532
  861MPD2    H712649   0.628   1.507  11.063 -1.0394 -0.9425 -0.6113
  862MPD2     C12650   4.608   1.920  10.110 -0.1617  0.2214  0.3378
  862MPD2    C112651   4.593   1.888  10.240  0.1795 -0.5127 -0.1271
  862MPD2    C212652   4.532   1.769  10.277 -0.1843  0.6129 -0.3266
  862MPD2    C312653   4.467   1.688  10.185 -0.2774  0.2510 -0.2129
  862MPD2    C412654   4.472   1.736  10.056 -0.0329 -0.2039  0.4220
  862MPD2    C512655   4.538   1.849  10.025 -0.8470 -0.4114 -0.1625
  862MPD2     H12656   4.554   1.739  10.378 -1.4986 -0.0814 -0.2362
  862MPD2    H112657   4.442   1.673   9.973 -0.5113  1.0699 -0.3687
  862MPD2    H212658   4.664   2.008  10.080  0.7338 -0.8733 -1.1862
  862MPD2    H312659   4.537   1.888   9.923 -0.3849 -0.7203 -0.2851
  862MPD2     N12660   4.419   1.558  10.215  0.2168 -0.4863  0.1939
  862MPD2    H512661   4.407   1.495  10.137 -0.4106  0.0611 -0.1528
  862MPD2    N112662   4.658   1.954  10.342  0.4030 -0.0419 -0.2181
  862MPD2    H712663   4.639   1.924  10.438 -3.0416 -1.2955 -1.3010
  863MPD2     C12664   3.645   4.316  16.433 -0.3336 -0.1202  0.0866
  863MPD2    C112665   3.570   4.373  16.529  0.2587  0.4074 -0.2249
  863MPD2    C212666   3.626   4.400  16.652 -0.0928 -0.2284  0.4351
  863MPD2    C312667   3.768   4.378  16.663 -0.2236  0.7829  0.7698
  863MPD2    C412668   3.845   4.338  16.558 -0.7048 -0.8884  0.2888
  863MPD2    C512669   3.783   4.293  16.449 -0.6939 -0.0230  0.5101
  863MPD2     H12670   3.562   4.425  16.736 -0.9848  0.5163 -0.4640
  863MPD2    H112671   3.952   4.324  16.571 -0.5600  0.1635  0.1860
  863MPD2    H212672   3.595   4.296  16.339  1.0625 -0.0585 -0.6683
  863MPD2    H312673   3.839   4.259  16.363 -1.9430  0.6817 -0.5779
  863MPD2     N12674   3.838   4.401  16.784 -0.3936 -0.2601  0.4176
  863MPD2    H512675   3.937   4.386  16.770 -0.2908  0.9740 -0.2699
  863MPD2    N112676   3.438   4.397  16.494  0.4660  0.3377  0.2459
  863MPD2    H712677   3.394   4.351  16.416  2.0881  1.7428 -1.4960
  864MPD2     C12678   3.983   2.116  16.571  0.0801  0.5293  0.3580
  864MPD2    C112679   3.977   1.987  16.528 -0.2596  0.1899 -0.1109
  864MPD2    C212680   4.086   1.931  16.462  0.5402  0.5479  0.4695
  864MPD2    C312681   4.198   2.006  16.424  0.1187 -0.1247 -0.3474
  864MPD2    C412682   4.206   2.127  16.479 -0.0428 -0.1626  0.3379
  864MPD2    C512683   4.102   2.178  16.555 -0.0241  0.2667 -0.3928
  864MPD2     H12684   4.083   1.827  16.432  2.7743  0.9690 -1.1278
  864MPD2    H112685   4.286   2.197  16.459  0.4691 -0.0834  2.5763
  864MPD2    H212686   3.905   2.158  16.633  0.2678 -1.7534  2.1335
  864MPD2    H312687   4.106   2.282  16.587 -3.4546  0.6936 -1.3141
  864MPD2     N12688   4.306   1.957  16.346  0.0072 -0.2926 -0.0326
  864MPD2    H512689   4.289   1.870  16.296  0.7988 -0.8532  0.6753
  864MPD2    N112690   3.865   1.907  16.567 -0.7259 -0.3837  0.1626
  864MPD2    H712691   3.801   1.951  16.633 -2.0931 -2.1044 -0.0230
  865MPD2     C12692   4.489   1.310  15.613 -0.4896  1.1636 -0.7595
  865MPD2    C112693   4.406   1.330  15.725 -0.9983  0.3488  0.2719
  865MPD2    C212694   4.410   1.447  15.797 -0.6451 -0.0242 -0.7582
  865MPD2    C312695   4.508   1.537  15.764  0.7066  0.9064  0.1415
  865MPD2    C412696   4.595   1.513  15.655  0.6494 -0.4912  0.1186
  865MPD2    C512697   4.584   1.401  15.579 -0.6634 -0.8636  0.2109
  865MPD2     H12698   4.343   1.461  15.881 -1.2578  1.3841 -1.4767
  865MPD2    H112699   4.675   1.584  15.637  1.0655 -0.7651  0.9052
  865MPD2    H212700   4.486   1.220  15.554  1.1560  0.1001  0.7831
  865MPD2    H312701   4.652   1.384  15.497  0.4882 -1.7205  1.3411
  865MPD2     N12702   4.538   1.649  15.856 -0.5697  0.9479  0.3992
  865MPD2    H512703   4.621   1.706  15.842 -0.7613  1.3112  0.7294
  865MPD2    N112704   4.331   1.218  15.766  0.2109  0.0963  0.1731
  865MPD2    H712705   4.339   1.132  15.713  1.2781  2.1178 -2.9477
  866MPD2     C12706   1.336   2.022  10.935 -0.3073  1.0571 -0.2381
  866MPD2    C112707   1.263   1.944  10.842  0.4035 -0.0439 -0.3836
  866MPD2    C212708   1.121   1.948  10.853  0.2115  0.2882 -1.3235
  866MPD2    C312709   1.057   2.052  10.933 -0.2491  0.1538  0.3016
  866MPD2    C412710   1.131   2.127  11.008 -0.6227 -0.2238 -0.2223
  866MPD2    C512711   1.267   2.101  11.026 -0.2055 -0.2944 -0.0866
  866MPD2     H12712   1.058   1.881  10.795 -2.5999  2.2744 -0.5427
  866MPD2    H112713   1.101   2.211  11.070 -0.1798  0.5378 -1.0307
  866MPD2    H212714   1.444   2.016  10.933 -0.3794 -1.1500  2.9965
  866MPD2    H312715   1.325   2.160  11.096 -0.9594  0.2980  0.0472
  866MPD2     N12716   0.915   2.065  10.930  0.2094 -0.6068  0.4175
  866MPD2    H512717   0.859   2.015  10.862 -2.2512  1.0986  1.1911
  866MPD2    N112718   1.332   1.853  10.763 -0.2173 -0.0977  0.1737
  866MPD2    H712719   1.428   1.872  10.737 -0.6035  0.7925 -0.6499
  867MPD2     C12720   3.396   1.778  16.421  0.2028  0.4129  0.7715
  867MPD2    C112721   3.384   1.804  16.554  0.0608 -0.2424  0.6118
  867MPD2    C212722   3.353   1.936  16.596  0.0923 -0.2620  0.0194
  867MPD2    C312723   3.333   2.038  16.503 -0.2028  0.4015 -0.4420
  867MPD2    C412724   3.354   1.997  16.364 -0.1865  0.0106 -0.7856
  867MPD2    C512725   3.389   1.869  16.326 -0.2845 -0.0647 -0.2800
  867MPD2     H12726   3.352   1.957  16.703  2.2535 -1.1713  0.1928
  867MPD2    H112727   3.349   2.072  16.285 -0.1938  3.1015  2.1615
  867MPD2    H212728   3.406   1.673  16.398  0.1965  0.1855  1.8238
  867MPD2    H312729   3.400   1.847  16.220 -2.0026 -3.5702  0.2597
  867MPD2     N12730   3.285   2.171  16.535 -0.3174  0.2067 -0.5071
  867MPD2    H512731   3.253   2.230  16.459 -1.2557  0.3363 -0.0119
  867MPD2    N112732   3.387   1.690  16.644  0.7296  0.1825  0.2573
  867MPD2    H712733   3.385   1.599  16.600 -1.5481 -0.3113  1.3725
  868MPD2     C12734   0.378   4.428  12.357  0.3549  0.3124  0.5548
  868MPD2    C112735   0.400   4.418  12.491 -0.0886  0.1212 -0.3292
  868MPD2    C212736   0.313   4.473  12.582 -0.2540  1.7610 -0.4623
  868MPD2    C312737   0.198   4.533  12.540 -0.4512 -0.0031 -0.2473
  868MPD2    C412738   0.171   4.542  12.406 -0.4163 -0.3412  0.4469
  868MPD2    C512739   0.265   4.491  12.318 -0.4193 -0.3117  0.4785
  868MPD2     H12740   0.344   4.485  12.685  1.6513 -1.6906 -0.6205
  868MPD2    H112741   0.083   4.589  12.362  1.0449 -0.6163 -2.7424
  868MPD2    H212742   0.440   4.382  12.281  0.2356 -0.4247  0.9018
  868MPD2    H312743   0.238   4.494  12.213 -2.4708  0.4505  1.0260
  868MPD2     N12744   0.121   4.610  12.628  0.3226 -0.3940  0.1586
  868MPD2    H512745   0.158   4.612  12.722  1.2089  2.3721 -0.2644
  868MPD2    N112746   0.536   4.379  12.520  0.3373  0.7967  0.3936
  868MPD2    H712747   0.590   4.344  12.441 -0.3311  2.7816 -0.9218
  869MPD2     C12748   0.913   3.198   1.865 -0.1627  0.3864  0.3693
  869MPD2    C112749   0.834   3.166   1.756 -0.2040  0.3647 -0.9948
  869MPD2    C212750   0.857   3.240   1.640 -0.0207  1.2808  0.1604
  869MPD2    C312751   0.938   3.352   1.641  0.2496  0.1925 -0.6597
  869MPD2    C412752   1.016   3.380   1.756 -0.7801  0.5742 -0.4846
  869MPD2    C512753   1.001   3.296   1.862  0.0754  0.5497 -0.3526
  869MPD2     H12754   0.790   3.226   1.556  3.2779 -0.3156 -2.1784
  869MPD2    H112755   1.094   3.455   1.757 -1.1187  0.9336 -0.6688
  869MPD2    H212756   0.910   3.135   1.953 -0.7917  0.7600  0.6177
  869MPD2    H312757   1.057   3.306   1.955  0.4360  0.6732 -0.5850
  869MPD2     N12758   0.941   3.460   1.546  0.0398  0.0108 -0.1719
  869MPD2    H512759   1.015   3.528   1.558  1.6491 -1.6356 -0.6133
  869MPD2    N112760   0.740   3.067   1.779  0.2182 -0.0139 -0.4792
  869MPD2    H712761   0.746   3.024   1.871  3.0605  1.9042  0.2360
  870MPD2     C12762   0.076   2.564   0.808  0.4951 -0.3194  0.3851
  870MPD2    C112763   0.203   2.558   0.853  0.3832  0.6927 -0.3934
  870MPD2    C212764   0.315   2.554   0.758  0.0173 -0.0846  0.5370
  870MPD2    C312765   0.282   2.566   0.623 -0.7077 -0.1756  0.2266
  870MPD2    C412766   0.150   2.581   0.585  0.0605 -1.2255  0.2753
  870MPD2    C512767   0.048   2.569   0.674 -0.3954  0.1850 -0.4068
  870MPD2     H12768   0.419   2.562   0.789  0.5343 -1.3916 -0.8775
  870MPD2    H112769   0.118   2.600   0.483 -0.2043 -0.3083  0.5259
  870MPD2    H212770   4.717   2.548   0.874  0.5990  0.0457  0.6079
  870MPD2    H312771   4.668   2.581   0.656 -0.1376  0.7645 -1.5809
  870MPD2     N12772   0.388   2.586   0.529 -0.2577 -0.3395 -0.0433
  870MPD2    H512773   0.485   2.572   0.553  0.1484  0.1281 -1.4073
  870MPD2    N112774   0.210   2.549   0.997  0.2270 -0.1266 -0.1685
  870MPD2    H712775   0.121   2.538   1.044  1.1155 -0.3374  1.4279
  871MPD2     C12776   2.356   1.474  16.332 -0.4740  0.8200  0.1768
  871MPD2    C112777   2.299   1.445  16.455  0.2884  0.1290 -0.0543
  871MPD2    C212778   2.234   1.328  16.472  0.0980 -0.0420 -0.0180
  871MPD2    C312779   2.237   1.228  16.377 -0.8344 -0.1873  0.2654
  871MPD2    C412780   2.306   1.254  16.262  0.4404  0.5577  0.0745
  871MPD2    C512781   2.362   1.374  16.238 -0.0274 -0.1198  0.2156
  871MPD2     H12782   2.187   1.285  16.559  1.3713 -0.3831  0.5033
  871MPD2    H112783   2.315   1.187  16.177  1.2076 -1.4642  1.7472
  871MPD2    H212784   2.417   1.562  16.320 -1.7333  1.5246 -1.0288
  871MPD2    H312785   2.423   1.389  16.150 -2.3363 -0.6453 -1.4552
  871MPD2     N12786   2.185   1.097  16.420 -0.0377 -0.2061 -0.6068
  871MPD2    H512787   2.133   1.084  16.506  2.3488 -0.7610  0.7662
  871MPD2    N112788   2.294   1.557  16.548 -0.5823 -0.6657 -0.4002
  871MPD2    H712789   2.334   1.642  16.510 -3.9884  1.4187  0.7367
  872MPD2     C12790   2.855   4.228  13.498 -0.5962  0.2255  0.2560
  872MPD2    C112791   2.954   4.146  13.549  0.3937  0.3575 -0.3394
  872MPD2    C212792   2.925   4.040  13.628  0.6994  0.1659 -0.4006
  872MPD2    C312793   2.795   3.999  13.655 -0.3675 -0.3865 -0.1480
  872MPD2    C412794   2.698   4.066  13.585 -0.5911 -0.0957 -0.2200
  872MPD2    C512795   2.729   4.176  13.510 -0.0274 -0.0987 -0.2932
  872MPD2     H12796   3.005   3.992  13.683  0.0357 -1.1856 -0.6107
  872MPD2    H112797   2.594   4.035  13.588 -0.4663 -0.4936 -0.0232
  872MPD2    H212798   2.869   4.319  13.441  2.1372  0.4447  1.2957
  872MPD2    H312799   2.640   4.223  13.471  0.5178  0.6775 -0.6010
  872MPD2     N12800   2.769   3.894  13.753 -0.3644 -0.2349 -0.9930
  872MPD2    H512801   2.673   3.865  13.773 -0.1718  0.4111  0.8928
  872MPD2    N112802   3.087   4.177  13.535  0.1214  0.4480 -0.4966
  872MPD2    H712803   3.149   4.119  13.591 -0.5503  2.2319  2.1147
  873MPD2     C12804   0.566   3.893   1.477  0.3729  0.4182  0.4716
  873MPD2    C112805   0.447   3.878   1.399  0.8341 -0.8805  0.3550
  873MPD2    C212806   0.404   3.750   1.377 -0.0630 -0.0670  0.6151
  873MPD2    C312807   0.468   3.642   1.432 -0.3902 -0.4572 -0.0666
  873MPD2    C412808   0.573   3.661   1.515  0.1844 -0.4086  0.4002
  873MPD2    C512809   0.624   3.788   1.540  1.0670  0.1785  0.3393
  873MPD2     H12810   0.315   3.733   1.317  0.6885 -0.9887 -0.2512
  873MPD2    H112811   0.617   3.577   1.568 -0.7639 -1.4228 -0.4308
  873MPD2    H212812   0.600   3.989   1.513 -3.9095  1.0166  2.9344
  873MPD2    H312813   0.712   3.802   1.602  1.0761  2.2049 -0.1373
  873MPD2     N12814   0.420   3.507   1.412  0.3889  0.8255 -0.4416
  873MPD2    H512815   0.465   3.439   1.471 -0.5248  0.6430  0.0423
  873MPD2    N112816   0.384   4.004   1.359  0.5068 -0.3669  0.1165
  873MPD2    H712817   0.440   4.088   1.367  0.1188 -0.0281 -0.7054
  874MPD2     C12818   4.266   4.385  16.381  0.3174  0.3253 -0.1023
  874MPD2    C112819   4.352   4.342  16.476 -0.1805  0.0527 -0.3452
  874MPD2    C212820   4.483   4.393  16.472  0.7140 -0.7888 -0.2206
  874MPD2    C312821   4.528   4.464  16.364  0.5999  0.1427  0.6349
  874MPD2    C412822   4.436   4.506  16.265  0.0510 -0.3831  0.0757
  874MPD2    C512823   4.303   4.469  16.277  0.3478  0.2839 -0.1281
  874MPD2     H12824   4.552   4.382  16.555  0.3198 -0.8425  0.0985
  874MPD2    H112825   4.461   4.564  16.177 -2.0674  0.1422 -0.1804
  874MPD2    H212826   4.169   4.337  16.371  0.0270  1.0443 -0.6627
  874MPD2    H312827   4.230   4.491  16.200 -0.6004 -0.4875  0.5429
  874MPD2     N12828   4.667   4.485  16.355  0.4604  0.0863  0.2317
  874MPD2    H512829   4.721   4.442  16.430 -0.2139  2.0509  1.8468
  874MPD2    N112830   4.308   4.244  16.575 -0.1977  0.1744 -0.3160
  874MPD2    H712831   4.209   4.220  16.575 -0.1427 -0.0678  0.3935
  875MPD2     C12832   0.797   2.220  14.306  0.1569 -0.0563 -0.0450
  875MPD2    C112833   0.673   2.258  14.353 -0.4962 -0.2100 -0.2714
  875MPD2    C212834   0.657   2.294  14.483 -0.2828 -0.4559 -0.3910
  875MPD2    C312835   0.760   2.287  14.572 -0.0248  0.0465  0.4382
  875MPD2    C412836   0.885   2.260  14.519  0.2848 -0.3192  0.3529
  875MPD2    C512837   0.901   2.217  14.393  0.5214  0.3188  0.6943
  875MPD2     H12838   0.559   2.321  14.520  0.3350  1.4985 -0.1519
  875MPD2    H112839   0.970   2.257  14.586  1.9935 -1.6935 -1.8845
  875MPD2    H212840   0.815   2.200  14.201 -0.1759 -1.2168  0.1273
  875MPD2    H312841   0.999   2.193  14.352 -0.4313  0.5555 -1.6828
  875MPD2     N12842   0.750   2.320  14.708  0.2049  0.0128  0.7342
  875MPD2    H512843   0.828   2.288  14.763  0.2337 -2.5237 -0.8085
  875MPD2    N112844   0.559   2.266  14.271  1.1147 -0.4202  0.8778
  875MPD2    H712845   0.474   2.304  14.312  0.6680 -0.4584 -0.0043
  876MPD2     C12846   4.520   3.627  16.152  0.3949  0.0136  0.0130
  876MPD2    C112847   4.602   3.586  16.051  0.2373  0.0763  0.4840
  876MPD2    C212848   4.617   3.453  16.020 -0.6016 -0.0691 -0.3656
  876MPD2    C312849   4.559   3.363  16.109  0.1958 -0.2225  0.5559
  876MPD2    C412850   4.503   3.408  16.228 -0.1766  0.6901 -0.6059
  876MPD2    C512851   4.475   3.543  16.240 -0.8456 -0.3813  0.2791
  876MPD2     H12852   4.676   3.414  15.938 -0.1723  0.1888 -0.1763
  876MPD2    H112853   4.487   3.346  16.315 -0.9755  0.9421 -0.5694
  876MPD2    H212854   4.510   3.732  16.180 -1.7113 -0.8451  2.4432
  876MPD2    H312855   4.430   3.573  16.334  0.7178 -0.3896  1.0304
  876MPD2     N12856   4.588   3.226  16.095  1.0979  0.0724 -0.3762
  876MPD2    H512857   4.641   3.204  16.011 -0.6854  1.5204 -1.8646
  876MPD2    N112858   4.657   3.692  15.974 -0.4402  0.2484 -0.3782
  876MPD2    H712859   4.631   3.786  16.003  1.1254  0.6373 -0.2549
  877MPD2     C12860   4.492   4.073  15.377  0.1694 -0.1531  0.0312
  877MPD2    C112861   4.625   4.109  15.391 -0.1226  0.6397  0.4541
  877MPD2    C212862   4.691   4.162  15.278 -0.2196  0.0922  0.4235
  877MPD2    C312863   4.628   4.187  15.157  0.1779  0.2448  0.2053
  877MPD2    C412864   4.495   4.156  15.153 -0.3390  0.2089 -0.2216
  877MPD2    C512865   4.435   4.097  15.254  0.5536  0.0658  0.4296
  877MPD2     H12866   0.070   4.183  15.296  0.3704 -1.9943 -0.6105
  877MPD2    H112867   4.444   4.165  15.058 -0.5699  0.0782 -0.1077
  877MPD2    H212868   4.440   4.021  15.456  1.3868 -0.1961  0.8028
  877MPD2    H312869   4.334   4.062  15.237  0.1488  0.9327  1.0536
  877MPD2     N12870   4.685   4.258  15.052 -0.2598  0.7400 -0.6541
  877MPD2    H512871   4.635   4.268  14.964 -0.3478  0.5003 -0.6330
  877MPD2    N112872   4.697   4.093  15.507 -0.1267 -0.1068  0.5798
  877MPD2    H712873   0.070   4.119  15.509  0.2647 -1.3643 -2.7882
  878MPD2     C12874   3.940   3.146  13.083  0.7120  0.4572 -0.6765
  878MPD2    C112875   4.055   3.222  13.069  0.2229 -0.0598 -0.5274
  878MPD2    C212876   4.102   3.287  13.186 -0.7287  0.0023  0.5075
  878MPD2    C312877   4.017   3.295  13.299 -0.4209 -0.7996  0.2487
  878MPD2    C412878   3.895   3.233  13.301 -0.0489  0.6145  0.1458
  878MPD2    C512879   3.870   3.145  13.202  0.0304  0.0179  0.0718
  878MPD2     H12880   4.180   3.362  13.191  0.8486 -1.6284  0.3257
  878MPD2    H112881   3.840   3.213  13.392 -1.4318 -3.7890 -1.6699
  878MPD2    H212882   3.906   3.088  12.999 -2.0439  1.2040 -0.0914
  878MPD2    H312883   3.781   3.083  13.207 -0.3539  0.4952 -0.9917
  878MPD2     N12884   4.055   3.383  13.404  0.3779 -0.2072  0.0642
  878MPD2    H512885   4.156   3.394  13.410  0.4946 -1.4634  0.3345
  878MPD2    N112886   4.104   3.237  12.939  0.2203 -0.4095 -0.3809
  878MPD2    H712887   4.082   3.163  12.873  0.1234 -0.7161 -0.0060
  879MPD2     C12888   0.338   0.239  17.217  0.5743  0.3928  0.3174
  879MPD2    C112889   0.229   0.314  17.178  0.0936  1.3093 -0.1303
  879MPD2    C212890   0.152   0.273  17.070  0.2226  0.0045  0.1039
  879MPD2    C312891   0.178   0.150  17.017 -0.2247 -0.3490 -0.4748
  879MPD2    C412892   0.271   0.072  17.066 -0.1859 -0.5014  0.9107
  879MPD2    C512893   0.356   0.111  17.164  0.3729 -0.7279 -0.0467
  879MPD2     H12894   0.079   0.344  17.032 -1.3807 -1.2532  0.8863
  879MPD2    H112895   0.302   4.701  17.028 -2.1581 -1.3156  1.3511
  879MPD2    H212896   0.410   0.282  17.285 -0.0254 -0.4234  1.4640
  879MPD2    H312897   0.439   0.056  17.206  0.4590 -1.9017 -1.7466
  879MPD2     N12898   0.102   0.104  16.910  0.2980  0.9330  0.3556
  879MPD2    H512899   0.104   0.004  16.893 -0.5973  1.3991 -2.4034
  879MPD2    N112900   0.223   0.447  17.230  0.3299 -0.3495  0.0178
  879MPD2    H712901   0.291   0.491  17.291  2.1816 -0.8986 -1.6294
  880MPD2     C12902   0.798   2.207   0.203 -0.3249 -0.8450 -0.8090
  880MPD2    C112903   0.904   2.154   0.276  0.2149  0.3187 -0.1495
  880MPD2    C212904   0.885   2.049   0.362  0.2659  0.0099  0.2282
  880MPD2    C312905   0.752   2.009   0.380 -0.4566  0.6602 -1.1839
  880MPD2    C412906   0.644   2.074   0.325  0.1941 -0.7322 -0.0908
  880MPD2    C512907   0.666   2.174   0.233 -0.5392 -0.0358  0.1237
  880MPD2     H12908   0.967   2.001   0.415 -0.4699 -1.6616 -0.1654
  880MPD2    H112909   0.540   2.049   0.341  0.5446 -1.7599  0.5432
  880MPD2    H212910   0.823   2.293   0.142 -0.9426 -2.0583 -2.7900
  880MPD2    H312911   0.592   2.227   0.175 -1.7175 -0.9167  0.8137
  880MPD2     N12912   0.733   1.913   0.477  0.0067 -0.5502 -0.1205
  880MPD2    H512913   0.815   1.861   0.506  0.0168  0.0222  0.8850
  880MPD2    N112914   1.027   2.216   0.249  0.1366  0.2385 -0.9193
  880MPD2    H712915   1.030   2.289   0.178  0.9237 -1.5363 -2.7224
  881MPD2     C12916   1.637   2.776  17.414  0.4062 -0.0693 -0.2755
  881MPD2    C112917   1.607   2.641  17.407 -0.6665 -0.6444  0.1959
  881MPD2    C212918   1.532   2.585  17.512  0.2727  0.5452 -0.1489
  881MPD2    C312919   1.487   2.666  17.620 -0.3342  0.6470  0.1749
  881MPD2    C412920   1.528   2.800  17.626  0.1850  0.0332 -0.0161
  881MPD2    C512921   1.594   2.853  17.520 -0.3930 -0.1002  0.2093
  881MPD2     H12922   1.509   2.479  17.511  0.6453  0.4815 -1.8532
  881MPD2    H112923   1.498   2.867   0.001  0.1607 -1.3217  1.0985
  881MPD2    H212924   1.685   2.826  17.330 -3.4754  1.4253 -1.5750
  881MPD2    H312925   1.610   2.961  17.523  0.5651 -0.2416  0.1713
  881MPD2     N12926   1.398   2.619   0.015 -0.3427 -0.0733  0.7170
  881MPD2    H512927   1.363   2.690   0.079  2.6612  0.7852  1.4106
  881MPD2    N112928   1.639   2.581  17.290  0.2751 -0.0642  0.5751
  881MPD2    H712929   1.680   2.642  17.220 -1.0951  0.2721  0.0559
  882MPD2     C12930   0.092   4.129  14.292  0.5628 -0.5843 -0.7515
  882MPD2    C112931   0.022   4.212  14.370  0.7003 -0.3732  0.0176
  882MPD2    C212932   4.610   4.219  14.353 -0.9581 -0.8507 -0.6326
  882MPD2    C312933   4.541   4.148  14.255  0.1027  0.0442 -0.0780
  882MPD2    C412934   4.614   4.076  14.164  0.4558  0.1543 -0.5503
  882MPD2    C512935   0.023   4.067  14.186 -0.2118 -0.1591 -0.1359
  882MPD2     H12936   4.554   4.288  14.415  0.9637 -2.2831  2.6905
  882MPD2    H112937   4.566   4.031  14.078 -0.2452 -0.2975  0.0707
  882MPD2    H212938   0.198   4.114  14.307  0.3850 -0.1651  0.9353
  882MPD2    H312939   0.072   3.996  14.120 -0.6157  0.6831 -1.3399
  882MPD2     N12940   4.401   4.164  14.225 -0.0828  0.5535 -0.2848
  882MPD2    H512941   4.364   4.113  14.145 -1.0166  1.2414 -0.2822
  882MPD2    N112942   0.086   4.282  14.477  0.2889 -0.7188 -0.2879
  882MPD2    H712943   0.186   4.281  14.494  0.3166 -0.3810 -0.4236
  883MPD2     C12944   1.565   3.452  15.813 -1.2258  0.2762 -0.4782
  883MPD2    C112945   1.608   3.550  15.723  0.2722 -0.1601 -0.8681
  883MPD2    C212946   1.680   3.658  15.767  0.0537 -0.2495  0.2931
  883MPD2    C312947   1.684   3.683  15.906  0.0891  0.0627  0.9879
  883MPD2    C412948   1.640   3.588  15.990 -0.3624 -0.4591 -0.0225
  883MPD2    C512949   1.596   3.469  15.947 -0.6230  0.5183  1.1750
  883MPD2     H12950   1.726   3.729  15.699 -1.0181  1.8668  1.8042
  883MPD2    H112951   1.650   3.589  16.098  0.5253 -4.5639 -0.0407
  883MPD2    H212952   1.517   3.360  15.782 -0.2363 -0.5934  0.5463
  883MPD2    H312953   1.574   3.394  16.022 -1.6763  0.6554  0.9999
  883MPD2     N12954   1.745   3.801  15.958 -0.1803 -0.7829 -0.9482
  883MPD2    H512955   1.785   3.872  15.898  0.3744 -1.3436 -1.2459
  883MPD2    N112956   1.594   3.537  15.583  0.6907  0.3461  0.1120
  883MPD2    H712957   1.630   3.611  15.523  1.8917 -1.2204 -1.1128
  884MPD2     C12958   3.532   4.469  15.345 -0.5841 -0.0402  0.9949
  884MPD2    C112959   3.540   4.547  15.232 -0.0444 -0.2702 -0.3798
  884MPD2    C212960   3.437   4.628  15.194  0.7100  0.3326  1.1146
  884MPD2    C312961   3.327   4.644  15.277  0.7288  0.5185  0.1338
  884MPD2    C412962   3.316   4.568  15.391  0.0477 -0.3928 -0.1900
  884MPD2    C512963   3.416   4.482  15.422 -0.5173  0.4500  0.0643
  884MPD2     H12964   3.440   4.678  15.097 -0.8871  0.3970  1.0901
  884MPD2    H112965   3.228   4.566  15.454  2.3361 -1.1290  2.9964
  884MPD2    H212966   3.614   4.410  15.383  1.4216  1.2567 -1.3961
  884MPD2    H312967   3.400   4.417  15.507  2.8684 -1.2302 -0.5770
  884MPD2     N12968   3.223   0.006  15.241 -0.1737 -0.2015  0.1869
  884MPD2    H512969   3.233   0.064  15.158 -1.6714  0.2906  0.3404
  884MPD2    N112970   3.640   4.526  15.139 -0.1603 -0.0200 -0.2135
  884MPD2    H712971   3.640   4.590  15.061  2.1023  0.0494 -0.1465
  885MPD2     C12972   1.986   0.788   0.368  1.0711  0.6968 -0.3447
  885MPD2    C112973   1.969   0.659   0.351 -0.0518  0.0577  0.1271
  885MPD2    C212974   1.890   0.617   0.250  0.0372 -0.4081  0.2219
  885MPD2    C312975   1.828   0.712   0.168  0.1229 -0.2363  0.9491
  885MPD2    C412976   1.844   0.843   0.187 -0.9018  0.3093  0.5667
  885MPD2    C512977   1.929   0.883   0.286  0.8099 -0.3765  0.4032
  885MPD2     H12978   1.853   0.515   0.251 -1.0691 -0.0053  0.5151
  885MPD2    H112979   1.788   0.918   0.132  1.3199  0.3420 -1.6247
  885MPD2    H212980   2.052   0.818   0.448 -1.7777  0.6001  2.0375
  885MPD2    H312981   1.950   0.988   0.304  0.4093 -0.1605 -0.3996
  885MPD2     N12982   1.748   0.661   0.062  0.0048 -0.2866 -0.0182
  885MPD2    H512983   1.734   0.561   0.063  2.1826 -0.5766  1.8461
  885MPD2    N112984   2.042   0.573   0.442 -0.4028 -0.0688  0.0916
  885MPD2    H712985   2.101   0.619   0.510 -1.9218  0.6755  0.9241
  886MPD2     C12986   3.441   3.068  15.026 -0.3120 -0.5042  0.1401
  886MPD2    C112987   3.569   3.121  15.040 -0.1798  0.2042  0.6006
  886MPD2    C212988   3.600   3.245  14.982 -0.2736 -0.5266  0.2823
  886MPD2    C312989   3.494   3.313  14.918  0.5417  0.0649 -0.2095
  886MPD2    C412990   3.362   3.264  14.917 -0.6867  0.0385 -0.3960
  886MPD2    C512991   3.332   3.138  14.971  0.0290  0.1621  0.1749
  886MPD2     H12992   3.699   3.290  14.977  0.6730 -2.8825 -2.2443
  886MPD2    H112993   3.275   3.314  14.875 -0.3090  0.6608 -0.4482
  886MPD2    H212994   3.413   2.974  15.073 -0.2343  0.0931  1.3559
  886MPD2    H312995   3.231   3.098  14.973 -0.2248  0.6517 -2.3790
  886MPD2     N12996   3.521   3.447  14.869 -0.2121 -0.3322 -0.1957
  886MPD2    H512997   3.620   3.470  14.870 -0.2199 -0.2423 -1.6544
  886MPD2    N112998   3.671   3.058  15.117 -0.2801 -0.3713 -0.3161
  886MPD2    H712999   3.757   3.106  15.141  0.3641 -1.6004 -0.1301
  887MPD2     C13000   4.093   3.318  15.622  0.5018 -0.7749  0.0836
  887MPD2    C113001   4.021   3.308  15.500  0.2076  0.4843 -0.3514
  887MPD2    C213002   4.001   3.425  15.430  0.1567  0.5763  0.2182
  887MPD2    C313003   4.039   3.549  15.489 -0.1181 -0.4851 -0.2612
  887MPD2    C413004   4.121   3.551  15.600  0.0608  0.2826 -0.0558
  887MPD2    C513005   4.141   3.435  15.667 -0.3401 -0.0617 -1.1009
  887MPD2     H13006   3.944   3.422  15.338 -3.8745 -0.5440  2.7938
  887MPD2    H113007   4.155   3.639  15.654  2.1304  0.5543 -1.7989
  887MPD2    H213008   4.115   3.228  15.679  0.6447 -0.9695 -0.2761
  887MPD2    H313009   4.196   3.433  15.761 -1.1451 -3.6958 -0.6994
  887MPD2     N13010   3.997   3.668  15.420  0.1012 -0.3965 -0.2577
  887MPD2    H513011   3.932   3.658  15.342  0.0649  1.9016 -0.5171
  887MPD2    N113012   3.970   3.188  15.446  0.7410  0.4226 -0.4590
  887MPD2    H713013   3.913   3.205  15.363  1.3701 -2.3099 -1.4697
  888MPD2     C13014   0.930   3.667  14.351  0.9782 -0.1556 -0.2939
  888MPD2    C113015   0.936   3.599  14.468 -0.1680 -0.4615 -0.1821
  888MPD2    C213016   1.021   3.636  14.570  0.2999  0.5635 -0.5501
  888MPD2    C313017   1.122   3.720  14.543  0.2505 -0.2810 -0.7883
  888MPD2    C413018   1.119   3.787  14.423 -0.0337 -0.0602 -0.0257
  888MPD2    C513019   1.023   3.763  14.331 -0.2740  0.6788  0.1387
  888MPD2     H13020   0.999   3.586  14.663  1.0625  0.3563 -0.4763
  888MPD2    H113021   1.197   3.858  14.398  1.1352 -0.8392  1.3397
  888MPD2    H213022   0.878   3.645  14.259 -0.4962  0.2348  0.4438
  888MPD2    H313023   1.037   3.821  14.240  0.3612 -0.2871 -0.3834
  888MPD2     N13024   1.218   3.754  14.647  0.2034  0.0507  0.0073
  888MPD2    H513025   1.209   3.714  14.740 -0.0809  0.2608  0.0698
  888MPD2    N113026   0.836   3.504  14.498  0.2571 -0.6378 -0.6904
  888MPD2    H713027   0.858   3.437  14.572 -0.6996  0.1055  0.2628
  889MPD2     C13028   4.370   2.897  13.139 -1.0162 -0.2275 -0.5596
  889MPD2    C113029   4.505   2.920  13.135 -0.0370 -1.0000 -0.3057
  889MPD2    C213030   4.547   3.034  13.197  0.0708  0.0211  0.1234
  889MPD2    C313031   4.469   3.127  13.259 -0.2279  0.2665 -0.6351
  889MPD2    C413032   4.334   3.089  13.281  0.3096 -0.0567  0.3163
  889MPD2    C513033   4.283   2.980  13.217 -0.5096  0.9770  0.0190
  889MPD2     H13034   4.651   3.059  13.181  0.5787 -1.3539  1.3108
  889MPD2    H113035   4.276   3.143  13.356  1.3188 -0.6700  1.5426
  889MPD2    H213036   4.327   2.806  13.099 -0.2328 -1.5560  1.6562
  889MPD2    H313037   4.176   2.968  13.228 -0.1423 -3.1233 -0.6635
  889MPD2     N13038   4.524   3.253  13.303  0.0265  0.7412 -0.1384
  889MPD2    H513039   4.618   3.279  13.277  0.0072  0.1319 -0.7891
  889MPD2    N113040   4.600   2.851  13.054 -0.7947  0.1740  0.7408
  889MPD2    H713041   4.694   2.889  13.057  0.4042 -2.8532  0.7695
  890MPD2     C13042   4.509   4.680  14.276 -0.8722 -0.5933  0.5158
  890MPD2    C113043   4.588   0.065  14.308 -1.0088  0.2960 -0.7673
  890MPD2    C213044   4.636   0.074  14.438 -0.1733 -0.1996  0.2493
  890MPD2    C313045   4.591   4.717  14.536  0.4476 -0.1830 -0.1781
  890MPD2    C413046   4.515   4.606  14.500  0.3505  0.6719  0.1871
  890MPD2    C513047   4.476   4.591  14.371  0.1672  0.1372 -0.2745
  890MPD2     H13048   4.703   0.147  14.482 -0.9374  0.0032  1.0784
  890MPD2    H113049   4.474   4.532  14.567  1.8975 -1.2688 -1.0180
  890MPD2    H213050   4.474   4.676  14.174 -0.9115  0.7964  0.4824
  890MPD2    H313051   4.415   4.504  14.346  1.6734 -1.8094  2.7879
  890MPD2     N13052   4.628   0.014  14.671  0.2739  0.5604 -0.1488
  890MPD2    H513053   4.678   0.099  14.695 -1.0814  0.9958  1.1013
  890MPD2    N113054   4.614   0.160  14.203 -0.4039  0.1201  0.1646
  890MPD2    H713055   4.568   0.151  14.113  0.1950 -1.8162  0.0368
  891MPD2     C13056   2.645   3.506  15.967  0.4573 -0.0839  0.5509
  891MPD2    C113057   2.556   3.495  16.073 -0.3639  0.8049 -0.3874
  891MPD2    C213058   2.604   3.498  16.204 -1.1437  0.7119 -0.0419
  891MPD2    C313059   2.738   3.530  16.228  0.3147  0.2460  0.3843
  891MPD2    C413060   2.821   3.552  16.122 -0.5809 -0.3633 -0.1322
  891MPD2    C513061   2.772   3.528  15.997 -0.9296 -0.0131  0.3843
  891MPD2     H13062   2.548   3.492  16.298  0.2071 -0.8211  0.6674
  891MPD2    H113063   2.926   3.580  16.124 -0.5361 -0.6592  1.4379
  891MPD2    H213064   2.619   3.494  15.862  2.1736  0.2359  0.0821
  891MPD2    H313065   2.843   3.541  15.916 -1.6165  0.8569 -0.0774
  891MPD2     N13066   2.786   3.546  16.364  0.5174 -0.1746  0.3944
  891MPD2    H513067   2.725   3.543  16.444 -0.5590  0.3158 -0.4182
  891MPD2    N113068   2.421   3.481  16.050 -0.1649  0.1595 -0.0573
  891MPD2    H713069   2.386   3.491  15.955 -1.3088  1.8053  0.5453
  892MPD2     C13070   3.714   4.221  14.824 -0.0303  0.5752 -0.0613
  892MPD2    C113071   3.646   4.272  14.718  0.7201 -0.1397 -0.0382
  892MPD2    C213072   3.721   4.332  14.625 -0.3209  0.3702  0.4025
  892MPD2    C313073   3.863   4.335  14.630  0.2726  0.6752  0.3455
  892MPD2    C413074   3.931   4.288  14.740  0.3141 -0.1250 -0.1581
  892MPD2    C513075   3.851   4.222  14.830 -0.0479 -0.6292 -0.6707
  892MPD2     H13076   3.679   4.386  14.541  0.3778 -0.2442 -0.3347
  892MPD2    H113077   4.038   4.274  14.752  0.2667 -1.1685 -0.9245
  892MPD2    H213078   3.672   4.164  14.906 -0.5877  1.1433  0.0462
  892MPD2    H313079   3.904   4.154  14.896 -0.7105 -1.7082 -1.2634
  892MPD2     N13080   3.938   4.387  14.519  0.5406  0.3955 -0.2690
  892MPD2    H513081   4.037   4.407  14.533  0.6937 -0.8943  0.4301
  892MPD2    N113082   3.505   4.276  14.697  0.0695 -0.1202 -0.1775
  892MPD2    H713083   3.476   4.316  14.608  1.7603  1.9629  0.1758
  893MPD2     C13084   4.443   3.087   0.287 -0.3321 -0.0650  0.1376
  893MPD2    C113085   4.437   3.032   0.419 -0.0559 -0.6803 -0.3990
  893MPD2    C213086   4.320   3.000   0.474 -0.4251 -0.4676 -0.4069
  893MPD2    C313087   4.198   3.009   0.403 -0.5185 -0.0716  0.7402
  893MPD2    C413088   4.211   3.056   0.275 -0.7709  0.2138  0.2081
  893MPD2    C513089   4.330   3.095   0.208 -0.5373  0.3805 -0.2518
  893MPD2     H13090   4.311   2.948   0.569 -0.7681  0.1302 -0.1134
  893MPD2    H113091   4.115   3.071   0.227 -0.6046 -0.0502 -0.2074
  893MPD2    H213092   4.532   3.137   0.253 -1.3512  2.2541  0.8311
  893MPD2    H313093   4.315   3.171   0.132 -1.4064  1.2518  0.7962
  893MPD2     N13094   4.074   2.979   0.452 -0.1519 -0.5694 -0.2380
  893MPD2    H513095   3.993   2.993   0.393 -1.3774  0.2067  1.6442
  893MPD2    N113096   4.563   3.018   0.487 -0.3626  0.1584  0.5703
  893MPD2    H713097   4.642   3.065   0.443 -0.7515 -0.3153 -0.6320
  894MPD2     C13098   2.725   1.861   1.477  0.1982 -0.4997  0.1669
  894MPD2    C113099   2.697   1.752   1.399 -0.3000  0.4230 -0.1133
  894MPD2    C213100   2.782   1.708   1.295  0.1679 -0.2882 -0.3120
  894MPD2    C313101   2.908   1.756   1.287 -0.5636 -0.4314  0.2095
  894MPD2    C413102   2.940   1.863   1.361  0.1992  0.2434 -0.5580
  894MPD2    C513103   2.851   1.912   1.455  1.0061  0.7614  0.2325
  894MPD2     H13104   2.755   1.624   1.232  0.1761 -1.4836  1.2704
  894MPD2    H113105   3.033   1.919   1.356 -0.1676  0.9239  0.2895
  894MPD2    H213106   2.665   1.904   1.557  0.3228 -2.2494  1.1958
  894MPD2    H313107   2.884   2.000   1.509 -0.3643  2.0751 -1.0508
  894MPD2     N13108   2.997   1.706   1.181 -0.2739  0.1045  0.3681
  894MPD2    H513109   2.969   1.618   1.141 -0.2325 -0.4118  1.4672
  894MPD2    N113110   2.578   1.687   1.416 -0.0606  0.6471  1.0437
  894MPD2    H713111   2.570   1.607   1.354 -0.0670  0.2217  1.5860
  895MPD2     C13112   3.071   3.119  13.452 -0.4305  0.6989  0.6879
  895MPD2    C113113   2.940   3.095  13.437 -0.4921  0.2611  0.3258
  895MPD2    C213114   2.897   2.962  13.451 -0.3592 -0.1775 -0.3815
  895MPD2    C313115   2.989   2.861  13.468 -0.3080  0.0609  0.0310
  895MPD2    C413116   3.117   2.896  13.507 -0.3864  0.1280  0.8214
  895MPD2    C513117   3.154   3.026  13.507  0.4367 -0.1467 -0.6268
  895MPD2     H13118   2.793   2.942  13.424 -0.9384  1.0631  0.9777
  895MPD2    H113119   3.182   2.822  13.553  1.8370  2.3485  1.2796
  895MPD2    H213120   3.104   3.221  13.464  0.0550  0.4908  1.1451
  895MPD2    H313121   3.253   3.058  13.539 -0.1568 -1.3039  2.4146
  895MPD2     N13122   2.935   2.730  13.464 -0.3575 -1.3977  0.1548
  895MPD2    H513123   2.834   2.720  13.454 -0.4573 -1.2866  1.1031
  895MPD2    N113124   2.848   3.192  13.410  0.0966  0.6322 -0.5733
  895MPD2    H713125   2.750   3.165  13.412  0.1044  0.8117  1.3881
  896MPD2     C13126   0.508   0.914   0.899  0.1199 -0.4267  0.1837
  896MPD2    C113127   0.392   0.974   0.930  0.4496 -0.1286 -0.0560
  896MPD2    C213128   0.285   0.898   0.971 -0.2300  0.2926 -0.0372
  896MPD2    C313129   0.289   0.760   0.994  0.7639  0.8164  0.2735
  896MPD2    C413130   0.413   0.703   0.975  0.1233 -0.2906 -0.1543
  896MPD2    C513131   0.522   0.780   0.934  0.4273  0.2120 -0.4866
  896MPD2     H13132   0.190   0.942   1.001 -1.8873 -3.2782 -0.0886
  896MPD2    H113133   0.430   0.596   0.984  0.4268 -0.3168 -1.1066
  896MPD2    H213134   0.589   0.979   0.868 -0.2898  0.7353  1.5756
  896MPD2    H313135   0.623   0.742   0.935  1.2307  2.3441  1.7153
  896MPD2     N13136   0.171   0.696   1.021  0.6943  0.3193  0.2759
  896MPD2    H513137   0.088   0.754   1.016 -0.6278 -1.3889  2.1790
  896MPD2    N113138   0.392   1.117   0.918 -0.6265 -0.1525 -0.3267
  896MPD2    H713139   0.471   1.155   0.867 -0.2583 -1.9899 -1.1334
  897MPD2     C13140   1.003   2.073  10.456 -0.2761  0.0504 -0.4508
  897MPD2    C113141   1.080   2.165  10.528 -0.4756 -0.5871 -0.2307
  897MPD2    C213142   1.020   2.257  10.614  0.2685  0.1721  0.0561
  897MPD2    C313143   0.882   2.278  10.611  0.4871  0.6839  0.2363
  897MPD2    C413144   0.808   2.194  10.528  0.4967 -0.5761  0.1430
  897MPD2    C513145   0.867   2.091  10.455 -0.0039  0.3476 -0.3067
  897MPD2     H13146   1.079   2.337  10.657  1.1900 -0.9518  0.8570
  897MPD2    H113147   0.700   2.201  10.517  0.7255 -0.8662 -2.4811
  897MPD2    H213148   1.056   1.993  10.405  1.4878  2.2050 -1.9922
  897MPD2    H313149   0.798   2.031  10.398 -1.0177  1.8930 -0.7211
  897MPD2     N13150   0.827   2.381  10.688 -0.1227 -0.8675  0.1103
  897MPD2    H513151   0.883   2.424  10.760  0.6921  0.6581 -1.4581
  897MPD2    N113152   1.224   2.146  10.528  0.1914  0.3224 -0.5839
  897MPD2    H713153   1.260   2.083  10.457  1.1126 -1.0424  1.1158
  898MPD2     C13154   3.101   3.345   0.637 -0.5899 -0.4568  0.0837
  898MPD2    C113155   3.164   3.455   0.575  0.1098 -0.9572 -0.9324
  898MPD2    C213156   3.118   3.496   0.454 -0.1389  0.2248 -0.0221
  898MPD2    C313157   3.007   3.445   0.388 -0.6792  0.1823  0.3803
  898MPD2    C413158   2.931   3.349   0.451 -0.1224  0.0754  0.4603
  898MPD2    C513159   2.983   3.293   0.568  0.2312  0.3329 -0.0989
  898MPD2     H13160   3.181   3.572   0.408  2.1551 -1.3658  0.4781
  898MPD2    H113161   2.849   3.295   0.407 -0.7789  0.9513  0.6125
  898MPD2    H213162   3.140   3.297   0.726 -0.5199  0.2921  0.4559
  898MPD2    H313163   2.924   3.218   0.620  1.8778 -0.4292  0.6701
  898MPD2     N13164   2.981   3.503   0.262  0.3602 -0.6176 -0.1440
  898MPD2    H513165   3.044   3.577   0.233  0.3243 -0.0533  1.2267
  898MPD2    N113166   3.283   3.502   0.628 -0.1464 -0.2480  0.7047
  898MPD2    H713167   3.336   3.567   0.570  0.7067 -0.5919  1.1040
  899MPD2     C13168   4.116   4.393  17.667 -0.0297 -0.0853  0.4235
  899MPD2    C113169   4.003   4.416  17.592 -0.5607 -0.8973 -0.1873
  899MPD2    C213170   3.878   4.431  17.649  0.0029 -0.6480 -0.5971
  899MPD2    C313171   3.860   4.429   0.083  0.7900 -0.4659  0.8671
  899MPD2    C413172   3.974   4.404   0.159 -0.5305 -0.1957  0.1125
  899MPD2    C513173   4.095   4.399   0.095  0.4829  0.7010  0.7393
  899MPD2     H13174   3.805   4.474  17.582  0.1900 -0.6278 -0.7890
  899MPD2    H113175   3.984   4.417   0.267 -2.4862 -3.4334  0.6882
  899MPD2    H213176   4.214   4.393  17.621  1.0543 -1.9001  2.7568
  899MPD2    H313177   4.183   4.374   0.153  0.7652  2.2153  0.9690
  899MPD2     N13178   3.747   4.482   0.148  0.0258  0.1222 -0.5994
  899MPD2    H513179   3.763   4.529   0.237  2.5612 -0.2278 -0.8920
  899MPD2    N113180   4.026   4.414  17.448  0.7454 -0.1933 -0.1084
  899MPD2    H713181   4.120   4.403  17.413 -0.4786  1.2993 -3.8084
  900MPD2     C13182   3.550   1.285  12.291  0.0100  0.8327 -0.6251
  900MPD2    C113183   3.464   1.177  12.269 -1.1374  0.3560  0.4787
  900MPD2    C213184   3.349   1.208  12.202 -0.0352  0.5289  0.4954
  900MPD2    C313185   3.321   1.340  12.168  0.1721 -0.4658  0.0498
  900MPD2    C413186   3.407   1.449  12.196  0.0872 -0.3896  0.0241
  900MPD2    C513187   3.525   1.413  12.252  0.1438 -0.0820  0.1078
  900MPD2     H13188   3.281   1.128  12.176  4.1225 -2.1587 -2.0941
  900MPD2    H113189   3.395   1.551  12.162 -1.4561 -0.8888 -0.8933
  900MPD2    H213190   3.639   1.256  12.345  1.1857  1.5287 -2.1960
  900MPD2    H313191   3.587   1.500  12.272  1.2161 -0.2730 -2.3060
  900MPD2     N13192   3.195   1.352  12.100  0.4277 -0.1452 -0.5402
  900MPD2    H513193   3.144   1.266  12.079  2.0517 -1.5285  1.1948
  900MPD2    N113194   3.500   1.046  12.320 -0.1792  0.2008  0.6140
  900MPD2    H713195   3.590   1.030  12.364  0.2688  1.2617  0.0594
  901MPD2     C13196   3.306   0.019  12.646 -0.5272 -0.1995 -0.0767
  901MPD2    C113197   3.440   0.028  12.620 -0.1177  0.2139  0.2736
  901MPD2    C213198   3.491   0.155  12.582 -0.4341 -0.2565 -0.4852
  901MPD2    C313199   3.407   0.266  12.567 -0.0870  1.3854 -0.5402
  901MPD2    C413200   3.275   0.246  12.586 -0.0965 -0.2753 -0.1300
  901MPD2    C513201   3.224   0.129  12.631 -0.2697  0.3893 -0.4102
  901MPD2     H13202   3.593   0.170  12.548 -0.0942  1.1776  1.2030
  901MPD2    H113203   3.198   0.320  12.570 -1.0063 -1.4423 -1.0489
  901MPD2    H213204   3.265   4.650  12.678 -0.9556 -0.7763 -2.3756
  901MPD2    H313205   3.119   0.110  12.652 -0.0423 -2.0227 -1.4161
  901MPD2     N13206   3.469   0.384  12.518  0.3332 -0.1762 -0.4626
  901MPD2    H513207   3.569   0.385  12.499 -0.2402  0.0079 -3.5500
  901MPD2    N113208   3.516   4.633  12.635  0.6360  0.6297  0.0941
  901MPD2    H713209   3.464   4.548  12.656 -0.0659  1.0297 -0.0294
  902MPD2     C13210   2.792   4.059  13.156 -0.6475 -0.4382  0.0153
  902MPD2    C113211   2.704   4.080  13.051 -0.6458  0.3454 -0.1578
  902MPD2    C213212   2.712   3.982  12.952 -0.4398 -0.3508  0.0375
  902MPD2    C313213   2.793   3.866  12.952 -0.3066  0.1697  0.2840
  902MPD2    C413214   2.866   3.842  13.064 -0.1704 -1.4499 -0.2672
  902MPD2    C513215   2.865   3.939  13.165 -0.3604  0.0270  0.0477
  902MPD2     H13216   2.646   3.991  12.866 -0.5031 -0.4510  0.0761
  902MPD2    H113217   2.938   3.761  13.061 -0.0374 -1.3025 -1.0043
  902MPD2    H213218   2.798   4.123  13.244 -2.5191  0.3166 -0.4115
  902MPD2    H313219   2.924   3.909  13.251 -0.0845 -0.3060 -0.2588
  902MPD2     N13220   2.794   3.788  12.841  0.1246 -0.1951 -0.3936
  902MPD2    H513221   2.761   3.838  12.759  0.4782  1.5429  0.5066
  902MPD2    N113222   2.627   4.198  13.037 -0.4260 -0.4143 -0.0337
  902MPD2    H713223   2.632   4.273  13.105 -2.5594 -0.6197  0.3617
  903MPD2     C13224   2.679   4.028  12.286  0.6119  0.0103  0.7859
  903MPD2    C113225   2.616   3.904  12.282 -0.2863 -0.1535 -0.5247
  903MPD2    C213226   2.545   3.869  12.171 -0.2883  0.1272  0.0156
  903MPD2    C313227   2.518   3.960  12.072  0.6278  0.4862 -0.7898
  903MPD2    C413228   2.577   4.086  12.076  0.1190 -0.3168  0.8230
  903MPD2    C513229   2.660   4.113  12.175  0.5059  0.6910  0.2657
  903MPD2     H13230   2.512   3.768  12.151 -2.6977  1.0122 -0.4674
  903MPD2    H113231   2.565   4.157  11.995  1.4006  0.3428  1.2080
  903MPD2    H213232   2.741   4.057  12.370 -0.6580  1.1296  1.3489
  903MPD2    H313233   2.701   4.214  12.179 -0.7307  1.2026 -0.1400
  903MPD2     N13234   2.427   3.922  11.962  0.5725 -0.2367  0.8792
  903MPD2    H513235   2.391   3.830  11.983  0.3223  0.0350  1.6178
  903MPD2    N113236   2.631   3.815  12.395 -0.1000  0.3856  0.5618
  903MPD2    H713237   2.690   3.843  12.473  2.8773 -0.6952 -1.3037
  904MPD2     C13238   2.978   2.490  14.135  0.5503 -0.8575  0.8866
  904MPD2    C113239   3.027   2.607  14.081  0.2111 -0.4167  1.2141
  904MPD2    C213240   3.158   2.648  14.113 -0.3794 -0.4279 -0.1991
  904MPD2    C313241   3.243   2.565  14.183 -0.0150 -0.1941  0.4404
  904MPD2    C413242   3.188   2.445  14.233  0.1019  1.0915  0.2669
  904MPD2    C513243   3.058   2.415  14.218  0.1462 -1.0454 -0.9550
  904MPD2     H13244   3.195   2.748  14.092  3.0914 -1.8423 -0.7906
  904MPD2    H113245   3.249   2.374  14.286 -1.1131  0.1840  0.4685
  904MPD2    H213246   2.877   2.454  14.126  0.2121 -0.0803  1.6044
  904MPD2    H313247   3.023   2.322  14.260 -0.1917 -0.3359  0.3289
  904MPD2     N13248   3.380   2.600  14.192 -0.1392 -0.1909 -0.3334
  904MPD2    H513249   3.397   2.694  14.160  0.8644  0.2287  1.3914
  904MPD2    N113250   2.949   2.688  14.004 -0.3712  0.2650 -0.2774
  904MPD2    H713251   3.002   2.762  13.959 -1.7742  1.2115 -0.3511
  905MPD2     C13252   2.292   2.491  13.542  0.0953 -0.7917  0.6069
  905MPD2    C113253   2.406   2.567  13.519  0.1576 -0.9200  0.1908
  905MPD2    C213254   2.479   2.545  13.409  0.3855 -0.1221  0.4672
  905MPD2    C313255   2.446   2.443  13.326 -0.2230 -0.7690  0.2479
  905MPD2    C413256   2.324   2.386  13.331  0.0347 -0.2778 -0.2198
  905MPD2    C513257   2.245   2.403  13.443  0.1780 -0.4102 -0.1318
  905MPD2     H13258   2.562   2.610  13.383  1.8491 -1.1384  2.6310
  905MPD2    H113259   2.304   2.319  13.249  1.5896 -1.2406  0.1895
  905MPD2    H213260   2.230   2.511  13.629  2.6845 -2.0952  2.7685
  905MPD2    H313261   2.149   2.354  13.458  0.2876 -0.4762  0.3618
  905MPD2     N13262   2.528   2.394  13.218  0.1098  0.6638  0.6394
  905MPD2    H513263   2.479   2.345  13.143 -0.9920  0.3314  1.5657
  905MPD2    N113264   2.446   2.666  13.616  0.0208 -0.3501 -0.1025
  905MPD2    H713265   2.390   2.670  13.700  1.1107 -2.7413  0.7217
  906MPD2     C13266   4.524   3.002  11.272  0.4234  0.6333  0.5717
  906MPD2    C113267   4.512   2.923  11.162  0.4137  0.3717  0.1081
  906MPD2    C213268   4.524   2.790  11.179  0.2292  0.9009 -0.1291
  906MPD2    C313269   4.491   2.735  11.302  1.0622 -0.5045  0.0693
  906MPD2    C413270   4.490   2.820  11.411  0.4621 -0.1012  0.4124
  906MPD2    C513271   4.510   2.949  11.397  0.0981  0.1716  0.1572
  906MPD2     H13272   4.534   2.722  11.096 -0.2575  0.6265  0.0388
  906MPD2    H113273   4.462   2.778  11.507  0.7318 -1.7518 -0.2269
  906MPD2    H213274   4.527   3.110  11.265 -0.3582  0.5512 -1.0202
  906MPD2    H313275   4.512   3.012  11.485  4.8108 -1.1371  0.9643
  906MPD2     N13276   4.464   2.600  11.324  0.1532 -0.1490  0.5209
  906MPD2    H513277   4.411   2.581  11.409 -0.5598 -0.2387  0.0633
  906MPD2    N113278   4.521   2.963  11.025  0.0392 -0.0680 -0.2350
  906MPD2    H713279   4.534   2.894  10.952 -4.1649 -0.9340 -0.1092
  907MPD2     C13280   3.114   2.066  15.221  0.2099  0.0888 -0.6821
  907MPD2    C113281   3.236   2.008  15.193  0.3405  0.1618 -1.1686
  907MPD2    C213282   3.338   2.035  15.275  0.0182  0.3483 -0.0193
  907MPD2    C313283   3.335   2.133  15.370  0.1442  0.2732 -0.3990
  907MPD2    C413284   3.211   2.192  15.394 -0.2633  0.4784  0.5610
  907MPD2    C513285   3.100   2.152  15.325 -0.4230 -0.4077  0.2190
  907MPD2     H13286   3.435   1.987  15.263 -0.7270 -1.2091  0.2032
  907MPD2    H113287   3.193   2.268  15.469  1.2160 -0.7735  2.1841
  907MPD2    H213288   3.021   2.044  15.170 -0.0050 -1.6812  0.4676
  907MPD2    H313289   3.005   2.194  15.354 -0.3618 -1.4735  1.9669
  907MPD2     N13290   3.458   2.171  15.428 -0.3415 -0.4038  0.2391
  907MPD2    H513291   3.539   2.141  15.374 -0.6125 -0.3326 -0.2088
  907MPD2    N113292   3.257   1.916  15.093  0.0018 -0.7514 -0.0079
  907MPD2    H713293   3.338   1.856  15.100 -0.5269 -1.3998  0.5852
  908MPD2     C13294   1.452   2.304   9.794 -0.4881  0.5542 -0.4881
  908MPD2    C113295   1.371   2.201   9.840 -0.1205 -0.3289  0.0532
  908MPD2    C213296   1.402   2.159   9.968 -0.7885  0.0569  0.1469
  908MPD2    C313297   1.517   2.205  10.040  0.4699 -0.0166  0.4093
  908MPD2    C413298   1.603   2.299   9.984  0.0028  0.2776 -0.8886
  908MPD2    C513299   1.570   2.339   9.853 -0.0631 -0.6348 -0.8477
  908MPD2     H13300   1.340   2.081  10.011 -1.1037 -0.6177 -1.5508
  908MPD2    H113301   1.698   2.332  10.025  0.7985 -1.7143 -1.1287
  908MPD2    H213302   1.439   2.337   9.692 -1.4179 -1.4782 -1.0061
  908MPD2    H313303   1.639   2.406   9.804 -2.5969  1.4949 -1.4792
  908MPD2     N13304   1.537   2.150  10.170  0.7382  0.0613  0.3818
  908MPD2    H513305   1.467   2.090  10.212  1.7423  0.7036  2.9761
  908MPD2    N113306   1.265   2.140   9.764 -0.1741  0.5152  0.3455
  908MPD2    H713307   1.213   2.062   9.802 -1.3193  0.5290 -1.1684
  909MPD2     C13308   1.353   0.540  11.345 -0.1827  0.1271  0.9560
  909MPD2    C113309   1.375   0.677  11.346 -0.7220 -0.1269  0.1301
  909MPD2    C213310   1.374   0.744  11.470  0.0241 -0.2252 -0.7456
  909MPD2    C313311   1.355   0.680  11.591 -0.4407 -0.0844 -0.0464
  909MPD2    C413312   1.340   0.547  11.585 -0.2749 -0.6767  0.0413
  909MPD2    C513313   1.345   0.476  11.468  0.5801 -0.2143 -0.0978
  909MPD2     H13314   1.371   0.852  11.458 -1.6395 -0.4221 -2.1142
  909MPD2    H113315   1.315   0.487  11.672 -2.3707 -1.9222 -1.4167
  909MPD2    H213316   1.351   0.471  11.261  0.8062  0.6805  0.4734
  909MPD2    H313317   1.353   0.368  11.466  0.0135 -0.3067  1.8312
  909MPD2     N13318   1.320   0.762  11.703 -0.2724 -0.0063  0.6924
  909MPD2    H513319   1.308   0.862  11.693  2.5429 -0.0556 -3.1537
  909MPD2    N113320   1.396   0.752  11.236  0.4662  0.8170  0.1310
  909MPD2    H713321   1.411   0.851  11.247 -0.5803  0.8755  1.1193
  910MPD2     C13322   2.941   2.486  15.634  0.5518 -0.6630 -0.0996
  910MPD2    C113323   3.075   2.470  15.609  1.3001 -0.0929 -0.9817
  910MPD2    C213324   3.124   2.504  15.478 -0.2327  0.2217  0.3107
  910MPD2    C313325   3.039   2.566  15.383  0.2561  0.6638 -0.1751
  910MPD2    C413326   2.909   2.581  15.417 -0.4044 -0.1296 -0.5055
  910MPD2    C513327   2.860   2.539  15.538 -0.1524 -0.1181 -0.2397
  910MPD2     H13328   3.230   2.489  15.457 -0.1096  1.8303 -0.1889
  910MPD2    H113329   2.835   2.616  15.346 -2.5361  0.1697  1.8264
  910MPD2    H213330   2.897   2.453  15.728 -0.5096  0.4235 -0.2289
  910MPD2    H313331   2.753   2.539  15.555  0.0778 -0.8987  1.2503
  910MPD2     N13332   3.075   2.600  15.249  0.4860  0.8211  0.9118
  910MPD2    H513333   3.004   2.625  15.181  0.7439 -0.1533  0.2908
  910MPD2    N113334   3.163   2.400  15.701 -0.2029 -0.0161  0.5791
  910MPD2    H713335   3.254   2.368  15.671  0.4458 -1.3830  3.9522
  911MPD2     C13336   0.808   2.881  15.922  0.2522 -0.2628  0.1680
  911MPD2    C113337   0.841   2.974  16.025  0.0035 -0.5105 -0.5768
  911MPD2    C213338   0.755   3.078  16.061 -0.3135  0.4917  0.0660
  911MPD2    C313339   0.637   3.094  15.999 -0.3061  0.4983 -0.5560
  911MPD2    C413340   0.604   3.008  15.900 -1.1763  0.3037 -0.0410
  911MPD2    C513341   0.688   2.902  15.864 -0.4430 -0.1943  0.1815
  911MPD2     H13342   0.779   3.147  16.141  4.3096 -0.5439 -0.4310
  911MPD2    H113343   0.513   3.029  15.845  1.5743  2.7480 -3.6150
  911MPD2    H213344   0.868   2.801  15.881  0.8769  0.7236 -0.8117
  911MPD2    H313345   0.655   2.838  15.783 -1.5892 -0.5027  0.8821
  911MPD2     N13346   0.550   3.202  16.011 -0.1866 -0.2266  0.5840
  911MPD2    H513347   0.467   3.193  15.953  1.1202 -0.7689 -1.1903
  911MPD2    N113348   0.969   2.956  16.082  0.4305  0.5645 -0.0560
  911MPD2    H713349   1.015   2.869  16.058  0.4812  0.6961 -0.4281
  912MPD2     C13350   0.532   3.250  15.458  0.7685 -0.0372  0.7309
  912MPD2    C113351   0.423   3.230  15.540  0.0790 -0.8605  0.2784
  912MPD2    C213352   0.374   3.097  15.552  0.2695 -0.5518  0.2275
  912MPD2    C313353   0.442   2.991  15.499 -0.3296  0.0702 -0.8988
  912MPD2    C413354   0.555   3.019  15.422 -0.7897 -0.0640  0.0480
  912MPD2    C513355   0.595   3.146  15.399 -0.0495 -0.5085  0.1461
  912MPD2     H13356   0.282   3.078  15.606 -0.7624 -0.7169 -1.6237
  912MPD2    H113357   0.603   2.939  15.367 -0.2440 -0.1460  0.6447
  912MPD2    H213358   0.560   3.353  15.437 -4.1626  0.9344 -1.1430
  912MPD2    H313359   0.680   3.161  15.334 -1.5399 -3.2848 -2.4251
  912MPD2     N13360   0.399   2.857  15.539  0.1730 -0.1587 -0.5942
  912MPD2    H513361   0.310   2.858  15.587  0.4555  0.9557 -0.0825
  912MPD2    N113362   0.380   3.337  15.622  0.2950 -0.1717 -0.8908
  912MPD2    H713363   0.418   3.427  15.598 -0.9166  0.4766 -0.3707
  913MPD2     C13364   0.512   3.851   9.949 -0.5008 -0.1088  0.3877
  913MPD2    C113365   0.591   3.907  10.048 -0.0520  0.2689 -0.0537
  913MPD2    C213366   0.619   4.046  10.042  0.4223 -0.6242  0.3715
  913MPD2    C313367   0.568   4.120   9.933 -0.1826 -0.2234  0.3236
  913MPD2    C413368   0.485   4.059   9.839 -0.1737  0.2050 -0.3753
  913MPD2    C513369   0.455   3.928   9.850  0.0662  0.1255 -0.0261
  913MPD2     H13370   0.678   4.093  10.119  0.0812 -0.0300  0.2677
  913MPD2    H113371   0.442   4.113   9.755  0.6245  2.5333  0.7142
  913MPD2    H213372   0.478   3.748   9.945  0.9420 -0.5491 -0.6039
  913MPD2    H313373   0.382   3.881   9.785 -0.3605  0.4538  0.2093
  913MPD2     N13374   0.597   4.261   9.911 -0.3639 -0.3054 -0.1034
  913MPD2    H513375   0.553   4.307   9.832  0.2614 -1.0825 -0.9066
  913MPD2    N113376   0.642   3.826  10.154 -0.1765 -0.3482  0.2463
  913MPD2    H713377   0.630   3.725  10.146  1.2286 -0.6124  1.6175
  914MPD2     C13378   3.289   4.257  11.943 -0.3251  0.6226 -0.1578
  914MPD2    C113379   3.294   4.386  11.992  0.5180  0.3729  0.3211
  914MPD2    C213380   3.369   4.411  12.107  0.0867 -0.9692 -0.0010
  914MPD2    C313381   3.442   4.307  12.168  0.2718 -0.7263 -0.5836
  914MPD2    C413382   3.433   4.178  12.114 -0.6706  0.4647 -0.1166
  914MPD2    C513383   3.359   4.159  11.999 -0.3761 -0.0065 -0.2931
  914MPD2     H13384   3.376   4.508  12.156  0.3123 -1.1688  0.3624
  914MPD2    H113385   3.474   4.095  12.170 -1.0821  2.0018  2.4736
  914MPD2    H213386   3.231   4.231  11.856  0.9775 -0.0960 -0.8104
  914MPD2    H313387   3.344   4.057  11.965 -0.3284 -0.0717 -0.1182
  914MPD2     N13388   3.522   4.340  12.284 -0.4519  0.8827 -0.5189
  914MPD2    H513389   3.525   4.440  12.304 -1.3555  1.1882 -1.9071
  914MPD2    N113390   3.246   4.490  11.908  0.8149 -0.0696 -0.0734
  914MPD2    H713391   3.217   4.458  11.817  0.5111  1.8736 -0.6698
  915MPD2     C13392   2.385   0.154  15.880  0.4162  0.6778  0.5389
  915MPD2    C113393   2.257   0.178  15.834 -0.2695  0.1265 -0.8949
  915MPD2    C213394   2.146   0.164  15.916 -0.2283 -0.3120 -0.1723
  915MPD2    C313395   2.160   0.149  16.054  0.0335  0.8644  0.1112
  915MPD2    C413396   2.278   0.119  16.104  0.8373 -0.0118  0.2869
  915MPD2    C513397   2.395   0.120  16.015 -0.2952 -0.0137 -0.5288
  915MPD2     H13398   2.043   0.185  15.891 -0.3679 -0.0739  0.6145
  915MPD2    H113399   2.295   0.113  16.211 -1.0177  2.4004  0.7212
  915MPD2    H213400   2.475   0.152  15.819 -0.6660  0.9776 -1.0669
  915MPD2    H313401   2.491   0.109  16.064 -0.5357  1.8019  0.3414
  915MPD2     N13402   2.045   0.167  16.134 -0.5766  0.4213  0.5661
  915MPD2    H513403   1.964   0.188  16.076  1.1348  1.0135 -1.5543
  915MPD2    N113404   2.247   0.207  15.694  0.7344 -0.1742  0.0209
  915MPD2    H713405   2.334   0.193  15.643  1.2134  0.1471  0.7361
  916MPD2     C13406   0.011   2.947  15.574 -0.8373  0.2216 -0.1647
  916MPD2    C113407   4.698   2.839  15.647 -0.2242 -0.3108  0.1244
  916MPD2    C213408   4.655   2.725  15.586  0.3361  0.0838 -0.1041
  916MPD2    C313409   4.672   2.708  15.448 -0.1252 -0.2554  0.1095
  916MPD2    C413410   0.007   2.815  15.378  0.7437 -0.5701  0.1335
  916MPD2    C513411   0.033   2.937  15.435 -0.2069  0.1480 -0.3947
  916MPD2     H13412   4.615   2.641  15.641 -0.1886  1.4433  1.5668
  916MPD2    H113413   0.019   2.816  15.271  0.2239 -1.9971  0.0707
  916MPD2    H213414   0.022   3.040  15.628  0.8349  1.0577 -1.9322
  916MPD2    H313415   0.059   3.018  15.369  2.0362 -1.6583 -1.7163
  916MPD2     N13416   4.641   2.584  15.386 -0.5036 -0.0613 -0.1895
  916MPD2    H513417   4.618   2.506  15.446 -2.4800 -2.4683 -4.0860
  916MPD2    N113418   4.693   2.860  15.787  0.0499  0.2893 -0.2703
  916MPD2    H713419   0.007   2.947  15.819  0.9721  0.1769 -1.0854
  917MPD2     C13420   0.238   0.201  10.897 -0.4111 -0.8291  0.2365
  917MPD2    C113421   0.266   0.277  11.015  0.2638 -0.5391 -0.6366
  917MPD2    C213422   0.370   0.373  11.017 -0.3313 -0.5336 -0.7658
  917MPD2    C313423   0.428   0.404  10.894 -0.1002  0.2074 -0.1543
  917MPD2    C413424   0.412   0.324  10.784 -0.4022 -0.0664 -0.8307
  917MPD2    C513425   0.320   0.225  10.791 -0.5632  0.5245  0.5369
  917MPD2     H13426   0.375   0.443  11.099 -1.4900 -0.6766 -0.5754
  917MPD2    H113427   0.461   0.355  10.692  3.2904 -0.7095  0.9215
  917MPD2    H213428   0.159   0.128  10.885 -1.3560  0.4478 -1.3184
  917MPD2    H313429   0.304   0.169  10.700 -0.1403  0.4995  0.4787
  917MPD2     N13430   0.503   0.520  10.876  0.5013 -0.3151  0.2607
  917MPD2    H513431   0.515   0.553  10.781  1.9056 -4.1955 -0.8881
  917MPD2    N113432   0.192   0.242  11.134  0.1173  0.2819  0.1913
  917MPD2    H713433   0.123   0.168  11.126  0.7544 -0.0021 -2.5203
  918MPD2     C13434   0.158   0.595  12.102  0.0691  1.1462 -0.5500
  918MPD2    C113435   0.258   0.582  12.010 -0.3901  0.5648 -0.0712
  918MPD2    C213436   0.241   0.543  11.883  0.1180  0.0628  0.4513
  918MPD2    C313437   0.117   0.491  11.848  0.7642 -0.1437 -0.1273
  918MPD2    C413438   0.012   0.501  11.939 -0.4897 -0.1106  0.7443
  918MPD2    C513439   0.037   0.553  12.066  0.4209 -0.1751 -0.0842
  918MPD2     H13440   0.318   0.538  11.808 -0.9926 -1.6614 -0.5788
  918MPD2    H113441   4.643   0.460  11.906 -0.4279 -1.0449  1.7192
  918MPD2    H213442   0.165   0.641  12.200 -0.5740 -1.9060  0.9240
  918MPD2    H313443   4.680   0.564  12.136  1.6854 -2.2611  1.7358
  918MPD2     N13444   0.094   0.437  11.724 -0.3537  0.4484 -0.0972
  918MPD2    H513445   0.163   0.458  11.653  1.8376  2.7752  2.7126
  918MPD2    N113446   0.392   0.608  12.043  0.3679  0.3020  0.1660
  918MPD2    H713447   0.455   0.590  11.965 -0.8966 -0.1248 -0.7637
  919MPD2     C13448   1.010   3.900  11.725 -0.8898 -0.3167  0.4340
  919MPD2    C113449   0.960   3.794  11.650  0.0216 -0.1263  0.6397
  919MPD2    C213450   0.975   3.800  11.512  0.6523  0.2626 -0.5873
  919MPD2    C313451   1.027   3.904  11.443 -0.0258 -0.3209 -0.2909
  919MPD2    C413452   1.085   4.002  11.518  0.4698  0.1724  0.5227
  919MPD2    C513453   1.076   4.002  11.653  0.4423  0.6669 -0.5222
  919MPD2     H13454   0.933   3.715  11.460 -0.9445  0.7446 -0.0982
  919MPD2    H113455   1.115   4.092  11.466 -2.7305 -0.4349 -2.3658
  919MPD2    H213456   0.996   3.909  11.833 -0.4226 -1.4310  0.5824
  919MPD2    H313457   1.105   4.091  11.707  2.1821 -0.3351  0.1956
  919MPD2     N13458   1.018   3.924  11.303 -0.2431 -0.3007 -0.5689
  919MPD2    H513459   1.066   4.002  11.260  0.5962 -1.6002 -1.9786
  919MPD2    N113460   0.879   3.693  11.711 -0.3685 -0.4365  0.1063
  919MPD2    H713461   0.837   3.618  11.657  0.1296 -1.1845  0.7621
  920MPD2     C13462   0.731   4.509  10.576 -0.4757 -0.0654 -0.3222
  920MPD2    C113463   0.649   4.408  10.536  0.6524  0.6479  0.4650
  920MPD2    C213464   0.660   4.291  10.617  0.1843  0.0264  0.6958
  920MPD2    C313465   0.729   4.281  10.733 -0.1182  0.1282 -0.2478
  920MPD2    C413466   0.789   4.397  10.777 -0.6781  0.1599 -0.0652
  920MPD2    C513467   0.804   4.502  10.688  0.7051  0.4821 -0.4533
  920MPD2     H13468   0.614   4.203  10.575  1.1165  0.3522 -0.9870
  920MPD2    H113469   0.836   4.407  10.873 -0.7149 -1.5365  0.1341
  920MPD2    H213470   0.733   4.605  10.525  1.9031 -1.0781 -2.1431
  920MPD2    H313471   0.863   4.588  10.718 -0.2065  0.2396  2.0546
  920MPD2     N13472   0.740   4.155  10.798 -0.0911  0.0428 -0.2968
  920MPD2    H513473   0.712   4.076  10.742  0.4837  0.0074 -0.5294
  920MPD2    N113474   0.584   4.397  10.413 -0.3726  0.1897 -0.9889
  920MPD2    H713475   0.540   4.306  10.403 -0.7316  0.1650  0.7218
  921MPD2     C13476   1.662   3.558  16.430  0.1084  0.0644 -0.5817
  921MPD2    C113477   1.695   3.438  16.363 -0.4340  0.2857 -0.0392
  921MPD2    C213478   1.614   3.329  16.370 -0.1985 -0.4123 -0.0710
  921MPD2    C313479   1.494   3.329  16.440 -0.4259 -0.6904 -0.3896
  921MPD2    C413480   1.468   3.447  16.512  0.4477 -0.2693 -0.2843
  921MPD2    C513481   1.546   3.558  16.507 -0.3728 -0.3009 -0.2908
  921MPD2     H13482   1.639   3.244  16.308 -2.9798 -0.1926 -1.4891
  921MPD2    H113483   1.368   3.459  16.553  0.6949  0.3668  0.1322
  921MPD2    H213484   1.714   3.653  16.425 -0.8514  0.7278  1.9475
  921MPD2    H313485   1.518   3.650  16.556  0.9186  0.3735 -0.7938
  921MPD2     N13486   1.403   3.220  16.450  0.3790 -0.6688  0.0850
  921MPD2    H513487   1.313   3.233  16.495  1.7985 -0.8372  2.9545
  921MPD2    N113488   1.812   3.439  16.283  0.4731  0.7296 -0.0126
  921MPD2    H713489   1.865   3.526  16.278  1.5133  0.1577  1.1950
  922MPD2     C13490   2.608   0.933  16.940 -0.3369  0.2381  0.1368
  922MPD2    C113491   2.571   1.049  17.001  0.1238 -0.0262 -0.0731
  922MPD2    C213492   2.460   1.052  17.086 -0.1437  0.8441 -0.6420
  922MPD2    C313493   2.390   0.931  17.104  0.7550  0.4294 -0.4442
  922MPD2    C413494   2.421   0.816  17.037 -0.2858 -0.3678 -0.1059
  922MPD2    C513495   2.526   0.824  16.954 -0.5875  0.6338  0.1224
  922MPD2     H13496   2.442   1.139  17.147 -1.6209  0.8138 -1.0509
  922MPD2    H113497   2.369   0.720  17.034 -2.6145  0.8971  0.0090
  922MPD2    H213498   2.691   0.913  16.872  0.8729  0.3272  1.5886
  922MPD2    H313499   2.554   0.733  16.901 -0.4560  0.6593  0.1486
  922MPD2     N13500   2.286   0.930  17.191  0.8129 -0.1322 -0.4705
  922MPD2    H513501   2.246   1.019  17.219  0.3309 -0.0640 -1.3797
  922MPD2    N113502   2.654   1.165  16.995 -0.1034  0.0293  0.3835
  922MPD2    H713503   2.611   1.243  17.042 -0.0207  1.1689 -1.4354
  923MPD2     C13504   4.546   3.327   8.834 -0.7983  0.3961  0.2470
  923MPD2    C113505   4.497   3.346   8.959  0.2284  0.7983 -0.3734
  923MPD2    C213506   4.542   3.274   9.063 -0.0383 -0.7976  0.4623
  923MPD2    C313507   4.627   3.174   9.041  1.0128 -0.1366 -0.0240
  923MPD2    C413508   4.677   3.145   8.915  0.3058 -0.1725 -0.3163
  923MPD2    C513509   4.635   3.225   8.814  0.4715 -0.2865 -0.3892
  923MPD2     H13510   4.513   3.295   9.165 -1.3691 -1.6513  0.2644
  923MPD2    H113511   0.016   3.063   8.885 -0.4309 -1.2861  1.1191
  923MPD2    H213512   4.513   3.392   8.754  0.6500 -2.5718 -2.7755
  923MPD2    H313513   4.677   3.209   8.715  2.1853  0.0533  0.2897
  923MPD2     N13514   4.662   3.082   9.145  0.0722  0.0275  0.0237
  923MPD2    H513515   4.719   3.002   9.122 -0.7411 -0.3664 -0.6389
  923MPD2    N113516   4.407   3.450   8.983 -0.2777 -0.0760  0.1953
  923MPD2    H713517   4.388   3.518   8.910 -2.2167 -0.9583 -0.1322
  924MPD2     C13518   4.001   1.651  15.316  0.0577  0.0821 -0.3575
  924MPD2    C113519   4.010   1.695  15.437 -1.0301 -0.0182 -0.1221
  924MPD2    C213520   3.976   1.824  15.465  0.7543 -0.0216 -0.1643
  924MPD2    C313521   3.925   1.905  15.371  0.3571 -0.7988  0.3241
  924MPD2    C413522   3.898   1.856  15.241 -0.2040 -0.3960  0.1046
  924MPD2    C513523   3.943   1.728  15.222 -0.3887  0.3024 -0.3019
  924MPD2     H13524   3.993   1.860  15.565  0.8954 -1.9666  0.5185
  924MPD2    H113525   3.851   1.918  15.166 -0.3764  0.4162  0.8944
  924MPD2    H213526   4.014   1.551  15.276  1.2791 -0.0152  0.3028
  924MPD2    H313527   3.940   1.687  15.121  1.2573 -2.7843  0.9140
  924MPD2     N13528   3.880   2.039  15.396 -0.2472  0.4958  0.2812
  924MPD2    H513529   3.826   2.082  15.322  3.6571 -0.4189 -3.0776
  924MPD2    N113530   4.051   1.619  15.543 -0.3488  0.0567 -0.5284
  924MPD2    H713531   4.075   1.673  15.625 -1.3275 -0.2807 -0.0193
  925MPD2     C13532   3.043   3.418  14.452  0.1843  0.0522 -0.2489
  925MPD2    C113533   2.914   3.458  14.456 -0.2755 -0.2393  0.5647
  925MPD2    C213534   2.836   3.423  14.563 -0.0755 -0.2708 -0.5102
  925MPD2    C313535   2.889   3.347  14.667  0.0653 -0.7311 -0.0684
  925MPD2    C413536   3.013   3.301  14.656  0.0566 -0.2699  0.3812
  925MPD2    C513537   3.091   3.334  14.555 -0.0610  0.6192 -0.2466
  925MPD2     H13538   2.730   3.446  14.555  0.3797  1.1951 -2.2299
  925MPD2    H113539   3.048   3.227  14.728 -1.5735 -1.4716 -0.0666
  925MPD2    H213540   3.114   3.431  14.371 -0.0316  2.1728 -0.0848
  925MPD2    H313541   3.187   3.287  14.541 -0.1363  0.8921 -1.6783
  925MPD2     N13542   2.820   3.324  14.787 -0.1736 -0.2849  0.3679
  925MPD2    H513543   2.871   3.301  14.872  0.2710  0.7699  0.3913
  925MPD2    N113544   2.839   3.505  14.337  0.2112  0.3525 -0.0806
  925MPD2    H713545   2.739   3.525  14.344 -0.3915 -1.9095 -2.1711
  926MPD2     C13546   1.034   2.163  13.364  0.5718 -0.2239 -0.3117
  926MPD2    C113547   1.080   2.283  13.403 -0.0855 -0.4984 -0.1633
  926MPD2    C213548   1.157   2.362  13.309  1.2195  0.1453 -0.5942
  926MPD2    C313549   1.187   2.312  13.185  0.4482  0.0917  0.3238
  926MPD2    C413550   1.133   2.190  13.149  0.7884  0.4741 -0.3475
  926MPD2    C513551   1.064   2.116  13.238 -0.0607 -0.0394 -0.0914
  926MPD2     H13552   1.201   2.458  13.337  1.0261 -0.0193  0.2873
  926MPD2    H113553   1.155   2.141  13.054 -2.1126  1.2919 -1.4497
  926MPD2    H213554   0.982   2.093  13.429 -0.8593  3.4453  2.4441
  926MPD2    H313555   1.038   2.014  13.211 -1.8373 -0.1315  1.9960
  926MPD2     N13556   1.261   2.380  13.086 -0.7702  0.1760  0.6423
  926MPD2    H513557   1.262   2.334  12.995  1.5111 -1.5271  1.5147
  926MPD2    N113558   1.055   2.336  13.534 -0.0166 -0.3155  0.3066
  926MPD2    H713559   1.098   2.427  13.552 -1.6061  0.7203 -1.1773
  927MPD2     C13560   1.080   3.894   0.430 -0.3782 -0.1424 -0.1507
  927MPD2    C113561   1.146   3.996   0.489 -0.5865  0.3900  0.4307
  927MPD2    C213562   1.215   4.087   0.410  0.2538  0.0948 -0.4324
  927MPD2    C313563   1.216   4.077   0.275  0.3247  0.6050  0.0415
  927MPD2    C413564   1.147   3.970   0.209  0.0938  0.4207 -0.3687
  927MPD2    C513565   1.078   3.883   0.289 -0.4372 -0.5775  0.0193
  927MPD2     H13566   1.277   4.164   0.455 -1.5973  3.1511 -3.0809
  927MPD2    H113567   1.135   3.955   0.102  1.2022  0.4739 -0.4970
  927MPD2    H213568   1.029   3.826   0.497 -0.1363 -0.0678  0.1111
  927MPD2    H313569   1.025   3.803   0.239  0.9501 -0.1276 -2.1341
  927MPD2     N13570   1.291   4.173   0.208  0.2464  1.1782 -0.1267
  927MPD2    H513571   1.324   4.257   0.255 -1.0155  0.3416  2.2330
  927MPD2    N113572   1.139   4.006   0.634  0.5789 -0.3729 -0.1534
  927MPD2    H713573   1.084   3.932   0.677  1.1503 -0.3690  0.5881
  928MPD2     C13574   3.534   3.174   0.674 -0.0608 -0.2220  0.0945
  928MPD2    C113575   3.635   3.163   0.765 -0.4741 -0.0299  0.2336
  928MPD2    C213576   3.757   3.212   0.734  0.0202  0.6549 -0.5329
  928MPD2    C313577   3.780   3.268   0.606 -0.8074 -0.4395 -0.5668
  928MPD2    C413578   3.686   3.264   0.504 -0.1971  0.1088 -0.3893
  928MPD2    C513579   3.561   3.215   0.542 -0.6746  0.0824  0.3028
  928MPD2     H13580   3.835   3.203   0.808 -0.4960  1.6107  0.1194
  928MPD2    H113581   3.691   3.311   0.407 -1.6850  0.1707 -0.4355
  928MPD2    H213582   3.433   3.142   0.695 -0.0198 -0.7243 -0.4958
  928MPD2    H313583   3.472   3.218   0.480 -0.3492 -2.0398 -0.2562
  928MPD2     N13584   3.910   3.317   0.565  0.0468  0.0625 -0.0438
  928MPD2    H513585   3.930   3.311   0.465  0.4310 -1.1633  0.1102
  928MPD2    N113586   3.596   3.112   0.899 -0.4936 -0.3801  0.6796
  928MPD2    H713587   3.497   3.103   0.919 -1.0525  2.7489 -0.6212
  929MPD2     C13588   4.127   2.930  10.336  0.7610 -0.0319 -0.3192
  929MPD2    C113589   4.060   2.819  10.367  0.9486  1.0277 -0.2551
  929MPD2    C213590   3.958   2.774  10.282  0.0489 -0.1725  0.8211
  929MPD2    C313591   3.923   2.848  10.171 -0.0439  0.1136  0.0829
  929MPD2    C413592   3.997   2.961  10.143 -0.1398 -0.0259  0.5538
  929MPD2    C513593   4.090   3.001  10.232  1.3429 -0.6135 -0.2484
  929MPD2     H13594   3.889   2.696  10.313  2.2503 -1.9338  1.2681
  929MPD2    H113595   3.978   3.019  10.053  3.7825 -0.9002 -0.8414
  929MPD2    H213596   4.210   2.968  10.395  0.2816  0.1771  0.2187
  929MPD2    H313597   4.141   3.097  10.224  0.6992 -0.3326 -0.9368
  929MPD2     N13598   3.803   2.826  10.103  0.2435  1.1781 -0.0013
  929MPD2    H513599   3.769   2.904  10.048 -1.6101 -0.1075 -0.6850
  929MPD2    N113600   4.093   2.753  10.489  0.3760  0.8968  0.3012
  929MPD2    H713601   4.162   2.797  10.548 -0.0763  1.4916  0.3831
  930MPD2     C13602   1.095   0.449  14.128 -0.0473  0.1972 -0.3293
  930MPD2    C113603   1.058   0.479  14.001 -0.3002  0.1273  0.1705
  930MPD2    C213604   1.002   0.374  13.925 -0.0335  0.4609 -0.4183
  930MPD2    C313605   0.983   0.250  13.972 -0.3982  0.6293 -0.0972
  930MPD2    C413606   1.021   0.222  14.101  0.5289  0.0232 -0.0638
  930MPD2    C513607   1.081   0.321  14.176  0.7569  0.1407 -0.1081
  930MPD2     H13608   0.981   0.394  13.820 -0.9202 -0.0748 -0.3442
  930MPD2    H113609   1.001   0.124  14.143 -0.2369 -0.2609 -1.0915
  930MPD2    H213610   1.122   0.527  14.199  5.1238 -0.8759 -1.1080
  930MPD2    H313611   1.105   0.300  14.280  2.2356 -2.4924 -0.9741
  930MPD2     N13612   0.937   0.147  13.883  0.6899 -0.0536 -0.1784
  930MPD2    H513613   0.977   0.054  13.888 -1.8039 -1.2424 -2.0426
  930MPD2    N113614   1.078   0.606  13.952  0.0248 -0.2111  0.4519
  930MPD2    H713615   1.126   0.662  14.022  0.4014  2.4761 -1.9552
  931MPD2     C13616   1.646   4.450   1.112 -0.8221  0.6973 -0.2501
  931MPD2    C113617   1.516   4.455   1.141  0.4366 -0.7196  0.1038
  931MPD2    C213618   1.469   4.541   1.242  0.0107 -0.3013 -0.4823
  931MPD2    C313619   1.550   4.614   1.325 -0.1833  0.0962  0.1901
  931MPD2    C413620   1.687   4.600   1.298  0.0492 -0.3629 -0.3867
  931MPD2    C513621   1.730   4.525   1.193  0.2796  0.2838  0.5055
  931MPD2     H13622   1.369   4.525   1.281  0.3649 -0.7879  0.2245
  931MPD2    H113623   1.763   4.640   1.364  0.9258 -0.9503 -1.0224
  931MPD2    H213624   1.689   4.382   1.039 -1.6662 -0.3787  0.2611
  931MPD2    H313625   1.838   4.512   1.184  0.0918 -0.5220 -0.5893
  931MPD2     N13626   1.508   4.649   1.453 -0.2185 -0.1268 -0.6057
  931MPD2    H513627   1.576   4.672   1.524  0.3294 -4.0457  0.1407
  931MPD2    N113628   1.432   4.361   1.076  0.0334  0.1765 -0.3889
  931MPD2    H713629   1.479   4.297   1.013 -1.7977 -3.1889  1.6126
  932MPD2     C13630   2.341   3.299  11.125 -1.0708 -1.0558 -0.1116
  932MPD2    C113631   2.381   3.355  11.248  0.1056 -0.3605  0.8770
  932MPD2    C213632   2.434   3.277  11.350  0.7790 -0.0535 -0.7765
  932MPD2    C313633   2.450   3.138  11.331  0.1187 -0.1799 -0.2542
  932MPD2    C413634   2.412   3.089  11.208  0.3096 -0.2426 -0.2990
  932MPD2    C513635   2.355   3.165  11.108 -0.3200 -0.2298 -0.3018
  932MPD2     H13636   2.458   3.328  11.442 -1.4032 -0.6939  0.1401
  932MPD2    H113637   2.398   2.982  11.199  0.7644 -0.1547 -1.9392
  932MPD2    H213638   2.300   3.360  11.046 -1.4076 -2.8949 -1.3481
  932MPD2    H313639   2.318   3.108  11.023 -1.4070  1.5501 -1.0308
  932MPD2     N13640   2.512   3.054  11.425 -0.3320  0.0547 -0.0741
  932MPD2    H513641   2.546   2.964  11.393 -2.8691 -1.6295  2.0479
  932MPD2    N113642   2.368   3.494  11.267  0.0930 -0.1695  0.0834
  932MPD2    H713643   2.372   3.526  11.363  1.2222  0.5845 -0.2264
  933MPD2     C13644   3.253   3.593   1.324 -0.4573  0.8720  0.5303
  933MPD2    C113645   3.356   3.528   1.375 -0.1002 -0.3471  0.3198
  933MPD2    C213646   3.423   3.593   1.476 -0.2728 -0.8483 -0.4449
  933MPD2    C313647   3.383   3.718   1.526 -0.4818 -0.1170  0.8476
  933MPD2    C413648   3.267   3.777   1.480  0.7001 -0.1095 -0.0410
  933MPD2    C513649   3.211   3.710   1.377  0.4978 -0.6245  0.1388
  933MPD2     H13650   3.513   3.551   1.518  0.4583 -0.1839 -1.3333
  933MPD2    H113651   3.220   3.866   1.519 -1.4881 -0.2528 -2.3477
  933MPD2    H213652   3.203   3.565   1.231  1.6398  1.4006 -0.7461
  933MPD2    H313653   3.118   3.742   1.330 -0.6843 -1.6220  1.7989
  933MPD2     N13654   3.482   3.779   1.617 -0.7428 -0.2033  0.4027
  933MPD2    H513655   3.560   3.720   1.645 -2.4346 -2.2648  0.8452
  933MPD2    N113656   3.384   3.398   1.321 -0.5335 -0.0871 -0.2041
  933MPD2    H713657   3.319   3.375   1.247 -1.0874 -1.5209  0.7236
  934MPD2     C13658   4.224   1.207   2.017 -0.9783 -0.7061  0.5582
  934MPD2    C113659   4.275   1.094   1.969 -0.2522  0.1173 -0.0092
  934MPD2    C213660   4.196   1.007   1.901 -0.6044  0.1705  0.5735
  934MPD2    C313661   4.068   1.041   1.865 -0.5222  0.0235 -0.2306
  934MPD2    C413662   4.016   1.164   1.904  0.7098 -0.3347  0.2551
  934MPD2    C513663   4.091   1.241   1.990 -0.0883  0.1087  1.1466
  934MPD2     H13664   4.238   0.912   1.872  1.0608  0.5362  1.7554
  934MPD2    H113665   3.916   1.192   1.874 -0.1109 -1.4814  1.9656
  934MPD2    H213666   4.280   1.278   2.077 -1.0241 -2.0065  2.1130
  934MPD2    H313667   4.055   1.337   2.025  1.2202  0.8506  0.4621
  934MPD2     N13668   3.985   0.965   1.773  0.2859  0.3129  0.1721
  934MPD2    H513669   3.895   1.006   1.749  0.0632  0.3886  1.1267
  934MPD2    N113670   4.405   1.051   1.992  0.4610  0.1902  0.5590
  934MPD2    H713671   4.426   0.957   1.960  2.6957  0.5620  0.8990
  935MPD2     C13672   4.384   0.221   1.358  0.1763  0.2133  0.7445
  935MPD2    C113673   4.283   0.238   1.267 -0.2362  0.1043  0.4069
  935MPD2    C213674   4.190   0.332   1.298  0.4481 -0.7639  0.0930
  935MPD2    C313675   4.215   0.421   1.401 -0.1057  0.3822  0.1840
  935MPD2    C413676   4.329   0.420   1.473 -0.7597 -0.1592 -0.5184
  935MPD2    C513677   4.413   0.313   1.455  0.4126  0.2606  0.3834
  935MPD2     H13678   4.094   0.320   1.250  0.3453  0.5775 -0.0319
  935MPD2    H113679   4.346   0.490   1.553  0.1785 -0.8647 -0.1033
  935MPD2    H213680   4.461   0.145   1.348 -2.7091 -2.7127  0.5897
  935MPD2    H313681   4.495   0.302   1.526 -0.7738  0.0513  1.7306
  935MPD2     N13682   4.127   0.525   1.425 -0.3102 -0.4283 -0.1690
  935MPD2    H513683   4.154   0.582   1.504 -3.7638 -0.6093  1.1465
  935MPD2    N113684   4.260   0.148   1.159 -0.5344 -0.0462 -0.7346
  935MPD2    H713685   4.169   0.155   1.114 -0.2216  0.3228 -1.3092
  936MPD2     C13686   2.612   2.593  12.272  0.4040 -0.1743 -0.0608
  936MPD2    C113687   2.646   2.459  12.254  0.1991 -0.4292  0.3016
  936MPD2    C213688   2.753   2.424  12.176 -0.3244 -0.8611 -0.1588
  936MPD2    C313689   2.834   2.524  12.124 -0.3860 -0.0847 -0.2254
  936MPD2    C413690   2.804   2.656  12.143  0.1564 -0.1983 -0.2637
  936MPD2    C513691   2.695   2.687  12.218  0.4316  0.1382  0.4036
  936MPD2     H13692   2.773   2.321  12.150 -1.2429 -0.8321 -0.9898
  936MPD2    H113693   2.870   2.738  12.120  0.2617 -0.7552 -1.9321
  936MPD2    H213694   2.541   2.627  12.346  2.7903  2.0038  1.2072
  936MPD2    H313695   2.677   2.788  12.251  1.4996  0.5941 -0.4011
  936MPD2     N13696   2.955   2.485  12.062 -0.7632  0.1327 -0.5697
  936MPD2    H513697   2.984   2.388  12.070  0.7570  0.4419 -2.6462
  936MPD2    N113698   2.590   2.350  12.317 -0.4838 -0.4141  0.3184
  936MPD2    H713699   2.627   2.258  12.294  0.3588 -0.1242  0.5121
  937MPD2     C13700   0.817   2.961  11.624 -0.1549  0.6281 -0.2269
  937MPD2    C113701   0.894   3.076  11.632  0.8925 -0.0194 -0.3365
  937MPD2    C213702   1.008   3.082  11.553 -0.1523  0.0154 -0.2374
  937MPD2    C313703   1.065   2.978  11.485  0.5242 -0.4542  0.5805
  937MPD2    C413704   0.995   2.851  11.490 -0.4454  0.9249 -0.0626
  937MPD2    C513705   0.869   2.854  11.560 -0.6210  0.2328  0.0469
  937MPD2     H13706   1.064   3.174  11.556 -0.1208 -0.1367  4.2544
  937MPD2    H113707   1.031   2.763  11.440  0.2633  1.5808 -0.7136
  937MPD2    H213708   0.729   2.948  11.687  0.5421 -0.2773  0.5543
  937MPD2    H313709   0.813   2.761  11.563  1.0220 -0.8564 -2.6938
  937MPD2     N13710   1.188   2.995  11.416 -0.2230 -0.4257 -0.4471
  937MPD2    H513711   1.228   3.088  11.425 -1.1012 -0.2971  1.9222
  937MPD2    N113712   0.867   3.195  11.706  0.4645 -0.1244  0.1984
  937MPD2    H713713   0.927   3.270  11.676  0.5813 -0.2789  0.0453
  938MPD2     C13714   3.215   0.517   1.022  0.2569  0.5539 -0.3594
  938MPD2    C113715   3.339   0.460   1.032 -0.0637  0.5722 -0.5586
  938MPD2    C213716   3.375   0.371   1.128 -0.0139  0.1598  0.2181
  938MPD2    C313717   3.275   0.324   1.210 -0.8151  0.2995 -0.1242
  938MPD2    C413718   3.153   0.377   1.208  0.2899 -0.9302  0.5181
  938MPD2    C513719   3.129   0.479   1.122 -0.1754  0.2080  0.3585
  938MPD2     H13720   3.480   0.344   1.132 -0.1940 -0.5035  0.4972
  938MPD2    H113721   3.073   0.350   1.276  2.0080 -1.5572  2.2970
  938MPD2    H213722   3.194   0.597   0.952 -1.8402 -1.7659 -2.3868
  938MPD2    H313723   3.036   0.534   1.128  0.1000  0.8506 -1.2861
  938MPD2     N13724   3.297   0.218   1.301  0.0655  0.6148  0.5119
  938MPD2    H513725   3.213   0.178   1.342  0.9173 -1.6307  0.0839
  938MPD2    N113726   3.434   0.483   0.926 -0.0880  0.2260 -0.4097
  938MPD2    H713727   3.518   0.428   0.935 -0.3715 -0.0261  0.6355
  939MPD2     C13728   0.121   1.059   0.690 -0.2516 -0.4115 -0.0689
  939MPD2    C113729   0.073   1.175   0.641  0.4069  0.3403  0.4837
  939MPD2    C213730   0.123   1.224   0.522 -0.1623  0.3220 -0.5541
  939MPD2    C313731   0.218   1.143   0.454  0.2303 -0.1182 -0.5487
  939MPD2    C413732   0.260   1.024   0.496 -0.0723 -0.7894  0.0129
  939MPD2    C513733   0.206   0.981   0.611 -0.3575 -0.4857 -0.0654
  939MPD2     H13734   0.092   1.313   0.469 -3.1192  0.7488  1.8372
  939MPD2    H113735   0.323   0.953   0.444 -1.3912 -1.0865 -1.1545
  939MPD2    H213736   0.077   1.012   0.777 -1.1629 -0.3581 -0.5048
  939MPD2    H313737   0.243   0.888   0.651 -1.0062  0.3322  2.4895
  939MPD2     N13738   0.277   1.202   0.342  0.1748 -0.0696  0.1323
  939MPD2    H513739   0.247   1.296   0.319  0.0185  0.2180  1.5118
  939MPD2    N113740   4.696   1.244   0.713 -0.3756 -0.3204 -0.3366
  939MPD2    H713741   4.654   1.192   0.790  0.6629 -0.6420  0.0076
  940MPD2     C13742   3.635   1.985  12.155  0.9347  0.8799  0.3151
  940MPD2    C113743   3.690   1.929  12.274  0.1555  0.3253 -0.1313
  940MPD2    C213744   3.758   1.801  12.267 -0.4919  0.1026 -0.3714
  940MPD2    C313745   3.774   1.734  12.143 -0.1072  0.0267  0.3421
  940MPD2    C413746   3.716   1.796  12.030 -0.1651 -0.1266  0.3115
  940MPD2    C513747   3.649   1.917  12.037  0.5050 -0.4970  0.2924
  940MPD2     H13748   3.807   1.760  12.355  0.2155  1.6011 -0.0789
  940MPD2    H113749   3.736   1.758  11.930  2.0287 -0.2002  0.7897
  940MPD2    H213750   3.569   2.071  12.157 -0.7339 -0.4508  1.3237
  940MPD2    H313751   3.594   1.949  11.950 -0.7356 -4.0583 -0.2110
  940MPD2     N13752   3.833   1.604  12.126  0.0136 -0.5334  0.1965
  940MPD2    H513753   3.844   1.557  12.037 -1.0539 -0.4523  0.0329
  940MPD2    N113754   3.670   1.984  12.399 -0.8733  0.7027 -0.0396
  940MPD2    H713755   3.720   1.949  12.481 -1.1893 -0.8924 -0.5223
  941MPD2     C13756   3.327   1.320   9.198  0.0600  0.0720  0.4216
  941MPD2    C113757   3.313   1.336   9.335 -1.0158  1.5051 -0.4697
  941MPD2    C213758   3.219   1.270   9.409 -0.5114 -0.6158  0.4194
  941MPD2    C313759   3.140   1.175   9.343  0.6874 -0.3951 -0.0632
  941MPD2    C413760   3.154   1.158   9.205 -0.4081  0.7092 -0.2610
  941MPD2    C513761   3.246   1.229   9.135 -0.1425 -0.3057  0.3783
  941MPD2     H13762   3.209   1.280   9.516  4.3802 -0.7853  0.8667
  941MPD2    H113763   3.086   1.100   9.143 -0.0588  0.7125 -0.6406
  941MPD2    H213764   3.393   1.371   9.129  2.1813 -0.4376  2.0907
  941MPD2    H313765   3.245   1.220   9.027  0.2430  1.3011  0.2390
  941MPD2     N13766   3.067   1.085   9.421 -1.2926 -0.2569 -0.3803
  941MPD2    H513767   3.020   1.012   9.368 -1.6229 -0.1313 -0.2591
  941MPD2    N113768   3.407   1.421   9.403  0.6286 -0.2212 -0.4816
  941MPD2    H713769   3.397   1.442   9.501 -0.4042 -0.2302 -0.5885
  942MPD2     C13770   3.149   4.034   9.224 -0.1092 -0.1299 -0.4637
  942MPD2    C113771   3.047   3.934   9.229 -0.1473 -0.2545  0.0781
  942MPD2    C213772   3.084   3.803   9.221  0.7383 -0.2480 -0.4605
  942MPD2    C313773   3.216   3.771   9.200  1.1529 -0.7183  0.0848
  942MPD2    C413774   3.312   3.862   9.214  0.3211  0.2481 -0.3885
  942MPD2    C513775   3.278   3.995   9.235  0.6016  0.7885 -0.2114
  942MPD2     H13776   3.002   3.733   9.227 -1.5324  2.1585 -3.6527
  942MPD2    H113777   3.418   3.839   9.205  0.1463 -1.2097  1.2721
  942MPD2    H213778   3.129   4.141   9.230 -3.9106 -0.8850  0.7638
  942MPD2    H313779   3.356   4.069   9.247 -0.0875  1.4439  0.1833
  942MPD2     N13780   3.274   3.641   9.192  0.1550 -0.6254 -0.1554
  942MPD2    H513781   3.375   3.638   9.178 -0.0543  0.6665 -1.9785
  942MPD2    N113782   2.913   3.973   9.234  0.1834 -0.2958 -0.0480
  942MPD2    H713783   2.845   3.902   9.210 -0.7222  0.7142 -0.4443
  943MPD2     C13784   2.197   0.471  10.049  0.2596 -0.4775 -0.4003
  943MPD2    C113785   2.064   0.455  10.007 -0.0058  0.1968 -0.7297
  943MPD2    C213786   2.037   0.509   9.879 -0.4544  0.1317  0.2455
  943MPD2    C313787   2.137   0.569   9.799 -0.1858  0.1949  0.6555
  943MPD2    C413788   2.264   0.578   9.851 -0.5136  0.7902  0.0855
  943MPD2    C513789   2.293   0.532   9.977 -0.6310 -0.2234  0.3481
  943MPD2     H13790   1.935   0.504   9.841 -0.4142  0.0926  0.1427
  943MPD2    H113791   2.349   0.627   9.804  1.5020 -0.9857  1.8791
  943MPD2    H213792   2.228   0.438  10.147 -2.3057  0.9982  0.9364
  943MPD2    H313793   2.388   0.536  10.027  1.1136  0.4343 -2.9902
  943MPD2     N13794   2.105   0.634   9.669 -0.1817  0.3371  0.7721
  943MPD2    H513795   2.181   0.682   9.622 -0.5147 -0.3570 -0.4717
  943MPD2    N113796   1.965   0.380  10.082  0.3035 -0.4788 -0.5142
  943MPD2    H713797   1.992   0.366  10.178 -1.2928 -0.3656 -0.0617
  944MPD2     C13798   1.130   4.558  10.853  0.4823  0.4521  0.2924
  944MPD2    C113799   1.199   4.666  10.798 -0.5997  0.4188  0.2528
  944MPD2    C213800   1.191   0.063  10.858 -0.1318  0.0385 -0.2941
  944MPD2    C313801   1.106   0.084  10.964  1.0339  0.4292 -0.3586
  944MPD2    C413802   1.034   4.701  11.012 -0.8881 -0.2395 -0.7831
  944MPD2    C513803   1.060   4.576  10.972  0.7217 -0.7092  0.3289
  944MPD2     H13804   1.250   0.147  10.824  0.4917 -1.3256 -2.6013
  944MPD2    H113805   0.950   4.712  11.081 -0.3120  0.5259 -0.2062
  944MPD2    H213806   1.131   4.455  10.819 -0.8815  0.7230 -0.5590
  944MPD2    H313807   1.005   4.491  11.010 -0.8529  0.2692  0.2643
  944MPD2     N13808   1.085   0.219  11.018 -0.0558  0.0883  0.1710
  944MPD2    H513809   1.136   0.297  10.978 -1.7309  0.4187 -1.3143
  944MPD2    N113810   1.265   4.640  10.677  0.0142  0.1845  0.5186
  944MPD2    H713811   1.259   4.550  10.631  1.8289 -0.2323  1.1133
    1TCq1    O113812   4.517   1.554  14.517  0.3040  0.0352  0.2270
    1TCq1    C113813   4.572   1.667  14.563 -0.7682  0.5099 -0.0654
    1TCq1    O213814   4.647   1.686  14.660 -0.1483 -0.3431  0.5610
    1TCq1    C213815   4.553   1.779  14.468  0.5939 -0.7530 -0.5330
    1TCq1    C313816   4.516   1.751  14.337  0.1436  0.6412  0.0721
    1TCq1    C413817   4.463   1.851  14.261 -0.2057  0.0925  0.3587
    1TCq1    C513818   4.463   1.983  14.314  0.1607 -0.6605  0.3269
    1TCq1    C613819   4.521   2.008  14.436 -0.5466  0.3812  0.3486
    1TCq1    C713820   4.559   1.911  14.515 -0.6990 -0.1493  0.1061
    1TCq1    C813821   4.574   2.143  14.468  0.1513  0.6552  0.9186
    1TCq1    O413822   4.624   2.149  14.577 -0.1692 -0.0296  0.2853
    1TCq1    C913823   4.409   1.825  14.128 -0.1571  0.7723  0.5208
    1TCq1    O513824   4.364   1.712  14.097  0.8364  0.4293 -0.2140
    1TCq1    O613825   4.376   1.928  14.064 -0.0333 -0.4485 -0.2504
    1TCq1    H113826   4.541   1.480  14.577  2.1530 -1.0309 -1.8061
    1TCq1    H213827   4.491   1.654  14.296  2.7720  0.2233 -0.5715
    1TCq1    H313828   4.417   2.060  14.254  0.4736  0.0500  0.9960
    1TCq1    H413829   4.603   1.935  14.611  0.6969 -1.7859 -0.1147
    2MPD2     C13830   4.711   2.630  14.386  0.2571 -0.0651  0.3533
    2MPD2    C113831   4.680   2.580  14.263  0.1768 -0.2980  0.0098
    2MPD2    C213832   4.628   2.455  14.264  0.1435  0.1836 -0.3633
    2MPD2    C313833   4.619   2.376  14.380  0.5751 -0.3913  0.4585
    2MPD2    C413834   4.654   2.431  14.500 -0.2454  0.6197  0.5386
    2MPD2    C513835   4.694   2.561  14.504 -0.0177  0.4561 -0.5005
    2MPD2     H13836   4.592   2.412  14.171  1.3208 -2.4819  0.4383
    2MPD2    H113837   4.658   2.376  14.593  0.0444  0.5585  0.4911
    2MPD2    H213838   0.011   2.736  14.390  0.9768 -0.2508  0.5157
    2MPD2    H313839   4.724   2.610  14.596  2.0691 -0.0997 -0.8949
    2MPD2     N13840   4.572   2.244  14.371 -0.0719  0.3482  0.4233
    2MPD2    H513841   4.546   2.215  14.278  0.0473 -0.6682  0.7048
    2MPD2    N113842   4.676   2.665  14.153  0.5787 -0.0334  0.1718
    2MPD2    H713843   4.714   2.758  14.163  0.2807 -0.3185  3.7410
    3TMC2    C113844   4.614   2.762  13.944 -0.0059  0.6406 -0.3549
    3TMC2    C213845   4.690   2.865  13.985  0.1238 -0.0531  0.2769
    3TMC2    C313846   4.661   2.990  13.936  0.3107  0.5934  0.1402
    3TMC2    C413847   4.518   2.770  13.846  0.6772 -0.3709 -0.0129
    3TMC2    C513848   4.488   2.899  13.800  0.4814 -0.6617 -0.4897
    3TMC2    C613849   4.555   3.006  13.845 -0.1797  0.0713 -1.1501
    3TMC2     C13850   4.616   2.638  14.027 -0.0768 -0.3479  0.5583
    3TMC2     O13851   4.538   2.553  13.989 -0.0828  0.1685 -0.6267
    3TMC2     H13852   0.052   2.861  14.049 -1.8925  0.3732  3.1070
    3TMC2    H113853   4.467   2.685  13.802  0.9730 -0.7644  0.4115
    3TMC2    H213854   4.535   3.099  13.794 -1.8478 -0.4236 -1.4255
    3TMC2    C713855   4.367   2.905  13.719  0.1366  0.0194  0.0942
    3TMC2    C813856   4.715   3.102  13.999  0.1171 -0.4372  0.1333
    3TMC2    O113857   4.335   2.800  13.659  0.1262  0.7095  0.0746
    3TMC2    O213858   0.020   3.083  14.113 -0.9890  0.3550  1.0126
    3TMC2    O513859   4.649   3.218  13.956 -0.7957 -0.4296 -0.0929
    3TMC2    H513860   4.650   3.231  13.858 -1.3587  0.5717  0.0343
    4MPD2     C13861   3.054   2.646  13.038 -0.4799 -0.2823 -0.2338
    4MPD2    C113862   3.145   2.567  12.969  0.4415 -0.8698  0.1681
    4MPD2    C213863   3.279   2.593  12.995  0.2043 -0.5544 -0.1090
    4MPD2    C313864   3.317   2.684  13.092  0.5841  0.3866 -0.5854
    4MPD2    C413865   3.220   2.762  13.157 -0.5847  0.2650 -0.8376
    4MPD2    C513866   3.090   2.740  13.130  0.0287 -0.5793 -1.2765
    4MPD2     H13867   3.351   2.535  12.939  1.9662 -0.0159  1.5843
    4MPD2    H113868   3.239   2.841  13.229 -0.1386  0.2181 -0.9034
    4MPD2    H213869   2.949   2.638  13.014 -0.8198 -0.4955  1.3338
    4MPD2    H313870   3.008   2.793  13.177  1.9518  1.0026  0.2990
    4MPD2     N13871   3.454   2.701  13.112 -0.4052  0.4214  0.2654
    4MPD2    H513872   3.521   2.663  13.045 -2.5179 -0.1970 -1.4848
    4MPD2    N113873   3.097   2.482  12.866 -0.0177 -0.2652  0.6295
    4MPD2    H713874   3.000   2.499  12.839  0.5422  1.1930 -0.4234
    5TCq2    C113875   3.510   2.759  13.222  0.8577 -0.2682 -0.4150
    5TCq2    O213876   3.457   2.813  13.317  0.2115 -0.7369  0.6834
    5TCq2    C213877   3.657   2.754  13.203  0.0447 -0.5809  0.2861
    5TCq2    C313878   3.718   2.733  13.081  0.1737  0.4079  0.1732
    5TCq2    C413879   3.854   2.746  13.075  0.1957  0.2113 -0.2200
    5TCq2    C513880   3.923   2.785  13.180  0.0647 -0.6676  0.7512
    5TCq2    C613881   3.854   2.801  13.297 -0.7361 -0.3467  0.5876
    5TCq2    C713882   3.722   2.774  13.318 -0.7621 -0.9347  0.9668
    5TCq2    C813883   3.942   2.833  13.403 -0.0408  0.3556 -0.6920
    5TCq2    O413884   4.053   2.784  13.392 -0.0438 -0.1086 -0.0378
    5TCq2    C913885   3.924   2.707  12.956  1.2742  0.4519 -0.2507
    5TCq2    O513886   3.856   2.645  12.868  0.1900  0.0923  0.0902
    5TCq2    O613887   4.049   2.724  12.948  0.1383  0.1138  0.3084
    5TCq2    H213888   3.667   2.717  12.987  0.5757  1.6073 -0.2485
    5TCq2    H313889   4.031   2.791  13.168  0.0445  0.3963  1.1192
    5TCq2    H413890   3.670   2.774  13.413  1.8164  1.3762  2.3662
    6MPD1     C13891   3.206   3.855  13.413 -0.0888  0.0737 -0.3313
    6MPD1    C113892   3.247   3.872  13.282  1.0726  0.4644 -0.4077
    6MPD1    C213893   3.226   3.761  13.206 -0.8483 -0.4110  0.0365
    6MPD1    C313894   3.176   3.641  13.253  0.3794 -0.0733 -0.4887
    6MPD1    C413895   3.134   3.628  13.380 -0.1245  0.0191 -0.5093
    6MPD1    C513896   3.155   3.735  13.458 -0.1099 -0.7207 -0.3528
    6MPD1     H13897   3.252   3.769  13.101  0.5911  1.7271  0.5493
    6MPD1    H113898   3.090   3.538  13.421  1.3819 -1.0044 -1.1691
    6MPD1    H213899   3.197   3.941  13.478  0.5403  0.2772 -0.5075
    6MPD1    H313900   3.124   3.727  13.562  2.4527  0.9127  0.5409
    6MPD1     N13901   3.148   3.526  13.175  0.7545  0.1255  0.4134
    6MPD1    H513902   3.091   3.455  13.220  0.3983  1.4856  2.1137
    6MPD1    N113903   3.277   4.002  13.228  0.0765  0.1571  0.1769
    6MPD1    H613904   3.328   4.058  13.296 -0.1693 -2.0364  2.1761
    6MPD1    H713905   3.341   3.987  13.150 -0.3130  0.0023 -0.1132
    7MPD2     C13906   2.720   2.915  12.968  0.4980  0.1115 -0.4995
    7MPD2    C113907   2.820   2.930  12.867 -0.0963 -1.0988 -0.6149
    7MPD2    C213908   2.852   2.820  12.789  0.1670 -0.3274 -0.2419
    7MPD2    C313909   2.793   2.699  12.809 -0.0601 -0.1638  0.2341
    7MPD2    C413910   2.689   2.689  12.907  0.1924  0.2069  0.0863
    7MPD2    C513911   2.652   2.796  12.986  0.1005 -0.2090  0.2521
    7MPD2     H13912   2.933   2.848  12.722 -0.1203 -0.0923 -0.4869
    7MPD2    H113913   2.628   2.599  12.908  1.4184 -0.6301 -0.9205
    7MPD2    H213914   2.698   2.998  13.035 -1.5396 -0.7537 -0.0949
    7MPD2    H313915   2.575   2.788  13.061  0.1178  1.1332  0.4052
    7MPD2     N13916   2.823   2.588  12.728 -0.2236 -0.2007 -0.2964
    7MPD2    H513917   2.774   2.501  12.744  0.6089 -0.6617 -0.2783
    7MPD2    N113918   2.905   3.042  12.863  0.2883  0.2045 -0.2244
    7MPD2    H713919   2.983   3.033  12.799  1.4244  1.3979  0.9880
    8TMC3    C113920   2.936   2.452  12.571 -0.6355  0.6132  0.2014
    8TMC3    C213921   2.977   2.377  12.677  0.7444  0.6471  0.5781
    8TMC3    C313922   3.105   2.334  12.685  0.6071 -0.4230  0.6702
    8TMC3    C413923   3.023   2.482  12.473 -0.0938 -0.6202  0.1540
    8TMC3    C513924   3.153   2.428  12.476 -0.5377  0.0238 -0.0385
    8TMC3    C613925   3.195   2.359  12.585  0.0009 -0.1336  0.1474
    8TMC3     C13926   2.904   2.586  12.617 -0.2647 -0.5831  0.0036
    8TMC3     O13927   2.982   2.676  12.589 -0.3855 -0.3920  0.0927
    8TMC3     H13928   2.909   2.350  12.756  0.7707 -1.6344 -0.1817
    8TMC3    H113929   2.988   2.545  12.392  1.6339 -0.0061 -0.1389
    8TMC3    H213930   3.298   2.331  12.599  0.0542  0.1295  0.2749
    8TMC3    C713931   3.256   2.522  12.424 -0.5115  0.3298 -0.5866
    8TMC3    C813932   3.165   2.377  12.810  0.0279  0.1751 -0.0485
    8TMC3    O113933   3.366   2.484  12.384  0.2053 -0.0153 -1.0083
    8TMC3    O213934   3.275   2.329  12.827  0.0268 -0.5185 -0.0912
    9TMC3    C113935   3.164   3.396  12.967 -0.7490 -0.3030  0.2430
    9TMC3    C213936   3.246   3.364  12.859  0.5140  0.3808 -0.0001
    9TMC3    C313937   3.201   3.267  12.771  0.3287 -0.0974  1.3154
    9TMC3    C413938   3.044   3.337  12.983  0.5298  0.3087 -0.1921
    9TMC3    C513939   3.002   3.247  12.887 -0.1701  1.0216 -0.3304
    9TMC3    C613940   3.078   3.205  12.781 -0.2429  0.6043  0.3684
    9TMC3     C13941   3.205   3.510  13.052  0.1921 -0.4817 -0.1391
    9TMC3     O13942   3.315   3.561  13.025  0.0441  0.4561 -0.1033
    9TMC3     H13943   3.349   3.395  12.842  1.0267 -1.2956  0.0706
    9TMC3    H113944   2.974   3.369  13.059 -1.3345 -2.0420 -0.9374
    9TMC3    H213945   3.032   3.155  12.697 -1.0301  1.1652  0.4631
    9TMC3    C713946   2.887   3.161  12.927 -0.5538 -0.7275 -0.0181
    9TMC3    C813947   3.293   3.212  12.671  0.1934 -0.0483 -0.3426
    9TMC3    O113948   2.803   3.209  13.002  0.0893  0.6446  0.4396
    9TMC3    O213949   3.386   3.281  12.629 -0.7427  0.0220 -0.0995
   10MPD2     C13950   3.394   2.791  12.386 -0.2075 -1.1288  0.4388
   10MPD2    C113951   3.283   2.768  12.467  0.2561  0.0665  0.1415
   10MPD2    C213952   3.235   2.872  12.541 -0.3038 -0.0176  0.5749
   10MPD2    C313953   3.305   2.989  12.549 -0.5173 -0.1019  0.0111
   10MPD2    C413954   3.404   3.013  12.463  0.7851 -0.7004  0.1233
   10MPD2    C513955   3.453   2.913  12.384  0.0695  1.1537 -0.6680
   10MPD2     H13956   3.149   2.856  12.605  0.3118  0.5210  1.5292
   10MPD2    H113957   3.450   3.111  12.457  0.7713 -0.6916  0.1654
   10MPD2    H213958   3.433   2.709  12.326 -0.3607 -1.7842  1.2167
   10MPD2    H313959   3.538   2.928  12.318  2.4787 -1.3249  1.8936
   10MPD2     N13960   3.255   3.082  12.640 -0.0597  0.1949 -0.3315
   10MPD2    H513961   3.180   3.044  12.697 -0.5888  1.4616 -0.1757
   10MPD2    N113962   3.218   2.646  12.474 -0.3261 -0.1284 -0.0327
   10MPD2    H713963   3.128   2.646  12.520  1.1045  0.0172  2.8144
   11MPD2     C13964   4.110   3.161  13.767 -0.4020 -0.3021 -0.1059
   11MPD2    C113965   4.167   3.045  13.713  0.1231  0.2995 -0.2217
   11MPD2    C213966   4.101   2.978  13.611  0.1207  0.4158 -0.1504
   11MPD2    C313967   3.971   3.014  13.579  1.0822  0.7655 -0.7252
   11MPD2    C413968   3.904   3.103  13.656 -0.4079 -0.0570 -0.0960
   11MPD2    C513969   3.977   3.184  13.733  0.4408 -0.1232 -0.0512
   11MPD2     H13970   4.155   2.919  13.538 -2.3209 -1.1608 -0.6963
   11MPD2    H113971   3.796   3.113  13.644 -0.3350  0.7625 -0.0397
   11MPD2    H213972   4.152   3.228  13.841 -1.3688  0.9303 -0.6573
   11MPD2    H313973   3.923   3.268  13.776  1.5583  0.5037  0.1308
   11MPD2     N13974   3.895   2.934  13.483 -1.2590 -0.4222  0.3166
   11MPD2    H513975   3.795   2.951  13.480 -1.4474 -1.2271  2.0735
   11MPD2    N113976   4.295   3.019  13.751 -0.6351 -0.3999 -0.5157
   11MPD2    H713977   4.324   3.079  13.827  0.3640  0.2691 -1.4307
    1MPD1     C13978   1.441   3.820  16.824 -0.0235 -0.1261  0.3850
    1MPD1    C113979   1.539   3.772  16.914  0.4579 -0.5634  0.2120
    1MPD1    C213980   1.671   3.772  16.871 -0.1505  0.0557  0.2445
    1MPD1    C313981   1.702   3.821  16.745  0.0235  0.2299 -0.5796
    1MPD1    C413982   1.600   3.881  16.670  0.0281  0.4809  0.9216
    1MPD1    C513983   1.468   3.870  16.703  0.0536 -0.1539 -0.3808
    1MPD1     H13984   1.747   3.746  16.944 -1.9363 -0.4389  1.9473
    1MPD1    H113985   1.618   3.925  16.572 -2.4312  0.6139  0.5302
    1MPD1    H213986   1.335   3.822  16.847  0.0899  2.1055  0.6423
    1MPD1    H313987   1.392   3.918  16.643 -0.8287  0.1471  0.9776
    1MPD1     N13988   1.838   3.837  16.696  0.3249  0.1858 -0.0115
    1MPD1    H513989   1.856   3.890  16.611  0.3511 -0.3985 -0.3715
    1MPD1    N113990   1.503   3.752  17.046 -0.1200 -0.0312  0.1403
    1MPD1    H613991   1.571   3.704  17.105  0.1632 -0.1062 -0.2461
    1MPD1    H713992   1.404   3.732  17.063 -0.1662  3.0801  3.4032
    2MPD1     C13993   2.790   4.093  16.811 -0.6497  0.2402 -0.3291
    2MPD1    C113994   2.671   4.134  16.854 -0.2833 -0.1841 -0.3126
    2MPD1    C213995   2.553   4.066  16.818 -0.9076 -0.0515 -0.5743
    2MPD1    C313996   2.558   3.965  16.728 -0.4269 -0.3812  0.1441
    2MPD1    C413997   2.678   3.931  16.667  0.1960 -0.2701  0.2561
    2MPD1    C513998   2.794   3.997  16.719 -0.3835  0.3020 -0.5621
    2MPD1     H13999   2.458   4.109  16.849  0.0002  2.4628 -1.3077
    2MPD1    H114000   2.690   3.869  16.579 -1.7677 -0.5093  0.1650
    2MPD1    H214001   2.882   4.142  16.841 -0.4927 -0.6732  0.6782
    2MPD1    H314002   2.893   3.973  16.681  0.0857  1.3872 -0.0157
    2MPD1     N14003   2.433   3.908  16.694 -0.0963 -0.7865 -0.1319
    2MPD1    H514004   2.353   3.946  16.743  0.6613  1.1843 -0.4234
    2MPD1    N114005   2.659   4.237  16.952  0.1352  0.3005 -0.3725
    2MPD1    H614006   2.752   4.273  16.972 -0.1397  0.7017  0.1693
    2MPD1    H714007   2.588   4.308  16.939  0.4043  0.2500 -2.0996
    3TMC3    C114008   2.280   3.769  16.585  0.7535  0.0418  0.8454
    3TMC3    C214009   2.243   3.738  16.459  0.4979  0.8047 -0.1094
    3TMC3    C314010   2.115   3.718  16.440  0.0660 -0.6745 -0.6831
    3TMC3    C414011   2.186   3.790  16.684  0.0084 -0.1598 -0.0421
    3TMC3    C514012   2.055   3.767  16.657 -0.0298  0.0419  1.7900
    3TMC3    C614013   2.018   3.728  16.535  0.0878  0.0826  0.2043
    3TMC3     C14014   2.418   3.813  16.591  0.1674 -0.0099  0.0140
    3TMC3     O14015   2.503   3.764  16.514 -0.0520 -1.0606 -0.5250
    3TMC3     H14016   2.312   3.718  16.378  0.1315 -3.2366  0.5945
    3TMC3    H114017   2.211   3.822  16.784 -0.3387  1.2927 -0.4167
    3TMC3    H214018   1.919   3.685  16.519  0.1552 -0.0061  0.0216
    3TMC3    C714019   1.957   3.796  16.757  0.4886  0.8570 -0.2587
    3TMC3    C814020   2.067   3.720  16.300 -0.0883  0.1332  0.5093
    3TMC3    O114021   1.976   3.750  16.869 -0.0151 -0.3349  0.4158
    3TMC3    O214022   1.947   3.684  16.285  0.3137  0.2095 -0.2860
    4MPD1     C14023   2.147   3.775  15.794  0.3154 -0.0001  0.0803
    4MPD1    C114024   2.251   3.832  15.861  0.0084  0.4208 -0.0138
    4MPD1    C214025   2.263   3.809  15.999 -0.1841  0.3390 -0.1574
    4MPD1    C314026   2.162   3.749  16.074  0.4200 -0.5687  0.1317
    4MPD1    C414027   2.047   3.714  16.004 -0.2611  0.3548  0.3166
    4MPD1    C514028   2.050   3.719  15.870 -0.1854  0.3242 -0.1176
    4MPD1     H14029   2.349   3.840  16.056 -1.3851 -1.6313  2.6961
    4MPD1    H114030   1.960   3.669  16.050 -1.2091 -0.2416 -2.0609
    4MPD1    H214031   2.135   3.792  15.687 -2.4397  1.4475  0.6290
    4MPD1    H314032   1.962   3.688  15.814  0.4409  1.5688 -1.7902
    4MPD1     N14033   2.171   3.759  16.215  0.3104 -0.8328  0.1873
    4MPD1    H514034   2.259   3.788  16.256  0.3107 -1.3611  0.5564
    4MPD1    N114035   2.359   3.885  15.790 -1.0352  0.4018  0.0847
    4MPD1    H614036   2.405   3.963  15.837  0.8040 -0.6163 -0.0570
    4MPD1    H714037   2.333   3.927  15.701 -0.9217 -1.1553 -0.6744
    1TCq1    O114038   3.165   3.419  11.892  0.0393 -0.0340  0.1435
    1TCq1    C114039   3.039   3.462  11.867  0.3817 -0.0527 -0.1941
    1TCq1    O214040   3.006   3.579  11.863 -0.4760  0.7519  0.0396
    1TCq1    C214041   2.979   3.357  11.780  0.2081  0.0858 -0.1951
    1TCq1    C314042   3.036   3.236  11.777 -0.7301  0.8316 -0.4976
    1TCq1    C414043   3.041   3.165  11.663 -0.0647 -0.3006 -0.2657
    1TCq1    C514044   2.959   3.206  11.558 -0.1937 -0.0843 -0.2467
    1TCq1    C614045   2.896   3.323  11.562 -0.9318 -0.8034 -0.7163
    1TCq1    C714046   2.909   3.405  11.671  0.3050  0.2298 -0.2512
    1TCq1    C814047   2.834   3.375  11.441 -0.5304 -0.0374  0.9405
    1TCq1    O414048   2.783   3.302  11.363 -0.1793 -1.0124 -0.0766
    1TCq1    C914049   3.055   3.026  11.668 -0.1525  0.0734  0.5588
    1TCq1    O514050   3.052   2.979  11.786 -0.5046 -0.2431 -0.0429
    1TCq1    O614051   3.080   2.961  11.564 -0.0798  0.3378 -0.3018
    1TCq1    H114052   3.161   3.321  11.895 -0.0610 -0.0937 -1.5406
    1TCq1    H214053   3.074   3.178  11.861  0.5233 -1.2850 -2.5046
    1TCq1    H314054   2.941   3.137  11.476  0.3131  0.1126 -0.5274
    1TCq1    H414055   2.859   3.501  11.675 -0.7878 -0.2956 -1.4050
    2MPD1     C14056   2.742   3.809  11.179  0.6486 -0.1427  0.0019
    2MPD1    C114057   2.794   3.845  11.295 -0.1532  0.0029 -0.1494
    2MPD1    C214058   2.811   3.744  11.389  0.5764  0.4931 -0.1528
    2MPD1    C314059   2.783   3.611  11.357 -1.0197  0.6447 -0.0733
    2MPD1    C414060   2.718   3.584  11.240 -0.0919 -0.9596  0.9741
    2MPD1    C514061   2.689   3.683  11.155 -0.2917 -0.2472  0.4822
    2MPD1     H14062   2.874   3.770  11.473 -0.6350  0.9351  0.6170
    2MPD1    H114063   2.694   3.482  11.212 -2.8939  1.0225 -3.7892
    2MPD1    H214064   2.742   3.882  11.099  3.1822 -0.3468 -0.1962
    2MPD1    H314065   2.645   3.665  11.057  2.5199 -1.1062 -0.6400
    2MPD1     N14066   2.834   3.514  11.445  0.0195  0.2515  0.5695
    2MPD1    H514067   2.892   3.550  11.520  0.7810 -2.4657  1.2906
    2MPD1    N114068   2.860   3.965  11.315  0.0280  0.2799 -0.0810
    2MPD1    H614069   2.835   3.994  11.410  2.2440 -2.7684  1.4203
    2MPD1    H714070   2.824   4.032  11.247 -0.1390  2.4132  2.0754
    1TCq1    O114071   0.606   2.338  10.328  0.4579 -0.4820  0.4766
    1TCq1    C114072   0.714   2.380  10.255  0.1253  0.1424  0.1366
    1TCq1    O214073   0.737   2.338  10.141 -0.5148 -0.2167  0.3858
    1TCq1    C214074   0.800   2.468  10.324  0.1856  0.3223 -0.2068
    1TCq1    C314075   0.741   2.581  10.373 -0.2065  0.0645 -0.9021
    1TCq1    C414076   0.825   2.682  10.407 -0.6935  0.5238  0.0053
    1TCq1    C514077   0.952   2.657  10.417  0.9282 -0.2531 -0.0615
    1TCq1    C614078   1.001   2.532  10.380  0.6406  0.2536 -0.6878
    1TCq1    C714079   0.928   2.441  10.314 -0.6469  0.4169  0.1058
    1TCq1    C814080   1.146   2.493  10.391 -0.2775 -0.7190 -0.3503
    1TCq1    O414081   1.190   2.420  10.301  0.1153  0.0570  0.3425
    1TCq1    C914082   0.780   2.799  10.483 -0.7470 -0.3227  0.2436
    1TCq1    O514083   0.864   2.850  10.564 -0.6352 -0.2116  0.2889
    1TCq1    O614084   0.664   2.837  10.483  0.0695  0.1786  0.7229
    1TCq1    H114085   0.609   2.387  10.413  0.5906  0.6928 -0.2030
    1TCq1    H214086   0.636   2.602  10.356  0.2606  1.4429 -2.0099
    1TCq1    H314087   1.017   2.727  10.468 -0.1149  0.6978 -0.0657
    1TCq1    H414088   0.974   2.344  10.299 -0.8621  0.2998  0.1978
    2MPD1     C14089   1.613   2.640  10.515  0.2754 -0.3488  0.7203
    2MPD1    C114090   1.522   2.682  10.613 -0.6390  0.3355 -0.3472
    2MPD1    C214091   1.389   2.653  10.599  0.0891 -0.4014 -0.4486
    2MPD1    C314092   1.342   2.583  10.494  0.3625  0.6074  0.2260
    2MPD1    C414093   1.431   2.526  10.404  0.2791  0.7775  0.7952
    2MPD1    C514094   1.560   2.557  10.420  0.3073 -0.1291 -0.4035
    2MPD1     H14095   1.318   2.702  10.665  0.4707 -1.4720  0.7722
    2MPD1    H114096   1.399   2.465  10.321 -0.3729  0.3949  1.3236
    2MPD1    H214097   1.718   2.666  10.513  0.3223 -0.6865 -0.9453
    2MPD1    H314098   1.633   2.514  10.352  2.9472 -0.2422  2.5203
    2MPD1     N14099   1.207   2.564  10.488  0.0327  0.0403  0.0011
    2MPD1    H514100   1.150   2.608  10.560  0.0934  1.2476 -0.6798
    2MPD1    N114101   1.557   2.783  10.704 -0.3832  0.4238  0.0014
    2MPD1    H614102   1.504   2.791  10.790  1.0048 -0.9584  0.9770
    2MPD1    H714103   1.656   2.779  10.725 -0.4373 -0.3420  0.1151
    1MPD1     C14104   4.687   2.799  12.194  0.1889  0.2406  0.6775
    1MPD1    C114105   0.072   2.802  12.114 -0.0855 -0.9102  0.3173
    1MPD1    C214106   0.113   2.921  12.062  0.0452  0.3037  0.0382
    1MPD1    C314107   0.046   3.041  12.080 -0.4574 -0.3703  0.3803
    1MPD1    C414108   4.658   3.030  12.159 -1.3453  0.0657  0.5016
    1MPD1    C514109   4.625   2.913  12.216  0.3288  0.0745  0.6676
    1MPD1     H14110   0.206   2.919  12.007 -1.3008 -1.9255 -2.1830
    1MPD1    H114111   4.602   3.117  12.188 -1.2664  0.7167 -1.2663
    1MPD1    H214112   4.650   2.708  12.240  0.6713 -0.8964 -1.1557
    1MPD1    H314113   4.544   2.899  12.287 -1.0347  0.6171 -0.7519
    1MPD1     N14114   0.092   3.156  12.017 -0.2289 -0.0367 -0.3580
    1MPD1    H514115   0.174   3.144  11.958  0.7305  2.2947  0.5011
    1MPD1    N114116   0.128   2.682  12.078  0.4972  0.2509 -0.2369
    1MPD1    H614117   0.108   2.608  12.146  1.4990  1.2474  1.1476
    1MPD1    H714118   0.229   2.682  12.071  0.4229 -0.2540 -1.3175
    2MPD1     C14119   3.867   3.833  11.413 -0.4303  0.1843 -0.2015
    2MPD1    C114120   3.864   3.841  11.273 -0.5305  0.4427 -0.2207
    2MPD1    C214121   3.950   3.753  11.203 -0.6103  0.3013  0.6253
    2MPD1    C314122   4.040   3.670  11.268  0.5707 -0.0096 -0.3549
    2MPD1    C414123   4.045   3.675  11.404 -0.1340 -0.1740 -0.2586
    2MPD1    C514124   3.966   3.758  11.476 -0.2497 -0.9382  0.7639
    2MPD1     H14125   3.940   3.749  11.095 -2.1244 -0.7298  0.7936
    2MPD1    H114126   4.110   3.608  11.460  0.4319  0.5869 -0.0093
    2MPD1    H214127   3.789   3.889  11.463 -0.4250 -1.2816  1.4478
    2MPD1    H314128   3.980   3.767  11.583  0.4001 -0.2111  0.6162
    2MPD1     N14129   4.115   3.575  11.196  0.3718  0.4071  0.2435
    2MPD1    H514130   4.193   3.534  11.247  0.0081  0.8317  1.1273
    2MPD1    N114131   3.776   3.918  11.199 -0.5982 -0.2946 -0.4678
    2MPD1    H614132   3.816   3.950  11.110  1.7991  0.8745  1.0202
    2MPD1    H714133   3.746   3.999  11.253  1.1576  0.5637 -0.7398
    3MPD1     C14134   4.458   3.336  10.193 -0.9111  0.3343 -0.1545
    3MPD1    C114135   4.559   3.406  10.254 -0.3295 -0.7591  0.0245
    3MPD1    C214136   4.554   3.431  10.392 -0.1981 -0.6421 -0.4945
    3MPD1    C314137   4.439   3.400  10.461 -0.3685  0.7853  0.1525
    3MPD1    C414138   4.335   3.338  10.395 -0.5002  0.5100 -0.6342
    3MPD1    C514139   4.348   3.294  10.264  0.1791 -0.3668 -0.7134
    3MPD1     H14140   4.634   3.486  10.441 -1.0370  1.9255 -2.0002
    3MPD1    H114141   4.241   3.305  10.438  0.8356 -1.0561  1.0479
    3MPD1    H214142   4.461   3.310  10.088  0.6345 -0.4455  0.0786
    3MPD1    H314143   4.263   3.258  10.207  0.4085 -0.0835 -1.2296
    3MPD1     N14144   4.427   3.443  10.590  0.2977 -0.2753 -0.2698
    3MPD1    H514145   4.491   3.507  10.635  2.1646 -1.6592 -0.9624
    3MPD1    N114146   4.662   3.459  10.174  0.5212  0.0216 -0.1016
    3MPD1    H614147   4.684   3.414  10.086  0.4077 -0.2992  0.0342
    3MPD1    H714148   0.020   3.474  10.229  0.9694 -0.4886 -0.6543
    4MPD2     C14149   4.724   3.864  11.591 -0.5107 -0.5119  0.5701
    4MPD2    C114150   0.127   3.827  11.626 -0.0892  0.7921  0.4776
    4MPD2    C214151   0.236   3.867  11.554  0.0535 -0.0739 -0.0044
    4MPD2    C314152   0.217   3.946  11.441  0.0711 -0.4235  0.2663
    4MPD2    C414153   0.094   3.994  11.411 -0.1545  0.0630 -0.1395
    4MPD2    C514154   4.720   3.945  11.479 -0.0669 -0.2625  0.1405
    4MPD2     H14155   0.326   3.816  11.585 -0.7403 -0.5774  1.4920
    4MPD2    H114156   0.079   4.053  11.320  0.4462  1.3962  0.6219
    4MPD2    H214157   4.632   3.836  11.640 -1.5383 -0.3178 -1.2484
    4MPD2    H314158   4.627   3.984  11.439 -0.5016 -0.3458  1.0986
    4MPD2     N14159   0.322   3.973  11.354  0.1467 -0.5587  0.4917
    4MPD2    H514160   0.298   4.018  11.267  1.1614 -2.1469 -0.5925
    4MPD2    N114161   0.158   3.753  11.741 -0.5565 -0.3838 -0.3687
    4MPD2    H714162   0.254   3.727  11.761  0.0172  0.9117 -1.4052
    5TMC3    C114163   0.119   3.609  11.920  0.8172  0.0603  0.4334
    5TMC3    C214164   0.035   3.502  11.932  0.5693 -0.2517  0.6651
    5TMC3    C314165   0.078   3.370  11.917  0.1677 -0.1969  0.5193
    5TMC3    C414166   0.251   3.581  11.898 -0.2175  0.5241  0.5086
    5TMC3    C514167   0.282   3.460  11.860 -0.8641  1.0383 -0.3889
    5TMC3    C614168   0.201   3.351  11.863  0.4640 -0.0456 -0.3017
    5TMC3     C14169   0.064   3.710  11.835 -0.2157  0.0664 -0.1506
    5TMC3     O14170   4.671   3.726  11.833 -0.0598  0.0677  0.0142
    5TMC3     H14171   4.655   3.520  11.948  0.6534  1.2204 -0.5046
    5TMC3    H114172   0.321   3.664  11.904 -0.5164  0.7905  0.3198
    5TMC3    H214173   0.244   3.252  11.852 -1.5268 -0.9431  0.0390
    5TMC3    C714174   0.374   3.470  11.749  0.1533  0.6611  0.1472
    5TMC3    C814175   0.016   3.266  11.993 -0.7589  1.1934 -0.2690
    5TMC3    O114176   0.386   3.588  11.703  0.0452 -0.0194 -0.4754
    5TMC3    O214177   4.630   3.299  12.025  0.6100 -0.2085 -0.1863
    6TMC3    C114178   4.229   3.491  11.012  0.3487  0.0796 -0.0311
    6TMC3    C214179   4.226   3.444  10.887 -0.4324  0.3029  0.1283
    6TMC3    C314180   4.334   3.425  10.818  1.2383  0.6746  0.6618
    6TMC3    C414181   4.352   3.525  11.063  0.4057 -0.4960  0.2207
    6TMC3    C514182   4.462   3.499  10.983 -0.0392 -0.1086 -0.2596
    6TMC3    C614183   4.456   3.458  10.853 -0.1360  0.5275  0.0204
    6TMC3     C14184   4.108   3.557  11.060  0.2876 -0.4569  0.5357
    6TMC3     O14185   4.023   3.583  10.977 -0.1229 -0.3512 -0.0900
    6TMC3     H14186   4.132   3.416  10.842  1.9040 -1.8356 -3.3194
    6TMC3    H114187   4.354   3.595  11.146  2.7190  1.6791 -1.6335
    6TMC3    H214188   4.543   3.435  10.793 -0.7310 -1.4435 -0.0865
    6TMC3    C714189   4.594   3.516  11.030 -0.0472 -0.0032  0.1450
    6TMC3    C814190   4.318   3.410  10.670  0.5485 -0.6255 -0.2821
    6TMC3    O114191   4.690   3.497  10.951 -0.3917 -0.3248 -0.1333
    6TMC3    O214192   4.218   3.347  10.643  0.2813  0.3338  0.2481
    7MPD2     C14193   0.674   3.266  11.370 -0.2196 -0.7173  1.0223
    7MPD2    C114194   0.640   3.395  11.406  0.7299  1.1053  0.1124
    7MPD2    C214195   0.551   3.426  11.510 -0.2438  0.1913  0.3968
    7MPD2    C314196   0.488   3.328  11.580 -0.6157  0.4519 -0.2407
    7MPD2    C414197   0.519   3.196  11.541  1.1419  0.2031  0.3156
    7MPD2    C514198   0.610   3.167  11.444  0.0909  0.0049 -0.7568
    7MPD2     H14199   0.520   3.529  11.528 -1.2106 -0.9717  5.3915
    7MPD2    H114200   0.494   3.114  11.608  1.6537 -1.0987 -1.0846
    7MPD2    H214201   0.765   3.247  11.314  0.8544  2.0462  1.8458
    7MPD2    H314202   0.638   3.062  11.435  1.1056  0.1517  0.7741
    7MPD2     N14203   0.406   3.343  11.694 -0.3737  0.4416  0.2455
    7MPD2    H514204   0.375   3.261  11.745 -1.9389  1.2377  0.5644
    7MPD2    N114205   0.701   3.497  11.331 -0.4538 -0.2179  0.3565
    7MPD2    H714206   0.723   3.466  11.236  4.3274 -0.2855  1.4912
    8TMC3    C114207   0.678   3.723  11.259 -0.0352 -0.2825  0.4732
    8TMC3    C214208   0.598   3.664  11.165 -0.8209  0.7628 -0.6970
    8TMC3    C314209   0.506   3.744  11.096  0.4241  0.0093  0.1193
    8TMC3    C414210   0.654   3.850  11.298  0.2497  0.5095 -0.4855
    8TMC3    C514211   0.541   3.913  11.254 -0.2763  0.0603  0.1605
    8TMC3    C614212   0.475   3.868  11.145  0.8495  0.0002  0.4255
    8TMC3     C14213   0.702   3.630  11.368 -0.4077 -0.7753  0.3067
    8TMC3     O14214   0.698   3.682  11.482 -0.1217 -0.0792 -0.0681
    8TMC3     H14215   0.625   3.567  11.125 -0.7532  0.4152  0.1883
    8TMC3    H114216   0.702   3.888  11.387  0.3897 -0.7897 -0.0005
    8TMC3    H214217   0.384   3.910  11.104  0.4218 -0.8560  0.5091
    8TMC3    C714218   0.451   3.932  11.374  0.0053 -0.3190 -0.3196
    8TMC3    C814219   0.380   3.675  11.093  0.3061  0.3932 -0.7763
    8TMC3    O114220   0.499   3.879  11.475  0.6436  0.2759  0.2254
    8TMC3    O214221   0.336   3.650  10.981  0.0415 -0.0329  0.3796
    9MPD2     C14222   0.208   3.563  11.405  0.1315 -0.4367  0.1030
    9MPD2    C114223   0.231   3.575  11.271 -0.5053  0.0647 -0.3495
    9MPD2    C214224   0.119   3.559  11.194  0.3979 -0.3413 -0.1319
    9MPD2    C314225   4.715   3.537  11.242 -0.4678 -0.1746 -0.5669
    9MPD2    C414226   4.697   3.537  11.377  0.9003  0.1952  0.0539
    9MPD2    C514227   0.081   3.547  11.460 -0.0781  0.5310  0.3549
    9MPD2     H14228   0.123   3.557  11.085 -2.9699 -2.5916 -0.2321
    9MPD2    H114229   4.599   3.518  11.419  1.0309 -0.2372  0.1642
    9MPD2    H214230   0.293   3.581  11.471 -0.8567  0.7170  1.0686
    9MPD2    H314231   0.067   3.557  11.567 -1.0297 -1.7670  0.4345
    9MPD2     N14232   4.601   3.521  11.160  0.1705 -0.4599 -0.6587
    9MPD2    H514233   4.518   3.499  11.215  1.1212  1.7746  1.6754
    9MPD2    N114234   0.354   3.624  11.218 -0.4523  0.1626 -0.3013
    9MPD2    H714235   0.423   3.646  11.289  0.8469  1.0325 -1.8394
    1MPD1     C14236   0.058   2.514  16.709 -0.6765 -0.3093 -0.3003
    1MPD1    C114237   0.177   2.482  16.640 -0.0046  0.8244 -0.3461
    1MPD1    C214238   0.167   2.428  16.516 -0.7565 -0.9197 -1.0905
    1MPD1    C314239   0.041   2.393  16.466 -0.5274  0.4604 -0.6708
    1MPD1    C414240   4.656   2.424  16.538  0.1317  0.0384 -0.3372
    1MPD1    C514241   4.664   2.492  16.652 -0.4159  0.0207 -0.2451
    1MPD1     H14242   0.262   2.408  16.467  0.3414 -0.7695  1.0025
    1MPD1    H114243   4.558   2.385  16.510 -1.0829  2.1243  1.0233
    1MPD1    H214244   0.052   2.543  16.813  2.3675  1.3949 -0.6130
    1MPD1    H314245   4.570   2.506  16.704  0.4005  0.2698  1.1595
    1MPD1     N14246   0.020   2.327  16.346  0.1153 -0.1108  0.5769
    1MPD1    H514247   4.648   2.311  16.326 -0.2590  1.1092  1.4338
    1MPD1    N114248   0.296   2.487  16.711 -0.0137 -0.1389 -0.1635
    1MPD1    H614249   0.383   2.483  16.659  0.2108  0.6068  0.1577
    1MPD1    H714250   0.303   2.567  16.774 -0.2091 -0.6514  0.5009
    2MPD1     C14251   0.605   1.768  15.778  0.6754 -0.3643 -0.1516
    2MPD1    C114252   0.574   1.767  15.908 -0.2265  0.1546  0.8570
    2MPD1    C214253   0.459   1.828  15.949  0.0925 -0.6781 -0.4972
    2MPD1    C314254   0.389   1.906  15.861  0.4920 -0.1298  0.1377
    2MPD1    C414255   0.418   1.906  15.729  0.7059  0.4013  0.8551
    2MPD1    C514256   0.525   1.832  15.685 -0.2106 -0.4431  0.5337
    2MPD1     H14257   0.428   1.818  16.053  0.9509  1.5288 -0.0111
    2MPD1    H114258   0.352   1.962  15.664  3.7382  1.4921 -1.2759
    2MPD1    H214259   0.702   1.725  15.752  0.2215 -1.8830  0.6930
    2MPD1    H314260   0.561   1.846  15.583 -0.1029 -1.4709  0.4370
    2MPD1     N14261   0.273   1.969  15.916 -0.4334 -0.1349  0.1142
    2MPD1    H514262   0.262   1.959  16.017 -0.1699  2.7583  0.4302
    2MPD1    N114263   0.646   1.682  15.988 -0.5291 -0.2475  0.0034
    2MPD1    H614264   0.652   1.721  16.082 -2.4948 -2.7765  1.1699
    2MPD1    H714265   0.740   1.664  15.952 -0.2751  0.1195  0.4880
    3TCq2    C114266   0.180   2.043  15.850 -0.4117  0.6310  0.5071
    3TCq2    O214267   0.146   2.053  15.730 -0.2940 -0.5085 -0.2862
    3TCq2    C214268   0.084   2.103  15.942 -0.1256  0.1108 -0.0333
    3TCq2    C314269   4.687   2.146  15.887 -0.3711 -0.1828 -0.5489
    3TCq2    C414270   4.613   2.226  15.976  0.4435 -0.0650 -0.1061
    3TCq2    C514271   4.651   2.264  16.099 -0.1918 -1.1406 -1.0926
    3TCq2    C614272   0.050   2.230  16.139  0.1245 -0.0442  0.1560
    3TCq2    C714273   0.128   2.155  16.060  0.6451  0.3084 -1.1218
    3TCq2    C814274   0.113   2.279  16.256  0.1166  0.0729 -0.5241
    3TCq2    O414275   0.238   2.294  16.247  0.9667  0.0999  0.1248
    3TCq2    C914276   4.491   2.280  15.926 -0.0835  0.5041 -0.5813
    3TCq2    O514277   4.454   2.235  15.814  0.2682 -0.1215  0.3625
    3TCq2    O614278   4.415   2.345  16.001  0.0677 -0.4202 -0.6308
    3TCq2    H214279   4.651   2.119  15.789 -1.3388  0.8511 -0.4841
    3TCq2    H314280   4.580   2.321  16.158  1.2568 -0.8576  0.3634
    3TCq2    H414281   0.234   2.145  16.081  0.0729 -2.5805  0.2897
    1TCq1    O114282   2.999   1.396  12.819  0.8380 -0.0812  0.5266
    1TCq1    C114283   2.893   1.394  12.899  0.4064  0.1325  0.1795
    1TCq1    O214284   2.805   1.312  12.879 -0.7179 -0.6524  0.1364
    1TCq1    C214285   2.866   1.530  12.943  0.2124  0.3667  0.1873
    1TCq1    C314286   2.751   1.590  12.910 -0.5132 -0.3632 -0.0862
    1TCq1    C414287   2.736   1.721  12.928 -0.7304 -0.5750 -0.1408
    1TCq1    C514288   2.833   1.792  12.995  0.4808  0.2399  0.4163
    1TCq1    C614289   2.936   1.726  13.037  0.6769 -0.0064  0.9750
    1TCq1    C714290   2.956   1.593  13.009 -0.2583  0.4152  0.0048
    1TCq1    C814291   3.054   1.799  13.085  0.4233  0.1591  0.1451
    1TCq1    O414292   3.064   1.915  13.042  0.4777  0.7056  0.0549
    1TCq1    C914293   2.616   1.785  12.887 -0.2301  0.1662 -0.0976
    1TCq1    O514294   2.539   1.719  12.813  0.2070 -0.0341 -0.1433
    1TCq1    O614295   2.590   1.897  12.944  0.0099  0.8039 -0.1240
    1TCq1    H114296   3.049   1.477  12.797  0.2072  0.1430 -0.0826
    1TCq1    H214297   2.681   1.530  12.852  0.8157 -1.0370 -0.9954
    1TCq1    H314298   2.812   1.896  13.013  1.3866  0.3626  0.7551
    1TCq1    H414299   3.055   1.548  13.013 -0.5513 -0.3738 -1.5339
    2MPD2     C14300   3.319   1.858  13.230 -0.5073  0.0936 -0.6590
    2MPD2    C114301   3.252   1.738  13.241  0.0542 -0.7432 -0.6019
    2MPD2    C214302   3.299   1.632  13.319 -1.2558  0.2240 -0.0770
    2MPD2    C314303   3.425   1.644  13.380 -0.4349  0.4394  0.0050
    2MPD2    C414304   3.490   1.766  13.373  0.7583  0.7009  0.1708
    2MPD2    C514305   3.442   1.868  13.296  0.1852 -0.2393  0.3769
    2MPD2     H14306   3.243   1.540  13.330 -0.6914  0.1981  2.6278
    2MPD2    H114307   3.588   1.776  13.417 -0.4123  2.0515  2.4682
    2MPD2    H214308   3.277   1.947  13.185 -1.3461 -0.0161 -0.0961
    2MPD2    H314309   3.500   1.959  13.287  0.9815 -0.7594  0.1845
    2MPD2     N14310   3.471   1.531  13.454  0.3562 -0.1278  0.4528
    2MPD2    H514311   3.413   1.447  13.451 -0.6171  0.5657 -0.1182
    2MPD2    N114312   3.123   1.717  13.174 -0.2014  0.1411 -0.5157
    2MPD2    H714313   3.076   1.627  13.183 -1.9907  1.2087  0.9706
    3TCq1    O114314   3.507   1.073  13.378 -0.0434  0.3266 -0.4895
    3TCq1    C114315   3.580   1.046  13.489  0.4171  0.2371 -0.1362
    3TCq1    O214316   3.578   0.938  13.545  0.2986  0.3860  0.0227
    3TCq1    C214317   3.620   1.167  13.547 -0.0142 -0.1157  0.2132
    3TCq1    C314318   3.718   1.159  13.640 -0.8330 -0.0115 -0.1905
    3TCq1    C414319   3.779   1.272  13.690  0.0682  0.1306  0.3279
    3TCq1    C514320   3.734   1.395  13.658 -0.0700 -0.3433  0.4883
    3TCq1    C614321   3.623   1.400  13.572 -0.4977 -0.4498  0.6752
    3TCq1    C714322   3.566   1.291  13.516  0.0977 -0.0941  0.3052
    3TCq1    C814323   3.589   1.528  13.521 -0.1062 -0.7529 -1.1562
    3TCq1    O414324   3.671   1.620  13.535 -0.2206  0.1747 -0.3131
    3TCq1    C914325   3.894   1.262  13.773  0.1572 -0.3265 -0.0286
    3TCq1    O514326   3.971   1.358  13.764 -0.1323 -0.1839  0.0184
    3TCq1    O614327   3.905   1.153  13.833 -0.4433  0.3342 -0.4412
    3TCq1    H114328   3.528   1.158  13.335 -1.4813  0.8618 -0.1524
    3TCq1    H214329   3.760   1.062  13.663 -0.3613  0.1302 -0.4351
    3TCq1    H314330   3.771   1.485  13.705 -0.0383  0.1675 -0.5023
    3TCq1    H414331   3.489   1.295  13.440  0.2277  2.7459  0.3386
    1MPD2     C14332   2.487   1.997  14.521 -0.1543  0.2588  0.3391
    1MPD2    C114333   2.369   1.966  14.459  0.0023  0.4161  0.3711
    1MPD2    C214334   2.375   1.862  14.373 -0.1352 -0.3985  0.2956
    1MPD2    C314335   2.491   1.792  14.337  0.1008  0.3463  0.4420
    1MPD2    C414336   2.602   1.813  14.416  0.3320 -0.3020 -0.0677
    1MPD2    C514337   2.592   1.909  14.513 -0.2191  0.2603  0.3309
    1MPD2     H14338   2.283   1.841  14.320  1.7118 -1.8719 -2.3994
    1MPD2    H114339   2.697   1.764  14.398  0.0864 -0.0390 -2.0334
    1MPD2    H214340   2.502   2.084  14.584 -0.4651 -0.0561  0.8448
    1MPD2    H314341   2.678   1.935  14.574  0.1807  1.4711 -0.7711
    1MPD2     N14342   2.492   1.685  14.246 -0.1024 -0.7268 -0.5227
    1MPD2    H514343   2.573   1.624  14.238 -0.8770 -2.3159  3.5962
    1MPD2    N114344   2.251   2.042  14.493 -0.2309  0.4037 -0.2820
    1MPD2    H714345   2.259   2.114  14.563  2.0029 -2.0559  1.9721
    2TMC3    C114346   2.024   2.119  14.475 -0.1121  0.7125 -0.1413
    2TMC3    C214347   1.914   2.038  14.497  0.7019 -0.1465  0.0496
    2TMC3    C314348   1.791   2.079  14.456 -0.8041  0.0827 -0.2432
    2TMC3    C414349   2.016   2.235  14.403  0.2565  0.1038  1.1599
    2TMC3    C514350   1.889   2.279  14.370  0.1979 -0.8867  0.4800
    2TMC3    C614351   1.774   2.202  14.401  0.0689  0.3568  0.3699
    2TMC3     C14352   2.126   2.030  14.432 -0.0869  0.1781  0.1037
    2TMC3     O14353   2.092   1.943  14.354 -0.4276  0.0855 -0.3614
    2TMC3     H14354   1.925   1.959  14.570  1.3441  0.4772  0.6252
    2TMC3    H114355   2.111   2.283  14.384 -0.0976  0.7329  0.9805
    2TMC3    H214356   1.678   2.225  14.356  0.6255  0.6803 -0.6339
    2TMC3    C714357   1.880   2.384  14.273  0.2270 -0.8164 -0.4602
    2TMC3    C814358   1.717   1.965  14.395 -0.3657  0.6357 -0.6661
    2TMC3    O114359   1.781   2.402  14.203 -0.3806 -0.1273  0.0348
    2TMC3    O214360   1.593   1.974  14.396 -0.2098 -0.1862  0.2162
    3TCq1    O114361   2.661   3.291  14.294  0.1337  0.2741  0.1490
    3TCq1    C114362   2.726   3.226  14.197  0.5083  1.0733  0.1303
    3TCq1    O214363   2.780   3.276  14.102 -0.0708 -0.1601  0.8610
    3TCq1    C214364   2.696   3.089  14.219  0.1687  0.2882 -0.2323
    3TCq1    C314365   2.739   3.026  14.337  0.1889 -0.2885 -0.5536
    3TCq1    C414366   2.663   2.929  14.388 -0.6864 -0.4986  0.5295
    3TCq1    C514367   2.571   2.867  14.312  0.1675  0.6018 -0.6331
    3TCq1    C614368   2.534   2.921  14.186  0.0361  0.4614 -0.0924
    3TCq1    C714369   2.595   3.038  14.148 -0.1295  0.9390 -0.6829
    3TCq1    C814370   2.429   2.859  14.107 -0.7866  0.9912  0.2043
    3TCq1    O414371   2.428   2.890  13.992  0.0251  0.2340  0.2936
    3TCq1    C914372   2.695   2.867  14.515  0.2474  0.3843 -0.1145
    3TCq1    O514373   2.795   2.906  14.579  0.1068  0.9723  0.0568
    3TCq1    O614374   2.641   2.750  14.532  0.2776  0.2146  0.2502
    3TCq1    H114375   2.635   3.220  14.357  1.6888 -2.3136 -2.1116
    3TCq1    H214376   2.815   3.072  14.399 -0.6091  0.6940 -0.2967
    3TCq1    H314377   2.527   2.773  14.344 -2.6343  2.1472  0.0288
    3TCq1    H414378   2.562   3.098  14.065 -0.8476 -1.3857 -2.0841
    4MPD2     C14379   2.177   2.719  14.006 -0.3592  0.6508 -0.3873
    4MPD2    C114380   2.228   2.714  14.141  0.6324  0.4535  0.0955
    4MPD2    C214381   2.167   2.618  14.221 -0.0535  0.0479 -0.1208
    4MPD2    C314382   2.045   2.557  14.189  0.0048 -0.0228  0.1839
    4MPD2    C414383   1.986   2.580  14.066 -0.5099 -0.2475  0.2048
    4MPD2    C514384   2.051   2.663  13.977  0.8116 -0.1346 -0.2284
    4MPD2     H14385   2.212   2.597  14.317  0.3734  0.1049 -0.3100
    4MPD2    H114386   1.896   2.524  14.043 -0.1175 -0.8055  0.0016
    4MPD2    H214387   2.222   2.781  13.929  1.1794  1.2491  0.9818
    4MPD2    H314388   2.007   2.678  13.880  1.4298  1.5925 -0.2496
    4MPD2     N14389   1.994   2.468  14.284 -0.1925  0.2047 -0.2636
    4MPD2    H514390   2.057   2.444  14.359 -1.5495 -1.0298  0.4704
    4MPD2    N114391   2.348   2.777  14.183 -0.5837 -0.0103  0.1308
    4MPD2    H714392   2.381   2.755  14.277  0.6583  0.7361 -0.1173
    5TMC2    C114393   2.211   1.371  14.075  0.7409  0.4403 -0.5944
    5TMC2    C214394   2.268   1.288  14.161  0.5724  0.1426 -0.2305
    5TMC2    C314395   2.397   1.316  14.204 -0.3064  0.3439 -0.0389
    5TMC2    C414396   2.272   1.490  14.055 -0.0949 -0.0705 -0.1554
    5TMC2    C514397   2.398   1.518  14.110  0.2430 -0.4311 -0.2218
    5TMC2    C614398   2.470   1.425  14.172  0.4091  0.2622  0.4362
    5TMC2     C14399   2.071   1.387  14.096  0.6280  0.1038  0.4359
    5TMC2     O14400   1.998   1.291  14.076  0.3143 -0.0157  0.2504
    5TMC2     H14401   2.230   1.193  14.198  2.7788 -1.0511 -1.0542
    5TMC2    H114402   2.225   1.558  13.985 -0.4217  0.0922  0.2245
    5TMC2    H214403   2.571   1.445  14.206  0.4575  1.3407 -0.3646
    5TMC2    C714404   2.378   1.639  14.183  0.4461  0.6109  1.0473
    5TMC2    C814405   2.426   1.263  14.339  0.4251 -0.3240  0.2128
    5TMC2    O114406   2.259   1.669  14.189 -0.4364 -0.0905 -0.0117
    5TMC2    O214407   2.347   1.191  14.396  0.4310 -0.6577  0.0331
    5TMC2    O514408   2.502   1.350  14.405  0.0668  0.6312 -0.2573
    5TMC2    H514409   2.582   1.376  14.355 -1.6440  2.9663 -1.8289
    6MPD2     C14410   1.692   1.676  14.286  0.5442  0.1176  0.0736
    6MPD2    C114411   1.808   1.752  14.290  0.6389  0.3191 -0.1580
    6MPD2    C214412   1.915   1.681  14.243 -0.0198 -0.0533  0.0276
    6MPD2    C314413   1.923   1.555  14.192 -0.5118 -0.0261  0.2180
    6MPD2    C414414   1.803   1.484  14.189 -0.4061 -0.1018 -0.5770
    6MPD2    C514415   1.691   1.549  14.237  0.1503 -0.1302  0.3878
    6MPD2     H14416   2.004   1.742  14.230 -0.1567  0.3979  1.2037
    6MPD2    H114417   1.804   1.378  14.168 -2.4313 -0.4885  1.3349
    6MPD2    H214418   1.603   1.718  14.332  0.5106  0.5978 -0.4332
    6MPD2    H314419   1.600   1.494  14.255  0.0991 -0.8310 -2.0501
    6MPD2     N14420   2.047   1.509  14.156 -0.4507 -0.1550  0.3790
    6MPD2    H514421   2.119   1.581  14.161  1.7557 -2.5430  3.2091
    6MPD2    N114422   1.816   1.881  14.348 -0.7307 -0.4413 -0.0311
    6MPD2    H714423   1.912   1.913  14.355 -0.7978 -0.6542  1.8199
  945NH3     N114424   1.581   0.757  13.461 -0.3269 -0.7140  0.1150
  945NH3     H214425   1.668   0.720  13.497 -0.8239 -0.5196  1.4975
  945NH3     H314426   1.525   0.753  13.545  0.5324 -1.3031  0.6635
  945NH3     H414427   1.548   0.675  13.410 -2.6925  1.7374 -2.2505
  946SOD     NA14428   1.750   0.067  14.809 -0.3604 -0.0640 -0.2636
  947SOD     NA14429   4.252   2.307  15.867 -0.2054 -0.5559  0.3148
  948SOD     NA14430   2.890   2.881  16.656 -0.2096 -0.1963  0.2902
  949SOD     NA14431   4.199   1.839  13.963 -0.0043 -0.1730  0.4697
  950SOD     NA14432   3.215   3.848   0.893  0.4651 -0.1496  0.2460
  951SOD     NA14433   0.973   0.775   1.559 -0.1002 -0.0359  0.3811
  952SOD     NA14434   2.227   1.222   9.730 -0.4438  0.0605 -0.0379
  953SOD     NA14435   3.058   2.375   8.382 -0.0017  0.0912  0.3759
  954SOD     NA14436   4.344   2.116  13.985 -0.4900 -0.2968  0.2179
  955SOD     NA14437   2.819   2.624  14.496  0.1218 -0.3166 -1.2416
  956SOD     NA14438   3.418   0.173   8.896 -0.1245 -0.2720 -0.6077
  957SOD     NA14439   2.349   2.419  14.529  0.1638  0.1842 -0.3437
  958SOD     NA14440   3.907   1.100  12.913  0.4261  0.5683  0.4343
  959SOD     NA14441   4.270   1.333  13.997 -0.3911 -0.0602 -0.1615
  960SOD     NA14442   1.135   0.740  10.240 -0.3270  0.0443 -0.2414
  961SOD     NA14443   2.192   0.344  10.869 -0.1934 -0.0148 -0.4040
  962SOD     NA14444   2.371   1.642  11.177 -0.2977  0.0112 -0.1994
  963SOD     NA14445   2.224   0.420   1.209  0.2107 -0.0845  0.2858
  964SOD     NA14446   1.630   0.117  10.735  0.1976 -0.1785  0.2701
  965SOD     NA14447   0.149   1.254  17.050 -0.1487  0.0438  0.0298
  966SOD     NA14448   4.606   2.332  17.550 -0.0312  0.0332  0.2395
  967SOD     NA14449   4.332   1.029   2.764  0.3508  0.2951  0.1766
  968SOD     NA14450   3.446   2.581   0.947  0.3659 -0.1303  0.3834
  969SOD     NA14451   2.491   1.436  11.460 -0.1301 -0.4401 -0.1267
  970SOD     NA14452   1.117   1.096   7.870 -0.4180  0.5552 -0.2339
  971SOD     NA14453   1.900   0.986  15.280 -0.2143  0.2247  1.0248
  972SOD     NA14454   3.121   2.776  11.768 -0.0753 -0.2602 -0.1222
  973SOD     NA14455   0.038   4.708   1.579  0.3944  0.5579  0.2864
  974SOD     NA14456   2.470   2.894  12.599 -0.3339  0.1776 -0.0235
  975SOD     NA14457   3.601   4.228  17.620 -0.1598 -0.0938  0.6267
  976SOD     NA14458   4.209   2.593  13.314  0.0273  0.1454  0.2259
  977SOD     NA14459   2.285   0.962  12.612  0.5108  0.3704 -0.2119
  978SOD     NA14460   4.265   2.932   1.656  0.0905 -0.0138  0.2654
  979SOD     NA14461   4.530   0.901  12.197 -0.7269  0.4975  0.7201
  980SOD     NA14462   3.933   4.693  13.978  0.6760 -0.8164 -0.2221
  981SOD     NA14463   3.631   1.553  11.018 -0.4532 -0.3991 -0.0075
  982SOD     NA14464   3.977   0.251  16.683 -0.4526 -0.0314 -0.0830
  983SOD     NA14465   0.546   1.276   7.494 -0.0901 -0.1915 -0.1265
  984SOD     NA14466   1.946   1.043   9.828  0.4686  0.1909  0.0936
  985SOD     NA14467   3.631   2.989   8.169 -0.3528 -0.0757  0.2190
  986SOD     NA14468   2.132   0.625   9.160 -0.4510  0.1500 -0.3172
  987SOD     NA14469   1.956   1.312   9.708 -0.3967  0.5700  0.5322
  988SOD     NA14470   2.015   2.448   9.754  0.2336 -0.1250 -0.3601
  989SOD     NA14471   4.394   2.131  15.620  0.3698  0.0380  0.1960
  990SOD     NA14472   1.520   3.365   1.407  0.0090  0.3535  0.2406
  991SOD     NA14473   0.128   2.138  14.654 -0.0691  0.0157  0.0088
  992SOD     NA14474   0.397   0.242  13.019  0.2799 -0.2128  0.0321
  993SOD     NA14475   2.868   0.511   8.418  0.1361 -0.4298 -0.5625
  994SOD     NA14476   3.030   2.806  11.423  0.0141 -0.3748 -0.1431
  995SOD     NA14477   4.162   2.664  13.647  0.0022 -0.4537 -0.1263
  996SOD     NA14478   2.495   4.503   8.626 -0.6972  0.4213 -0.3184
  997SOD     NA14479   3.871   0.592   2.140 -0.0345 -0.7639  0.2271
  998SOD     NA14480   2.604   4.114  17.160  0.2707  0.5083  0.3100
  999SOD     NA14481   1.850   0.370  10.772 -0.2438 -0.2331 -0.1288
 1000SOD     NA14482   0.334   0.563   0.252 -0.6947 -0.4071  0.1604
 1001SOD     NA14483   4.142   0.507  17.363  0.0720 -0.0888  0.4714
 1002SOD     NA14484   3.909   0.815  14.894  0.2964 -0.5166  0.2407
 1003SOD     NA14485   2.308   0.158   9.737 -0.0404 -0.1447  0.3373
 1004SOD     NA14486   2.686   1.838  11.648 -0.4681  0.0527  0.1078
 1005SOD     NA14487   4.245   3.932   3.450 -0.0162  0.5785 -0.2755
 1006SOD     NA14488   3.180   1.267   9.828 -0.1331  0.5126 -0.4203
 1007SOD     NA14489   0.424   2.851  10.499  0.1380  0.2083  0.2233
 1008SOD     NA14490   2.997   2.875  14.656 -0.1322  0.0864 -0.2787
 1009SOD     NA14491   0.097   0.381   0.385  0.1226  0.0373  0.0044
 1010SOD     NA14492   2.072   0.309  10.586  0.4902  0.1644  0.2031
 1011SOD     NA14493   4.292   0.909  12.418  0.3094 -0.1321  0.2372
 1012SOL     OW14494   4.649   4.654   4.750 -0.1051 -0.4996  0.4154
 1012SOL    HW114495   4.650   4.571   4.702 -1.9701 -0.0389 -0.4329
 1012SOL    HW214496   4.573   4.640   4.807 -1.0574  0.2544 -0.6758
 1013SOL     OW14497   0.999   2.609   3.559 -0.1165 -0.8248 -0.2882
 1013SOL    HW114498   0.922   2.559   3.585 -1.2330  0.6374 -0.7915
 1013SOL    HW214499   1.011   2.603   3.465  2.8782  0.7814 -0.0281
 1014SOL     OW14500   3.988   1.579   2.564  0.3885 -0.2364 -0.4871
 1014SOL    HW114501   4.080   1.582   2.536 -0.0688 -0.5329 -1.9727
 1014SOL    HW214502   3.985   1.505   2.625 -0.9425  0.7752  0.6885
 1015SOL     OW14503   1.344   0.277   5.732  0.3024 -0.7495  0.1933
 1015SOL    HW114504   1.345   0.345   5.665 -3.3833  0.3539  1.2451
 1015SOL    HW214505   1.250   0.261   5.744 -0.0525  2.5682  1.9030
 1016SOL     OW14506   0.965   1.593   2.513 -0.0920  0.7191  0.6284
 1016SOL    HW114507   1.052   1.609   2.551  0.0681 -0.7275  0.8737
 1016SOL    HW214508   0.921   1.669   2.551  0.3782  1.1326  0.3336
 1017SOL     OW14509   2.221   3.390   4.662  0.5525  0.4964  0.1046
 1017SOL    HW114510   2.250   3.458   4.602 -2.2893  2.6041  1.1465
 1017SOL    HW214511   2.128   3.412   4.674  0.3482 -0.4951  0.3673
 1018SOL     OW14512   2.562   2.592  16.295  0.5478  0.3780 -0.4564
 1018SOL    HW114513   2.570   2.541  16.214 -3.0549  0.3992 -0.8499
 1018SOL    HW214514   2.598   2.675  16.264  1.7749 -0.3375 -0.9247
 1019SOL     OW14515   3.331   1.500   2.919 -0.3652  0.1562 -0.2739
 1019SOL    HW114516   3.299   1.539   2.837 -2.0271  0.9535  0.7662
 1019SOL    HW214517   3.408   1.550   2.948 -0.9372 -0.1626  1.7256
 1020SOL     OW14518   3.439   2.670   7.133  0.2801 -0.1164  0.0407
 1020SOL    HW114519   3.450   2.692   7.225  1.9541 -0.1612 -0.1466
 1020SOL    HW214520   3.462   2.577   7.133  0.3041 -0.1091  1.2966
 1021SOL     OW14521   0.204   0.818  11.045 -0.0759  0.1664 -0.0044
 1021SOL    HW114522   0.184   0.908  11.022 -3.2586 -0.1867  1.3520
 1021SOL    HW214523   0.169   0.774  10.968  0.5291 -0.3012 -0.0143
 1022SOL     OW14524   1.673   0.948  15.903  0.1877 -0.1614 -0.5609
 1022SOL    HW114525   1.668   0.885  15.975  2.4852 -1.9663 -1.9944
 1022SOL    HW214526   1.732   1.019  15.930 -2.9700  1.6723  1.5581
 1023SOL     OW14527   2.019   3.307   3.035  0.2127 -0.1625  0.2821
 1023SOL    HW114528   1.928   3.329   3.054 -0.3506 -2.5149  0.3428
 1023SOL    HW214529   2.063   3.391   3.046 -0.2581  0.1796 -0.4252
 1024SOL     OW14530   1.738   2.664   6.606 -0.2746  0.3705  0.1143
 1024SOL    HW114531   1.683   2.697   6.536 -0.8401 -2.8862 -0.9725
 1024SOL    HW214532   1.828   2.678   6.578  0.1170 -0.7300  0.8182
 1025SOL     OW14533   2.765   0.302  14.555 -1.0194 -0.1140 -0.6322
 1025SOL    HW114534   2.762   0.396  14.537 -1.3972 -0.1287 -0.6468
 1025SOL    HW214535   2.674   0.276  14.572 -0.1391 -1.6863  1.6430
 1026SOL     OW14536   2.616   1.232   4.654 -0.5121  0.2085  0.1094
 1026SOL    HW114537   2.633   1.158   4.713 -1.4359  1.3100  1.7519
 1026SOL    HW214538   2.540   1.196   4.607 -0.4734  2.4223 -1.6543
 1027SOL     OW14539   3.160   2.458   3.465  0.1812  0.2102  0.2541
 1027SOL    HW114540   3.098   2.407   3.517  1.3244  0.0714  1.4764
 1027SOL    HW214541   3.233   2.448   3.526 -0.4896  0.8985  1.1550
 1028SOL     OW14542   2.294   0.667  13.716 -0.0433 -0.6846  0.0705
 1028SOL    HW114543   2.242   0.744  13.691  1.9223  0.7714  0.4810
 1028SOL    HW214544   2.221   0.610  13.743 -0.6442  1.1634  2.3581
 1029SOL     OW14545   1.100   2.870   8.648  0.0845  0.1392 -0.3983
 1029SOL    HW114546   1.121   2.920   8.727  1.8319 -1.2315 -0.0051
 1029SOL    HW214547   1.075   2.941   8.590 -3.4304  0.3090  1.2818
 1030SOL     OW14548   0.863   3.304   4.041  0.0796  0.6249  0.1354
 1030SOL    HW114549   0.872   3.310   3.946  0.5974 -2.0774 -0.0015
 1030SOL    HW214550   0.772   3.323   4.064 -0.5585  0.5338 -2.3269
 1031SOL     OW14551   0.255   2.911   6.980 -0.0506 -0.2306 -0.0193
 1031SOL    HW114552   0.324   2.974   6.961 -0.6325 -0.4336 -2.7533
 1031SOL    HW214553   0.248   2.928   7.074  2.7450  0.0324  0.1402
 1032SOL     OW14554   3.051   3.427   5.902  0.1497 -0.6110  0.5111
 1032SOL    HW114555   3.052   3.354   5.839  1.8185 -0.6437  0.5838
 1032SOL    HW214556   3.080   3.390   5.985  0.6071  0.7108  0.9296
 1033SOL     OW14557   2.782   0.769   5.113  0.4865  0.1590  0.3563
 1033SOL    HW114558   2.740   0.773   5.198  1.8141  1.5877  0.9397
 1033SOL    HW214559   2.815   0.679   5.109  1.3075  0.4431  0.6801
 1034SOL     OW14560   3.198   2.398   1.305 -0.0005  0.6704  0.4667
 1034SOL    HW114561   3.109   2.370   1.327  0.2740 -0.9304 -0.4693
 1034SOL    HW214562   3.240   2.315   1.331 -0.6198  0.0688 -0.4439
 1035SOL     OW14563   0.876   0.196  12.948 -0.0401  0.1736 -0.3741
 1035SOL    HW114564   0.821   0.119  12.959 -0.6330  1.0676  2.8390
 1035SOL    HW214565   0.943   0.175  13.013 -0.8282 -2.2505 -0.3403
 1036SOL     OW14566   3.208   0.386  17.025 -0.5672 -0.0206 -0.4180
 1036SOL    HW114567   3.211   0.292  17.008 -2.9384  0.6023 -4.2135
 1036SOL    HW214568   3.264   0.426  16.958 -0.4445  0.2872 -0.1321
 1037SOL     OW14569   3.957   2.982  10.731 -0.2507 -0.1275 -0.6408
 1037SOL    HW114570   3.895   3.050  10.704 -0.1335 -0.2046 -1.0995
 1037SOL    HW214571   4.044   3.016  10.710 -0.2067 -0.2406 -0.6389
 1038SOL     OW14572   2.935   1.545   6.873  0.7044  0.4564  0.0355
 1038SOL    HW114573   3.020   1.509   6.896  0.7493 -1.2466 -2.8085
 1038SOL    HW214574   2.897   1.557   6.960 -0.3797 -1.8295 -0.1502
 1039SOL     OW14575   2.493   2.293   3.869  0.0962  0.6751 -0.3061
 1039SOL    HW114576   2.454   2.230   3.809  2.6740 -0.7585 -0.4730
 1039SOL    HW214577   2.434   2.288   3.944  1.0456  1.6573  0.5251
 1040SOL     OW14578   2.098   3.556   3.108 -0.7538 -0.4802 -0.1004
 1040SOL    HW114579   2.185   3.560   3.148 -0.3417 -1.9215 -0.8597
 1040SOL    HW214580   2.096   3.639   3.060  1.3096 -0.0058  0.6142
 1041SOL     OW14581   2.704   2.019   0.150  0.8574 -0.4877  0.5487
 1041SOL    HW114582   2.635   2.061   0.201  2.0087  1.4956  0.4907
 1041SOL    HW214583   2.655   1.979   0.078  0.5138  1.4651 -0.3126
 1042SOL     OW14584   4.243   1.759   7.950  0.5781 -0.1000  0.5554
 1042SOL    HW114585   4.234   1.854   7.946  1.9338  0.1033  2.6867
 1042SOL    HW214586   4.220   1.738   7.860  0.6295 -0.6432  0.6669
 1043SOL     OW14587   2.426   2.469  14.765 -0.9365  0.2023  0.3377
 1043SOL    HW114588   2.485   2.544  14.763  1.1377 -1.3941  0.8542
 1043SOL    HW214589   2.378   2.501  14.841 -0.0043  1.0811  0.5540
 1044SOL     OW14590   2.130   3.613  12.602 -0.2116  0.2864  0.1250
 1044SOL    HW114591   2.172   3.654  12.526 -3.2645  2.2260 -0.5098
 1044SOL    HW214592   2.166   3.670  12.670 -1.2938  1.0612  0.0390
 1045SOL     OW14593   1.352   0.778  12.859 -0.2442  0.1504  0.0240
 1045SOL    HW114594   1.319   0.847  12.801  1.1602  2.5199  2.0485
 1045SOL    HW214595   1.398   0.840  12.916  1.0810  0.5202 -1.4253
 1046SOL     OW14596   2.444   1.983   1.779 -0.4465  0.1949  0.2232
 1046SOL    HW114597   2.354   1.958   1.798 -0.9327  0.2084 -2.0021
 1046SOL    HW214598   2.456   1.931   1.699 -0.5936 -1.7893  1.4911
 1047SOL     OW14599   2.422   4.583  11.260  0.2286  1.0239  0.0111
 1047SOL    HW114600   2.375   4.663  11.282  0.1033  0.9303  0.0850
 1047SOL    HW214601   2.384   4.557  11.176 -0.6359  1.1531  0.3645
 1048SOL     OW14602   2.098   3.208  13.293 -0.3695  0.1736  0.1492
 1048SOL    HW114603   2.072   3.124  13.253  0.6464 -0.6185  1.1715
 1048SOL    HW214604   2.029   3.266  13.260  0.0394  0.2694 -0.5441
 1049SOL     OW14605   0.370   1.386   6.552  0.3890 -0.2477  0.1285
 1049SOL    HW114606   0.379   1.473   6.589 -1.6998  0.8590 -1.9172
 1049SOL    HW214607   0.307   1.397   6.480  1.5592  1.2109 -0.6550
 1050SOL     OW14608   0.018   2.150   6.423  0.2338  0.3353 -0.4878
 1050SOL    HW114609   4.679   2.082   6.405 -0.2250  0.8934 -0.9692
 1050SOL    HW214610   0.034   2.164   6.330 -1.0341  1.1649 -0.5800
 1051SOL     OW14611   1.660   0.883   1.363  0.4308  0.8063 -0.8738
 1051SOL    HW114612   1.663   0.791   1.386 -2.9532  1.0553  0.5950
 1051SOL    HW214613   1.580   0.892   1.311 -0.1645  0.1491 -0.0757
 1052SOL     OW14614   2.458   0.257   1.629 -0.0277 -0.1536 -0.3539
 1052SOL    HW114615   2.366   0.283   1.624 -0.6448 -2.1324  0.8788
 1052SOL    HW214616   2.497   0.307   1.557  0.2602  1.2751  0.7982
 1053SOL     OW14617   4.100   1.151   8.518 -0.3637  0.5055 -0.0170
 1053SOL    HW114618   4.153   1.208   8.462 -0.0166  0.2141  0.0126
 1053SOL    HW214619   4.158   1.079   8.544 -1.3184  0.2253  1.3228
 1054SOL     OW14620   1.218   0.949   8.722  0.3079  0.2097 -0.1299
 1054SOL    HW114621   1.229   0.884   8.652 -0.3074  1.1263 -1.0776
 1054SOL    HW214622   1.266   0.903   8.791 -1.4531  3.0858  3.0070
 1055SOL     OW14623   0.646   1.036   2.756 -0.1511  0.4119  0.2889
 1055SOL    HW114624   0.641   1.097   2.682  0.1606  0.3442  0.2111
 1055SOL    HW214625   0.645   1.095   2.832  0.1718  0.7940 -0.0017
 1056SOL     OW14626   2.663   3.911   7.356  0.3465  0.0075 -0.2429
 1056SOL    HW114627   2.687   3.994   7.315  0.7366  0.5921  1.1663
 1056SOL    HW214628   2.735   3.857   7.323  0.1693  0.5070 -1.4713
 1057SOL     OW14629   4.445   2.591   2.296 -0.0042  0.0770 -0.0255
 1057SOL    HW114630   4.500   2.648   2.349 -1.2351  0.6585  0.6250
 1057SOL    HW214631   4.498   2.511   2.287  1.0949  0.7586  0.5272
 1058SOL     OW14632   2.753   0.432   5.828  0.3805  0.5143  0.5202
 1058SOL    HW114633   2.729   0.492   5.898 -1.7050  0.1718  0.0928
 1058SOL    HW214634   2.803   0.491   5.771  0.5334  0.0296  0.1485
 1059SOL     OW14635   0.965   4.512   2.598  0.5959  0.1056 -0.2436
 1059SOL    HW114636   0.888   4.455   2.598 -0.8531  2.0602  0.1750
 1059SOL    HW214637   0.981   4.504   2.504 -1.9246 -0.8883 -0.5921
 1060SOL     OW14638   2.322   0.123   4.030 -0.5522 -0.1353 -0.0593
 1060SOL    HW114639   2.351   0.032   4.033  2.4753  0.8645  0.6426
 1060SOL    HW214640   2.397   0.161   3.984 -0.3026  0.2245  0.6439
 1061SOL     OW14641   1.700   2.036   1.702  0.0360 -0.3690 -0.2841
 1061SOL    HW114642   1.715   2.123   1.739  2.0324 -0.3322 -1.1585
 1061SOL    HW214643   1.673   1.990   1.782 -0.7185 -0.9843 -0.8890
 1062SOL     OW14644   2.421   3.700   7.501 -0.1776 -0.5690 -0.5209
 1062SOL    HW114645   2.352   3.721   7.564 -1.7753 -0.6791 -2.2117
 1062SOL    HW214646   2.399   3.608   7.487 -0.8853 -0.8843  2.6878
 1063SOL     OW14647   1.934   3.694   6.987  0.4250  0.1354  0.0492
 1063SOL    HW114648   1.973   3.606   6.979 -1.1146 -0.2753 -2.7916
 1063SOL    HW214649   2.001   3.742   7.036 -0.4529  0.7388  0.6447
 1064SOL     OW14650   1.546   1.468   2.158  0.1823  0.5565 -0.0726
 1064SOL    HW114651   1.627   1.517   2.146  1.2994 -1.0153  0.9645
 1064SOL    HW214652   1.578   1.379   2.171  0.5940  0.8724  1.0751
 1065SOL     OW14653   3.627   4.439  16.148  0.4168  0.0956  0.2080
 1065SOL    HW114654   3.582   4.523  16.149 -0.4087 -0.3386 -0.8294
 1065SOL    HW214655   3.556   4.384  16.114 -1.1249  0.6693  2.4770
 1066SOL     OW14656   2.841   4.168   4.457  0.9346  0.1807 -0.0714
 1066SOL    HW114657   2.819   4.198   4.545  0.9152  0.6850 -0.2485
 1066SOL    HW214658   2.820   4.243   4.402  0.8723 -1.1122 -1.8186
 1067SOL     OW14659   0.353   1.474   1.202 -0.6899  0.3678 -0.0289
 1067SOL    HW114660   0.393   1.525   1.132  3.3188 -1.4909  0.9561
 1067SOL    HW214661   0.429   1.470   1.259 -1.4667 -0.6758  0.9235
 1068SOL     OW14662   2.096   3.487   2.337  0.0059 -0.1902  0.6159
 1068SOL    HW114663   2.132   3.541   2.408  0.1566 -0.4470  0.7396
 1068SOL    HW214664   2.011   3.466   2.376 -0.1819  1.0662  0.8906
 1069SOL     OW14665   0.432   0.586   6.179  0.0687  0.2732 -0.0181
 1069SOL    HW114666   0.503   0.608   6.118 -0.8239 -1.5111 -1.7275
 1069SOL    HW214667   0.442   0.667   6.227 -0.1034 -0.8920  1.9841
 1070SOL     OW14668   2.178   2.716   3.298  0.2756  0.5021  0.2608
 1070SOL    HW114669   2.199   2.799   3.342  0.7868  1.3018 -1.4725
 1070SOL    HW214670   2.090   2.699   3.331  0.9528 -1.2347  1.1569
 1071SOL     OW14671   0.213   4.161   3.623  0.5862 -0.0543 -0.5670
 1071SOL    HW114672   0.221   4.066   3.623  0.9729 -0.0164 -1.3852
 1071SOL    HW214673   0.128   4.183   3.584  1.0590  1.1941 -0.9008
 1072SOL     OW14674   0.967   1.117   9.080  0.0838  0.2985  0.2268
 1072SOL    HW114675   0.918   1.163   9.012  3.1475  3.2260  0.0394
 1072SOL    HW214676   0.920   1.033   9.074 -1.2329  1.0309  0.3343
 1073SOL     OW14677   3.665   3.570   3.230  0.1712 -0.0484 -0.6826
 1073SOL    HW114678   3.594   3.506   3.231 -0.5683  0.7548 -1.2211
 1073SOL    HW214679   3.723   3.519   3.286  2.1072 -0.1904 -2.8500
 1074SOL     OW14680   3.341   0.932   7.277 -0.5912  0.1722 -0.0335
 1074SOL    HW114681   3.347   1.009   7.221  1.7844 -0.3792 -0.5191
 1074SOL    HW214682   3.366   0.866   7.213 -1.2123 -0.8050  0.7337
 1075SOL     OW14683   1.868   4.261   4.269 -0.4705 -0.3442 -0.2477
 1075SOL    HW114684   1.860   4.353   4.293  0.2785 -0.2891 -0.2005
 1075SOL    HW214685   1.852   4.253   4.175 -0.5935  0.6395 -0.3055
 1076SOL     OW14686   4.713   3.894   7.303  0.3060 -0.2467 -0.3765
 1076SOL    HW114687   0.061   3.852   7.346  0.4175 -1.2923 -1.6012
 1076SOL    HW214688   0.015   3.895   7.211 -0.0004 -0.7777 -0.4731
 1077SOL     OW14689   0.076   1.682   0.499 -0.0909  0.0685 -0.2409
 1077SOL    HW114690   0.037   1.604   0.539 -0.2004  0.1543 -0.1833
 1077SOL    HW214691   4.724   1.713   0.454 -0.4920  1.1895  1.2088
 1078SOL     OW14692   2.090   0.545   2.551  0.0162  0.4540  0.9341
 1078SOL    HW114693   2.128   0.631   2.572  0.9550 -0.4525  2.9761
 1078SOL    HW214694   2.113   0.489   2.625  1.1544 -0.3865 -0.0480
 1079SOL     OW14695   1.263   0.729  14.147 -0.4072  0.1391  0.2532
 1079SOL    HW114696   1.340   0.721  14.203 -0.4022  0.9366  0.3611
 1079SOL    HW214697   1.265   0.823  14.127 -2.4654 -0.1037 -1.0793
 1080SOL     OW14698   1.369   4.353  10.775  0.7030  0.1227 -0.4031
 1080SOL    HW114699   1.367   4.343  10.870 -1.0836 -1.8599 -0.6378
 1080SOL    HW214700   1.412   4.437  10.759  1.1619 -0.1990 -0.8778
 1081SOL     OW14701   2.768   0.676  16.134 -0.4113 -0.5550 -0.2208
 1081SOL    HW114702   2.766   0.655  16.227  1.9248 -1.7081 -0.4289
 1081SOL    HW214703   2.678   0.683  16.101 -0.2653 -2.6098 -1.0701
 1082SOL     OW14704   2.383   1.654   2.301 -0.1659  0.1812  0.7533
 1082SOL    HW114705   2.295   1.649   2.339 -1.2952 -2.2098 -2.0736
 1082SOL    HW214706   2.418   1.734   2.339  0.1508  0.2146  0.3867
 1083SOL     OW14707   0.857   1.079  10.191 -0.1851  0.3573 -0.3594
 1083SOL    HW114708   0.926   1.064  10.127 -0.8961  1.6848 -1.4138
 1083SOL    HW214709   0.806   1.143  10.143 -0.2826 -0.6305 -1.5918
 1084SOL     OW14710   2.428   3.292   5.893 -0.0997  0.1766  0.2216
 1084SOL    HW114711   2.518   3.301   5.862  0.5387  2.0350  2.6835
 1084SOL    HW214712   2.402   3.208   5.854 -0.5800 -0.2175  1.4054
 1085SOL     OW14713   4.264   4.483   7.869  0.5941  0.1853  0.4102
 1085SOL    HW114714   4.309   4.405   7.836  2.2929  0.5864  1.7432
 1085SOL    HW214715   4.186   4.491   7.815  1.7816 -1.8772 -1.5635
 1086SOL     OW14716   1.731   0.885   7.834 -0.4255  0.2478  0.4976
 1086SOL    HW114717   1.739   0.926   7.920  0.3886  2.2480 -0.5430
 1086SOL    HW214718   1.686   0.807   7.866 -2.0728  1.2444  0.6352
 1087SOL     OW14719   4.571   4.344   3.812 -0.2623 -0.4817 -0.1034
 1087SOL    HW114720   4.548   4.423   3.764 -0.4483 -0.1801  0.4820
 1087SOL    HW214721   4.640   4.372   3.872 -0.9926 -0.4639  0.7255
 1088SOL     OW14722   3.353   0.369  12.042  0.7010 -0.3063 -0.3696
 1088SOL    HW114723   3.318   0.328  11.963 -0.5465 -1.8411  0.9796
 1088SOL    HW214724   3.306   0.452  12.041  2.1952  0.5258 -1.6665
 1089SOL     OW14725   2.775   0.340   6.936  0.3949  0.4782  0.6490
 1089SOL    HW114726   2.833   0.264   6.938 -0.5441 -0.2352  0.6539
 1089SOL    HW214727   2.795   0.385   6.853  1.8847 -0.3385  0.5701
 1090SOL     OW14728   3.625   3.655  13.862  0.0070  0.0454  0.2437
 1090SOL    HW114729   3.699   3.694  13.908 -1.3858 -0.6081  3.0556
 1090SOL    HW214730   3.568   3.732  13.859 -0.3586 -0.2944 -1.3398
 1091SOL     OW14731   2.707   2.977   9.058 -0.9492  0.2627  0.7880
 1091SOL    HW114732   2.653   2.898   9.053  0.9120 -1.0065  0.8483
 1091SOL    HW214733   2.640   3.042   9.081 -1.9478  0.1249 -1.7063
 1092SOL     OW14734   4.219   4.570   6.441  0.0265 -0.3373  0.1124
 1092SOL    HW114735   4.303   4.592   6.481 -0.7510  1.8280  0.6091
 1092SOL    HW214736   4.179   4.517   6.510  1.4217 -0.9196  0.4709
 1093SOL     OW14737   1.356   1.269  12.419 -0.2485 -0.3815  0.5413
 1093SOL    HW114738   1.378   1.360  12.435  2.2859 -0.6751 -1.1290
 1093SOL    HW214739   1.345   1.232  12.506 -0.9452  1.6665  1.3020
 1094SOL     OW14740   1.621   0.507   5.281  0.3287  0.0264  0.4033
 1094SOL    HW114741   1.696   0.567   5.288  2.3901 -2.3357 -1.0801
 1094SOL    HW214742   1.548   0.569   5.279  0.7187  0.4831  0.2971
 1095SOL     OW14743   3.634   2.228   8.315 -0.7537 -0.0096  0.4469
 1095SOL    HW114744   3.701   2.165   8.341  0.2596  1.4556  1.3824
 1095SOL    HW214745   3.689   2.299   8.283  2.7468 -3.4520 -1.2466
 1096SOL     OW14746   0.560   1.212   2.070 -0.3655  0.3072  0.4683
 1096SOL    HW114747   0.587   1.156   2.143 -0.4775  1.4546  1.3875
 1096SOL    HW214748   0.474   1.171   2.061  0.7472 -2.2227  1.3376
 1097SOL     OW14749   0.585   3.801   5.711 -0.7229  0.2654 -0.7019
 1097SOL    HW114750   0.633   3.884   5.714 -0.0186 -0.0967 -2.0275
 1097SOL    HW214751   0.549   3.800   5.800  0.6315  0.7673 -0.1344
 1098SOL     OW14752   1.972   0.812   3.619  0.6178  0.6657  0.5302
 1098SOL    HW114753   2.020   0.730   3.632 -1.7140 -0.9571 -1.0612
 1098SOL    HW214754   1.980   0.864   3.699 -1.2133  1.2866  0.3196
 1099SOL     OW14755   3.113   4.341   2.015 -0.0638 -0.7265 -0.5427
 1099SOL    HW114756   3.168   4.271   2.053  0.6869 -0.9830 -2.1225
 1099SOL    HW214757   3.023   4.310   2.016 -0.2477 -0.1388  1.0623
 1100SOL     OW14758   0.514   1.726   8.183  0.2431 -0.2314  0.3505
 1100SOL    HW114759   0.537   1.661   8.116  0.0811  0.6110 -0.5186
 1100SOL    HW214760   0.599   1.741   8.225  0.0790  0.4900  0.4289
 1101SOL     OW14761   0.577   0.052   3.792  0.2593  0.4184  0.1905
 1101SOL    HW114762   0.534   0.008   3.718 -0.2358  0.8196  0.2399
 1101SOL    HW214763   0.504   0.059   3.854 -0.7151 -1.2087 -0.7439
 1102SOL     OW14764   1.047   2.277   3.449 -0.0082  0.0134  0.1883
 1102SOL    HW114765   0.952   2.277   3.449 -0.0014  2.0554  0.0562
 1102SOL    HW214766   1.065   2.227   3.369  1.7232  1.5007 -0.3507
 1103SOL     OW14767   1.352   3.288   7.173  0.0572  0.0945 -0.4580
 1103SOL    HW114768   1.438   3.245   7.179  0.2872  0.3499 -1.8830
 1103SOL    HW214769   1.306   3.233   7.237 -0.8738  1.6739  0.2528
 1104SOL     OW14770   4.072   1.568  10.504 -0.1612  0.1780 -0.6783
 1104SOL    HW114771   4.101   1.647  10.551 -0.0778 -1.1596  1.5345
 1104SOL    HW214772   4.023   1.525  10.574  2.0712  1.9820  1.9856
 1105SOL     OW14773   1.591   2.014   1.938 -0.0543 -0.6486 -0.0130
 1105SOL    HW114774   1.523   2.072   1.971  0.7355  0.7236 -0.8123
 1105SOL    HW214775   1.580   1.941   1.999  1.9833 -0.8407  0.1195
 1106SOL     OW14776   1.571   3.147   1.438 -0.1764  0.2737  0.2384
 1106SOL    HW114777   1.606   3.084   1.374  0.1817  0.5604  0.1471
 1106SOL    HW214778   1.581   3.097   1.519 -2.8649  1.8263  1.5360
 1107SOL     OW14779   4.219   0.013  11.268  0.0610 -0.7169  0.3224
 1107SOL    HW114780   4.277   4.663  11.281 -0.9024 -1.3927  0.6641
 1107SOL    HW214781   4.251   0.065  11.342 -0.8559 -0.9514  0.8795
 1108SOL     OW14782   4.387   3.988   3.259  0.5461 -0.1469 -0.0349
 1108SOL    HW114783   4.411   4.080   3.250  2.3105 -0.7433 -1.2515
 1108SOL    HW214784   4.470   3.947   3.239  0.8500  0.5640 -0.2176
 1109SOL     OW14785   4.462   1.497   2.614  0.4095 -0.1037  0.3303
 1109SOL    HW114786   4.499   1.471   2.698  2.1143  2.2987  0.3150
 1109SOL    HW214787   4.539   1.479   2.561 -1.6095 -1.3401 -2.2222
 1110SOL     OW14788   0.626   0.872   3.851 -0.2554 -0.0730  0.1559
 1110SOL    HW114789   0.695   0.909   3.796  0.3627  0.3244  1.2092
 1110SOL    HW214790   0.578   0.943   3.893 -0.1235 -0.6311  1.2404
 1111SOL     OW14791   2.130   3.362   8.866  0.0984  0.0833 -0.2656
 1111SOL    HW114792   2.087   3.295   8.812 -0.2227 -0.8880  1.2046
 1111SOL    HW214793   2.190   3.306   8.915 -0.6462  1.2058  1.9011
 1112SOL     OW14794   3.911   1.548   7.515  0.1912 -0.0570 -0.0056
 1112SOL    HW114795   3.826   1.563   7.474 -0.5931 -0.0047  1.6385
 1112SOL    HW214796   3.879   1.520   7.601  0.2549 -2.5430 -0.7932
 1113SOL     OW14797   2.982   0.509  17.140  0.3319 -0.0871 -0.1598
 1113SOL    HW114798   2.985   0.587  17.084  1.6044  0.1288  0.2140
 1113SOL    HW214799   3.052   0.459  17.099 -0.3084 -1.4586  0.4376
 1114SOL     OW14800   1.948   4.324  10.150 -0.3504  0.2372  0.0974
 1114SOL    HW114801   1.889   4.366  10.087  1.3060  1.4191 -0.6620
 1114SOL    HW214802   1.927   4.365  10.234 -2.3622 -0.1247 -0.2131
 1115SOL     OW14803   1.213   0.074   7.335 -0.6318  0.0155 -0.2456
 1115SOL    HW114804   1.189   4.724   7.389  1.2277 -1.0560 -0.9351
 1115SOL    HW214805   1.301   0.040   7.319 -0.4384  0.8678 -0.9734
 1116SOL     OW14806   3.680   2.137  17.246 -0.4225 -0.3324 -0.1194
 1116SOL    HW114807   3.689   2.224  17.284  1.9295 -0.9736  0.7805
 1116SOL    HW214808   3.693   2.075  17.317  0.0472 -0.6244 -0.4584
 1117SOL     OW14809   0.987   1.330  16.336 -0.0972  0.0563  0.2102
 1117SOL    HW114810   0.948   1.256  16.381 -1.1123  1.3415  1.4497
 1117SOL    HW214811   0.913   1.390  16.324 -1.8430 -2.2022 -0.1340
 1118SOL     OW14812   0.413   0.760   2.586  0.0768  0.1632 -0.3233
 1118SOL    HW114813   0.405   0.669   2.613  1.0301  0.9141  2.5222
 1118SOL    HW214814   0.350   0.773   2.515  0.4252  2.8307 -0.1495
 1119SOL     OW14815   2.841   0.714   2.431  0.4368 -0.6036 -0.3925
 1119SOL    HW114816   2.838   0.631   2.383 -0.5527 -0.1492 -1.1067
 1119SOL    HW214817   2.907   0.752   2.372  1.8809 -0.3654  1.3669
 1120SOL     OW14818   1.338   4.719   4.489  0.1811  0.1670 -0.3300
 1120SOL    HW114819   1.341   0.010   4.395 -1.0869 -0.3419 -0.4591
 1120SOL    HW214820   1.432   4.723   4.508  0.0688 -1.4453  0.5520
 1121SOL     OW14821   3.775   1.774   5.412 -0.6941  0.6304 -0.7527
 1121SOL    HW114822   3.703   1.712   5.401  1.4907 -1.8959 -0.5661
 1121SOL    HW214823   3.817   1.767   5.326  2.0475  3.0049  0.3990
 1122SOL     OW14824   4.240   1.796   7.220 -0.0525 -0.6907  0.2664
 1122SOL    HW114825   4.224   1.792   7.314 -0.3103 -0.5163  0.2308
 1122SOL    HW214826   4.335   1.796   7.217 -0.0690 -0.7607 -0.3342
 1123SOL     OW14827   1.640   3.161  13.470 -0.0314  0.4331  0.2336
 1123SOL    HW114828   1.678   3.076  13.449  0.3455  0.8653 -0.8524
 1123SOL    HW214829   1.679   3.179  13.556  1.4457 -1.7240  0.0209
 1124SOL     OW14830   0.625   1.380   7.319 -0.5049  0.3881  0.2844
 1124SOL    HW114831   0.604   1.404   7.229 -1.8663 -2.5340 -0.1839
 1124SOL    HW214832   0.717   1.358   7.304 -0.0588  1.1175  1.9744
 1125SOL     OW14833   4.494   2.886   3.618  0.2824  0.7133  0.3066
 1125SOL    HW114834   4.425   2.865   3.555  0.4619 -1.5133  0.8484
 1125SOL    HW214835   4.438   2.930   3.681 -1.1624  0.4806 -0.8285
 1126SOL     OW14836   0.346   2.191   9.086 -0.6507  0.1099 -0.1380
 1126SOL    HW114837   0.360   2.268   9.141 -3.5895 -2.2053  3.7826
 1126SOL    HW214838   0.416   2.137   9.122  0.0833  0.6256 -0.7716
 1127SOL     OW14839   3.438   0.182   5.134  0.2988  0.0990  0.4382
 1127SOL    HW114840   3.460   0.257   5.188 -1.2308  1.0120 -0.1747
 1127SOL    HW214841   3.343   0.193   5.132  0.4400  1.1906  0.0434
 1128SOL     OW14842   1.988   2.650  10.312 -0.3743 -0.2022 -0.4208
 1128SOL    HW114843   2.084   2.640  10.306 -0.4468 -1.6897  0.8174
 1128SOL    HW214844   1.977   2.631  10.405  1.8012  2.0679  0.3055
 1129SOL     OW14845   1.175   4.215  16.158 -0.1105 -0.4705 -0.0216
 1129SOL    HW114846   1.245   4.272  16.129 -1.4548  1.0309 -0.2798
 1129SOL    HW214847   1.125   4.197  16.078  1.4342  1.3542 -1.3848
 1130SOL     OW14848   2.306   1.561   9.981 -0.4290 -0.4345  0.0268
 1130SOL    HW114849   2.289   1.582   9.889 -2.7768  1.0539  0.8060
 1130SOL    HW214850   2.295   1.466   9.982 -3.6397 -0.0528 -0.5603
 1131SOL     OW14851   2.659   0.300   5.280  0.0152 -0.0752 -0.4843
 1131SOL    HW114852   2.670   0.343   5.365 -1.7181 -1.9192  0.6700
 1131SOL    HW214853   2.738   0.325   5.231 -0.6654  2.7776 -0.1608
 1132SOL     OW14854   2.993   1.221  17.266 -0.5274 -0.6452 -0.5775
 1132SOL    HW114855   3.067   1.269  17.229  0.2738 -0.5466  1.1921
 1132SOL    HW214856   3.027   1.133  17.252  0.0710 -0.6476  0.9659
 1133SOL     OW14857   3.962   2.615  15.115  0.6575 -0.3382 -0.6914
 1133SOL    HW114858   3.907   2.618  15.037 -0.4953 -0.3589  0.1183
 1133SOL    HW214859   4.006   2.700  15.103 -1.3686  1.1500  2.1951
 1134SOL     OW14860   3.119   2.518   2.868  0.3771 -0.3180 -0.6058
 1134SOL    HW114861   3.024   2.512   2.871  0.4870 -0.8819  1.6461
 1134SOL    HW214862   3.144   2.442   2.815  0.9145  0.4167 -1.4107
 1135SOL     OW14863   2.874   1.496   1.063 -0.3456 -0.4093 -0.2664
 1135SOL    HW114864   2.885   1.409   1.026  0.3643 -0.0494 -0.8872
 1135SOL    HW214865   2.823   1.541   0.995 -0.7372  3.0512  2.2758
 1136SOL     OW14866   1.677   4.195  12.012  0.1959 -0.2141 -0.1921
 1136SOL    HW114867   1.582   4.183  12.020 -0.1801  0.4870 -3.3179
 1136SOL    HW214868   1.708   4.105  12.018 -0.9203 -0.5847  0.0805
 1137SOL     OW14869   0.007   1.480   3.860 -0.2507  0.1312  0.5653
 1137SOL    HW114870   0.001   1.404   3.918 -0.4144 -1.3024 -1.3318
 1137SOL    HW214871   0.073   1.527   3.911  0.0731 -0.3634  0.5952
 1138SOL     OW14872   3.195   1.095  17.458 -0.5817 -0.6979 -0.3242
 1138SOL    HW114873   3.189   1.116  17.365 -2.1405  4.0793  0.8381
 1138SOL    HW214874   3.253   1.020  17.445 -1.5018 -1.4521 -0.0967
 1139SOL     OW14875   3.100   0.450   2.712 -0.4385 -0.2240  0.5595
 1139SOL    HW114876   3.029   0.513   2.728  0.4952  1.3984 -1.5800
 1139SOL    HW214877   3.171   0.508   2.682  1.8916 -3.9597 -1.2321
 1140SOL     OW14878   3.141   2.153   7.769  0.0583  0.1969  0.1355
 1140SOL    HW114879   3.092   2.095   7.711  1.1430 -0.7627  0.1787
 1140SOL    HW214880   3.156   2.086   7.836  1.6020 -0.4321 -0.8291
 1141SOL     OW14881   4.053   1.328   1.280  0.0608 -0.6108  0.0743
 1141SOL    HW114882   4.068   1.413   1.323  0.4121 -0.0895 -1.0825
 1141SOL    HW214883   4.132   1.323   1.227 -0.4697  1.5743 -0.9326
 1142SOL     OW14884   2.594   4.488  13.499 -0.0665  0.6528  0.5511
 1142SOL    HW114885   2.596   4.450  13.587 -1.9732 -1.1670 -0.2058
 1142SOL    HW214886   2.537   4.564  13.512  0.1395  0.8235  0.4517
 1143SOL     OW14887   4.651   2.560   5.608  0.6859  0.0045 -0.0749
 1143SOL    HW114888   4.657   2.517   5.523  0.7597  1.1640 -0.6595
 1143SOL    HW214889   4.634   2.652   5.587  1.0912  0.2275  0.5744
 1144SOL     OW14890   3.606   2.694  17.421 -0.5592 -0.1206  0.1137
 1144SOL    HW114891   3.615   2.724  17.511 -0.7637  0.6242 -0.1158
 1144SOL    HW214892   3.533   2.748  17.394  0.8796  0.9503 -1.6633
 1145SOL     OW14893   4.313   1.926  10.406  0.2394 -0.0972  0.1846
 1145SOL    HW114894   4.360   1.928  10.489  0.7311  0.3236 -0.1018
 1145SOL    HW214895   4.302   1.833  10.386  1.1008  0.1215 -1.3391
 1146SOL     OW14896   1.072   4.023   9.361  0.0967 -0.0860 -0.0270
 1146SOL    HW114897   0.997   4.081   9.348  0.0002 -0.4839 -1.2633
 1146SOL    HW214898   1.110   4.068   9.436  1.1335 -2.7533  1.0561
 1147SOL     OW14899   3.474   2.065   2.822 -0.2646 -0.2585  0.5334
 1147SOL    HW114900   3.569   2.068   2.830 -0.1638 -1.5288 -0.1308
 1147SOL    HW214901   3.469   2.004   2.749  0.6488 -1.4293  1.4478
 1148SOL     OW14902   4.429   2.266   5.697  0.4988  0.0900 -0.3492
 1148SOL    HW114903   4.475   2.321   5.761  0.1400 -0.7333  0.6297
 1148SOL    HW214904   4.491   2.264   5.624  1.2765  1.1894  0.2751
 1149SOL     OW14905   3.037   1.110  11.279 -0.2377  0.1914 -0.2876
 1149SOL    HW114906   2.948   1.130  11.252 -0.8801 -2.4026 -0.0283
 1149SOL    HW214907   3.035   1.121  11.374  0.5464  0.4591 -0.3005
 1150SOL     OW14908   2.059   2.622   8.832  0.2706  0.5164 -0.2603
 1150SOL    HW114909   2.039   2.598   8.742 -0.0960 -1.9335  0.4720
 1150SOL    HW214910   2.155   2.623   8.835  0.2193  4.2575  0.2775
 1151SOL     OW14911   4.407   2.158   0.648 -0.1394 -0.0841 -0.0280
 1151SOL    HW114912   4.472   2.184   0.582 -1.3343 -0.0886 -1.2233
 1151SOL    HW214913   4.424   2.201   0.732 -0.5384  0.7192 -0.3533
 1152SOL     OW14914   0.893   4.407   7.735  0.2330  0.4886 -0.4240
 1152SOL    HW114915   0.917   4.409   7.643 -0.7780  1.3631 -0.6747
 1152SOL    HW214916   0.838   4.486   7.737 -1.5956 -0.7135 -2.7643
 1153SOL     OW14917   0.772   1.825   2.982  0.1997 -0.4597  0.3121
 1153SOL    HW114918   0.810   1.758   3.038  1.4039  0.9672  1.2037
 1153SOL    HW214919   0.681   1.809   3.008 -0.1177  0.5929 -0.1692
 1154SOL     OW14920   0.265   2.300   8.847  0.0529  0.2148  0.6890
 1154SOL    HW114921   0.175   2.300   8.815  0.0266 -3.6195  0.7583
 1154SOL    HW214922   0.265   2.243   8.924  3.2621 -1.6569 -0.6918
 1155SOL     OW14923   3.411   1.529  11.026  1.0465  0.3096  0.1757
 1155SOL    HW114924   3.328   1.575  11.018  0.4972 -1.3230 -3.5145
 1155SOL    HW214925   3.381   1.439  11.036  2.5164 -0.1262  0.6838
 1156SOL     OW14926   2.863   1.497   6.064  0.1967  0.1864 -0.0644
 1156SOL    HW114927   2.851   1.528   5.975 -0.3203  3.2152  1.0593
 1156SOL    HW214928   2.777   1.528   6.091  0.1676 -0.1751  0.2657
 1157SOL     OW14929   2.446   0.137   9.567 -0.3219 -0.3361 -0.1495
 1157SOL    HW114930   2.499   0.059   9.552 -0.6771 -0.2973 -1.6637
 1157SOL    HW214931   2.498   0.201   9.518 -0.5248  1.4081  1.9322
 1158SOL     OW14932   4.471   1.035   5.549  1.1175 -0.0052  0.0163
 1158SOL    HW114933   4.471   1.068   5.459 -3.0629  0.0989  0.0187
 1158SOL    HW214934   4.516   1.109   5.589 -0.6441  1.9163 -1.5592
 1159SOL     OW14935   2.352   1.198   3.102 -0.4794 -0.1545 -0.7239
 1159SOL    HW114936   2.329   1.222   3.012  1.9580  1.8209 -0.8467
 1159SOL    HW214937   2.446   1.215   3.113 -0.3644 -1.0704 -0.2966
 1160SOL     OW14938   3.346   0.389  11.183 -0.5684 -0.0941 -0.2723
 1160SOL    HW114939   3.436   0.362  11.170 -0.8448 -1.3645  0.4692
 1160SOL    HW214940   3.344   0.470  11.132 -0.9258  1.0449  1.5725
 1161SOL     OW14941   2.871   0.142  16.161 -0.2753  0.4367 -0.2606
 1161SOL    HW114942   2.824   0.210  16.111 -2.9711 -0.7921  0.6168
 1161SOL    HW214943   2.806   0.115  16.225  1.5523 -2.4433  0.3465
 1162SOL     OW14944   1.861   2.153   9.396  0.2193 -0.0364 -0.1245
 1162SOL    HW114945   1.948   2.174   9.361 -1.0559 -1.2927 -3.9866
 1162SOL    HW214946   1.802   2.205   9.342  0.1936  1.6093  1.4627
 1163SOL     OW14947   4.132   0.951   3.448  0.1589  0.1266 -0.2549
 1163SOL    HW114948   4.169   0.870   3.483  0.3241 -1.0045 -3.0346
 1163SOL    HW214949   4.047   0.953   3.492  0.6627  2.1786  0.6389
 1164SOL     OW14950   0.400   1.902   4.466 -0.1058  0.1616  0.2483
 1164SOL    HW114951   0.454   1.852   4.406 -1.1167 -0.7269  0.0728
 1164SOL    HW214952   0.309   1.886   4.440 -0.5063  1.8251  0.6151
 1165SOL     OW14953   1.868   3.767   4.256 -0.2453  0.4570 -0.9170
 1165SOL    HW114954   1.787   3.802   4.220  1.0296  3.2955 -1.0946
 1165SOL    HW214955   1.915   3.842   4.293  1.6222 -1.2197  0.1467
 1166SOL     OW14956   2.549   2.956   7.323  0.3168 -0.7571  0.0187
 1166SOL    HW114957   2.586   2.908   7.249  0.1855  0.7738 -1.0273
 1166SOL    HW214958   2.552   2.888   7.391  2.3915 -0.5889  0.0938
 1167SOL     OW14959   3.882   3.778   6.904  0.2257  0.2568 -0.0212
 1167SOL    HW114960   3.918   3.813   6.822  0.9330 -2.8577 -1.0509
 1167SOL    HW214961   3.881   3.860   6.953 -0.2443  1.3317 -1.8181
 1168SOL     OW14962   1.976   2.191   3.095 -0.0961  0.4909  0.5008
 1168SOL    HW114963   1.884   2.182   3.073 -0.1848  2.0384  0.2118
 1168SOL    HW214964   1.983   2.157   3.184  0.4432 -1.9734 -0.5011
 1169SOL     OW14965   1.253   4.347   4.734  0.2452  0.0161  0.1428
 1169SOL    HW114966   1.346   4.356   4.753  0.5436 -0.4744 -1.1146
 1169SOL    HW214967   1.222   4.338   4.824  0.5749 -1.0301  0.1553
 1170SOL     OW14968   1.754   2.192   2.426  0.0394  0.2507 -0.3569
 1170SOL    HW114969   1.831   2.244   2.449  0.5823 -0.6740 -0.0663
 1170SOL    HW214970   1.712   2.242   2.356 -1.9380 -0.5349  0.2550
 1171SOL     OW14971   1.593   0.024   3.823 -0.6318  0.2773 -0.7309
 1171SOL    HW114972   1.665   4.712   3.874 -0.3708 -2.9248 -3.4541
 1171SOL    HW214973   1.638   0.097   3.780 -0.2512 -0.5305 -1.7039
 1172SOL     OW14974   4.489   3.523   6.686  0.0146 -0.2439  0.0621
 1172SOL    HW114975   4.488   3.471   6.767  2.6292  1.4122  1.1919
 1172SOL    HW214976   4.407   3.494   6.648 -1.7382  1.9936  2.1346
 1173SOL     OW14977   0.163   1.287   2.782  0.6208 -0.0347 -0.0316
 1173SOL    HW114978   0.203   1.233   2.714 -0.1773 -0.6622 -0.0079
 1173SOL    HW214979   0.184   1.376   2.754  2.0343 -0.4015 -0.1189
 1174SOL     OW14980   1.053   2.323   6.499 -0.4714  0.0747 -0.3514
 1174SOL    HW114981   1.038   2.265   6.574  1.4703  1.1228  0.8808
 1174SOL    HW214982   1.046   2.413   6.532  0.5897 -0.0871  0.3191
 1175SOL     OW14983   3.210   1.065  16.003 -0.4186 -0.0625 -0.2194
 1175SOL    HW114984   3.138   1.106  16.050 -0.1142  2.6742 -2.1455
 1175SOL    HW214985   3.204   0.974  16.031 -3.0975 -0.2692 -1.4198
 1176SOL     OW14986   0.344   2.675   2.667 -0.1550  0.1093  0.4153
 1176SOL    HW114987   0.382   2.637   2.588 -0.5115 -3.2551  1.8874
 1176SOL    HW214988   0.397   2.617   2.721  1.7953 -2.7402 -4.5362
 1177SOL     OW14989   4.364   2.613   2.623 -0.1511  0.2545 -0.2228
 1177SOL    HW114990   4.327   2.542   2.570  0.4530 -0.2833  0.0838
 1177SOL    HW214991   4.441   2.635   2.571  0.4472  0.3948  0.7249
 1178SOL     OW14992   2.704   0.030   8.318 -0.1834  0.3800 -0.0332
 1178SOL    HW114993   2.678   0.045   8.409 -1.6734 -0.8573 -0.2531
 1178SOL    HW214994   2.617   0.010   8.283  1.0511 -0.5036 -2.5544
 1179SOL     OW14995   2.447   2.485   3.579  0.0230  0.5368 -0.3514
 1179SOL    HW114996   2.518   2.441   3.625 -0.4760 -0.8233 -0.8758
 1179SOL    HW214997   2.388   2.412   3.556  1.6357 -0.6767 -0.6296
 1180SOL     OW14998   4.233   3.342   8.761  0.1481 -0.2757  0.2687
 1180SOL    HW114999   4.202   3.278   8.826  1.1215 -1.8239 -0.7772
 1180SOL    HW215000   4.174   3.417   8.768 -0.0966 -0.4722  0.3222
 1181SOL     OW15001   2.590   3.917  15.062  0.7236 -0.0173 -0.1234
 1181SOL    HW115002   2.645   3.936  15.138  0.3786 -1.8358  0.6034
 1181SOL    HW215003   2.573   3.824  15.079  0.9897  0.0887  0.7197
 1182SOL     OW15004   4.042   2.535  12.705 -0.2406  0.7730 -0.7960
 1182SOL    HW115005   4.113   2.552  12.766  0.2738  1.1608 -1.5002
 1182SOL    HW215006   3.979   2.566  12.770  1.2065  1.6278  0.1798
 1183SOL     OW15007   1.645   2.101  16.586  0.0673  0.1509 -0.7355
 1183SOL    HW115008   1.565   2.137  16.625  0.1735 -1.0061  0.5734
 1183SOL    HW215009   1.624   2.056  16.505 -3.1216  0.2745  0.0229
 1184SOL     OW15010   1.391   0.277   3.717  0.6172  0.2534  0.1292
 1184SOL    HW115011   1.413   0.363   3.755 -0.3054  0.6781 -0.2967
 1184SOL    HW215012   1.297   0.267   3.729  0.6124 -1.1819 -1.0519
 1185SOL     OW15013   2.931   2.098   2.553  0.6338  0.2118  0.1455
 1185SOL    HW115014   2.883   2.090   2.635  0.0683  2.5846  0.0567
 1185SOL    HW215015   2.891   2.173   2.509  0.4847  0.1443  0.1656
 1186SOL     OW15016   3.528   2.865   4.009 -0.0171 -0.2843  0.3460
 1186SOL    HW115017   3.613   2.823   4.001  1.3376  2.3659  0.7492
 1186SOL    HW215018   3.481   2.841   3.929 -1.3559  0.1323  1.0104
 1187SOL     OW15019   2.249   4.566   2.592 -0.2075 -0.3058  0.1360
 1187SOL    HW115020   2.314   4.636   2.594  0.4636 -0.9492  1.4071
 1187SOL    HW215021   2.182   4.599   2.652 -0.4603  1.2327 -0.9844
 1188SOL     OW15022   1.037   0.550   0.940 -0.0327  0.2544 -0.0882
 1188SOL    HW115023   1.054   0.504   0.858 -0.2560 -0.3701  0.2091
 1188SOL    HW215024   0.951   0.513   0.964 -0.4631  2.9416  2.4151
 1189SOL     OW15025   2.415   2.545   4.193 -0.6862  0.0069  0.4000
 1189SOL    HW115026   2.449   2.551   4.104 -1.2178  1.8811  0.3267
 1189SOL    HW215027   2.491   2.566   4.247  0.8872  1.5541 -2.4360
 1190SOL     OW15028   4.580   3.768   7.018 -0.4062  0.8685 -0.3603
 1190SOL    HW115029   4.501   3.766   7.072  0.4495 -1.0072  0.8380
 1190SOL    HW215030   4.611   3.858   7.012  0.5749  0.5531 -0.0852
 1191SOL     OW15031   1.410   0.075   4.210  0.2227  0.1288 -0.5919
 1191SOL    HW115032   1.491   0.116   4.181  0.1352  2.5493  2.6191
 1191SOL    HW215033   1.350   0.098   4.139  1.9137  1.1902 -1.6680
 1192SOL     OW15034   0.765   0.416  17.165  0.0446  0.2987 -0.5878
 1192SOL    HW115035   0.779   0.509  17.153 -0.4747  0.7832  2.4499
 1192SOL    HW215036   0.703   0.384  17.099  0.5482  0.3591 -1.0876
 1193SOL     OW15037   3.301   3.263   8.285  0.0491 -0.2477 -0.3947
 1193SOL    HW115038   3.308   3.222   8.371 -1.4597 -2.4785 -1.3442
 1193SOL    HW215039   3.313   3.352   8.319  1.1989 -1.6596  2.9229
 1194SOL     OW15040   2.392   0.290   2.623  0.4955  0.4165  0.1167
 1194SOL    HW115041   2.318   0.346   2.648  0.3279 -0.2361  1.0707
 1194SOL    HW215042   2.382   0.281   2.528 -1.7326  2.1096  0.1982
 1195SOL     OW15043   0.486   3.753  16.694  0.1520  0.2694  0.1859
 1195SOL    HW115044   0.444   3.826  16.649  0.1510  1.5664  2.2925
 1195SOL    HW215045   0.565   3.749  16.640 -0.0306 -1.6946  0.0847
 1196SOL     OW15046   3.171   3.533   0.008  0.2820  0.1915 -0.3268
 1196SOL    HW115047   3.155   3.548  17.620 -0.3091  0.9799 -0.0934
 1196SOL    HW215048   3.223   3.610   0.033 -0.0597  0.4793 -0.5109
 1197SOL     OW15049   4.028   3.551   8.761  0.0678 -0.1526  0.2059
 1197SOL    HW115050   3.949   3.524   8.807  1.0108 -0.8305  1.4282
 1197SOL    HW215051   3.994   3.637   8.735  0.3184 -0.0726  0.1364
 1198SOL     OW15052   3.707   4.376   9.897  0.2106 -0.2690  0.6840
 1198SOL    HW115053   3.724   4.396   9.806 -0.7574  0.7515  0.7303
 1198SOL    HW215054   3.639   4.309   9.902  0.0688 -0.0794  1.3323
 1199SOL     OW15055   3.389   1.757  13.672  0.2884 -0.2259  0.3036
 1199SOL    HW115056   3.399   1.723  13.583  1.3573  2.2563 -0.5473
 1199SOL    HW215057   3.440   1.700  13.729 -1.2722 -0.3232  1.5903
 1200SOL     OW15058   2.662   3.612   7.485  0.5174 -0.2369 -0.2736
 1200SOL    HW115059   2.578   3.657   7.477  0.6062 -0.1358 -0.6569
 1200SOL    HW215060   2.627   3.533   7.526  2.3604 -2.7098 -3.4300
 1201SOL     OW15061   0.301   3.300   6.956 -0.1492 -0.1424 -0.9180
 1201SOL    HW115062   0.368   3.297   6.888  0.2546 -1.0141 -0.4843
 1201SOL    HW215063   0.337   3.233   7.013 -1.5819  1.1421  1.4645
 1202SOL     OW15064   4.217   1.457   4.586 -0.1532  0.0802  0.1026
 1202SOL    HW115065   4.240   1.405   4.663 -1.6956 -0.2246  0.3733
 1202SOL    HW215066   4.165   1.531   4.618 -0.6799 -0.6782  1.0195
 1203SOL     OW15067   3.016   2.359   5.625 -0.1281  0.7925  0.6188
 1203SOL    HW115068   3.005   2.307   5.705  0.2886  0.9829  0.7948
 1203SOL    HW215069   3.083   2.421   5.653  0.3220  1.0674 -1.1228
 1204SOL     OW15070   2.555   3.591   2.433  0.0271 -0.1406 -0.4227
 1204SOL    HW115071   2.613   3.533   2.484  1.6704  0.6006 -1.4529
 1204SOL    HW215072   2.565   3.537   2.355  1.9059 -2.0011  1.1167
 1205SOL     OW15073   4.660   0.358   0.214 -0.3382 -0.0246 -0.9630
 1205SOL    HW115074   4.651   0.292   0.145 -1.4448  0.8791 -1.6848
 1205SOL    HW215075   4.663   0.440   0.165 -1.0073  1.0615  0.8055
 1206SOL     OW15076   4.278   0.944   2.549 -0.9916  0.1135  0.7383
 1206SOL    HW115077   4.354   0.886   2.545  0.0324  1.5870 -0.9875
 1206SOL    HW215078   4.292   0.964   2.456 -0.0310  1.6825  1.2318
 1207SOL     OW15079   0.127   1.460  16.914 -0.1374 -0.2965  0.0849
 1207SOL    HW115080   0.098   1.529  16.854 -0.0091  0.7457  1.2276
 1207SOL    HW215081   0.121   1.503  16.999  0.5784  2.1472 -1.1164
 1208SOL     OW15082   2.367   2.186   5.213 -0.2843  0.4155  0.1422
 1208SOL    HW115083   2.424   2.144   5.148  0.5562  1.3018  0.2959
 1208SOL    HW215084   2.431   2.217   5.277  0.8519  0.8497 -1.1963
 1209SOL     OW15085   0.012   1.742   1.989  0.0601 -0.1775  0.4902
 1209SOL    HW115086   0.021   1.837   1.981 -0.5050 -0.1072  0.6737
 1209SOL    HW215087   0.088   1.703   1.948 -0.8662 -0.7438 -0.6741
 1210SOL     OW15088   1.334   1.342  17.426  0.5916 -0.2388  1.0062
 1210SOL    HW115089   1.260   1.281  17.427  1.8858 -1.8135  0.4739
 1210SOL    HW215090   1.406   1.293  17.466  1.1178 -0.1528  0.1621
 1211SOL     OW15091   4.445   0.058  17.637  0.2769  0.1180 -0.2236
 1211SOL    HW115092   4.433   0.145  17.676  2.7844 -0.6870  2.3793
 1211SOL    HW215093   4.531   0.047  17.678  1.7009  0.1997 -3.2452
 1212SOL     OW15094   4.142   2.547   4.012 -0.7899 -0.2322  0.0138
 1212SOL    HW115095   4.102   2.589   4.088  1.2583  2.5440 -0.4208
 1212SOL    HW215096   4.232   2.580   4.018 -1.2919  1.5293 -2.0453
 1213SOL     OW15097   0.771   2.247   4.765 -0.3379 -0.2530 -0.2163
 1213SOL    HW115098   0.828   2.283   4.832  0.6918  1.1343 -1.8152
 1213SOL    HW215099   0.701   2.209   4.818  0.6674 -0.9087  0.6346
 1214SOL     OW15100   0.339   0.104   2.673 -0.4354 -0.3224  0.6683
 1214SOL    HW115101   0.257   0.076   2.715 -0.7385 -3.3019 -1.8805
 1214SOL    HW215102   0.312   0.095   2.582  2.4378 -0.4762 -0.1532
 1215SOL     OW15103   4.458   2.383  12.943  0.5195  0.5748  0.1425
 1215SOL    HW115104   4.393   2.426  12.886 -0.1122  0.9539  1.1362
 1215SOL    HW215105   4.422   2.294  12.947  0.2820  0.7714  2.0662
 1216SOL     OW15106   4.359   1.635   7.709  0.0301 -0.1923  0.6664
 1216SOL    HW115107   4.448   1.616   7.738  0.5511 -0.9620 -1.4782
 1216SOL    HW215108   4.327   1.546   7.690 -0.9017  0.5894 -1.3928
 1217SOL     OW15109   2.694   2.651   0.809 -0.1165  0.6352  0.1580
 1217SOL    HW115110   2.764   2.613   0.862  1.4254  1.3036 -1.3904
 1217SOL    HW215111   2.689   2.586   0.739  3.3242  0.5868 -0.0606
 1218SOL     OW15112   2.050   3.173   7.955 -0.5510  0.3221  0.5864
 1218SOL    HW115113   2.084   3.261   7.974 -0.6851 -0.0089  2.3305
 1218SOL    HW215114   2.114   3.144   7.890  0.1254  1.8027  0.5806
 1219SOL     OW15115   4.353   2.377   5.168  0.8311  0.0500 -0.0816
 1219SOL    HW115116   4.380   2.306   5.109 -0.3388 -0.6158  0.1844
 1219SOL    HW215117   4.306   2.436   5.108  2.3280  2.8840  1.5773
 1220SOL     OW15118   2.423   0.891  13.369  0.0870 -0.5698  0.3475
 1220SOL    HW115119   2.423   0.934  13.284  1.4261  1.1690  1.2402
 1220SOL    HW215120   2.486   0.950  13.410 -0.4191 -0.0564  0.3827
 1221SOL     OW15121   2.538   3.549   8.548 -0.3687  0.1115 -0.1587
 1221SOL    HW115122   2.511   3.550   8.457 -0.4082 -0.3559 -0.1565
 1221SOL    HW215123   2.593   3.471   8.540 -0.0617  0.4077 -0.8570
 1222SOL     OW15124   3.550   1.563   5.370 -0.0797  0.1333 -0.5495
 1222SOL    HW115125   3.596   1.495   5.321 -1.4382 -0.8369 -0.4813
 1222SOL    HW215126   3.473   1.515   5.401 -0.5790  1.0089 -0.4563
 1223SOL     OW15127   1.518   1.844   2.230 -0.2319 -0.2344 -0.6279
 1223SOL    HW115128   1.452   1.833   2.298 -0.9670  3.3677 -0.7335
 1223SOL    HW215129   1.476   1.904   2.167 -0.9044 -0.1391 -0.0926
 1224SOL     OW15130   4.079   0.691  14.848  0.2668 -0.3398 -0.4165
 1224SOL    HW115131   4.123   0.743  14.780  1.4967  0.6798  1.1624
 1224SOL    HW215132   4.128   0.609  14.841 -1.0062 -1.3604  2.7730
 1225SOL     OW15133   0.025   1.239   5.602 -0.4068 -0.3689  0.4652
 1225SOL    HW115134   0.054   1.213   5.689  0.4571 -0.3031  0.2001
 1225SOL    HW215135   0.101   1.288   5.570 -1.2732  0.1783 -0.7427
 1226SOL     OW15136   3.668   4.002   3.850  0.7141  0.4957 -0.2325
 1226SOL    HW115137   3.614   3.923   3.859  0.8372  0.3907 -0.4361
 1226SOL    HW215138   3.667   4.041   3.938  1.0965  0.3266 -0.1552
 1227SOL     OW15139   1.722   3.651   2.766  0.2775 -0.3142  0.5054
 1227SOL    HW115140   1.645   3.608   2.729  0.4123 -0.2293  0.1209
 1227SOL    HW215141   1.792   3.595   2.733 -1.5533 -2.2788 -0.0486
 1228SOL     OW15142   1.973   3.183  12.239 -0.4761 -0.0146 -0.2041
 1228SOL    HW115143   2.033   3.120  12.200 -1.3545 -1.0623  0.1438
 1228SOL    HW215144   2.000   3.186  12.330 -0.1078 -1.3454 -0.2827
 1229SOL     OW15145   2.976   2.992   3.737 -0.0220  0.0972  0.6878
 1229SOL    HW115146   2.903   2.939   3.705 -0.8231  0.5648  1.7616
 1229SOL    HW215147   2.949   3.043   3.813  2.0997  1.5205  0.4740
 1230SOL     OW15148   1.379   3.976   3.249  0.9678  0.2214  0.1984
 1230SOL    HW115149   1.390   3.999   3.157  0.5153  0.2032  0.1400
 1230SOL    HW215150   1.459   3.925   3.260  1.0636  0.4697  0.6765
 1231SOL     OW15151   3.749   2.267  14.528  0.3587 -0.2786 -0.4356
 1231SOL    HW115152   3.790   2.182  14.545  0.8614  0.4248  1.7733
 1231SOL    HW215153   3.657   2.242  14.530  0.5043 -0.7580  0.2922
 1232SOL     OW15154   3.573   1.684   0.221 -0.0286  0.2258 -0.1587
 1232SOL    HW115155   3.660   1.672   0.259 -0.7643 -0.5225  1.2775
 1232SOL    HW215156   3.512   1.626   0.267  0.6619 -0.7536 -0.4646
 1233SOL     OW15157   0.022   0.228  10.577 -0.1810  0.4724  0.2962
 1233SOL    HW115158   0.019   0.202  10.485 -0.6555  1.6146 -0.0169
 1233SOL    HW215159   4.693   0.160  10.617  1.1244 -1.0200 -0.4506
 1234SOL     OW15160   2.408   2.618  17.296  0.4254  0.5532  0.0898
 1234SOL    HW115161   2.402   2.545  17.234  2.4118  2.7665 -2.7014
 1234SOL    HW215162   2.457   2.676  17.238 -1.8151  0.2533 -2.1530
 1235SOL     OW15163   2.966   3.032  17.570  0.2578  0.0051  0.2244
 1235SOL    HW115164   3.009   2.951  17.597 -3.4141 -2.0283 -0.0882
 1235SOL    HW215165   2.874   3.007  17.566  0.9082 -2.4691  1.0978
 1236SOL     OW15166   3.022   3.282  15.040  0.0784  0.1283 -0.1629
 1236SOL    HW115167   3.115   3.291  15.062  0.4859 -1.1205 -1.3979
 1236SOL    HW215168   2.994   3.219  15.107  1.4555 -1.2139 -0.8430
 1237SOL     OW15169   2.609   4.425   6.162 -0.7076  0.7505  0.2047
 1237SOL    HW115170   2.596   4.439   6.068 -1.5470 -0.8368  0.0971
 1237SOL    HW215171   2.518   4.446   6.186 -1.2300  0.3646 -1.4776
 1238SOL     OW15172   1.484   0.847   4.299 -0.0634 -0.6205 -0.1730
 1238SOL    HW115173   1.576   0.835   4.275  1.0319  1.5856  2.9205
 1238SOL    HW215174   1.465   0.921   4.242  0.8663  1.5770  2.3652
 1239SOL     OW15175   1.736   2.616   3.549 -0.5003 -0.8798  0.1578
 1239SOL    HW115176   1.690   2.540   3.513  0.2091 -1.2379  0.0042
 1239SOL    HW215177   1.770   2.581   3.632 -0.4274 -0.7852  0.1672
 1240SOL     OW15178   2.497   3.742  10.533 -0.5432  0.2265  0.9785
 1240SOL    HW115179   2.503   3.726  10.439 -0.9430 -2.8451  1.4932
 1240SOL    HW215180   2.454   3.828  10.528 -1.3499 -0.3464 -1.5506
 1241SOL     OW15181   3.439   2.600   2.658 -0.1917 -0.1349 -0.2440
 1241SOL    HW115182   3.433   2.536   2.586 -0.0218 -1.1948  0.6813
 1241SOL    HW215183   3.503   2.555   2.713 -1.1469 -0.2960  0.7257
 1242SOL     OW15184   2.753   2.541   8.116 -0.1876 -0.8816  0.1402
 1242SOL    HW115185   2.786   2.629   8.102  0.7916 -1.1656  0.6558
 1242SOL    HW215186   2.833   2.488   8.112  1.2190  1.3466 -1.6479
 1243SOL     OW15187   1.188   1.846   0.743  0.0652  0.2615 -0.2750
 1243SOL    HW115188   1.270   1.812   0.708  0.1315  0.2890 -0.1466
 1243SOL    HW215189   1.196   1.824   0.836 -1.7355 -1.1399 -0.4354
 1244SOL     OW15190   3.948   0.613   7.046 -0.3402  0.2294 -0.2434
 1244SOL    HW115191   4.001   0.534   7.039  1.4923  1.4669 -0.2358
 1244SOL    HW215192   4.016   0.669   7.084 -0.8025  0.5585  0.0975
 1245SOL     OW15193   4.352   4.343  14.687 -0.5256  0.0321  0.7892
 1245SOL    HW115194   4.448   4.350  14.689 -0.3890 -1.3259 -1.3701
 1245SOL    HW215195   4.342   4.321  14.595  1.5116 -0.4830  0.6994
 1246SOL     OW15196   2.768   2.761   6.905 -0.7992 -0.0590  0.4824
 1246SOL    HW115197   2.772   2.782   6.812 -0.5087  0.4632  0.6130
 1246SOL    HW215198   2.833   2.691   6.900 -1.1216 -0.2149 -1.3438
 1247SOL     OW15199   2.940   0.864   2.646  0.3702  0.6931 -0.0932
 1247SOL    HW115200   2.882   0.809   2.593 -1.3071  2.6021 -0.2304
 1247SOL    HW215201   3.005   0.883   2.579  0.5079  1.9276  0.4032
 1248SOL     OW15202   0.438   3.655   6.657  0.5543 -0.1063  0.4163
 1248SOL    HW115203   0.430   3.707   6.577  0.7385 -1.7781 -0.6848
 1248SOL    HW215204   0.347   3.632   6.679  0.5541 -0.1867  0.3311
 1249SOL     OW15205   4.532   4.261   7.527  0.0309  0.0861  0.2255
 1249SOL    HW115206   4.548   4.262   7.433 -0.8144 -3.5373  0.0375
 1249SOL    HW215207   4.503   4.172   7.549 -0.1810  0.2103  0.4526
 1250SOL     OW15208   3.264   2.421   4.277  0.2317  0.5634 -0.1283
 1250SOL    HW115209   3.293   2.417   4.369 -1.1526  0.6632  0.3128
 1250SOL    HW215210   3.182   2.374   4.291 -0.8527  1.6826 -2.8100
 1251SOL     OW15211   3.796   0.902  13.277 -0.1867 -0.0567 -0.7711
 1251SOL    HW115212   3.704   0.877  13.274  0.6239 -3.4741  3.4094
 1251SOL    HW215213   3.822   0.859  13.358  2.0365 -2.1344 -2.5770
 1252SOL     OW15214   1.553   3.058  12.878  0.3160 -0.5508  0.3926
 1252SOL    HW115215   1.460   3.069  12.855  0.7224  1.2070 -0.4781
 1252SOL    HW215216   1.541   3.059  12.973 -0.5038 -1.9637  0.3026
 1253SOL     OW15217   2.560   2.289   5.376  0.3700  0.0037 -0.1854
 1253SOL    HW115218   2.618   2.216   5.356  0.0763 -0.6499  1.3140
 1253SOL    HW215219   2.627   2.350   5.408  0.7734 -1.1474  1.1684
 1254SOL     OW15220   4.457   3.027   6.087 -0.6394 -0.5084 -0.1526
 1254SOL    HW115221   4.407   3.099   6.125 -1.6834 -1.8306  0.9766
 1254SOL    HW215222   4.547   3.061   6.080 -0.8606 -0.0233 -0.6147
 1255SOL     OW15223   4.417   3.669  10.280 -0.3636 -0.5426  0.2044
 1255SOL    HW115224   4.497   3.673  10.333 -0.3695  1.8549  0.0166
 1255SOL    HW215225   4.431   3.583  10.240 -0.0167 -0.6758  0.6112
 1256SOL     OW15226   3.733   0.167   7.882  0.3633  0.3552  0.1833
 1256SOL    HW115227   3.775   0.128   7.959 -2.0331 -2.5053  0.0379
 1256SOL    HW215228   3.764   0.256   7.899  1.7947  0.0671 -0.9731
 1257SOL     OW15229   1.555   2.000  11.161  0.3989 -0.3787  0.0408
 1257SOL    HW115230   1.482   2.010  11.222 -0.1828 -1.7129 -0.4279
 1257SOL    HW215231   1.575   1.910  11.184  0.4226 -0.4135 -0.1144
 1258SOL     OW15232   4.332   4.022  16.328  0.3162  0.7560  0.2760
 1258SOL    HW115233   4.315   4.076  16.251  0.1845 -1.1725 -1.0586
 1258SOL    HW215234   4.395   4.078  16.374  0.5842  0.1192  0.6913
 1259SOL     OW15235   1.372   2.994  10.567 -0.4584  0.3245 -0.2113
 1259SOL    HW115236   1.413   2.912  10.595  0.2562  0.1970 -1.5988
 1259SOL    HW215237   1.284   2.958  10.566 -0.8925  1.3989 -2.1797
 1260SOL     OW15238   0.730   2.961  13.901  0.0572 -0.1792  0.0469
 1260SOL    HW115239   0.777   2.881  13.923  1.8658  0.1700 -2.5313
 1260SOL    HW215240   0.671   2.934  13.831  1.3566 -1.5261 -0.5369
 1261SOL     OW15241   0.415   0.476  17.548 -0.0875  0.2139 -0.2218
 1261SOL    HW115242   0.465   0.401  17.518 -0.6061  0.4800 -1.7592
 1261SOL    HW215243   0.461   0.546  17.501  3.1531 -2.6121 -1.1807
 1262SOL     OW15244   2.153   4.555  11.473 -0.2054 -0.0104 -0.3170
 1262SOL    HW115245   2.104   4.593  11.546 -0.2827  1.1730 -0.9862
 1262SOL    HW215246   2.215   4.498  11.518 -0.4612 -0.2672 -0.2853
 1263SOL     OW15247   0.745   0.788   8.781 -0.0805  0.6177  0.0315
 1263SOL    HW115248   0.683   0.722   8.813  0.8380 -0.8579 -1.2065
 1263SOL    HW215249   0.777   0.735   8.708 -2.0531  0.7964 -0.9573
 1264SOL     OW15250   4.229   2.940   6.920  0.0055 -0.2682  0.0073
 1264SOL    HW115251   4.285   2.957   6.995 -2.5813  1.3548  1.5897
 1264SOL    HW215252   4.295   2.906   6.860 -0.0152  0.3925 -0.3998
 1265SOL     OW15253   1.718   1.217   4.433  0.3684 -0.5500 -0.0700
 1265SOL    HW115254   1.626   1.239   4.449  0.4546  0.7970 -1.4254
 1265SOL    HW215255   1.736   1.265   4.352  2.2953 -0.5598  0.3487
 1266SOL     OW15256   4.353   2.353  16.270 -0.5903 -0.1345 -0.2707
 1266SOL    HW115257   4.371   2.347  16.177  0.6288 -0.3841 -0.0254
 1266SOL    HW215258   4.415   2.291  16.309 -2.7449 -1.0957  1.6720
 1267SOL     OW15259   4.641   4.605   5.128  0.3527  0.2416  0.1432
 1267SOL    HW115260   4.677   4.606   5.039  0.2956  0.4059  0.1228
 1267SOL    HW215261   4.680   4.528   5.169 -1.2721 -0.8181 -0.2767
 1268SOL     OW15262   2.840   0.738  17.017  0.6658  0.1358 -0.4514
 1268SOL    HW115263   2.822   0.830  16.999  0.1673  0.1557  0.1496
 1268SOL    HW215264   2.904   0.714  16.950  1.6505  0.2222  0.4577
 1269SOL     OW15265   1.766   1.105   5.915 -0.1424  0.4101 -0.5688
 1269SOL    HW115266   1.732   1.015   5.917 -1.6229  1.0001  0.5624
 1269SOL    HW215267   1.743   1.134   6.003 -0.9108  0.6013 -0.8258
 1270SOL     OW15268   3.074   1.157  10.031  0.4642  0.4318 -0.1096
 1270SOL    HW115269   3.004   1.093  10.025  1.6670 -0.7990 -0.9583
 1270SOL    HW215270   3.057   1.188  10.120 -0.4694 -2.1872  0.6129
 1271SOL     OW15271   4.313   3.002   7.341 -0.5687  0.4485 -0.1626
 1271SOL    HW115272   4.354   2.972   7.422 -0.0676  1.2793 -0.1081
 1271SOL    HW215273   4.241   3.048   7.384 -0.6808 -0.7405  0.9166
 1272SOL     OW15274   0.609   0.976   5.625 -0.5719 -0.1775  0.3930
 1272SOL    HW115275   0.578   1.006   5.540  2.4913 -1.1464 -1.0901
 1272SOL    HW215276   0.702   1.001   5.622 -0.7740  0.7524  2.0022
 1273SOL     OW15277   0.868   3.534   5.205 -0.6902 -0.9995  0.6270
 1273SOL    HW115278   0.934   3.525   5.275 -0.3714 -4.1465 -0.0674
 1273SOL    HW215279   0.880   3.457   5.149  1.3009 -0.6376  0.5549
 1274SOL     OW15280   3.100   2.417   7.936 -0.0447  0.4395  0.0937
 1274SOL    HW115281   3.164   2.351   7.960 -0.1974  0.0143 -0.6819
 1274SOL    HW215282   3.038   2.363   7.888  1.2306 -1.4654  0.6071
 1275SOL     OW15283   0.322   1.654  11.698 -0.0491  0.4525  0.0714
 1275SOL    HW115284   0.311   1.747  11.680  0.6193  0.3247 -0.9935
 1275SOL    HW215285   0.416   1.643  11.711 -0.0411 -1.4941 -1.6624
 1276SOL     OW15286   0.667   0.966  13.161  0.3261 -0.0738 -0.0747
 1276SOL    HW115287   0.727   0.897  13.190  1.5007  0.6676 -0.7471
 1276SOL    HW215288   0.711   0.988  13.079  0.4425 -1.8759 -0.5006
 1277SOL     OW15289   4.687   0.713   6.919 -0.1454  0.5372 -0.0116
 1277SOL    HW115290   4.659   0.748   6.835 -1.0211  2.0141  0.9024
 1277SOL    HW215291   4.620   0.644   6.916  1.0643 -0.7195  1.8378
 1278SOL     OW15292   0.061   0.624   5.666 -0.3178  0.6645 -0.1012
 1278SOL    HW115293   0.036   0.686   5.597  0.3140 -1.0776 -1.8779
 1278SOL    HW215294   4.702   0.614   5.709  0.1689  2.1987  1.2325
 1279SOL     OW15295   3.482   1.025   3.012 -0.2750 -0.2565 -0.2736
 1279SOL    HW115296   3.467   1.113   2.979 -2.6017 -0.3138  0.6361
 1279SOL    HW215297   3.406   1.011   3.068  0.1544 -0.7157  0.1999
 1280SOL     OW15298   4.261   4.616   8.704  0.6195 -0.0761  0.0506
 1280SOL    HW115299   4.342   4.660   8.729  0.7730  0.5608 -1.5825
 1280SOL    HW215300   4.293   4.526   8.695  0.3489 -0.0012 -1.5902
 1281SOL     OW15301   4.721   4.566  17.696  0.4919  0.9451  0.0238
 1281SOL    HW115302   0.089   4.548  17.695  0.1982 -0.6690  0.7451
 1281SOL    HW215303   4.699   4.523   0.074 -0.5571 -0.4578 -0.9724
 1282SOL     OW15304   0.145   4.033   5.002  0.0862  0.1719 -0.0937
 1282SOL    HW115305   0.239   4.030   4.984 -0.5513 -1.3898 -3.0887
 1282SOL    HW215306   0.107   4.117   4.975 -1.0883 -0.5563 -0.6620
 1283SOL     OW15307   2.369   2.253  11.256 -0.5857  0.2448 -0.4958
 1283SOL    HW115308   2.447   2.243  11.202  0.8112  1.6896  1.2188
 1283SOL    HW215309   2.303   2.240  11.188 -1.8516  0.8117  0.6215
 1284SOL     OW15310   3.973   0.172   9.161 -0.3256  0.1491 -0.7852
 1284SOL    HW115311   3.920   0.201   9.087  0.8338  0.8921 -1.3284
 1284SOL    HW215312   3.936   0.086   9.179 -0.3711  0.4834  0.7333
 1285SOL     OW15313   1.369   3.060   4.609  0.3596  0.3301  0.5268
 1285SOL    HW115314   1.381   3.154   4.623 -1.5734  0.8458 -1.2047
 1285SOL    HW215315   1.456   3.030   4.636 -0.3339  0.6326  3.0774
 1286SOL     OW15316   0.162   0.911  12.040 -0.2003  0.6273  0.0585
 1286SOL    HW115317   0.131   0.890  11.952 -0.8292 -0.9149  0.6477
 1286SOL    HW215318   0.197   0.826  12.066  1.1757  1.3222  0.4703
 1287SOL     OW15319   1.451   0.441  10.677 -0.0640 -0.1288  0.3127
 1287SOL    HW115320   1.512   0.368  10.675 -2.4334 -2.1051  0.2694
 1287SOL    HW215321   1.501   0.521  10.658 -1.8184  0.1802 -2.9895
 1288SOL     OW15322   3.880   1.850  14.817  0.1912  0.8780  0.0645
 1288SOL    HW115323   3.959   1.893  14.849  0.8716  0.2415 -0.7491
 1288SOL    HW215324   3.924   1.765  14.809 -1.0596  0.0130  2.5036
 1289SOL     OW15325   1.940   2.978   8.376  0.6903 -0.0395  0.5076
 1289SOL    HW115326   1.939   3.010   8.286  0.7943 -0.4740  0.3505
 1289SOL    HW215327   2.032   2.986   8.401  0.6250 -2.2031  1.4904
 1290SOL     OW15328   1.556   2.878   5.920  0.3097 -0.5388 -0.2273
 1290SOL    HW115329   1.605   2.797   5.906 -0.1121 -0.8635  0.1976
 1290SOL    HW215330   1.554   2.898   5.826  1.5668 -0.0704 -0.1639
 1291SOL     OW15331   3.259   1.850   1.502  0.0933 -0.1295 -0.0315
 1291SOL    HW115332   3.199   1.806   1.562 -1.9239  1.0368 -1.1659
 1291SOL    HW215333   3.296   1.779   1.449 -2.1937 -0.1652 -1.5721
 1292SOL     OW15334   2.725   3.642   6.854  0.1391  0.0441  0.5744
 1292SOL    HW115335   2.668   3.717   6.841 -0.4839 -0.7474 -1.1718
 1292SOL    HW215336   2.804   3.670   6.807 -0.2457 -1.6837 -1.0636
 1293SOL     OW15337   3.596   0.040   8.937  0.0892  0.0244 -0.3088
 1293SOL    HW115338   3.651   0.085   9.001 -0.1589 -0.5505  0.3080
 1293SOL    HW215339   3.655   0.009   8.868  0.4419 -1.6355  0.7383
 1294SOL     OW15340   2.028   1.460   6.815 -0.2708  0.0102 -0.1661
 1294SOL    HW115341   1.946   1.441   6.769  0.6373 -0.5174 -1.5358
 1294SOL    HW215342   2.064   1.535   6.767 -1.2912  0.3588 -0.3944
 1295SOL     OW15343   2.482   4.242   7.120  0.0576 -0.0798 -0.3241
 1295SOL    HW115344   2.400   4.194   7.128  0.7406 -1.3447 -1.0749
 1295SOL    HW215345   2.547   4.184   7.159  0.7590 -0.7861 -2.5525
 1296SOL     OW15346   2.628   3.042   1.131  0.5078  0.2316 -0.5970
 1296SOL    HW115347   2.683   2.966   1.150 -1.4839 -1.2362 -0.7003
 1296SOL    HW215348   2.552   3.013   1.183  0.4806  0.6501 -0.4073
 1297SOL     OW15349   0.797   1.705   5.716  0.0240  0.2548  0.2251
 1297SOL    HW115350   0.820   1.649   5.791 -0.4691  0.2086  0.3405
 1297SOL    HW215351   0.747   1.773   5.760  1.2269  1.7593 -0.7356
 1298SOL     OW15352   3.422   3.410   4.001  0.5197  0.4866  0.3243
 1298SOL    HW115353   3.384   3.448   3.922  0.0240  0.0327  0.3493
 1298SOL    HW215354   3.349   3.351   4.021  0.2811  1.0341  1.0589
 1299SOL     OW15355   2.577   2.356   8.326 -0.1467 -0.1140  0.7596
 1299SOL    HW115356   2.576   2.448   8.300  1.4712 -0.0648  0.8542
 1299SOL    HW215357   2.506   2.354   8.390 -0.5286  1.4032  0.4013
 1300SOL     OW15358   3.937   0.555   7.501  0.1827 -0.3843 -0.1332
 1300SOL    HW115359   3.899   0.636   7.466  0.5619 -0.4038 -0.5873
 1300SOL    HW215360   4.010   0.593   7.550 -1.3933 -0.2784  2.1794
 1301SOL     OW15361   4.030   4.156   2.495  0.8018 -0.3184 -0.0445
 1301SOL    HW115362   3.968   4.198   2.436  2.6192  0.7855 -1.1518
 1301SOL    HW215363   4.049   4.227   2.556 -1.0461  0.4400 -0.3564
 1302SOL     OW15364   0.362   4.622   0.664 -0.0530  0.6735 -0.3842
 1302SOL    HW115365   0.307   4.578   0.728 -0.1375  1.6433  0.2177
 1302SOL    HW215366   0.318   4.706   0.674 -2.0916 -0.2910 -1.3818
 1303SOL     OW15367   2.712   2.240   4.170 -0.5902 -0.1426 -0.7347
 1303SOL    HW115368   2.631   2.201   4.136 -1.3953  0.9649 -0.0673
 1303SOL    HW215369   2.749   2.271   4.088 -0.1391  2.2367  0.3739
 1304SOL     OW15370   0.050   3.977   5.858 -0.6738  0.1621 -0.5190
 1304SOL    HW115371   4.693   3.931   5.873  0.2420 -1.5239 -0.6719
 1304SOL    HW215372   0.024   4.067   5.878  3.8033  0.9449  1.6490
 1305SOL     OW15373   4.169   3.481   1.877  0.1933  0.1240  0.0097
 1305SOL    HW115374   4.263   3.490   1.861  0.0122  1.6650 -0.1763
 1305SOL    HW215375   4.133   3.460   1.791  0.5846  2.1676 -0.6544
 1306SOL     OW15376   1.064   2.688   4.046 -0.0177 -0.0606  0.2100
 1306SOL    HW115377   1.023   2.770   4.070  0.3827  0.0933  0.3721
 1306SOL    HW215378   0.992   2.625   4.044  0.2083 -0.3091 -0.3712
 1307SOL     OW15379   2.785   3.087   3.323 -0.0195 -0.1126  0.1176
 1307SOL    HW115380   2.777   2.995   3.346 -0.1704 -0.8268 -2.8143
 1307SOL    HW215381   2.693   3.098   3.299 -0.6951 -2.9448  1.3556
 1308SOL     OW15382   1.764   0.158  11.770  0.8209  0.2752 -0.3271
 1308SOL    HW115383   1.718   0.083  11.807  0.2633  1.0813  0.6099
 1308SOL    HW215384   1.784   0.208  11.849  0.9008  0.4276 -0.4436
 1309SOL     OW15385   3.806   0.379  17.491 -0.0097  0.6476  0.4624
 1309SOL    HW115386   3.830   0.309  17.551  0.2337 -0.5817 -1.0698
 1309SOL    HW215387   3.710   0.376  17.495  0.0358 -1.6163 -0.0847
 1310SOL     OW15388   3.306   2.888   7.780  0.4674  0.5225 -0.0255
 1310SOL    HW115389   3.252   2.957   7.743 -0.0884 -0.5323 -1.1769
 1310SOL    HW215390   3.229   2.835   7.798  0.6284  0.4901  0.5694
 1311SOL     OW15391   0.868   3.102   4.965 -0.4333 -0.7287 -0.1363
 1311SOL    HW115392   0.797   3.041   4.949  0.8109 -2.1752 -0.1680
 1311SOL    HW215393   0.929   3.044   5.009  0.0733 -0.2197 -0.1619
 1312SOL     OW15394   3.092   3.672   3.619  0.2339 -0.1123 -0.3524
 1312SOL    HW115395   3.058   3.586   3.592 -0.2289  0.1611 -0.6481
 1312SOL    HW215396   3.012   3.721   3.599  0.8436 -0.0324 -2.6758
 1313SOL     OW15397   2.090   4.041   8.634  0.5205  0.6614 -0.1357
 1313SOL    HW115398   2.136   3.978   8.690 -1.3329 -0.1355  0.4939
 1313SOL    HW215399   1.999   4.013   8.626  0.0487  2.0603  0.4807
 1314SOL     OW15400   1.384   3.726  11.185 -0.4931  0.6196 -0.5603
 1314SOL    HW115401   1.403   3.793  11.120  0.3051 -0.0469 -1.0236
 1314SOL    HW215402   1.449   3.659  11.163 -1.0846  0.2553 -1.1992
 1315SOL     OW15403   4.279   4.403   3.106 -0.3442  0.2572  0.5350
 1315SOL    HW115404   4.291   4.314   3.075 -1.0666  0.2844  0.1870
 1315SOL    HW215405   4.282   4.439   3.017 -0.1984 -2.1762 -0.4257
 1316SOL     OW15406   1.704   2.326   4.536 -0.0481  0.3523  0.1435
 1316SOL    HW115407   1.730   2.239   4.564 -0.2994  0.6513  1.2908
 1316SOL    HW215408   1.733   2.325   4.445 -0.8824  2.7158 -0.1673
 1317SOL     OW15409   1.118   2.303   7.501 -0.5875 -0.3934  0.6363
 1317SOL    HW115410   1.040   2.350   7.470 -1.2024 -1.9836 -0.2211
 1317SOL    HW215411   1.072   2.231   7.545  0.9384 -0.8136  1.5538
 1318SOL     OW15412   1.951   2.209   6.160 -0.1365 -0.3997  0.2545
 1318SOL    HW115413   1.964   2.273   6.230 -1.5348  1.7007 -1.4338
 1318SOL    HW215414   1.860   2.230   6.140 -0.3726 -2.4278 -0.8814
 1319SOL     OW15415   4.514   0.055  16.026  0.1685  0.0674 -0.2090
 1319SOL    HW115416   4.585   4.721  16.049 -1.0147 -1.1077  0.4094
 1319SOL    HW215417   4.568   0.134  16.020 -0.7883  0.6688 -0.8998
 1320SOL     OW15418   3.700   4.703  17.143  0.1197  0.0169 -0.1821
 1320SOL    HW115419   3.764   0.038  17.107 -1.9564  1.5690 -1.2683
 1320SOL    HW215420   3.659   4.664  17.066  0.4363  0.5858 -0.6412
 1321SOL     OW15421   4.373   0.247   4.509 -0.2915  0.3873  0.2074
 1321SOL    HW115422   4.399   0.320   4.452 -2.5917  2.4751  1.7844
 1321SOL    HW215423   4.455   0.242   4.557  0.3286 -0.4684 -0.9359
 1322SOL     OW15424   0.033   4.308  16.685  0.2740 -0.2550  0.2918
 1322SOL    HW115425   0.078   4.314  16.770 -0.8859  0.5964  0.8357
 1322SOL    HW215426   4.685   4.249  16.694 -0.2253 -0.1097 -3.0242
 1323SOL     OW15427   0.858   3.265   8.171 -0.1759  0.5541 -0.0801
 1323SOL    HW115428   0.905   3.203   8.227 -2.5395 -1.4457 -0.3043
 1323SOL    HW215429   0.927   3.300   8.115 -0.7704 -0.2874 -1.3589
 1324SOL     OW15430   0.273   4.187  13.668  0.2241 -0.0665 -0.5849
 1324SOL    HW115431   0.211   4.257  13.646  2.2923  1.4567 -1.4950
 1324SOL    HW215432   0.306   4.163  13.582 -0.7127  2.3348 -1.6191
 1325SOL     OW15433   0.510   1.676   2.787  0.0362  0.2951 -0.7031
 1325SOL    HW115434   0.535   1.701   2.875  2.0685 -0.3412 -1.0959
 1325SOL    HW215435   0.449   1.742   2.753 -1.9891 -0.1922  2.0558
 1326SOL     OW15436   2.229   2.859   5.017  0.2515  0.2518  0.1696
 1326SOL    HW115437   2.278   2.935   5.047 -0.8649  1.9623 -2.3097
 1326SOL    HW215438   2.163   2.849   5.085 -0.1192  1.2852 -0.0323
 1327SOL     OW15439   2.170   1.847   1.903  0.3375 -0.2027  0.5246
 1327SOL    HW115440   2.242   1.800   1.946  0.8082 -0.3274 -0.3953
 1327SOL    HW215441   2.098   1.785   1.893 -0.4286  0.9512 -1.1047
 1328SOL     OW15442   4.307   0.355  12.388 -0.2290 -0.3785 -0.0075
 1328SOL    HW115443   4.218   0.391  12.381 -0.7971 -1.2832  2.5000
 1328SOL    HW215444   4.299   0.267  12.425 -1.2635 -0.9399 -1.5826
 1329SOL     OW15445   0.189   3.809   2.046 -0.2043  0.1379 -0.1756
 1329SOL    HW115446   0.171   3.897   2.013 -0.6954  0.3092  0.5573
 1329SOL    HW215447   0.119   3.760   2.001 -2.2388  2.4227  0.5204
 1330SOL     OW15448   0.427   3.551  16.853  0.1488  0.1848 -0.1056
 1330SOL    HW115449   0.454   3.602  16.777  1.0367 -2.1499 -1.3719
 1330SOL    HW215450   0.369   3.605  16.906  0.1051 -0.8781  0.9346
 1331SOL     OW15451   1.978   1.352   0.464 -0.0393 -0.8339  0.0000
 1331SOL    HW115452   2.051   1.407   0.435  0.0345  1.2362  4.1874
 1331SOL    HW215453   1.995   1.352   0.558 -2.4285 -2.1654  0.4322
 1332SOL     OW15454   3.016   1.698   1.993  0.2948 -0.4803  0.4463
 1332SOL    HW115455   2.998   1.607   1.972 -0.8221  0.1890 -1.4272
 1332SOL    HW215456   3.023   1.687   2.088  0.3147 -0.2779  0.4680
 1333SOL     OW15457   4.029   4.001  16.006 -0.5155 -0.4086 -0.5567
 1333SOL    HW115458   4.009   4.026  15.916  2.4281  3.4910 -0.1166
 1333SOL    HW215459   4.033   3.907  15.990 -1.1213 -0.6290  0.6561
 1334SOL     OW15460   3.994   1.665   6.991  0.5147 -0.2477  0.0536
 1334SOL    HW115461   3.901   1.648   7.005  0.2873  0.0345 -1.0815
 1334SOL    HW215462   3.991   1.747   6.940 -0.4185 -0.8291 -0.8362
 1335SOL     OW15463   4.098   2.541   7.664 -0.0184  0.1964 -0.5197
 1335SOL    HW115464   4.190   2.517   7.676 -0.1231  0.1258  0.1819
 1335SOL    HW215465   4.064   2.493   7.589 -0.2227 -1.4338  0.6020
 1336SOL     OW15466   1.831   3.484   9.141  0.1923 -0.2777  0.4259
 1336SOL    HW115467   1.829   3.458   9.233  0.1789 -0.9795  0.2263
 1336SOL    HW215468   1.752   3.444   9.106 -1.1085  1.4907  1.3223
 1337SOL     OW15469   1.003   4.714   0.691  0.5225  0.3025  0.0449
 1337SOL    HW115470   1.037   0.067   0.734  0.8077  1.7506 -2.8831
 1337SOL    HW215471   1.020   4.649   0.759  0.3169 -2.4738 -2.5582
 1338SOL     OW15472   3.810   4.060   0.454 -0.7947  0.2531  0.7527
 1338SOL    HW115473   3.847   4.104   0.377 -0.5452  1.8327  1.7820
 1338SOL    HW215474   3.824   3.966   0.444  0.4857  0.5601 -0.3861
 1339SOL     OW15475   2.339   3.972   7.031 -0.0503  0.1844  0.0526
 1339SOL    HW115476   2.380   3.896   6.989 -1.0137  0.7471 -1.8979
 1339SOL    HW215477   2.345   3.954   7.125  0.4747 -0.9233 -0.1923
 1340SOL     OW15478   4.634   4.114   3.040 -0.1798 -0.1662 -0.1674
 1340SOL    HW115479   4.710   4.159   3.078 -0.3569  0.1329 -0.1691
 1340SOL    HW215480   4.619   4.034   3.091 -0.0803  1.1384  1.8967
 1341SOL     OW15481   2.896   2.369  10.421 -0.1984  0.1357 -0.7209
 1341SOL    HW115482   2.932   2.436  10.363 -0.1914  1.0976  0.3941
 1341SOL    HW215483   2.854   2.421  10.489  0.5177  0.4592 -0.5227
 1342SOL     OW15484   0.286   3.483  12.963  0.1585 -0.0460  0.0522
 1342SOL    HW115485   0.196   3.509  12.983  0.5443  1.8608 -0.6882
 1342SOL    HW215486   0.265   3.440  12.879 -1.7132  0.2498  0.3776
 1343SOL     OW15487   2.976   3.731  15.031  0.0691 -0.2422 -0.6789
 1343SOL    HW115488   2.991   3.705  14.940  0.4709  2.1054 -1.2844
 1343SOL    HW215489   3.045   3.796  15.035 -1.1496  1.1210 -1.8342
 1344SOL     OW15490   0.784   3.701   4.757 -0.2476  0.3502  0.1996
 1344SOL    HW115491   0.809   3.613   4.786  0.1960  0.1322 -0.8506
 1344SOL    HW215492   0.814   3.744   4.838  1.6404  1.5066 -1.1067
 1345SOL     OW15493   1.404   0.350   2.798  0.0318 -0.2694  0.0149
 1345SOL    HW115494   1.418   0.316   2.886 -1.6629 -1.2377 -0.0794
 1345SOL    HW215495   1.402   0.445   2.805  1.0006 -0.0002 -3.6119
 1346SOL     OW15496   4.060   4.027  12.965  0.2001  0.1969 -0.0933
 1346SOL    HW115497   4.095   4.032  12.876 -0.6379  0.6798 -0.3949
 1346SOL    HW215498   4.133   3.980  13.006  0.7968  0.8706 -0.3794
 1347SOL     OW15499   2.664   3.222   7.354  0.0647 -0.0282  0.0475
 1347SOL    HW115500   2.673   3.135   7.314 -1.0363 -0.4357  0.6959
 1347SOL    HW215501   2.728   3.273   7.304 -0.3142  0.0530 -0.3592
 1348SOL     OW15502   0.458   1.144   7.661  0.2143  0.2113  0.3870
 1348SOL    HW115503   0.387   1.080   7.664 -0.5692  1.0890  0.5316
 1348SOL    HW215504   0.520   1.092   7.712 -0.1208 -0.7131 -0.1421
 1349SOL     OW15505   4.161   4.365   3.367  0.0120  0.2303  0.0543
 1349SOL    HW115506   4.245   4.408   3.383 -0.7286  1.3425  0.8929
 1349SOL    HW215507   4.173   4.346   3.274  1.6894 -0.7744  0.4683
 1350SOL     OW15508   2.844   0.539   8.174  0.4945 -0.8441 -0.4999
 1350SOL    HW115509   2.805   0.468   8.123 -3.4705  1.2102 -0.3166
 1350SOL    HW215510   2.878   0.583   8.095 -2.6058 -0.6290 -1.7004
 1351SOL     OW15511   0.939   0.032   8.813  0.4286  0.0786 -0.0682
 1351SOL    HW115512   0.849   0.054   8.789  0.0430  0.2608  1.5111
 1351SOL    HW215513   0.967   4.700   8.743 -1.0438 -1.0638  0.3070
 1352SOL     OW15514   2.278   1.535   4.675 -0.1361 -0.3739  0.1787
 1352SOL    HW115515   2.240   1.459   4.632  0.9104 -1.2413  0.7829
 1352SOL    HW215516   2.361   1.502   4.710 -0.2860 -0.2969  0.6115
 1353SOL     OW15517   2.349   0.828   2.577  0.2174 -0.3350  0.1990
 1353SOL    HW115518   2.335   0.861   2.488 -1.7850 -1.3985  0.1098
 1353SOL    HW215519   2.444   0.818   2.578  0.2409 -0.3237 -2.3936
 1354SOL     OW15520   1.123   0.593   3.448 -0.0007 -0.0498 -0.1326
 1354SOL    HW115521   1.185   0.575   3.519  0.3250 -2.4792 -1.0275
 1354SOL    HW215522   1.098   0.503   3.427  0.3517  0.2168 -1.6900
 1355SOL     OW15523   0.960   1.642   7.107  0.5310  0.2656  0.2201
 1355SOL    HW115524   0.920   1.634   7.194  1.4123 -0.3770  0.5605
 1355SOL    HW215525   1.044   1.681   7.130  0.9708  0.1215 -1.1428
 1356SOL     OW15526   3.109   2.763   1.050  0.0249  0.1657  0.2153
 1356SOL    HW115527   3.204   2.753   1.050  0.0626  0.5226 -0.0673
 1356SOL    HW215528   3.078   2.677   1.079 -2.9230  0.7581 -1.1951
 1357SOL     OW15529   3.679   1.271   8.570  0.1353  0.5496  0.1669
 1357SOL    HW115530   3.717   1.316   8.495  1.8901  0.2312  0.8679
 1357SOL    HW215531   3.755   1.250   8.624  0.9437  1.7796 -0.4803
 1358SOL     OW15532   2.812   1.754   2.351  0.9054  0.3291  0.3026
 1358SOL    HW115533   2.759   1.790   2.422  1.2774 -1.1078  1.3057
 1358SOL    HW215534   2.823   1.831   2.294  0.4456  1.6436  1.9821
 1359SOL     OW15535   2.492   1.964  17.682 -0.2842 -0.0068  0.5825
 1359SOL    HW115536   2.485   1.878   0.018  0.7156  0.0843  0.9529
 1359SOL    HW215537   2.406   1.960  17.640 -0.6825  0.8228  1.3213
 1360SOL     OW15538   2.263   0.397   9.479  0.1926  0.3611 -0.1196
 1360SOL    HW115539   2.214   0.358   9.552  1.5484  0.0572  0.6191
 1360SOL    HW215540   2.345   0.437   9.508  1.0139 -0.4415 -1.3344
 1361SOL     OW15541   1.627   0.088   7.524  0.7874 -0.3738 -0.0352
 1361SOL    HW115542   1.639   0.018   7.589  1.5926 -0.4104 -0.2249
 1361SOL    HW215543   1.562   0.052   7.464 -2.2945  3.6867  0.8876
 1362SOL     OW15544   2.258   0.471  16.028  0.1729  0.3077 -0.1790
 1362SOL    HW115545   2.270   0.381  16.056 -2.1084  0.4226  1.1734
 1362SOL    HW215546   2.177   0.502  16.068  0.5972 -1.0903  1.7339
 1363SOL     OW15547   2.546   2.760   9.000 -0.6409  0.3688 -0.3625
 1363SOL    HW115548   2.607   2.702   8.955  0.2299 -0.4139  1.8572
 1363SOL    HW215549   2.494   2.692   9.043  0.4067 -1.0320 -1.3595
 1364SOL     OW15550   3.028   1.677   3.123 -0.4149 -0.2216  0.0924
 1364SOL    HW115551   2.981   1.731   3.186  0.2876 -1.0393  1.3114
 1364SOL    HW215552   3.083   1.745   3.085 -1.5627  1.1077  0.8128
 1365SOL     OW15553   3.790   0.556  14.289  0.0678 -0.2752  0.0043
 1365SOL    HW115554   3.845   0.511  14.225 -2.0697 -1.4009 -1.0559
 1365SOL    HW215555   3.853   0.575  14.358  0.4142 -1.9859  0.1549
 1366SOL     OW15556   3.493   4.210   0.825 -0.3291 -0.4245 -0.1181
 1366SOL    HW115557   3.574   4.194   0.778  0.0684 -0.8165  0.7105
 1366SOL    HW215558   3.524   4.197   0.914  0.2015 -0.9358 -0.3804
 1367SOL     OW15559   0.178   2.274  11.189 -0.3725  0.2290  0.0243
 1367SOL    HW115560   0.234   2.226  11.250 -0.1728  1.1805  0.5712
 1367SOL    HW215561   0.208   2.364  11.190 -0.4996  0.2728 -0.1806
 1368SOL     OW15562   2.529   2.469   7.533  0.0955  0.3893  0.3073
 1368SOL    HW115563   2.624   2.480   7.536  0.3075 -1.1069 -0.6661
 1368SOL    HW215564   2.517   2.397   7.596  1.5285 -0.2203 -0.0984
 1369SOL     OW15565   4.105   4.183   4.099 -0.6860 -0.2343 -0.5651
 1369SOL    HW115566   4.179   4.223   4.144  0.4553 -3.0939  0.1105
 1369SOL    HW215567   4.029   4.217   4.146 -0.9148 -1.6629  0.0878
 1370SOL     OW15568   3.166   2.300   5.400  0.0714 -0.3218 -0.5716
 1370SOL    HW115569   3.095   2.304   5.464 -2.8581 -1.0527 -3.7833
 1370SOL    HW215570   3.129   2.261   5.321  0.4090 -3.6505  0.8972
 1371SOL     OW15571   2.119   1.007   5.533 -0.4223 -0.4193  0.5373
 1371SOL    HW115572   2.174   1.085   5.533 -1.0632  0.0377  0.6921
 1371SOL    HW215573   2.043   1.024   5.588 -0.7287 -1.6640  0.4977
 1372SOL     OW15574   3.849   0.168   2.408 -0.3020 -0.2494 -0.3260
 1372SOL    HW115575   3.790   0.153   2.482 -0.4143  0.6552 -0.2249
 1372SOL    HW215576   3.915   0.099   2.413  0.6366  0.5807 -1.1891
 1373SOL     OW15577   1.505   1.573   2.485 -0.5387  0.2333 -0.6610
 1373SOL    HW115578   1.462   1.496   2.446 -3.0219  0.8125  0.8984
 1373SOL    HW215579   1.429   1.628   2.465 -0.5934  0.2899 -0.2941
 1374SOL     OW15580   1.070   2.773   2.304  0.3720 -0.3179 -0.2241
 1374SOL    HW115581   1.150   2.750   2.257 -0.3433  2.5475 -2.8728
 1374SOL    HW215582   1.031   2.689   2.330 -0.5539 -0.4594 -2.0273
 1375SOL     OW15583   3.289   2.023  12.915 -0.1916  0.1689  0.5428
 1375SOL    HW115584   3.213   1.990  12.962  0.0380 -0.5154  0.4311
 1375SOL    HW215585   3.255   2.097  12.866  4.3808  2.5168  0.8941
 1376SOL     OW15586   4.284   3.280  14.685  0.0454  0.4261 -0.1518
 1376SOL    HW115587   4.301   3.270  14.591 -1.5911  0.1342 -0.4082
 1376SOL    HW215588   4.254   3.192  14.708 -1.0070  0.8253 -0.0216
 1377SOL     OW15589   3.020   3.669   5.771 -0.0349  0.4653 -0.1445
 1377SOL    HW115590   3.050   3.584   5.803 -0.7702 -0.5666 -2.1895
 1377SOL    HW215591   2.938   3.645   5.727 -1.3807  0.1859  2.5454
 1378SOL     OW15592   0.707   0.658   6.627 -0.3164  0.4991  0.1037
 1378SOL    HW115593   0.783   0.603   6.608 -0.7036 -0.1242  0.3685
 1378SOL    HW215594   0.724   0.674   6.720  1.5116  3.0865 -0.6606
 1379SOL     OW15595   1.780   1.496   7.634  0.3285 -0.3661  0.2330
 1379SOL    HW115596   1.735   1.524   7.554  1.0836 -3.5683 -1.3134
 1379SOL    HW215597   1.751   1.566   7.692 -2.5656 -1.5952  0.2960
 1380SOL     OW15598   3.943   4.041   5.241 -0.0968  0.2958  0.1055
 1380SOL    HW115599   3.948   4.086   5.157  0.8890  0.2881  0.1602
 1380SOL    HW215600   3.879   4.087   5.295  0.2119 -0.0914  0.8096
 1381SOL     OW15601   4.062   0.751   7.720  0.1468 -0.5450  0.3520
 1381SOL    HW115602   4.090   0.817   7.784  0.4524  0.7154 -1.0904
 1381SOL    HW215603   4.086   0.786   7.634  0.5403 -0.9004  0.3197
 1382SOL     OW15604   0.515   4.403  17.566  0.0758  0.1384 -0.0709
 1382SOL    HW115605   0.538   4.368  17.480 -2.8728 -0.3679 -0.6436
 1382SOL    HW215606   0.508   4.325  17.621 -1.2036 -1.0850 -1.9906
 1383SOL     OW15607   2.690   1.348   2.897 -0.3778  0.2737 -0.4252
 1383SOL    HW115608   2.773   1.396   2.903  0.7598 -1.8908  1.1706
 1383SOL    HW215609   2.699   1.308   2.811  1.1066  1.3253 -0.7654
 1384SOL     OW15610   0.160   2.467   6.365 -0.6050 -0.0666  0.7247
 1384SOL    HW115611   0.082   2.454   6.419 -2.8641  0.2384 -2.4756
 1384SOL    HW215612   0.183   2.380   6.333  0.8125  1.1058 -1.4805
 1385SOL     OW15613   1.074   1.514   7.710  0.3334 -0.5089  0.4824
 1385SOL    HW115614   1.142   1.555   7.657  0.0875 -1.1497 -0.3287
 1385SOL    HW215615   1.116   1.435   7.744  2.0334 -0.4259 -1.4038
 1386SOL     OW15616   4.102   4.427  10.054 -0.5608 -0.0048 -0.6751
 1386SOL    HW115617   4.049   4.435  10.133  0.0544 -0.2758 -0.2371
 1386SOL    HW215618   4.066   4.348  10.014 -0.7715  0.2868 -1.0598
 1387SOL     OW15619   4.304   0.821  12.193 -0.8665 -0.5565  0.3971
 1387SOL    HW115620   4.275   0.856  12.109 -0.2064 -3.3074 -0.9900
 1387SOL    HW215621   4.235   0.756  12.210 -0.6135 -0.8631  0.2460
 1388SOL     OW15622   3.324   2.603   4.062 -0.1014  0.1335 -0.1330
 1388SOL    HW115623   3.261   2.562   4.003  1.9877  1.5160 -3.3385
 1388SOL    HW215624   3.298   2.573   4.149  2.1892  0.9704  0.8658
 1389SOL     OW15625   2.490   0.351   2.135  0.0671  0.8471 -0.4839
 1389SOL    HW115626   2.562   0.296   2.165 -0.3901  0.3507 -0.2768
 1389SOL    HW215627   2.485   0.431   2.187  1.2921  0.5081  0.1463
 1390SOL     OW15628   3.437   3.991   4.779 -0.3616  0.1195 -0.4941
 1390SOL    HW115629   3.416   3.899   4.762 -1.4952  0.3454 -0.2606
 1390SOL    HW215630   3.469   4.025   4.695 -1.1401  1.6977 -0.1389
 1391SOL     OW15631   0.230   3.521   6.823  0.1656 -0.4253  0.3458
 1391SOL    HW115632   0.169   3.566   6.881 -3.2935 -0.0629 -3.5556
 1391SOL    HW215633   0.264   3.451   6.879 -0.9675 -2.8532 -1.9413
 1392SOL     OW15634   3.611   0.558   4.674  0.0301 -0.2072  0.5928
 1392SOL    HW115635   3.550   0.520   4.737  0.1957  0.2142  1.0163
 1392SOL    HW215636   3.701   0.533   4.696  1.1969  2.5495 -0.9668
 1393SOL     OW15637   1.854   4.597   5.416 -0.2743 -0.2446 -0.0732
 1393SOL    HW115638   1.796   4.620   5.344  1.5398  1.4815 -0.9977
 1393SOL    HW215639   1.926   4.561   5.364  0.3637  0.3874  0.3656
 1394SOL     OW15640   0.552   4.105   9.265 -0.2278 -0.5334 -0.1596
 1394SOL    HW115641   0.590   4.182   9.221  2.0429 -0.9421  1.0701
 1394SOL    HW215642   0.468   4.096   9.221 -1.0059 -1.0804  1.4634
 1395SOL     OW15643   2.991   1.708   4.764 -0.1811  0.3491 -0.2693
 1395SOL    HW115644   2.989   1.618   4.796  0.6147  0.7110  0.7965
 1395SOL    HW215645   2.897   1.726   4.765 -0.0233  1.2688 -2.8262
 1396SOL     OW15646   0.531   4.256   6.291  0.0513  0.4043  0.4188
 1396SOL    HW115647   0.575   4.326   6.243 -1.9739  0.8329 -0.8396
 1396SOL    HW215648   0.543   4.301   6.375  2.1007 -1.7360  1.2633
 1397SOL     OW15649   1.536   4.339  10.453  0.3493 -0.4013  0.6475
 1397SOL    HW115650   1.502   4.397  10.385  0.7684 -0.2234  0.5852
 1397SOL    HW215651   1.458   4.293  10.483  0.4615  0.3912  2.1462
 1398SOL     OW15652   2.037   0.484   8.099 -0.0385 -0.1189 -0.4327
 1398SOL    HW115653   1.949   0.484   8.061 -1.1063 -1.5507  1.9614
 1398SOL    HW215654   2.017   0.463   8.191 -0.3860  0.8508 -0.2890
 1399SOL     OW15655   1.234   3.569   5.273 -0.0452 -0.6096 -0.4503
 1399SOL    HW115656   1.224   3.644   5.331 -1.7782 -0.2795 -1.1928
 1399SOL    HW215657   1.233   3.504   5.344  0.4095  0.9666  0.9928
 1400SOL     OW15658   0.933   2.439   7.329 -0.1575 -0.2906  0.5732
 1400SOL    HW115659   0.963   2.454   7.239  0.8009  0.3447  0.9995
 1400SOL    HW215660   0.903   2.527   7.351  1.5982  0.6862 -0.8607
 1401SOL     OW15661   2.121   3.957   3.680  0.5853 -0.1086  0.0207
 1401SOL    HW115662   2.120   4.031   3.619 -0.0340 -0.3666 -0.2707
 1401SOL    HW215663   2.211   3.927   3.665  0.6303 -0.1531  0.3909
 1402SOL     OW15664   1.005   1.069  10.771  0.2127 -0.2967  0.0490
 1402SOL    HW115665   1.058   0.998  10.806  0.1261  0.1575  1.1124
 1402SOL    HW215666   1.040   1.084  10.684 -1.6001 -0.5415 -0.7236
 1403SOL     OW15667   2.873   4.608  16.100  0.1378  0.8270  0.3032
 1403SOL    HW115668   2.861   4.605  16.005 -1.8198 -0.8358  0.5873
 1403SOL    HW215669   2.865   4.701  16.121 -0.2208  1.7511 -3.8923
 1404SOL     OW15670   0.082   1.413   7.601  0.1603 -0.2725  0.1696
 1404SOL    HW115671   0.073   1.318   7.605 -0.6509 -0.1600  1.1003
 1404SOL    HW215672   0.061   1.437   7.511  1.6984  1.9781  0.3966
 1405SOL     OW15673   2.142   0.469   2.283  0.5977 -0.1279  0.1217
 1405SOL    HW115674   2.169   0.378   2.285  0.7850 -0.0617  0.6273
 1405SOL    HW215675   2.153   0.500   2.373 -1.3970 -0.2287  0.4059
 1406SOL     OW15676   0.118   4.596   5.382 -0.3492 -0.2537 -0.2812
 1406SOL    HW115677   0.156   4.634   5.303 -0.0965 -0.9763 -0.5095
 1406SOL    HW215678   0.144   4.668   5.441 -1.8028  0.0068  0.0347
 1407SOL     OW15679   2.035   0.935  12.227  0.1188  0.2048  0.5645
 1407SOL    HW115680   2.013   1.028  12.219  1.4948  0.2797 -2.3246
 1407SOL    HW215681   2.128   0.937  12.206  0.1108 -0.1372  0.4879
 1408SOL     OW15682   1.343   1.990   1.112  0.4118  0.5966 -0.2622
 1408SOL    HW115683   1.374   1.932   1.042  2.1055 -1.6229  2.3105
 1408SOL    HW215684   1.347   2.077   1.074 -1.1358  0.2510 -1.2187
 1409SOL     OW15685   3.655   1.234  15.410 -0.4956 -0.0102  0.3754
 1409SOL    HW115686   3.598   1.295  15.364  1.1716 -0.7548 -2.6813
 1409SOL    HW215687   3.695   1.293  15.474  0.4222  0.6699 -0.8329
 1410SOL     OW15688   0.713   0.131   0.061  0.5952  0.7370 -0.0806
 1410SOL    HW115689   0.791   0.137   0.006 -0.0454 -1.3071 -1.2163
 1410SOL    HW215690   0.723   0.201   0.126 -1.3047 -0.9337  2.0371
 1411SOL     OW15691   3.096   3.529  17.451  0.0729 -0.5044 -0.4871
 1411SOL    HW115692   3.104   3.434  17.455 -1.2953 -0.5492  1.4187
 1411SOL    HW215693   3.046   3.535  17.370 -1.9343  2.1177  0.9690
 1412SOL     OW15694   1.440   1.578  14.483  0.6740  0.2821 -0.2365
 1412SOL    HW115695   1.344   1.574  14.480  0.5767  3.2128 -1.0034
 1412SOL    HW215696   1.468   1.544  14.398  0.5166 -0.6430  0.0768
 1413SOL     OW15697   2.368   1.639   0.674 -0.7235 -0.3651 -0.3052
 1413SOL    HW115698   2.399   1.554   0.706  1.3438 -0.1438 -1.7370
 1413SOL    HW215699   2.443   1.670   0.622  0.8071  1.9399  3.2628
 1414SOL     OW15700   1.050   2.410  17.422  0.5053  0.3199 -0.5200
 1414SOL    HW115701   1.144   2.410  17.404  0.8648 -2.1870  1.4241
 1414SOL    HW215702   1.026   2.487  17.370  0.5665  1.2645  0.8372
 1415SOL     OW15703   1.038   3.361   4.381 -0.2049  0.1511 -0.2064
 1415SOL    HW115704   0.953   3.343   4.342 -1.0159  2.4245  0.5107
 1415SOL    HW215705   1.076   3.273   4.386 -0.0361  0.1743 -1.1818
 1416SOL     OW15706   1.198   1.719   2.987 -0.4881  0.3181  0.4112
 1416SOL    HW115707   1.108   1.690   3.005  0.7763 -0.5345  5.2212
 1416SOL    HW215708   1.190   1.812   2.965 -0.7209  0.0292 -0.7366
 1417SOL     OW15709   3.281   4.576  14.600  0.8447 -0.1274 -0.1659
 1417SOL    HW115710   3.262   4.662  14.563 -3.7775 -0.6161  1.0615
 1417SOL    HW215711   3.365   4.562  14.555  1.3180  1.9726  0.0777
 1418SOL     OW15712   0.180   1.626  12.488  0.7358 -0.2544  0.3622
 1418SOL    HW115713   0.259   1.572  12.483  0.8237 -0.0942 -0.0760
 1418SOL    HW215714   0.122   1.576  12.430  1.6594  1.3020 -1.9259
 1419SOL     OW15715   1.037   0.370  16.991 -0.1040 -0.2013  0.5914
 1419SOL    HW115716   0.987   0.346  17.069  1.3617 -0.5601  1.4217
 1419SOL    HW215717   0.987   0.448  16.969  1.2266  0.3138 -0.6336
 1420SOL     OW15718   2.828   1.426  10.504  0.2853 -0.3274 -0.0049
 1420SOL    HW115719   2.895   1.493  10.497 -0.8860  0.5920 -2.3579
 1420SOL    HW215720   2.758   1.457  10.446  1.0147 -0.0618 -0.7437
 1421SOL     OW15721   3.711   4.175   6.783 -0.2468 -0.6564  0.4866
 1421SOL    HW115722   3.648   4.107   6.759  0.7084 -2.0219  1.7685
 1421SOL    HW215723   3.673   4.253   6.743 -0.3403 -1.6289 -1.3215
 1422SOL     OW15724   3.132   0.355  16.386  0.0205  0.1002 -0.6486
 1422SOL    HW115725   3.103   0.267  16.410 -1.8319  0.5326 -1.2917
 1422SOL    HW215726   3.047   0.388  16.355  0.2991  1.2275 -0.2011
 1423SOL     OW15727   0.077   2.718   8.075 -0.1534 -0.1997 -0.1618
 1423SOL    HW115728   0.149   2.778   8.055 -0.6302  0.1545 -0.7839
 1423SOL    HW215729   0.058   2.737   8.167 -2.2739  2.9686 -1.2531
 1424SOL     OW15730   1.283   4.666   4.778  0.4073 -0.0238  0.1380
 1424SOL    HW115731   1.302   4.655   4.685 -0.1930  1.2110 -0.1192
 1424SOL    HW215732   1.188   4.658   4.772  0.2491  2.1635 -0.1456
 1425SOL     OW15733   3.666   4.246   4.735  0.2772 -0.3492 -0.6898
 1425SOL    HW115734   3.714   4.286   4.662 -0.2037 -0.5252 -1.1034
 1425SOL    HW215735   3.658   4.159   4.696  1.7489 -1.0024  0.4809
 1426SOL     OW15736   2.598   1.324   4.343  0.8117  0.3059 -0.0305
 1426SOL    HW115737   2.515   1.371   4.342  1.5934  1.6251 -2.9345
 1426SOL    HW215738   2.571   1.246   4.393  1.7248  1.0227  1.5675
 1427SOL     OW15739   2.610   2.461  17.480 -0.2784  0.2675  0.0539
 1427SOL    HW115740   2.589   2.388  17.422  0.6455 -0.9862  1.3142
 1427SOL    HW215741   2.558   2.535  17.448 -1.5969 -0.9753 -0.6625
 1428SOL     OW15742   2.515   4.172   1.946 -0.2421 -0.4592 -0.1307
 1428SOL    HW115743   2.482   4.260   1.963 -0.3425 -0.4882 -0.1797
 1428SOL    HW215744   2.489   4.161   1.854  2.2802  0.6688 -0.9729
 1429SOL     OW15745   3.615   0.320   3.420 -0.3610  0.0691  0.0780
 1429SOL    HW115746   3.646   0.320   3.510 -1.1564  2.8992  0.3485
 1429SOL    HW215747   3.571   0.235   3.418 -1.9252  0.8720 -0.0979
 1430SOL     OW15748   2.536   4.245   6.481  0.3629  0.2855 -0.2485
 1430SOL    HW115749   2.549   4.317   6.542 -1.4338 -1.8863  2.7286
 1430SOL    HW215750   2.468   4.194   6.524 -0.3496 -0.5700 -2.3676
 1431SOL     OW15751   3.970   2.291  14.796 -0.6758 -0.0757 -0.2110
 1431SOL    HW115752   3.942   2.377  14.827  0.7807  0.2826  0.0660
 1431SOL    HW215753   3.887   2.262  14.757  1.1497 -1.4535 -3.0516
 1432SOL     OW15754   4.448   3.032   5.583 -0.0220  0.0434  0.3152
 1432SOL    HW115755   4.502   3.110   5.596  0.7213  0.0266 -2.6894
 1432SOL    HW215756   4.411   3.025   5.671  2.1735 -0.1204  1.2213
 1433SOL     OW15757   2.406   4.427   8.821 -0.8765 -0.1515  0.7994
 1433SOL    HW115758   2.389   4.342   8.863 -1.1739 -1.2777 -1.6121
 1433SOL    HW215759   2.429   4.477   8.900  1.1017  0.6619 -0.2944
 1434SOL     OW15760   2.632   4.125   3.236  0.1759  0.0039 -0.0892
 1434SOL    HW115761   2.603   4.092   3.151 -0.1149 -0.6671  0.2712
 1434SOL    HW215762   2.594   4.213   3.234  0.3185  0.0400 -1.2235
 1435SOL     OW15763   3.360   1.852   3.594 -0.2987 -0.4116 -0.7386
 1435SOL    HW115764   3.279   1.821   3.552 -0.5411  1.1576 -1.4050
 1435SOL    HW215765   3.415   1.847   3.516 -1.5443  2.1663 -1.7798
 1436SOL     OW15766   3.369   2.462   3.671 -0.0057  0.1144 -0.3077
 1436SOL    HW115767   3.378   2.452   3.765  1.7740 -1.7488 -0.6768
 1436SOL    HW215768   3.446   2.417   3.637 -0.8604 -0.5435 -1.3531
 1437SOL     OW15769   3.196   0.546  16.116  0.2107 -0.0128  0.1995
 1437SOL    HW115770   3.205   0.497  16.034  2.1693  2.9105 -1.3410
 1437SOL    HW215771   3.114   0.508  16.146  0.7841  1.0138  3.1005
 1438SOL     OW15772   2.915   0.319  17.368  0.0185 -0.2274  0.2663
 1438SOL    HW115773   3.000   0.276  17.355 -0.8725 -1.8810 -0.0362
 1438SOL    HW215774   2.921   0.393  17.308 -2.1313 -0.3674 -0.1113
 1439SOL     OW15775   3.966   4.041   9.145  0.1535 -0.3532 -0.2223
 1439SOL    HW115776   3.919   4.122   9.126 -2.7840 -1.6604  1.4228
 1439SOL    HW215777   4.025   4.078   9.211 -1.2819 -0.9237  1.3874
 1440SOL     OW15778   0.682   3.430   4.419  0.3540 -0.5316  0.4565
 1440SOL    HW115779   0.700   3.353   4.366  1.2342  0.9178 -1.3376
 1440SOL    HW215780   0.601   3.466   4.382  0.6860 -0.3202 -0.0602
 1441SOL     OW15781   4.064   4.053  16.521 -0.1722 -0.0637 -0.3362
 1441SOL    HW115782   4.031   4.077  16.435 -1.3804  0.1752  0.1997
 1441SOL    HW215783   4.117   3.974  16.509  0.5534  0.1904  1.1463
 1442SOL     OW15784   4.351   1.779   4.424 -0.1202 -0.3028  0.2647
 1442SOL    HW115785   4.272   1.730   4.447  0.3092 -0.6547  0.9811
 1442SOL    HW215786   4.420   1.721   4.456  0.2461  0.1158  0.2189
 1443SOL     OW15787   4.704   2.148   7.631 -0.1473 -0.1038 -0.3152
 1443SOL    HW115788   4.661   2.231   7.653  3.3658  1.5129  0.3422
 1443SOL    HW215789   0.055   2.152   7.688 -0.7003 -0.2669  0.4535
 1444SOL     OW15790   2.753   2.421   4.531 -0.2836  0.2226 -0.1407
 1444SOL    HW115791   2.795   2.426   4.616  0.2393 -0.5968 -0.3517
 1444SOL    HW215792   2.702   2.342   4.549 -1.5753  0.6479 -1.8670
 1445SOL     OW15793   3.475   0.732   8.432 -0.6201  0.1182 -0.1081
 1445SOL    HW115794   3.519   0.652   8.463 -2.1070 -2.0000 -3.4302
 1445SOL    HW215795   3.551   0.786   8.411 -0.3999 -0.7716 -1.6505
 1446SOL     OW15796   3.832   1.452   0.083  0.7151  0.4953 -0.6361
 1446SOL    HW115797   3.748   1.445   0.037  0.5508  0.2028 -0.2901
 1446SOL    HW215798   3.805   1.478   0.171  2.2157  1.2681 -0.3969
 1447SOL     OW15799   0.724   0.324  14.291  0.2401 -0.0657 -0.4974
 1447SOL    HW115800   0.814   0.294  14.294  0.3390  0.2550 -0.3402
 1447SOL    HW215801   0.708   0.330  14.196  1.2440 -1.8580 -0.7702
 1448SOL     OW15802   1.043   0.407  11.709 -0.3469  0.5126 -0.1366
 1448SOL    HW115803   1.008   0.467  11.775 -1.6039  0.0239 -0.3765
 1448SOL    HW215804   1.035   0.470  11.637 -1.1622  2.6527  1.7904
 1449SOL     OW15805   0.195   0.859   4.079 -0.1864  0.1131  0.2758
 1449SOL    HW115806   0.235   0.792   4.023  1.6932  1.4454 -0.0013
 1449SOL    HW215807   0.157   0.921   4.016 -0.7458  1.5191  2.0121
 1450SOL     OW15808   3.653   0.476   6.165  0.4174 -0.0249 -0.1789
 1450SOL    HW115809   3.696   0.514   6.088 -3.1215  2.1441 -1.0893
 1450SOL    HW215810   3.584   0.538   6.189 -0.2303 -1.1273  0.8318
 1451SOL     OW15811   4.162   0.357   4.293  0.0158  0.1599 -0.5164
 1451SOL    HW115812   4.215   0.303   4.351  0.4049  0.5214 -0.5400
 1451SOL    HW215813   4.212   0.353   4.211 -0.3654 -1.3565 -0.6726
 1452SOL     OW15814   2.832   0.650  10.629 -0.2365  0.3044  0.4550
 1452SOL    HW115815   2.775   0.587  10.585  1.6016 -0.1327 -1.3274
 1452SOL    HW215816   2.773   0.716  10.665  0.2648 -0.0908  1.9906
 1453SOL     OW15817   3.629   0.302  16.379 -0.1543  0.1653  0.2654
 1453SOL    HW115818   3.679   0.271  16.303  1.0771 -0.0302  1.1509
 1453SOL    HW215819   3.563   0.361  16.345  0.5867  0.1551 -1.1737
 1454SOL     OW15820   2.813   1.632   8.953  0.3973  0.2443  0.4921
 1454SOL    HW115821   2.735   1.607   9.003 -0.1702  0.5944 -0.2252
 1454SOL    HW215822   2.817   1.723   8.982 -2.8176 -0.0539  1.8745
 1455SOL     OW15823   0.089   3.935   7.842  0.1226 -0.6017  0.1951
 1455SOL    HW115824   0.015   3.950   7.900 -2.3807 -0.1912 -3.0713
 1455SOL    HW215825   0.061   3.973   7.758  0.4983 -1.3967 -0.2928
 1456SOL     OW15826   2.447   4.395   2.911  0.4691  0.8172 -0.8586
 1456SOL    HW115827   2.401   4.411   2.829 -0.8726  0.0516 -0.2432
 1456SOL    HW215828   2.379   4.405   2.977  1.1639  0.0545 -0.0207
 1457SOL     OW15829   0.361   2.000   8.355  0.0707 -0.1743 -0.2662
 1457SOL    HW115830   0.308   1.938   8.307  1.4218 -1.4503 -0.1163
 1457SOL    HW215831   0.324   2.083   8.326 -0.3738 -1.0274 -2.0958
 1458SOL     OW15832   2.494   4.708  13.694  0.5388 -0.3791  0.3659
 1458SOL    HW115833   2.508   0.077  13.693  0.6975 -0.3706  2.1941
 1458SOL    HW215834   2.556   4.683  13.763  0.0719 -4.3014 -0.6161
 1459SOL     OW15835   4.216   3.474   1.564  0.1176  1.0204 -0.4165
 1459SOL    HW115836   4.199   3.542   1.499  0.5415  0.7256 -0.8342
 1459SOL    HW215837   4.132   3.431   1.578 -0.0654  0.9244 -1.8308
 1460SOL     OW15838   4.519   4.201   0.545  1.2786  0.1499 -0.4975
 1460SOL    HW115839   4.454   4.216   0.614  0.6080  0.6662 -1.2336
 1460SOL    HW215840   4.589   4.257   0.578  3.4302 -2.9567  0.2250
 1461SOL     OW15841   3.249   3.126   0.444  0.6405 -0.2490 -0.0375
 1461SOL    HW115842   3.253   3.045   0.494 -0.5140 -0.9352 -1.0478
 1461SOL    HW215843   3.178   3.165   0.495 -0.7508 -0.2073 -2.0187
 1462SOL     OW15844   4.091   4.296   2.744  0.4351 -0.2725  0.3206
 1462SOL    HW115845   4.015   4.340   2.783  1.3067  0.2328  1.4675
 1462SOL    HW215846   4.160   4.355   2.775  1.1482 -0.6971 -0.4731
 1463SOL     OW15847   4.015   1.540  13.592  0.0051  0.1663 -0.0220
 1463SOL    HW115848   3.988   1.473  13.655 -0.8122  0.6000  0.0999
 1463SOL    HW215849   3.959   1.608  13.630 -0.4311  0.6172 -1.4497
 1464SOL     OW15850   2.212   1.103   8.525  0.3611 -0.1509 -0.2398
 1464SOL    HW115851   2.284   1.099   8.588 -0.7531 -1.9808  0.9388
 1464SOL    HW215852   2.245   1.036   8.466 -0.9080 -1.2180  0.2616
 1465SOL     OW15853   4.494   2.315   8.905  0.4917 -0.0445  0.4984
 1465SOL    HW115854   4.403   2.340   8.917  0.4794 -0.0761  0.4716
 1465SOL    HW215855   4.537   2.357   8.980 -0.1268 -0.5365  1.1271
 1466SOL     OW15856   2.447   2.566   3.926  0.2386  0.2367 -0.2383
 1466SOL    HW115857   2.361   2.565   3.884  1.1505  2.5528 -2.1617
 1466SOL    HW215858   2.472   2.476   3.905 -1.6173 -0.9812  2.7352
 1467SOL     OW15859   3.475   4.375   8.087 -0.4772  0.0488  0.0768
 1467SOL    HW115860   3.499   4.376   7.994  1.3011  0.8404  0.5567
 1467SOL    HW215861   3.502   4.462   8.116 -0.6762 -0.8376  2.8947
 1468SOL     OW15862   4.610   4.643   9.206  0.2396  0.1206  0.3120
 1468SOL    HW115863   4.627   4.575   9.271 -1.9763 -0.4679  0.3014
 1468SOL    HW215864   4.695   4.663   9.167 -0.2805 -0.7358 -1.2289
 1469SOL     OW15865   2.922   2.541   4.317  0.2319  0.0971 -0.6528
 1469SOL    HW115866   2.883   2.501   4.394 -1.1547  1.6835 -0.5311
 1469SOL    HW215867   2.936   2.467   4.259  2.3082 -0.3905  0.4690
 1470SOL     OW15868   1.330   2.089  14.739 -0.6481  0.1010 -0.1193
 1470SOL    HW115869   1.334   2.027  14.667  0.7005 -1.9879  1.7393
 1470SOL    HW215870   1.416   2.126  14.721 -1.8568  3.3722  0.7832
 1471SOL     OW15871   3.075   1.227   1.616  0.4303  0.8550  0.0465
 1471SOL    HW115872   2.991   1.268   1.635  0.2619  0.4715  0.1233
 1471SOL    HW215873   3.077   1.131   1.623  2.0703  0.9031  0.3461
 1472SOL     OW15874   0.281   1.274  15.912  0.1746 -0.0245  0.0084
 1472SOL    HW115875   0.345   1.341  15.888 -0.1895  0.4445  0.3708
 1472SOL    HW215876   0.247   1.275  15.822  1.1578 -1.2324 -0.3885
 1473SOL     OW15877   1.564   3.536   9.614 -0.4131 -0.0489  0.2073
 1473SOL    HW115878   1.571   3.604   9.681 -0.3670  1.0184 -0.8719
 1473SOL    HW215879   1.472   3.551   9.590  0.1016  3.3155  0.3762
 1474SOL     OW15880   2.192   3.326   2.163  0.3792  0.2456  0.3919
 1474SOL    HW115881   2.158   3.389   2.227  1.1196 -0.8950  1.9040
 1474SOL    HW215882   2.243   3.379   2.101 -0.9722  0.5736 -0.4391
 1475SOL     OW15883   0.494   2.256  10.058  0.5154  0.2791 -0.0307
 1475SOL    HW115884   0.575   2.294  10.090  1.2430 -0.2779 -1.2002
 1475SOL    HW215885   0.468   2.330  10.002  0.9117  0.3460 -0.1212
 1476SOL     OW15886   0.465   1.482   2.397  0.0983  0.0709 -0.0466
 1476SOL    HW115887   0.476   1.488   2.302 -2.8036  1.6027 -0.2850
 1476SOL    HW215888   0.528   1.549   2.425 -1.2450  1.6632 -0.8210
 1477SOL     OW15889   1.396   0.639   5.209  0.2071  0.1726 -0.2219
 1477SOL    HW115890   1.365   0.550   5.222  2.1790 -0.6384 -1.1586
 1477SOL    HW215891   1.374   0.649   5.116 -2.1010  0.1711  0.3125
 1478SOL     OW15892   0.826   4.391   5.313 -0.8668  0.0356 -0.4558
 1478SOL    HW115893   0.825   4.338   5.392  0.0759 -0.1096 -0.5522
 1478SOL    HW215894   0.898   4.447   5.341 -0.0014 -0.4692 -1.6584
 1479SOL     OW15895   2.576   0.735  10.774 -0.3693  0.1166  0.4264
 1479SOL    HW115896   2.634   0.724  10.849  0.0586 -0.2132  0.0483
 1479SOL    HW215897   2.556   0.644  10.750  2.8701 -0.1398 -1.3423
 1480SOL     OW15898   0.868   0.083   6.075  0.2975 -0.3099  0.0138
 1480SOL    HW115899   0.808   0.152   6.102 -0.5088 -0.8064 -0.4936
 1480SOL    HW215900   0.881   0.044   6.161  1.0675 -0.6600 -0.2605
 1481SOL     OW15901   0.483   1.847   5.265 -0.4401  0.3610  0.2628
 1481SOL    HW115902   0.532   1.845   5.347 -0.2231 -1.2574  0.1087
 1481SOL    HW215903   0.406   1.896   5.294 -0.8357 -0.6714  0.9633
 1482SOL     OW15904   0.627   2.661   4.848  0.0377 -0.2275 -0.2108
 1482SOL    HW115905   0.621   2.571   4.879  0.2689 -0.9924 -2.4203
 1482SOL    HW215906   0.719   2.685   4.863 -0.9167  2.3255  1.6836
 1483SOL     OW15907   0.146   3.822   2.353  0.1778 -0.2951 -0.4912
 1483SOL    HW115908   0.213   3.821   2.285  0.4569  0.7529 -0.2403
 1483SOL    HW215909   0.083   3.769   2.306  0.4742  1.4320 -2.8467
 1484SOL     OW15910   4.422   4.287   0.307  0.2516 -0.3259  0.2919
 1484SOL    HW115911   4.440   4.219   0.372  1.3758  0.2886  0.6305
 1484SOL    HW215912   4.358   4.327   0.366 -1.8555 -1.6863 -1.0781
 1485SOL     OW15913   2.633   2.014  10.521  0.3307  0.9456 -0.1570
 1485SOL    HW115914   2.537   2.004  10.523  0.5970 -1.2696  0.8473
 1485SOL    HW215915   2.664   1.924  10.515 -2.1679  0.1662 -1.3440
 1486SOL     OW15916   3.240   4.208   6.519 -0.2409 -0.3402  0.2100
 1486SOL    HW115917   3.206   4.139   6.577 -0.3470 -0.7911 -0.3884
 1486SOL    HW215918   3.255   4.286   6.573 -1.6120 -0.2902  0.5195
 1487SOL     OW15919   3.322   2.593   0.475  0.0536  0.0158 -0.4032
 1487SOL    HW115920   3.392   2.653   0.450 -1.5742  2.4059  0.7561
 1487SOL    HW215921   3.351   2.502   0.464 -0.2597 -0.1699  0.3472
 1488SOL     OW15922   2.191   1.416   5.848 -0.4428 -0.6952  0.6367
 1488SOL    HW115923   2.144   1.340   5.883  1.4874 -1.3821  1.8111
 1488SOL    HW215924   2.195   1.467   5.929 -0.3798 -2.8749  2.0079
 1489SOL     OW15925   4.431   3.354  11.849 -0.3398 -0.3080 -0.2859
 1489SOL    HW115926   4.397   3.393  11.929  0.4341  1.0573 -0.6097
 1489SOL    HW215927   4.489   3.294  11.895 -0.8289 -1.3491 -1.0394
 1490SOL     OW15928   0.320   2.679   6.004  0.3815 -0.5504  0.2129
 1490SOL    HW115929   0.287   2.693   6.093 -2.0957  1.5454 -1.0284
 1490SOL    HW215930   0.369   2.760   5.989  1.6303 -1.1204  1.1944
 1491SOL     OW15931   3.403   1.012   7.979 -0.0880  0.0970 -0.5267
 1491SOL    HW115932   3.385   1.090   7.927 -1.5415  1.3375  1.8522
 1491SOL    HW215933   3.498   1.005   7.966  0.2315 -1.9291  2.9009
 1492SOL     OW15934   2.390   0.724   1.803  0.1044  0.5286  0.1165
 1492SOL    HW115935   2.430   0.730   1.717  0.1504 -2.3688 -0.0533
 1492SOL    HW215936   2.399   0.629   1.806 -1.7939  0.3430  0.2420
 1493SOL     OW15937   1.080   1.455   4.377  0.5295 -0.2056  0.3623
 1493SOL    HW115938   1.077   1.517   4.304 -0.4364 -0.0036  0.5786
 1493SOL    HW215939   1.026   1.382   4.346  0.1671 -0.6437  2.0178
 1494SOL     OW15940   0.552   1.937   2.592  0.6586 -0.1364 -0.2605
 1494SOL    HW115941   0.473   1.889   2.618  0.7109 -0.5296 -0.8226
 1494SOL    HW215942   0.521   2.003   2.530 -1.1797 -0.3325  0.4594
 1495SOL     OW15943   0.069   2.863  16.532 -0.4291 -0.0123  0.4005
 1495SOL    HW115944   0.085   2.894  16.621  1.8416  1.4350 -0.5345
 1495SOL    HW215945   0.031   2.775  16.538  1.0283 -0.6708  0.0170
 1496SOL     OW15946   2.476   1.121  12.200  0.0907 -0.0699 -0.0904
 1496SOL    HW115947   2.524   1.143  12.120 -2.8719  0.8905 -1.6158
 1496SOL    HW215948   2.550   1.113  12.260 -0.1035 -0.2270  0.1241
 1497SOL     OW15949   3.361   4.137   8.865 -0.2336 -0.1478  0.2239
 1497SOL    HW115950   3.374   4.203   8.796 -1.5422 -1.2388 -1.0664
 1497SOL    HW215951   3.412   4.175   8.936  0.3653 -0.9402  0.2131
 1498SOL     OW15952   1.285   4.311   5.401 -0.0274  0.2943  0.0435
 1498SOL    HW115953   1.359   4.265   5.363 -0.6592  1.1626 -2.2157
 1498SOL    HW215954   1.326   4.356   5.475  3.2837 -1.4947 -0.7283
 1499SOL     OW15955   0.519   2.717   6.947 -0.8534 -0.3914 -0.3400
 1499SOL    HW115956   0.565   2.667   6.880 -0.2728  2.0002 -1.7220
 1499SOL    HW215957   0.463   2.648   6.983 -0.2269 -0.4733  0.4645
 1500SOL     OW15958   0.795   4.558   4.007  0.3818  0.3422  0.2292
 1500SOL    HW115959   0.778   4.498   3.935  2.7453  0.9488 -0.8473
 1500SOL    HW215960   0.821   4.501   4.080  0.3109 -1.4109 -1.1447
 1501SOL     OW15961   2.381   4.400  11.539 -0.2254 -0.2710 -0.1391
 1501SOL    HW115962   2.415   4.394  11.629 -0.4381 -0.6869 -0.0837
 1501SOL    HW215963   2.467   4.405  11.498  0.8190  0.1116  2.0765
 1502SOL     OW15964   4.357   3.332   5.818 -0.1677  0.8187 -0.7483
 1502SOL    HW115965   4.264   3.350   5.802 -0.1995 -0.4635 -1.9856
 1502SOL    HW215966   4.395   3.419   5.826  0.9814  0.3381 -0.9812
 1503SOL     OW15967   2.481   1.681   7.000 -0.0133  0.2606  0.2410
 1503SOL    HW115968   2.389   1.705   7.015  0.2811  1.4084  0.2746
 1503SOL    HW215969   2.484   1.586   6.996  1.7016  0.3467 -0.5754
 1504SOL     OW15970   1.112   2.772  17.027  0.4403  0.1557 -1.1757
 1504SOL    HW115971   1.030   2.783  17.076  1.8118  1.3327  0.8891
 1504SOL    HW215972   1.090   2.687  16.989  0.3847 -0.4062  0.0919
 1505SOL     OW15973   1.311   4.207   8.154  0.0169  0.6665  0.6570
 1505SOL    HW115974   1.373   4.171   8.217  0.6655 -0.0317 -0.3702
 1505SOL    HW215975   1.319   4.141   8.086 -0.5376  1.2432  0.0278
 1506SOL     OW15976   1.084   0.663   7.803 -0.0156 -0.4141 -0.3514
 1506SOL    HW115977   1.092   0.694   7.713  0.0088  1.1497  0.1963
 1506SOL    HW215978   1.159   0.604   7.810 -0.1296 -0.6499 -1.1580
 1507SOL     OW15979   4.277   2.413   2.455 -0.1436 -0.8691 -0.0078
 1507SOL    HW115980   4.226   2.344   2.495  0.7762 -1.5994 -0.0828
 1507SOL    HW215981   4.273   2.386   2.363 -1.3224  1.6411 -0.6815
 1508SOL     OW15982   1.770   3.265   2.873 -0.3481  0.6290  0.1041
 1508SOL    HW115983   1.829   3.277   2.799 -0.6704 -2.2679 -0.5846
 1508SOL    HW215984   1.799   3.323   2.945  0.6497 -0.6997  0.7713
 1509SOL     OW15985   3.613   1.260   8.921 -0.6096 -0.1771 -0.0440
 1509SOL    HW115986   3.558   1.338   8.918  1.3482  1.2804  1.9862
 1509SOL    HW215987   3.626   1.245   8.827  0.8011  0.5493  0.0346
 1510SOL     OW15988   1.612   0.216  17.619  0.5600 -0.0414 -0.1867
 1510SOL    HW115989   1.618   0.154  17.692  2.3883 -0.7589 -0.9229
 1510SOL    HW215990   1.536   0.193  17.566 -0.2109 -1.8060  1.6870
 1511SOL     OW15991   2.915   2.487   4.773  0.1883  0.1956 -0.2310
 1511SOL    HW115992   2.991   2.444   4.734  0.6535  1.0001 -0.2293
 1511SOL    HW215993   2.948   2.576   4.758  0.1245  0.3629  0.6119
 1512SOL     OW15994   2.030   2.884   6.667  0.1679  0.0337 -0.0016
 1512SOL    HW115995   1.964   2.943   6.704 -0.7655 -1.8519  1.3175
 1512SOL    HW215996   1.995   2.889   6.579 -2.3703 -0.3794  0.9905
 1513SOL     OW15997   0.843   0.003   3.525 -0.4268 -0.2146 -0.2093
 1513SOL    HW115998   0.877   4.655   3.576  2.9415  1.2061 -0.3347
 1513SOL    HW215999   0.804   4.690   3.447  1.1756 -1.1085 -0.5622
 1514SOL     OW16000   3.212   2.025   2.792  0.0312  0.1246 -0.2577
 1514SOL    HW116001   3.188   2.011   2.884  2.2852  1.0068  0.4890
 1514SOL    HW216002   3.298   2.068   2.801 -0.4173  0.9888 -0.0606
 1515SOL     OW16003   2.731   0.784   3.878 -0.3660  0.4014  0.4711
 1515SOL    HW116004   2.723   0.788   3.783  4.2641 -1.4210  0.0397
 1515SOL    HW216005   2.673   0.857   3.902 -0.0913  1.0809 -0.9306
 1516SOL     OW16006   4.042   0.984  14.806  0.4941 -0.4407 -0.0016
 1516SOL    HW116007   4.035   1.072  14.843 -2.0915 -1.5464  2.1680
 1516SOL    HW216008   4.076   1.006  14.719  1.4086  0.6686  0.6483
 1517SOL     OW16009   4.135   3.041  17.142 -0.7589  0.5329  0.1935
 1517SOL    HW116010   4.133   2.970  17.077  0.3102  1.3486 -0.7366
 1517SOL    HW216011   4.042   3.055  17.160 -0.7749 -0.2937  0.7309
 1518SOL     OW16012   4.350   1.437   4.327  0.4423 -0.3344  0.0190
 1518SOL    HW116013   4.320   1.431   4.417  2.0151 -2.7849  0.3858
 1518SOL    HW216014   4.393   1.352   4.321  1.0767  0.0211 -0.4738
 1519SOL     OW16015   4.670   3.393   5.151  0.0273 -0.0533 -0.1288
 1519SOL    HW116016   4.586   3.422   5.115  0.2232  0.8724  0.1604
 1519SOL    HW216017   4.690   3.308   5.111  0.8776  0.3751 -0.6193
 1520SOL     OW16018   3.760   3.842   6.481  0.1781 -0.0466  0.8286
 1520SOL    HW116019   3.668   3.856   6.458 -0.2278  0.1059  2.5043
 1520SOL    HW216020   3.763   3.768   6.541 -0.2750  0.4005  1.4098
 1521SOL     OW16021   1.254   2.988   7.314  0.2345  0.0237 -0.1946
 1521SOL    HW116022   1.318   2.980   7.243 -1.2260 -1.0204 -1.3943
 1521SOL    HW216023   1.175   2.972   7.261 -0.1278 -0.3342  0.4624
 1522SOL     OW16024   1.525   4.542   9.360 -0.6345 -0.2955  0.1494
 1522SOL    HW116025   1.470   4.582   9.293  0.2733  0.5707 -0.0876
 1522SOL    HW216026   1.607   4.591   9.368 -1.1219  0.4397  0.6449
 1523SOL     OW16027   2.209   2.202  11.028 -0.2726  0.2375 -0.0481
 1523SOL    HW116028   2.180   2.239  10.945 -1.0624 -0.4403 -0.0852
 1523SOL    HW216029   2.126   2.192  11.075  0.8347  2.4024  2.3453
 1524SOL     OW16030   3.784   3.087  17.619 -0.0363  0.1811 -0.5632
 1524SOL    HW116031   3.727   3.104  17.693  0.8127  1.6530 -0.2495
 1524SOL    HW216032   3.816   2.998  17.637 -0.4812  0.1789  0.2092
 1525SOL     OW16033   1.556   3.896  12.259  0.3528 -0.1503 -0.3935
 1525SOL    HW116034   1.645   3.886  12.223  0.7538 -1.2926  0.9456
 1525SOL    HW216035   1.546   3.802  12.270  2.6341 -0.4511 -0.7605
 1526SOL     OW16036   0.738   3.261   5.832  0.0730  0.2089 -0.2693
 1526SOL    HW116037   0.666   3.323   5.822  1.5358  2.4932  3.4400
 1526SOL    HW216038   0.749   3.217   5.748 -1.3412 -1.9758  0.6531
 1527SOL     OW16039   2.931   0.467  16.194  0.1725 -0.3097  0.9224
 1527SOL    HW116040   2.848   0.428  16.223  0.2561 -1.5594 -0.5030
 1527SOL    HW216041   2.886   0.538  16.148  0.7205 -0.2843  0.4272
 1528SOL     OW16042   3.440   2.230   7.638 -0.1811 -0.1767  0.2877
 1528SOL    HW116043   3.480   2.152   7.598  1.6791 -0.0865  1.9607
 1528SOL    HW216044   3.359   2.182   7.658  1.1401 -3.1945 -1.5818
 1529SOL     OW16045   0.222   0.535   0.056 -0.3929  0.3730 -0.3539
 1529SOL    HW116046   0.249   0.489  17.681  0.9483  1.2820 -0.4324
 1529SOL    HW216047   0.127   0.530   0.056 -0.2422 -2.7097 -1.8665
 1530SOL     OW16048   2.478   4.697   1.926  0.6052  0.3098 -0.0627
 1530SOL    HW116049   2.562   4.693   1.881  2.5417  0.7617  3.5009
 1530SOL    HW216050   2.469   0.066   1.935 -0.1173 -0.0302  2.7737
 1531SOL     OW16051   4.554   2.064  17.562 -0.2052  0.3696 -0.1334
 1531SOL    HW116052   4.628   2.030  17.512  2.2665 -0.3227  4.0412
 1531SOL    HW216053   4.580   2.021  17.643  0.3592 -0.8875 -0.9754
 1532SOL     OW16054   1.616   3.560   2.269  0.3102  0.2202  0.0819
 1532SOL    HW116055   1.536   3.511   2.247  2.3018 -1.7246 -2.9370
 1532SOL    HW216056   1.634   3.594   2.181 -1.2237 -0.9593 -0.6937
 1533SOL     OW16057   2.146   0.023   1.797  0.1986 -0.2598 -0.1651
 1533SOL    HW116058   2.219   0.085   1.799 -1.4437  1.6863 -0.4164
 1533SOL    HW216059   2.119   0.021   1.889 -0.2070  0.1547 -0.2789
 1534SOL     OW16060   2.154   4.383   7.105 -0.5509 -0.0142 -0.7388
 1534SOL    HW116061   2.146   4.420   7.017 -2.4835  1.6546  0.1352
 1534SOL    HW216062   2.066   4.348   7.116 -0.6384 -0.3235 -2.3661
 1535SOL     OW16063   4.313   2.956   3.126 -0.3404  0.5087 -1.0510
 1535SOL    HW116064   4.349   3.020   3.188  0.3697 -1.8027  0.9675
 1535SOL    HW216065   4.392   2.916   3.089 -0.8410 -0.0403 -1.5318
 1536SOL     OW16066   4.164   1.402   3.129  0.0228 -0.1116 -0.3730
 1536SOL    HW116067   4.191   1.344   3.200 -1.1007  0.9615  0.9368
 1536SOL    HW216068   4.169   1.490   3.168  2.5079 -0.9204  1.1062
 1537SOL     OW16069   3.334   4.657  17.412  0.0721 -0.4495 -0.5598
 1537SOL    HW116070   3.376   4.701  17.486  0.5500  1.2669 -1.8321
 1537SOL    HW216071   3.339   4.570  17.451  2.2310  0.5608  1.4638
 1538SOL     OW16072   2.076   4.072   5.581 -0.0154  0.3782  0.1166
 1538SOL    HW116073   2.077   3.979   5.601  0.5196  0.7388  1.7911
 1538SOL    HW216074   2.077   4.068   5.485 -1.5910 -0.8335  0.1502
 1539SOL     OW16075   1.332   3.858   6.514  0.5681 -0.2662  0.0601
 1539SOL    HW116076   1.351   3.837   6.423  1.5705 -0.2414  0.2632
 1539SOL    HW216077   1.414   3.820   6.545  2.5498  2.9288 -1.3305
 1540SOL     OW16078   1.352   0.040   9.021 -0.5043  0.2064 -0.0927
 1540SOL    HW116079   1.371   0.108   8.956 -0.1754  1.2753  1.1352
 1540SOL    HW216080   1.356   4.684   8.971 -0.7768  0.1175  0.0324
 1541SOL     OW16081   3.231   0.263   7.833 -0.3619  0.5274  0.0799
 1541SOL    HW116082   3.243   0.267   7.738  0.1004 -1.2289  0.0642
 1541SOL    HW216083   3.281   0.184   7.854 -0.1247  0.6361 -0.0728
 1542SOL     OW16084   4.656   0.478   4.638  0.3853 -0.2845 -0.1222
 1542SOL    HW116085   4.662   0.382   4.645  1.7439 -0.1836  0.1488
 1542SOL    HW216086   4.646   0.508   4.728  3.1284 -2.2602  0.8550
 1543SOL     OW16087   3.988   3.980   7.085 -0.7591 -0.3590 -0.3862
 1543SOL    HW116088   4.003   4.013   7.173 -0.0513 -4.3466  0.9921
 1543SOL    HW216089   4.030   3.894   7.085 -0.3515 -0.1581  0.7658
 1544SOL     OW16090   3.991   0.163   2.057  0.1305 -0.4565  0.3995
 1544SOL    HW116091   4.077   0.121   2.067  0.5328  0.4856  0.9022
 1544SOL    HW216092   3.934   0.103   2.106 -0.8921 -0.1930 -0.4753
 1545SOL     OW16093   0.709   3.843   2.129  0.6583 -0.5439 -0.0801
 1545SOL    HW116094   0.699   3.759   2.086 -0.4555 -0.2827 -0.3202
 1545SOL    HW216095   0.779   3.831   2.193 -1.0302 -1.9263  1.4999
 1546SOL     OW16096   1.610   0.386  16.913 -0.1939 -0.8978  0.3282
 1546SOL    HW116097   1.530   0.393  16.965 -1.9112 -1.4101 -2.2549
 1546SOL    HW216098   1.670   0.453  16.947  0.5013 -0.3635 -1.9849
 1547SOL     OW16099   4.283   2.987   2.487  0.2545  0.2101  0.0565
 1547SOL    HW116100   4.367   3.034   2.492  2.2824 -3.1042 -3.1687
 1547SOL    HW216101   4.255   3.029   2.406  1.9391  0.3053 -0.4954
 1548SOL     OW16102   1.905   1.606   8.898 -0.2119  0.0029 -0.2331
 1548SOL    HW116103   1.945   1.684   8.860  0.9026 -1.2409 -1.6458
 1548SOL    HW216104   1.989   1.561   8.906 -0.3672 -0.5132 -1.4862
 1549SOL     OW16105   0.318   3.968   6.860 -0.2362  0.0840  0.0783
 1549SOL    HW116106   0.407   3.947   6.829 -0.2642  1.1584 -0.7512
 1549SOL    HW216107   0.308   4.057   6.827  1.6099  0.1107 -0.3967
 1550SOL     OW16108   0.136   4.150   6.112 -0.1824 -0.2883  0.2025
 1550SOL    HW116109   0.200   4.220   6.123 -0.2625 -0.0727 -0.7164
 1550SOL    HW216110   0.178   4.079   6.160 -0.1421  0.8062  1.7623
 1551SOL     OW16111   1.312   2.707   2.815  0.1997 -0.7909  0.0102
 1551SOL    HW116112   1.256   2.785   2.814 -1.4241 -1.9714 -0.9775
 1551SOL    HW216113   1.305   2.671   2.726  0.0168 -1.4758  0.2989
 1552SOL     OW16114   0.148   3.450  17.166  0.3462 -0.3935 -0.1792
 1552SOL    HW116115   0.182   3.540  17.165 -0.3766 -0.1719 -4.4459
 1552SOL    HW216116   0.054   3.467  17.173  0.3998 -0.0392 -0.3133
 1553SOL     OW16117   1.557   1.048   0.990  0.6221  0.9232 -0.3566
 1553SOL    HW116118   1.553   1.111   0.918 -0.8610  0.7000 -0.4567
 1553SOL    HW216119   1.498   1.088   1.055 -0.5763  1.5314 -1.8350
 1554SOL     OW16120   2.424   4.152   8.891  0.0175 -0.5223 -0.3687
 1554SOL    HW116121   2.405   4.090   8.821  0.2397  0.1848 -1.0481
 1554SOL    HW216122   2.513   4.169   8.860 -0.4837  0.2184 -1.3733
 1555SOL     OW16123   3.915   3.266  16.482 -0.4176 -0.2949  0.4536
 1555SOL    HW116124   3.940   3.193  16.424 -1.5477  0.0773 -0.4881
 1555SOL    HW216125   3.951   3.336  16.428  1.8566 -2.6900 -1.1827
 1556SOL     OW16126   2.701   4.288   8.243  1.1016 -0.0654  0.3020
 1556SOL    HW116127   2.757   4.213   8.225  0.6957 -0.2499 -0.2066
 1556SOL    HW216128   2.691   4.285   8.338  1.0797 -0.0381  0.3008
 1557SOL     OW16129   0.624   1.374   5.583 -0.0483  0.3399 -0.5079
 1557SOL    HW116130   0.627   1.418   5.498 -1.2703  1.7682  0.1927
 1557SOL    HW216131   0.716   1.377   5.611 -0.6581 -1.2369  1.6519
 1558SOL     OW16132   3.115   0.537   8.799 -0.2532  0.0351 -0.3265
 1558SOL    HW116133   3.129   0.581   8.715 -0.1950 -0.3490 -0.5204
 1558SOL    HW216134   3.094   0.606   8.861 -0.2248  0.7268 -1.0963
 1559SOL     OW16135   0.872   3.479  13.727 -0.9454 -0.2939 -0.2711
 1559SOL    HW116136   0.906   3.476  13.817 -3.3298  0.7158  0.6705
 1559SOL    HW216137   0.841   3.389  13.722 -3.2486  0.5614 -1.5209
 1560SOL     OW16138   3.671   0.683   3.317  0.2719  0.4446 -0.1630
 1560SOL    HW116139   3.627   0.711   3.237  1.2706 -0.6380 -1.0902
 1560SOL    HW216140   3.695   0.767   3.357 -0.1697  0.2539  0.5003
 1561SOL     OW16141   3.921   4.492   3.802  0.6751 -0.7460 -0.3806
 1561SOL    HW116142   3.938   4.502   3.708  0.4033 -0.6310 -0.4180
 1561SOL    HW216143   3.841   4.439   3.802  1.6894 -2.2716 -0.5252
 1562SOL     OW16144   1.905   1.844   3.517  0.2783  0.3388 -0.8044
 1562SOL    HW116145   1.850   1.788   3.572 -0.3320 -0.0139 -1.7756
 1562SOL    HW216146   1.994   1.810   3.528  0.1397 -0.1069 -1.0256
 1563SOL     OW16147   3.597   1.658  10.265 -0.4081  0.1518  0.4497
 1563SOL    HW116148   3.582   1.578  10.214  1.0892  0.3527 -0.3168
 1563SOL    HW216149   3.685   1.646  10.302 -0.0926 -2.7685 -1.2745
 1564SOL     OW16150   3.067   3.341   8.695  0.6048 -0.9913 -0.3205
 1564SOL    HW116151   3.153   3.322   8.732  0.8404  0.4210 -0.1391
 1564SOL    HW216152   3.032   3.376   8.778  4.3354  2.1838 -0.0755
 1565SOL     OW16153   1.547   0.986  11.358  0.6090 -0.5650 -0.6053
 1565SOL    HW116154   1.601   1.065  11.360 -1.0778  0.5980 -0.7016
 1565SOL    HW216155   1.617   0.921  11.358  1.6662  0.5478 -2.6285
 1566SOL     OW16156   0.687   1.064   4.676 -0.2241 -0.1365 -0.5116
 1566SOL    HW116157   0.691   0.970   4.688  0.1137 -0.1257 -0.5262
 1566SOL    HW216158   0.711   1.068   4.584  2.9292 -1.0431  0.2894
 1567SOL     OW16159   2.351   2.707  16.558 -0.0391  0.0037 -0.5234
 1567SOL    HW116160   2.373   2.620  16.524  0.8286  0.4007 -0.9936
 1567SOL    HW216161   2.263   2.718  16.522  0.1343  2.2437 -0.2949
 1568SOL     OW16162   3.426   0.863   5.685 -0.1110 -0.4706  0.4280
 1568SOL    HW116163   3.391   0.910   5.761  0.4548  2.0244 -0.8514
 1568SOL    HW216164   3.344   0.843   5.640 -0.5563 -0.0111  1.0380
 1569SOL     OW16165   0.075   3.423   9.451  0.3591 -0.3826 -0.2827
 1569SOL    HW116166   0.122   3.494   9.408 -0.0587  0.0935  0.0420
 1569SOL    HW216167   4.712   3.447   9.424  0.2242 -1.5649 -0.8838
 1570SOL     OW16168   1.287   4.503   0.414 -0.0695  0.0546 -0.4319
 1570SOL    HW116169   1.347   4.430   0.396  0.3053  0.3919 -0.5457
 1570SOL    HW216170   1.307   4.556   0.337  2.4522  0.4696  0.5215
 1571SOL     OW16171   2.637   1.387  10.140  0.7913  0.2591  0.1987
 1571SOL    HW116172   2.573   1.380  10.069  0.6755  0.0533  0.3241
 1571SOL    HW216173   2.644   1.292  10.150  0.1220  0.3246  1.3086
 1572SOL     OW16174   2.860   2.443   2.832 -0.0844  0.2053 -0.5004
 1572SOL    HW116175   2.881   2.396   2.751  1.0384  0.6212 -0.4519
 1572SOL    HW216176   2.765   2.433   2.839 -0.0331  0.5681  0.7267
 1573SOL     OW16177   1.024   2.092   4.717  0.5383 -0.4401 -0.1954
 1573SOL    HW116178   0.988   2.003   4.721  0.1797 -0.3860 -2.2308
 1573SOL    HW216179   0.944   2.142   4.731  0.2174 -0.7770 -0.8495
 1574SOL     OW16180   3.897   0.006   4.017 -0.5453 -0.3342  0.0445
 1574SOL    HW116181   3.992   0.018   4.011 -0.2549 -2.0209  1.3418
 1574SOL    HW216182   3.889   4.669   3.944  0.4736  0.8804 -1.1214
 1575SOL     OW16183   3.199   0.182  13.382 -0.0857  0.0449  0.1257
 1575SOL    HW116184   3.256   0.161  13.308  0.6981  0.0172  0.7455
 1575SOL    HW216185   3.186   0.092  13.412 -2.6303  0.4219  0.1479
 1576SOL     OW16186   3.232   0.118  17.021 -0.1840  0.5744  0.4216
 1576SOL    HW116187   3.322   0.095  16.999 -0.2667 -0.7149  1.4154
 1576SOL    HW216188   3.185   0.036  17.006  1.8331 -0.9604  2.5239
 1577SOL     OW16189   3.231   0.508   9.117 -0.3453  0.2005  0.4389
 1577SOL    HW116190   3.295   0.496   9.187 -0.0829  1.8730  0.4755
 1577SOL    HW216191   3.197   0.418   9.112  2.2380 -0.7813  0.4304
 1578SOL     OW16192   3.332   2.902   4.952 -0.6367  0.4920 -0.2386
 1578SOL    HW116193   3.362   2.814   4.975 -2.0631  0.6137  2.1240
 1578SOL    HW216194   3.240   2.895   4.976 -0.4093  0.0009  0.4914
 1579SOL     OW16195   3.984   0.471   5.843 -0.0017  0.0776  0.4202
 1579SOL    HW116196   4.052   0.532   5.870 -0.0440  0.3179 -0.0208
 1579SOL    HW216197   3.957   0.447   5.932 -1.7317 -1.1472 -0.4394
 1580SOL     OW16198   3.301   0.474   8.272  0.7089  0.1962 -0.2545
 1580SOL    HW116199   3.277   0.566   8.286  1.8104  0.6124 -1.1345
 1580SOL    HW216200   3.362   0.473   8.198  0.8269 -0.8575 -0.1312
 1581SOL     OW16201   1.901   2.623   7.728 -0.0144 -0.4732  0.3561
 1581SOL    HW116202   1.876   2.620   7.636 -3.2494  1.7733  1.1616
 1581SOL    HW216203   1.972   2.558   7.728  1.3325  1.0160 -0.1641
 1582SOL     OW16204   2.777   0.947   3.307  0.1148 -0.3055 -0.1402
 1582SOL    HW116205   2.765   0.948   3.212  2.4737 -0.0486 -0.4236
 1582SOL    HW216206   2.863   0.906   3.309  0.3702  0.2023 -0.4777
 1583SOL     OW16207   0.487   2.479   8.265  0.1229  0.6688 -0.3487
 1583SOL    HW116208   0.573   2.511   8.291  0.0897  0.9292 -0.5537
 1583SOL    HW216209   0.484   2.393   8.305  1.7944  0.9804  0.4414
 1584SOL     OW16210   0.389   4.638   3.644 -0.2444 -0.2248 -0.1959
 1584SOL    HW116211   0.324   4.629   3.714 -0.1674  1.8298  0.1365
 1584SOL    HW216212   0.385   4.544   3.629  1.7905 -0.2136 -0.7364
 1585SOL     OW16213   3.975   1.531   9.229  0.4774 -0.0528  0.1721
 1585SOL    HW116214   3.905   1.481   9.188  2.0380 -1.6417 -0.5933
 1585SOL    HW216215   4.029   1.462   9.267 -0.7889 -1.3613 -0.4184
 1586SOL     OW16216   1.282   1.976   1.386 -0.7747 -0.3830  0.2747
 1586SOL    HW116217   1.208   1.915   1.390 -0.9381 -0.2061 -0.0777
 1586SOL    HW216218   1.306   1.996   1.295 -1.5253  1.7529  0.5385
 1587SOL     OW16219   3.573   2.682   7.412 -0.3675  0.2148  0.1577
 1587SOL    HW116220   3.544   2.591   7.401  0.2592  0.0986 -0.5225
 1587SOL    HW216221   3.625   2.654   7.488  1.5264 -0.0471 -1.2553
 1588SOL     OW16222   3.268   3.900   4.248  0.4329 -0.1883  0.8221
 1588SOL    HW116223   3.306   3.975   4.204  0.7071 -0.8310 -0.0355
 1588SOL    HW216224   3.268   3.830   4.182  1.7016 -0.1955  0.8297
 1589SOL     OW16225   4.712   4.399  10.804  0.0647  0.0839  0.3429
 1589SOL    HW116226   0.054   4.335  10.779 -1.7631 -0.9215 -2.1546
 1589SOL    HW216227   4.633   4.353  10.775  0.2354  2.3980 -3.7990
 1590SOL     OW16228   1.749   3.752   7.499  0.2757  0.2289 -0.3411
 1590SOL    HW116229   1.819   3.758   7.434 -1.1439 -0.6298 -1.9309
 1590SOL    HW216230   1.675   3.713   7.452 -0.5909  0.9675  0.4160
 1591SOL     OW16231   0.002   0.920  12.306  0.3937  0.1508  0.6178
 1591SOL    HW116232   0.072   0.986  12.305  1.1746 -0.7117 -1.1856
 1591SOL    HW216233   0.032   0.862  12.375 -2.5974 -0.1555  1.6316
 1592SOL     OW16234   3.124   2.166   6.200  0.9098  0.2126  0.5126
 1592SOL    HW116235   3.206   2.216   6.195  0.2681  1.1636 -0.6153
 1592SOL    HW216236   3.146   2.094   6.258 -0.3687 -0.2135  0.4500
 1593SOL     OW16237   4.465   2.398   7.420  0.9795  0.5078  0.0178
 1593SOL    HW116238   4.508   2.455   7.484 -1.0843  0.2781  1.5958
 1593SOL    HW216239   4.427   2.467   7.365 -0.6921 -0.3889  0.0422
 1594SOL     OW16240   4.156   0.763  14.606 -0.2572 -0.2927 -0.3577
 1594SOL    HW116241   4.238   0.734  14.565 -0.4902  1.5335 -2.1266
 1594SOL    HW216242   4.155   0.855  14.578  1.0321  0.2731  1.4422
 1595SOL     OW16243   1.888   3.944   5.207  0.1719 -0.3257  0.2597
 1595SOL    HW116244   1.954   4.013   5.219 -0.9907  1.1150 -1.5659
 1595SOL    HW216245   1.897   3.917   5.116 -0.0396  0.4175  0.0151
 1596SOL     OW16246   0.038   3.115   5.359  0.5070  0.0171 -0.5323
 1596SOL    HW116247   0.041   3.069   5.443 -1.6341 -0.0930 -0.5232
 1596SOL    HW216248   0.114   3.172   5.366  1.5069 -1.4400  0.3387
 1597SOL     OW16249   1.547   2.050   8.963  0.0601  0.1993  0.3299
 1597SOL    HW116250   1.529   2.086   8.876  0.9595  2.5414  1.1165
 1597SOL    HW216251   1.460   2.045   9.002 -0.8717 -0.0417 -1.7580
 1598SOL     OW16252   3.005   3.233   3.353  0.0629  0.1281 -0.1643
 1598SOL    HW116253   2.923   3.184   3.354  0.4970 -0.5475  1.5469
 1598SOL    HW216254   3.043   3.182   3.281  1.4042  3.7395 -2.0507
 1599SOL     OW16255   1.043   2.813   2.882  0.0433  0.0731 -0.6387
 1599SOL    HW116256   1.021   2.905   2.864  0.6297  0.0235 -1.5904
 1599SOL    HW216257   0.988   2.796   2.958  0.8850 -0.6988 -0.2036
 1600SOL     OW16258   4.254   3.160  12.047 -0.0895  0.3105 -0.1599
 1600SOL    HW116259   4.298   3.224  11.991  0.1493  0.2934  0.0096
 1600SOL    HW216260   4.318   3.089  12.041  0.8779  1.1542  0.2823
 1601SOL     OW16261   2.402   4.434   3.524  0.1092 -0.3182 -0.1424
 1601SOL    HW116262   2.310   4.453   3.542 -0.1979 -1.7011 -0.2545
 1601SOL    HW216263   2.444   4.407   3.606  0.5808  1.4722  0.2170
 1602SOL     OW16264   3.832   0.235   6.794  0.2870 -0.4284 -0.4131
 1602SOL    HW116265   3.771   0.166   6.766 -0.4326  0.4707 -1.0489
 1602SOL    HW216266   3.872   0.196   6.872  1.0568  1.7893  0.3110
 1603SOL     OW16267   1.798   0.074   2.604 -0.0592 -0.2936 -0.4077
 1603SOL    HW116268   1.811   0.012   2.533  0.4078 -0.6850  0.0187
 1603SOL    HW216269   1.706   0.078   2.631 -0.1338  2.3814 -1.0618
 1604SOL     OW16270   2.064   3.067   9.052  0.3966 -0.2867 -0.1834
 1604SOL    HW116271   2.073   2.973   9.037  0.8738 -0.6600  2.4500
 1604SOL    HW216272   2.028   3.098   8.969 -0.6822  0.3915  0.5388
 1605SOL     OW16273   2.587   0.693   3.131  0.0152 -0.3910 -0.0756
 1605SOL    HW116274   2.660   0.639   3.159  1.2013  1.5212  0.4843
 1605SOL    HW216275   2.596   0.684   3.036 -1.4888  1.3169 -0.4029
 1606SOL     OW16276   3.382   2.897  14.040  0.0991 -0.2847  0.4954
 1606SOL    HW116277   3.391   2.893  13.945 -0.1077  1.2441  0.4223
 1606SOL    HW216278   3.397   2.990  14.053 -0.7131 -0.0364 -0.3444
 1607SOL     OW16279   2.254   0.805  11.462 -0.3984 -0.1100  0.2795
 1607SOL    HW116280   2.319   0.735  11.462  0.6221  0.8246  1.5162
 1607SOL    HW216281   2.247   0.814  11.367  0.1116  0.5009  0.2966
 1608SOL     OW16282   0.922   3.870   3.843 -0.4754 -0.4248  0.3922
 1608SOL    HW116283   0.851   3.911   3.893  0.5022  0.7794  0.8011
 1608SOL    HW216284   0.983   3.854   3.915  0.4107  0.2406 -0.2230
 1609SOL     OW16285   1.364   0.293  13.931  0.1853  0.2656  0.3319
 1609SOL    HW116286   1.269   0.292  13.941  0.0706  1.1062 -0.6737
 1609SOL    HW216287   1.395   0.380  13.955  0.7481  0.1843 -0.0927
 1610SOL     OW16288   0.080   1.369   8.942  0.0122  0.0923  0.4096
 1610SOL    HW116289   0.056   1.372   9.034 -0.1258  0.6390  0.3501
 1610SOL    HW216290   0.077   1.460   8.915  0.0938 -0.1699 -0.4940
 1611SOL     OW16291   2.848   1.654   3.879 -0.2565  0.2193  0.3648
 1611SOL    HW116292   2.932   1.627   3.918 -0.2231 -0.5644 -0.2300
 1611SOL    HW216293   2.858   1.749   3.874  1.1981  0.0855  0.8094
 1612SOL     OW16294   3.987   3.551   2.452  0.1656 -0.2906  0.3000
 1612SOL    HW116295   4.049   3.622   2.440  1.0678 -0.7910  2.0692
 1612SOL    HW216296   3.945   3.571   2.535  0.6470 -1.5791  0.8600
 1613SOL     OW16297   0.756   2.522   7.570  0.1096  0.0582  0.1921
 1613SOL    HW116298   0.808   2.600   7.549 -0.2376  0.4028  0.6129
 1613SOL    HW216299   0.806   2.474   7.637  0.4262 -1.1276 -0.8870
 1614SOL     OW16300   0.480   4.106  13.110 -0.2402  0.4047 -0.4056
 1614SOL    HW116301   0.527   4.023  13.111 -1.5613 -0.3194  0.7148
 1614SOL    HW216302   0.391   4.074  13.097 -0.0046  0.3334 -1.7649
 1615SOL     OW16303   4.678   1.520  12.666 -0.1396  0.3045  0.2991
 1615SOL    HW116304   4.622   1.586  12.706  1.2633  1.3934  0.4514
 1615SOL    HW216305   4.645   1.532  12.577  0.9719 -1.2889 -0.3247
 1616SOL     OW16306   2.493   0.273   9.846 -0.9097  0.0072  0.1938
 1616SOL    HW116307   2.505   0.273   9.941  1.4467  0.4772 -0.1099
 1616SOL    HW216308   2.574   0.318   9.822 -0.5279 -0.4354  0.6484
 1617SOL     OW16309   0.270   0.939   1.264 -0.4688 -0.1063 -0.1869
 1617SOL    HW116310   0.287   1.028   1.233  0.6449 -0.6169 -1.0597
 1617SOL    HW216311   0.175   0.933   1.253 -0.4083 -1.2336 -0.0986
 1618SOL     OW16312   3.109   1.252   7.118 -0.0147  0.4694  0.4983
 1618SOL    HW116313   3.186   1.214   7.160  0.9421  1.2933 -0.5120
 1618SOL    HW216314   3.096   1.326   7.177  0.3772  2.0684 -1.4326
 1619SOL     OW16315   4.561   3.984   7.503  0.0098  0.0287  0.1873
 1619SOL    HW116316   4.644   4.019   7.536  0.0960 -0.2777  0.2903
 1619SOL    HW216317   4.592   3.939   7.424 -2.2879 -1.1020 -0.0501
 1620SOL     OW16318   0.727   2.596   8.315 -0.5206 -0.1528  0.1036
 1620SOL    HW116319   0.816   2.592   8.282 -1.1557  1.7483 -1.7700
 1620SOL    HW216320   0.737   2.626   8.406 -0.3476 -1.2484  0.4556
 1621SOL     OW16321   0.762   3.460   8.355  0.0354 -0.4128  0.3489
 1621SOL    HW116322   0.720   3.408   8.424  1.4328  0.6052  1.9505
 1621SOL    HW216323   0.810   3.390   8.310 -2.2346 -0.8055 -1.5125
 1622SOL     OW16324   4.257   1.526   2.332 -0.1822 -0.3316  0.2204
 1622SOL    HW116325   4.305   1.607   2.313  1.2086 -1.5958 -1.6006
 1622SOL    HW216326   4.193   1.532   2.260 -1.6642 -1.4611  1.4525
 1623SOL     OW16327   1.982   4.644   7.711 -0.0512  0.0814  0.0032
 1623SOL    HW116328   1.939   0.003   7.711 -0.7173 -0.2581  1.3850
 1623SOL    HW216329   2.062   4.659   7.660 -1.4970 -1.0196 -2.5659
 1624SOL     OW16330   4.577   4.059   3.776 -0.3196  0.3879  0.0995
 1624SOL    HW116331   4.501   4.099   3.817 -0.8424  0.8253 -1.3145
 1624SOL    HW216332   4.632   4.138   3.768  0.0469  0.2991  1.7385
 1625SOL     OW16333   4.109   3.575   4.159 -0.0167 -0.1837  0.2456
 1625SOL    HW116334   4.013   3.575   4.162 -0.0348  0.5926 -0.3926
 1625SOL    HW216335   4.124   3.577   4.254 -0.3700 -1.7620  0.3293
 1626SOL     OW16336   2.789   2.933   7.124 -0.1324 -0.5418 -0.0643
 1626SOL    HW116337   2.877   2.938   7.161 -1.2296  0.1627  2.5375
 1626SOL    HW216338   2.802   2.865   7.058  4.0045 -0.8459  1.0787
 1627SOL     OW16339   4.576   3.388  17.028  0.4601 -0.1973 -0.0445
 1627SOL    HW116340   4.498   3.392  17.082  0.7094  0.8984  0.2434
 1627SOL    HW216341   4.545   3.354  16.945 -3.8525  0.5285  1.2959
 1628SOL     OW16342   2.329   3.805  10.767 -0.1616 -0.2676  0.2852
 1628SOL    HW116343   2.407   3.750  10.757 -0.2984  0.0113 -2.3868
 1628SOL    HW216344   2.365   3.879  10.717 -0.2778 -1.4585 -1.5778
 1629SOL     OW16345   3.863   1.632   3.572 -0.2111  0.2118  0.5884
 1629SOL    HW116346   3.851   1.608   3.480  0.3451  0.9255  0.3345
 1629SOL    HW216347   3.921   1.707   3.565 -0.1264 -0.0049 -1.0434
 1630SOL     OW16348   3.051   3.754   1.755  0.2621 -0.5506  0.4281
 1630SOL    HW116349   3.010   3.761   1.668 -0.0564  0.4739  0.6580
 1630SOL    HW216350   2.983   3.803   1.801 -0.2761 -1.4013  0.5316
 1631SOL     OW16351   3.752   4.487   9.369  0.1781  0.1244 -0.4161
 1631SOL    HW116352   3.830   4.434   9.388  0.0348 -0.8043 -2.3843
 1631SOL    HW216353   3.690   4.475   9.441  0.1986  1.3918 -0.1921
 1632SOL     OW16354   4.069   1.995  14.892  0.2411 -0.4687  0.1106
 1632SOL    HW116355   4.151   1.998  14.941  0.1302  0.7769  0.2080
 1632SOL    HW216356   4.013   2.061  14.932  2.4555 -0.1009  2.6237
 1633SOL     OW16357   2.229   2.762   2.287  0.4150 -0.0264  0.1606
 1633SOL    HW116358   2.293   2.775   2.357  1.4436 -0.9192 -0.6384
 1633SOL    HW216359   2.282   2.751   2.209  0.9817 -1.3928  0.7520
 1634SOL     OW16360   2.949   4.289  10.386 -0.2228  0.5817 -0.0185
 1634SOL    HW116361   2.954   4.215  10.445 -1.6640 -0.1036 -0.7689
 1634SOL    HW216362   3.037   4.304  10.350 -0.8479 -2.2260 -2.6975
 1635SOL     OW16363   0.531   1.411   3.445 -0.0522  0.1384  0.1973
 1635SOL    HW116364   0.610   1.457   3.475 -0.0300 -0.4215  0.9974
 1635SOL    HW216365   0.507   1.472   3.376 -0.1135 -0.4095 -0.2625
 1636SOL     OW16366   2.364   0.632   3.751  0.0362 -0.7174  0.0364
 1636SOL    HW116367   2.300   0.612   3.683 -0.7657  1.7146  0.0395
 1636SOL    HW216368   2.423   0.697   3.712  1.1657 -1.3458  0.7012
 1637SOL     OW16369   2.546   1.461   5.523  0.0028 -0.0370 -0.1981
 1637SOL    HW116370   2.626   1.511   5.542  0.8232 -0.6594 -2.0065
 1637SOL    HW216371   2.545   1.401   5.598 -0.2027  0.5478  0.2743
 1638SOL     OW16372   2.132   3.385   5.544  0.0167  0.5948 -0.4071
 1638SOL    HW116373   2.098   3.356   5.460  1.3100 -0.2732 -0.6232
 1638SOL    HW216374   2.066   3.451   5.566 -1.0633 -0.0668 -1.6701
 1639SOL     OW16375   0.979   3.246   8.894  0.1940 -0.1116 -0.6391
 1639SOL    HW116376   0.996   3.270   8.803  2.9033 -4.1299 -1.2144
 1639SOL    HW216377   1.062   3.273   8.934 -0.0509  1.2215 -1.0450
 1640SOL     OW16378   4.527   1.409   5.959 -0.1059 -0.7796  0.5891
 1640SOL    HW116379   4.566   1.466   5.893  0.4156 -0.6738  0.9850
 1640SOL    HW216380   4.509   1.331   5.906  0.5441 -0.4183 -0.1749
 1641SOL     OW16381   3.458   2.459  14.678  0.0341 -0.1733 -0.0029
 1641SOL    HW116382   3.452   2.515  14.601  0.8147 -1.6791 -1.1596
 1641SOL    HW216383   3.429   2.381  14.630  0.7874  0.4737 -1.5107
 1642SOL     OW16384   1.560   1.991   4.362  0.1203 -1.1116 -0.3724
 1642SOL    HW116385   1.538   2.034   4.279  0.2241 -3.4550 -1.5988
 1642SOL    HW216386   1.544   1.900   4.336  2.1191 -1.5690  0.0189
 1643SOL     OW16387   2.764   2.833   1.823 -0.2049 -0.0268  0.3255
 1643SOL    HW116388   2.808   2.886   1.889 -0.6935  1.1835 -0.3387
 1643SOL    HW216389   2.672   2.856   1.818 -0.2638 -0.0152  1.5332
 1644SOL     OW16390   3.162   3.820   7.810 -0.0687 -0.0406  0.2707
 1644SOL    HW116391   3.165   3.803   7.715  1.2033 -3.2646  0.9197
 1644SOL    HW216392   3.218   3.897   7.807  0.0508 -0.1268  0.3026
 1645SOL     OW16393   3.596   0.562   0.059  0.1895 -0.3374  0.5723
 1645SOL    HW116394   3.554   0.540   0.142  3.6027  1.4654  2.7759
 1645SOL    HW216395   3.673   0.506   0.065  1.3520  1.4069  1.9057
 1646SOL     OW16396   4.709   1.478   2.487  0.1814 -0.1283  0.1826
 1646SOL    HW116397   4.677   1.471   2.397  1.0185  2.2866 -0.2847
 1646SOL    HW216398   0.046   1.550   2.480  0.0017  0.0304  0.2138
 1647SOL     OW16399   2.773   2.987  14.816 -0.1072  0.1841  0.2643
 1647SOL    HW116400   2.733   2.923  14.875 -1.5618 -0.0871 -1.0112
 1647SOL    HW216401   2.777   2.946  14.729 -0.3634  0.0724  0.3070
 1648SOL     OW16402   0.094   1.164   3.328  0.0149 -0.6674  0.4478
 1648SOL    HW116403   0.146   1.112   3.389  1.0648  1.3614  1.2671
 1648SOL    HW216404   0.088   1.249   3.372 -0.0292  0.5570 -1.9406
 1649SOL     OW16405   0.626   0.146   8.162  0.0893 -0.1718 -0.0905
 1649SOL    HW116406   0.681   0.169   8.087 -0.2791  0.8057 -0.0646
 1649SOL    HW216407   0.566   0.221   8.163 -0.7034 -0.7891 -1.6746
 1650SOL     OW16408   1.637   4.250   8.050 -0.1530  0.6007  0.1173
 1650SOL    HW116409   1.588   4.201   8.116  1.6458 -0.1090  0.9186
 1650SOL    HW216410   1.724   4.254   8.089  0.7004  0.1798 -1.7377
 1651SOL     OW16411   3.061   2.736   3.248 -0.4725  0.1590  0.3946
 1651SOL    HW116412   3.100   2.654   3.217  1.0831  0.7803  0.6626
 1651SOL    HW216413   2.978   2.743   3.202  0.1222 -2.8920 -1.1257
 1652SOL     OW16414   3.215   0.804  16.091 -0.2540  0.0747 -0.4659
 1652SOL    HW116415   3.120   0.798  16.100  0.0027 -0.5101  1.7448
 1652SOL    HW216416   3.250   0.717  16.110 -0.1212  0.1258 -0.4746
 1653SOL     OW16417   2.108   0.794   6.922  0.2659 -0.0363 -0.1280
 1653SOL    HW116418   2.122   0.822   7.013 -0.3738  1.3103 -0.4406
 1653SOL    HW216419   2.167   0.856   6.879 -0.6713 -0.4815 -2.0451
 1654SOL     OW16420   3.526   1.825  15.122 -0.1959 -0.0608 -0.4886
 1654SOL    HW116421   3.580   1.747  15.106 -0.0810  0.2126 -1.4286
 1654SOL    HW216422   3.566   1.881  15.056  1.9230  0.7418  1.4589
 1655SOL     OW16423   4.388   2.173   3.639  0.0105  0.2715 -0.7011
 1655SOL    HW116424   4.360   2.264   3.650 -0.9641  0.0819 -1.5874
 1655SOL    HW216425   4.338   2.124   3.704  0.7350  1.1799  0.5342
 1656SOL     OW16426   1.315   4.277   7.817  0.3628  0.1713 -0.3237
 1656SOL    HW116427   1.237   4.234   7.852  0.3383  0.2435 -0.2887
 1656SOL    HW216428   1.378   4.205   7.813 -0.4262 -0.6930  2.4415
 1657SOL     OW16429   1.452   1.035   6.010  0.0160  0.0232  0.2676
 1657SOL    HW116430   1.467   1.056   5.918  0.0386  0.8559  0.4670
 1657SOL    HW216431   1.516   1.096   6.046  0.3533  1.0410 -2.0344
 1658SOL     OW16432   2.042   1.131  15.175  0.2539  0.7160 -0.1642
 1658SOL    HW116433   2.105   1.076  15.127 -0.1390  0.7893 -0.7662
 1658SOL    HW216434   2.086   1.216  15.164  1.4886  0.4184  2.5958
 1659SOL     OW16435   0.688   3.146   0.003 -0.2376  0.6185 -0.2822
 1659SOL    HW116436   0.677   3.237  17.680  0.8318  1.2200  1.2268
 1659SOL    HW216437   0.780   3.127  17.690 -0.0802  0.3298  0.8552
 1660SOL     OW16438   1.644   0.254   9.640 -0.3787  0.5636 -0.3480
 1660SOL    HW116439   1.624   0.189   9.707  2.5973  0.0478  0.0287
 1660SOL    HW216440   1.584   0.325   9.663 -1.0425  0.4369 -1.7316
 1661SOL     OW16441   1.913   2.983  16.932  0.0884  0.2208 -0.4019
 1661SOL    HW116442   1.964   2.948  16.859  0.2420  0.2806 -0.3239
 1661SOL    HW216443   1.976   3.023  16.992 -1.1873  2.1207 -0.3289
 1662SOL     OW16444   2.556   3.754   7.053  0.7303  0.1465 -0.8223
 1662SOL    HW116445   2.591   3.708   7.128 -2.3234 -1.3507 -0.3068
 1662SOL    HW216446   2.616   3.828   7.039 -1.3627  1.9388 -0.3786
 1663SOL     OW16447   3.091   1.625   4.000 -0.2116 -0.1562 -0.2060
 1663SOL    HW116448   3.143   1.648   3.923 -0.3235 -1.1828 -0.5907
 1663SOL    HW216449   3.125   1.689   4.062  0.8931 -2.2088  1.2781
 1664SOL     OW16450   1.975   4.409   2.301  0.0306  0.6146  0.1461
 1664SOL    HW116451   2.044   4.398   2.236  1.0677  0.1246  1.3311
 1664SOL    HW216452   2.008   4.397   2.390 -0.3277 -0.3008  0.1552
 1665SOL     OW16453   2.203   1.928   8.228 -0.0153 -0.0817  0.7491
 1665SOL    HW116454   2.188   2.015   8.192  0.7333  0.7152  2.4073
 1665SOL    HW216455   2.244   1.941   8.313  1.0673 -0.3553  0.2590
 1666SOL     OW16456   1.348   1.584   5.650  0.4657  0.3064  0.1901
 1666SOL    HW116457   1.323   1.611   5.561  1.0585 -2.5444 -0.8576
 1666SOL    HW216458   1.442   1.603   5.651  0.4575  0.4275 -1.0820
 1667SOL     OW16459   2.683   3.717   6.521 -0.0383  0.3129 -0.0603
 1667SOL    HW116460   2.666   3.810   6.507  1.8228  0.6752  0.1969
 1667SOL    HW216461   2.742   3.708   6.596  1.2044 -2.6619 -1.4064
 1668SOL     OW16462   1.487   4.710   7.283  0.2036 -0.2956 -0.0900
 1668SOL    HW116463   1.539   4.636   7.313 -0.5649 -0.5744  0.5418
 1668SOL    HW216464   1.481   4.695   7.188  0.7360  0.2182 -0.2060
 1669SOL     OW16465   4.695   0.567   0.043 -0.1997  0.5427 -0.4846
 1669SOL    HW116466   4.618   0.605   0.085  0.6365  0.3234  1.2404
 1669SOL    HW216467   4.690   0.625  17.672 -1.0041  2.4840  1.0537
 1670SOL     OW16468   4.538   3.396   6.112 -0.0318 -0.6058  0.0095
 1670SOL    HW116469   4.484   3.451   6.055  0.3575 -2.7687 -2.4544
 1670SOL    HW216470   4.487   3.388   6.193  1.8806  1.8963  1.4474
 1671SOL     OW16471   2.176   0.204   4.719  0.0107 -0.1586  0.1210
 1671SOL    HW116472   2.141   0.284   4.679  3.5478  0.7454 -1.1444
 1671SOL    HW216473   2.194   0.155   4.638 -0.3814  1.0161 -0.6876
 1672SOL     OW16474   0.421   0.656   2.115  0.2427  0.1274  0.2995
 1672SOL    HW116475   0.423   0.587   2.048 -1.4120  1.6021 -1.2484
 1672SOL    HW216476   0.493   0.703   2.073  2.1741 -0.7945  2.5545
 1673SOL     OW16477   0.617   0.237   0.336 -0.2171 -0.5206 -0.0593
 1673SOL    HW116478   0.562   0.254   0.413  2.2683 -0.4457  1.7133
 1673SOL    HW216479   0.647   0.148   0.355 -0.9250 -0.6506  0.4382
 1674SOL     OW16480   1.073   3.850   4.867 -0.1363 -0.4228 -0.6942
 1674SOL    HW116481   1.018   3.815   4.937 -1.2027  0.1339 -1.2602
 1674SOL    HW216482   1.158   3.866   4.908 -1.8086 -1.2122  3.1020
 1675SOL     OW16483   4.201   1.506  14.128  0.2052  0.6771 -0.0088
 1675SOL    HW116484   4.121   1.545  14.095 -0.5867 -0.2542  0.7990
 1675SOL    HW216485   4.257   1.583  14.122  0.2490  0.6915  0.5599
 1676SOL     OW16486   0.358   3.543   0.860 -0.0736 -0.0514  0.0252
 1676SOL    HW116487   0.330   3.630   0.887  0.5685  0.5729 -1.3524
 1676SOL    HW216488   0.311   3.484   0.921  1.1250 -0.2538  0.7593
 1677SOL     OW16489   3.591   0.384   3.140 -0.1944  0.2929 -0.5747
 1677SOL    HW116490   3.583   0.412   3.231 -0.7432  0.1539 -0.5787
 1677SOL    HW216491   3.574   0.290   3.145 -1.6584  0.5877  0.0154
 1678SOL     OW16492   3.221   3.590   7.958  0.6807  0.0788 -0.2842
 1678SOL    HW116493   3.156   3.589   8.029  0.7395  2.7825 -0.2105
 1678SOL    HW216494   3.213   3.678   7.922 -0.6259 -0.3120 -0.9743
 1679SOL     OW16495   1.334   3.244   1.686 -0.2529 -0.4323  0.2979
 1679SOL    HW116496   1.329   3.287   1.600 -0.7728 -2.1497 -0.5202
 1679SOL    HW216497   1.253   3.194   1.683 -0.7886  0.5425 -1.8121
 1680SOL     OW16498   2.171   2.264   1.061 -0.3815 -0.0239 -0.3233
 1680SOL    HW116499   2.088   2.248   1.017 -0.7697 -0.4709  0.5694
 1680SOL    HW216500   2.228   2.203   1.014 -0.0586  0.3483 -0.4212
 1681SOL     OW16501   3.746   3.559   8.854  0.3891  0.2870  0.2234
 1681SOL    HW116502   3.719   3.567   8.763  0.2221  1.2695  0.3580
 1681SOL    HW216503   3.714   3.643   8.887  2.8275  1.0991  0.5244
 1682SOL     OW16504   2.711   2.424   3.546 -0.1613  0.0407  0.2783
 1682SOL    HW116505   2.771   2.491   3.512  0.8209 -1.0585 -0.1403
 1682SOL    HW216506   2.740   2.349   3.494  1.4225 -0.1574  1.4358
 1683SOL     OW16507   2.658   1.386   0.158  0.3877 -0.6211 -0.4085
 1683SOL    HW116508   2.660   1.307   0.213 -2.2079  0.1308  0.7649
 1683SOL    HW216509   2.741   1.398   0.111  0.2811 -3.0643 -1.2599
 1684SOL     OW16510   3.166   2.721   7.094 -0.7299 -0.0065  0.1430
 1684SOL    HW116511   3.260   2.706   7.106 -0.9912 -0.9919  0.8483
 1684SOL    HW216512   3.150   2.789   7.159  0.7585  0.5527 -0.0575
 1685SOL     OW16513   4.516   1.296   8.992  0.1044 -0.3232 -0.7452
 1685SOL    HW116514   4.530   1.380   9.035 -2.3956 -0.5909  0.5565
 1685SOL    HW216515   4.607   1.268   8.984 -0.2717 -2.6178  2.7953
 1686SOL     OW16516   4.097   2.849  15.083  0.2583 -0.6698 -0.1174
 1686SOL    HW116517   4.126   2.916  15.146 -2.1483  2.2917 -2.1511
 1686SOL    HW216518   4.154   2.852  15.006  0.0134 -0.7962 -0.3031
 1687SOL     OW16519   3.019   2.612  10.356  0.0237 -0.6203  0.2219
 1687SOL    HW116520   3.109   2.586  10.373  0.7271  1.0907 -0.8552
 1687SOL    HW216521   3.025   2.702  10.388  1.8293 -1.3299  1.8144
 1688SOL     OW16522   1.798   4.333   8.629  0.0770 -0.2301  0.2533
 1688SOL    HW116523   1.787   4.426   8.610  0.9472 -0.2255 -0.2050
 1688SOL    HW216524   1.761   4.333   8.718  0.4810  0.6979  0.4258
 1689SOL     OW16525   4.479   2.020   8.101 -0.2770 -0.3075 -0.2011
 1689SOL    HW116526   4.457   1.987   8.189 -2.2500  1.7454  0.1004
 1689SOL    HW216527   4.391   2.042   8.071 -0.0673 -0.5040 -0.9568
 1690SOL     OW16528   1.764   3.341   7.113  0.3852  0.1242 -1.1703
 1690SOL    HW116529   1.738   3.424   7.074  2.8228  1.6801  0.4794
 1690SOL    HW216530   1.831   3.364   7.178 -0.2017 -1.7752  0.1152
 1691SOL     OW16531   0.785   4.353   0.652  0.6892 -0.6176  0.0525
 1691SOL    HW116532   0.726   4.422   0.682  0.0448 -0.9300 -0.4939
 1691SOL    HW216533   0.742   4.275   0.687  1.0525 -0.7656  0.1765
 1692SOL     OW16534   3.389   0.911  17.342  0.0370 -0.2908 -0.2810
 1692SOL    HW116535   3.387   0.868  17.256 -0.5618  0.3090 -0.5644
 1692SOL    HW216536   3.389   0.843  17.409 -1.2424  0.0627  0.0660
 1693SOL     OW16537   1.731   2.035   6.850  0.2434  0.5387  0.3309
 1693SOL    HW116538   1.732   2.123   6.888  0.7364  0.9213 -0.5587
 1693SOL    HW216539   1.781   1.990   6.919 -0.8675 -2.0514 -0.5612
 1694SOL     OW16540   2.323   0.230   4.289 -0.1311 -0.0907  0.5278
 1694SOL    HW116541   2.331   0.201   4.198 -0.5855  4.2797 -0.8792
 1694SOL    HW216542   2.414   0.229   4.318  0.4025  0.6912 -1.1883
 1695SOL     OW16543   4.208   2.838   9.880  0.5361  0.2994 -0.3912
 1695SOL    HW116544   4.265   2.903   9.921 -1.2293  1.2495  0.5421
 1695SOL    HW216545   4.263   2.805   9.808  1.7856  3.6680 -0.9757
 1696SOL     OW16546   0.557   3.544   3.785  0.8384  0.0650 -0.0293
 1696SOL    HW116547   0.567   3.473   3.848 -1.2669 -2.0734 -2.1098
 1696SOL    HW216548   0.648   3.558   3.759  0.7022  1.2214  0.1112
 1697SOL     OW16549   1.499   0.986   8.510  0.4106 -0.3865  0.3894
 1697SOL    HW116550   1.442   0.936   8.569  0.9170 -2.2234 -0.6913
 1697SOL    HW216551   1.540   1.048   8.571  2.3787 -1.9635  0.6726
 1698SOL     OW16552   2.237   2.566   4.406 -0.0168  0.3875  0.2392
 1698SOL    HW116553   2.153   2.521   4.401  0.9478 -1.2014 -1.7964
 1698SOL    HW216554   2.284   2.556   4.323  0.3618  2.3155  0.2292
 1699SOL     OW16555   0.948   1.251  11.240 -0.0922 -0.3536  0.1577
 1699SOL    HW116556   0.872   1.194  11.223 -0.9025  0.5541  0.7561
 1699SOL    HW216557   0.916   1.306  11.311  0.3462  1.4407 -1.0381
 1700SOL     OW16558   0.261   2.459   9.159  0.5656  0.0631 -0.5338
 1700SOL    HW116559   0.201   2.513   9.106 -2.3629 -1.6583  1.0529
 1700SOL    HW216560   0.344   2.494   9.125  0.7062 -0.3728 -0.6311
 1701SOL     OW16561   2.718   0.275   9.609  0.0607  0.6663  0.5186
 1701SOL    HW116562   2.810   0.300   9.604 -0.5273  2.7295  0.0796
 1701SOL    HW216563   2.714   0.242   9.699  1.3570 -0.3533  0.2140
 1702SOL     OW16564   4.373   4.373   9.958  0.5188 -0.3400 -0.5080
 1702SOL    HW116565   4.411   4.293   9.993 -0.8671 -1.3177 -1.2887
 1702SOL    HW216566   4.288   4.379  10.002 -0.7668  1.3754 -3.2931
 1703SOL     OW16567   0.318   4.314   9.357  0.6288 -0.0232 -0.1672
 1703SOL    HW116568   0.334   4.407   9.338  0.0997  0.3297  1.0982
 1703SOL    HW216569   0.388   4.286   9.416 -0.7611  0.1236  1.5604
 1704SOL     OW16570   2.247   2.544  14.945  0.2706 -0.0377  0.5545
 1704SOL    HW116571   2.154   2.543  14.970  0.8979  0.5607  2.8967
 1704SOL    HW216572   2.284   2.607  15.006  0.7852 -0.4251  0.6483
 1705SOL     OW16573   1.663   3.251  12.698 -0.8242 -0.0169  0.1265
 1705SOL    HW116574   1.681   3.179  12.759  0.5555  1.8830  1.9388
 1705SOL    HW216575   1.709   3.206  12.627  0.5218  1.3697  0.1422
 1706SOL     OW16576   3.178   4.554  16.934 -0.0817 -0.3455 -0.3446
 1706SOL    HW116577   3.116   4.506  16.988 -1.3402  1.1026 -0.4996
 1706SOL    HW216578   3.251   4.493  16.927  0.0115 -0.3486  0.6937
 1707SOL     OW16579   0.346   0.414  13.165 -0.4345 -0.2286 -0.0326
 1707SOL    HW116580   0.274   0.476  13.167 -1.8552 -1.9619  2.3543
 1707SOL    HW216581   0.339   0.394  13.258  0.8474  2.5340  0.6548
 1708SOL     OW16582   2.464   4.577   9.041 -0.4772 -0.2621  1.1896
 1708SOL    HW116583   2.491   4.557   9.131  0.0530 -0.8414  0.9015
 1708SOL    HW216584   2.531   4.642   9.018  0.0562 -1.7741 -1.5328
 1709SOL     OW16585   4.192   0.528   7.968 -0.5971 -0.2510 -0.7193
 1709SOL    HW116586   4.227   0.587   7.901 -0.5348 -0.1861 -0.6286
 1709SOL    HW216587   4.100   0.556   7.961 -1.0565 -1.4625  0.5359
 1710SOL     OW16588   2.574   0.805   1.582 -0.3301 -0.6176 -0.2978
 1710SOL    HW116589   2.619   0.758   1.652  1.9872  0.1372 -1.3086
 1710SOL    HW216590   2.639   0.780   1.517  1.0042 -1.0743  1.2389
 1711SOL     OW16591   4.553   4.265   6.450  0.2473  0.3464 -0.1590
 1711SOL    HW116592   4.557   4.231   6.539 -2.2353  1.4762  0.3950
 1711SOL    HW216593   4.464   4.240   6.424  0.2665  1.4540 -1.2860
 1712SOL     OW16594   4.648   1.107  15.393  0.6388 -0.2931  0.2889
 1712SOL    HW116595   4.561   1.086  15.428  0.1708  0.4995 -0.4093
 1712SOL    HW216596   4.692   1.023  15.380 -1.5330 -1.1464 -1.5460
 1713SOL     OW16597   2.971   3.680   8.804 -0.4821  0.4489 -0.2235
 1713SOL    HW116598   2.885   3.710   8.775 -1.1169 -1.0405  0.0921
 1713SOL    HW216599   2.944   3.591   8.828 -0.0544  0.7147  1.2119
 1714SOL     OW16600   3.940   0.745  11.641  0.2567 -0.3415 -0.0647
 1714SOL    HW116601   3.948   0.655  11.674 -3.0428 -1.0525 -1.1858
 1714SOL    HW216602   3.879   0.785  11.703 -0.1270  0.6007 -1.0554
 1715SOL     OW16603   2.672   3.338   9.531  0.0485  0.2742 -0.1130
 1715SOL    HW116604   2.723   3.367   9.606  0.3564  1.5923 -0.8325
 1715SOL    HW216605   2.665   3.419   9.480 -1.3904  1.1852  1.5325
 1716SOL     OW16606   0.750   0.767   8.073  0.2641  0.4708 -0.1872
 1716SOL    HW116607   0.738   0.856   8.039  1.8941  1.0014  0.6188
 1716SOL    HW216608   0.768   0.724   7.989 -0.4737  0.7751 -0.4967
 1717SOL     OW16609   2.768   0.000   9.828  0.5152  0.3261  0.6689
 1717SOL    HW116610   2.786   4.636   9.855  0.2682  0.0149 -0.1909
 1717SOL    HW216611   2.719   0.029   9.905  1.4258  1.5242  0.8125
 1718SOL     OW16612   3.488   4.249   9.080  0.4551  0.0405  0.4498
 1718SOL    HW116613   3.448   4.289   9.158 -0.9502 -1.5461  0.5444
 1718SOL    HW216614   3.573   4.212   9.106  0.3139 -1.5983 -1.4992
 1719SOL     OW16615   1.107   0.747   8.884 -0.1824 -0.2062  0.0999
 1719SOL    HW116616   1.097   0.826   8.831  2.2096 -0.2201 -0.3731
 1719SOL    HW216617   1.203   0.743   8.876 -0.0602  0.2413  1.3829
 1720SOL     OW16618   0.486   0.734   7.483 -0.1218 -0.6807 -0.8547
 1720SOL    HW116619   0.394   0.708   7.489 -0.1818 -0.4763 -0.8913
 1720SOL    HW216620   0.528   0.656   7.519 -0.6969 -1.2615 -1.4635
 1721SOL     OW16621   4.700   1.594   1.665 -0.2354 -0.0126 -0.0755
 1721SOL    HW116622   4.660   1.530   1.606 -0.7223  0.6201 -0.4206
 1721SOL    HW216623   4.622   1.642   1.692 -1.2777 -2.4440  1.2123
 1722SOL     OW16624   4.122   0.981  17.325  0.2068 -0.1525  0.2576
 1722SOL    HW116625   4.070   1.028  17.391 -2.3557  1.0100 -2.5491
 1722SOL    HW216626   4.141   0.898  17.369  0.7323  0.1391  0.5706
 1723SOL     OW16627   3.812   0.322   8.954  0.2756  0.3280 -0.1846
 1723SOL    HW116628   3.853   0.378   8.888 -1.7411  0.5216 -1.2859
 1723SOL    HW216629   3.719   0.345   8.952 -0.1539 -0.9697  4.3951
 1724SOL     OW16630   3.131   0.048   5.377  0.7102 -0.2168 -0.1151
 1724SOL    HW116631   3.042   0.045   5.343  0.1574  1.9243  1.1787
 1724SOL    HW216632   3.119   0.124   5.433 -1.5569 -0.5525 -0.1679
 1725SOL     OW16633   3.014   2.059   4.551 -0.3500 -0.2001 -0.0139
 1725SOL    HW116634   2.957   2.071   4.475 -0.6515  0.8642  0.3798
 1725SOL    HW216635   2.965   2.088   4.628 -2.3953 -1.2444 -0.9445
 1726SOL     OW16636   3.915   0.714   4.056 -0.2030 -0.0953  0.1780
 1726SOL    HW116637   3.911   0.619   4.053 -1.5102  0.0685 -2.8723
 1726SOL    HW216638   3.970   0.725   3.979  0.6610 -0.2285  0.7788
 1727SOL     OW16639   1.043   4.705   3.241  0.6124  0.4665 -0.3114
 1727SOL    HW116640   1.028   0.033   3.163  0.7643  2.4954  1.0757
 1727SOL    HW216641   0.952   4.708   3.270  0.6483  0.5425 -0.2064
 1728SOL     OW16642   1.690   2.618   5.837  0.0381 -0.1588 -0.0980
 1728SOL    HW116643   1.655   2.621   5.748  0.5092  1.6233 -0.2243
 1728SOL    HW216644   1.715   2.525   5.831  1.0475  0.0625  0.5829
 1729SOL     OW16645   4.262   2.300   0.111 -0.3655  0.8413 -0.1269
 1729SOL    HW116646   4.309   2.303   0.194 -1.9558 -1.0405  0.8627
 1729SOL    HW216647   4.178   2.338   0.136 -1.9150 -1.9265 -0.9975
 1730SOL     OW16648   3.881   0.185  14.012 -0.4263  0.2499  0.1830
 1730SOL    HW116649   3.798   0.231  14.000 -0.1178  1.0132  0.9380
 1730SOL    HW216650   3.941   0.258  14.022  0.5036 -0.4007 -0.6078
 1731SOL     OW16651   0.612   2.748  15.188  0.1474  0.1930 -0.4958
 1731SOL    HW116652   0.613   2.735  15.283  1.0067 -1.4764 -0.7438
 1731SOL    HW216653   0.519   2.734  15.173  0.6380 -1.4673 -1.9525
 1732SOL     OW16654   3.455   4.243  15.178 -0.0455  0.3035 -0.0282
 1732SOL    HW116655   3.456   4.246  15.082  0.4410  1.2923  0.0114
 1732SOL    HW216656   3.496   4.323  15.211  0.1179  1.1437 -2.2762
 1733SOL     OW16657   1.966   2.043  17.264  0.4981 -0.4224 -0.0385
 1733SOL    HW116658   2.032   1.979  17.241 -0.0994 -1.5844  1.5125
 1733SOL    HW216659   1.887   2.020  17.215  1.1995 -1.5310 -0.6208
 1734SOL     OW16660   2.556   0.977  16.542 -0.0739  1.1339 -0.2729
 1734SOL    HW116661   2.486   0.990  16.605 -0.6368  4.0710 -1.5203
 1734SOL    HW216662   2.509   0.937  16.468  1.0001  2.7323 -1.8133
 1735SOL     OW16663   0.154   2.578   8.717 -0.1008 -0.2915 -0.3375
 1735SOL    HW116664   0.129   2.503   8.771  0.5830  0.2509  0.7415
 1735SOL    HW216665   0.244   2.566   8.688 -0.2963  0.3852 -1.2175
 1736SOL     OW16666   0.488   3.077   5.587 -0.3086  0.6305  0.2905
 1736SOL    HW116667   0.508   3.164   5.552  1.0178 -0.3968 -1.4970
 1736SOL    HW216668   0.433   3.101   5.662 -1.4787  2.4627 -1.1739
 1737SOL     OW16669   0.736   3.498  12.884 -0.0293  0.1405  0.1214
 1737SOL    HW116670   0.778   3.549  12.952  0.2865  0.6481 -0.4551
 1737SOL    HW216671   0.797   3.509  12.811  0.1941 -1.5471  0.0471
 1738SOL     OW16672   3.932   0.621   7.959 -0.4626 -0.0513  0.0464
 1738SOL    HW116673   3.893   0.620   7.872  1.4711  0.1665 -0.8177
 1738SOL    HW216674   3.936   0.714   7.981  0.8024  0.0310 -0.5040
 1739SOL     OW16675   1.482   4.577  10.967 -0.4756 -0.2994  0.2726
 1739SOL    HW116676   1.524   4.530  11.040  0.3395  0.6214  0.3948
 1739SOL    HW216677   1.445   4.653  11.013  2.2083  1.2257 -0.0696
 1740SOL     OW16678   4.057   2.514  13.164 -0.6947 -0.0373  0.0340
 1740SOL    HW116679   4.050   2.545  13.074 -2.8447 -3.1112 -0.8529
 1740SOL    HW216680   3.973   2.467  13.168 -1.6291  1.5330 -0.8260
 1741SOL     OW16681   0.169   3.933  13.407 -0.5290 -0.3429  0.5575
 1741SOL    HW116682   0.220   4.004  13.368  1.0477 -0.0688  3.1753
 1741SOL    HW216683   0.217   3.864  13.360  0.4911 -0.1444  1.3108
 1742SOL     OW16684   0.687   0.461  16.017  0.3592 -0.4809 -0.3536
 1742SOL    HW116685   0.636   0.441  15.939 -0.1399 -0.8551  0.0626
 1742SOL    HW216686   0.656   0.389  16.073 -1.5610 -0.8884 -1.9145
 1743SOL     OW16687   0.629   0.236  11.248  0.8019 -0.0353  0.0619
 1743SOL    HW116688   0.654   0.236  11.156 -0.5285 -0.5019 -0.3038
 1743SOL    HW216689   0.689   0.164  11.269  0.7326  0.3221  1.5378
 1744SOL     OW16690   4.606   1.090   8.676  1.0291 -0.0062  0.6603
 1744SOL    HW116691   4.663   1.156   8.638  1.4613 -0.8795 -0.1944
 1744SOL    HW216692   4.663   1.042   8.736  3.1548  2.1190  0.3264
 1745SOL     OW16693   2.104   0.729   2.196  0.1250  0.1131 -0.2756
 1745SOL    HW116694   2.139   0.644   2.220 -0.8505 -0.9187 -2.5597
 1745SOL    HW216695   2.175   0.765   2.142 -0.8986 -0.5907 -2.0734
 1746SOL     OW16696   2.622   3.919   8.049 -0.4028  0.3483  0.2670
 1746SOL    HW116697   2.618   3.882   8.137  2.4687 -0.5904 -0.0011
 1746SOL    HW216698   2.591   4.007   8.072  0.8913  0.6472  0.8854
 1747SOL     OW16699   0.190   3.898   8.660  0.1282 -0.0073 -0.3311
 1747SOL    HW116700   0.227   3.979   8.625 -1.3222  0.2545 -1.2142
 1747SOL    HW216701   0.256   3.828   8.655 -2.0954 -2.3090  2.9791
 1748SOL     OW16702   1.368   4.393   4.454  0.0973  0.1487 -0.7476
 1748SOL    HW116703   1.430   4.466   4.460  1.9401 -1.7073  3.1787
 1748SOL    HW216704   1.336   4.399   4.545  1.7051  1.1525 -0.2544
 1749SOL     OW16705   3.232   0.596   4.779  0.2541 -0.1752 -0.0181
 1749SOL    HW116706   3.210   0.632   4.693 -0.9599  1.0846  0.8039
 1749SOL    HW216707   3.300   0.532   4.757  2.5892  1.9303  1.1328
 1750SOL     OW16708   4.493   0.067   8.711 -0.3779  0.6225 -0.2768
 1750SOL    HW116709   4.588   0.072   8.702 -0.2623  0.2689  0.7239
 1750SOL    HW216710   4.487   0.097   8.802  1.1253  1.9844 -0.6330
 1751SOL     OW16711   2.240   0.682  13.409 -0.1141 -0.3286  0.1596
 1751SOL    HW116712   2.312   0.743  13.400 -0.9996  0.6585 -0.2771
 1751SOL    HW216713   2.181   0.725  13.472  0.0340  1.5164 -0.9704
 1752SOL     OW16714   3.989   2.243   1.502  0.5935  0.6242 -0.0566
 1752SOL    HW116715   3.917   2.191   1.466  1.3706  0.6243 -1.6355
 1752SOL    HW216716   3.947   2.264   1.585  0.3759  1.0121 -0.2626
 1753SOL     OW16717   3.774   0.643  17.069  0.2681  0.7567 -0.5148
 1753SOL    HW116718   3.852   0.652  17.014  0.2103  2.2132 -0.3742
 1753SOL    HW216719   3.703   0.652  17.006  0.7474 -0.5006 -1.2188
 1754SOL     OW16720   0.823   4.340   3.340 -0.1102 -0.5755 -0.5085
 1754SOL    HW116721   0.809   4.328   3.246  0.8891  0.1072 -0.7495
 1754SOL    HW216722   0.918   4.327   3.338 -0.3888 -2.2070 -2.7591
 1755SOL     OW16723   2.312   1.164   9.525 -0.5968  0.0434  0.3623
 1755SOL    HW116724   2.286   1.159   9.433 -1.7952  0.6620  0.6750
 1755SOL    HW216725   2.390   1.110   9.536  0.0475  1.0757  0.9090
 1756SOL     OW16726   2.351   4.055   6.587 -0.1487  0.2378  0.5163
 1756SOL    HW116727   2.330   3.984   6.527  0.1115 -1.6580  2.6817
 1756SOL    HW216728   2.279   4.057   6.650 -1.6371  0.4897 -1.1852
 1757SOL     OW16729   0.313   4.135  11.110  0.3079 -0.3020  0.2537
 1757SOL    HW116730   0.246   4.202  11.124  3.4410  2.9433 -0.1393
 1757SOL    HW216731   0.394   4.185  11.093  0.5796 -0.7184  0.3195
 1758SOL     OW16732   4.591   3.142  12.541 -0.7064  0.0440 -0.1179
 1758SOL    HW116733   4.525   3.113  12.604  0.8762  1.3280  2.1436
 1758SOL    HW216734   4.546   3.133  12.457  1.5514  0.7913 -1.4254
 1759SOL     OW16735   0.875   0.557   4.360 -0.7748 -0.2505 -0.7254
 1759SOL    HW116736   0.859   0.476   4.311 -1.9541 -0.4946  0.0580
 1759SOL    HW216737   0.873   0.621   4.289 -3.8794 -0.5121 -0.8686
 1760SOL     OW16738   3.613   3.950   0.617  0.3245 -0.4083  0.5490
 1760SOL    HW116739   3.673   4.005   0.568 -1.5630  0.3619 -0.9130
 1760SOL    HW216740   3.524   3.969   0.586  0.6241  0.8472  0.4800
 1761SOL     OW16741   2.513   1.202   0.917  0.1323  0.2090  0.4908
 1761SOL    HW116742   2.568   1.131   0.885 -0.3372 -0.5339  1.3426
 1761SOL    HW216743   2.483   1.167   1.001 -0.3328 -1.3253 -0.3163
 1762SOL     OW16744   0.977   1.527   6.118 -0.1891  0.1752  0.3851
 1762SOL    HW116745   1.036   1.452   6.114  2.4091  2.2354  0.5209
 1762SOL    HW216746   1.034   1.603   6.129  0.2084  0.3441 -2.8624
 1763SOL     OW16747   1.374   0.259   6.458 -0.4179  0.2817 -0.3083
 1763SOL    HW116748   1.378   0.164   6.456 -0.3338  0.2762  0.2272
 1763SOL    HW216749   1.429   0.286   6.384 -1.0812  3.5282  0.3623
 1764SOL     OW16750   0.549   2.915  10.257  0.2279  0.0267 -0.3927
 1764SOL    HW116751   0.576   2.857  10.186  0.5284  2.7146 -2.4846
 1764SOL    HW216752   0.608   2.894  10.329 -1.8646 -1.8611  0.7617
 1765SOL     OW16753   0.525   0.114   4.911 -0.5798  0.2852  0.4635
 1765SOL    HW116754   0.545   0.128   5.003  2.0199 -0.0541 -0.0557
 1765SOL    HW216755   0.516   0.020   4.898 -0.9334  0.3803 -0.0282
 1766SOL     OW16756   4.505   1.469  16.653 -0.2644  0.3549 -0.3079
 1766SOL    HW116757   4.424   1.436  16.614  0.2442 -0.2009 -0.8969
 1766SOL    HW216758   4.567   1.419  16.599  1.7050  1.8560  0.5328
 1767SOL     OW16759   0.752   4.183  11.791 -0.1381 -0.1662  0.2728
 1767SOL    HW116760   0.701   4.120  11.739 -2.2414  0.7892  1.1654
 1767SOL    HW216761   0.793   4.245  11.731 -0.7667  0.3266  0.3476
 1768SOL     OW16762   4.387   2.751   8.740  0.0621  0.3433  0.0283
 1768SOL    HW116763   4.355   2.828   8.786 -0.0351 -0.4045  1.2180
 1768SOL    HW216764   4.465   2.744   8.796  0.1713 -0.9940 -0.2904
 1769SOL     OW16765   2.293   3.972   0.336  0.1740  0.5167 -1.0283
 1769SOL    HW116766   2.320   3.938   0.251  2.1436 -0.2184 -0.0937
 1769SOL    HW216767   2.212   3.920   0.343  0.5569 -0.2411 -2.2560
 1770SOL     OW16768   1.991   3.844  14.730 -0.4868  0.4236 -0.2656
 1770SOL    HW116769   1.897   3.827  14.735 -0.8067  2.8285  1.6474
 1770SOL    HW216770   2.029   3.755  14.731 -0.3050  0.5036 -0.0370
 1771SOL     OW16771   2.422   3.409  12.137 -0.2448 -0.2207 -0.4079
 1771SOL    HW116772   2.369   3.371  12.207  0.3148  0.0243  0.1463
 1771SOL    HW216773   2.494   3.445  12.188 -0.7380  0.9326 -0.5310
 1772SOL     OW16774   1.127   3.774   9.534 -0.0361  0.0078 -0.1066
 1772SOL    HW116775   1.036   3.777   9.504 -0.7658 -0.5174  2.0522
 1772SOL    HW216776   1.160   3.852   9.490 -1.6746  1.0458  0.5147
 1773SOL     OW16777   3.473   0.096  11.990 -0.2577  0.0001  0.3008
 1773SOL    HW116778   3.411   0.054  12.050  1.6680 -1.9079  0.9265
 1773SOL    HW216779   3.446   0.187  12.005 -0.6921 -0.4741  2.3688
 1774SOL     OW16780   2.805   4.383   9.021  0.1572 -0.2047 -0.1847
 1774SOL    HW116781   2.862   4.377   9.097  0.6752 -0.4796 -0.5925
 1774SOL    HW216782   2.751   4.456   9.052 -0.3557 -0.4939 -0.3823
 1775SOL     OW16783   3.530   0.569   5.657  0.2908  0.3079  0.8156
 1775SOL    HW116784   3.576   0.507   5.714  0.4980  0.6340  1.0048
 1775SOL    HW216785   3.581   0.565   5.576  0.6517  0.5909  1.0316
 1776SOL     OW16786   3.724   0.759   9.851 -0.0855  0.0118 -0.0506
 1776SOL    HW116787   3.734   0.771   9.757  1.9147 -2.4849 -0.1436
 1776SOL    HW216788   3.724   0.665   9.866 -0.2856  0.0059 -0.0824
 1777SOL     OW16789   2.710   3.967   5.410 -0.7104 -0.2304  0.0426
 1777SOL    HW116790   2.783   3.993   5.353  0.2671 -1.4158  0.7599
 1777SOL    HW216791   2.737   4.007   5.492 -1.1364  0.8500 -0.3477
 1778SOL     OW16792   0.898   4.287  10.305 -0.2447  0.4988 -0.3604
 1778SOL    HW116793   0.902   4.383  10.298  3.3727  0.4723  1.4156
 1778SOL    HW216794   0.837   4.276  10.231  0.4489 -2.2517 -0.4995
 1779SOL     OW16795   2.725   1.897   6.682 -0.1555 -0.2189 -0.0307
 1779SOL    HW116796   2.638   1.931   6.663  0.4929  2.0498  0.9788
 1779SOL    HW216797   2.785   1.968   6.659  1.4091 -1.6105 -0.2539
 1780SOL     OW16798   1.422   3.847   3.928  0.4076  0.0966 -0.0044
 1780SOL    HW116799   1.377   3.898   3.995 -1.9208 -0.8094 -0.8641
 1780SOL    HW216800   1.405   3.898   3.848 -0.1868  0.0971  0.1216
 1781SOL     OW16801   3.271   1.033   5.873  0.0781  0.1759  0.1419
 1781SOL    HW116802   3.180   1.007   5.889 -0.3824  1.2349 -0.7659
 1781SOL    HW216803   3.282   1.089   5.950  0.6025 -0.5177  0.5778
 1782SOL     OW16804   1.355   0.918   5.591 -0.0651 -0.7451  0.5474
 1782SOL    HW116805   1.355   0.941   5.498  1.2397 -1.9824  0.2298
 1782SOL    HW216806   1.442   0.879   5.579 -0.1645 -0.4883 -1.0626
 1783SOL     OW16807   0.810   1.698   7.358  0.1745  0.3898  0.0919
 1783SOL    HW116808   0.831   1.634   7.425  0.8555  0.4392 -0.0734
 1783SOL    HW216809   0.715   1.691   7.369  0.2722  2.4130  2.2022
 1784SOL     OW16810   0.178   3.636  10.498  0.2764  0.0354 -0.1509
 1784SOL    HW116811   0.271   3.660  10.491 -0.0205  1.7236  1.6923
 1784SOL    HW216812   0.177   3.582  10.577 -0.4875 -0.8945 -0.7911
 1785SOL     OW16813   1.760   1.446   3.605 -0.6317 -0.5815  0.5991
 1785SOL    HW116814   1.715   1.531   3.604 -0.3339 -0.4246  1.0128
 1785SOL    HW216815   1.784   1.450   3.697  4.1917 -1.1698 -0.6228
 1786SOL     OW16816   4.252   3.614   8.575 -0.1427  0.6120 -0.1931
 1786SOL    HW116817   4.171   3.624   8.624 -0.5246  0.3890 -0.7784
 1786SOL    HW216818   4.311   3.565   8.633  0.7100  0.3388 -1.2812
 1787SOL     OW16819   1.237   2.707   4.254  0.0483 -0.4982 -0.1993
 1787SOL    HW116820   1.283   2.626   4.276 -1.3435 -0.9447  1.1193
 1787SOL    HW216821   1.187   2.682   4.177 -0.5424 -0.3408  0.1309
 1788SOL     OW16822   0.483   1.203   8.245 -0.7571 -0.0921 -0.1456
 1788SOL    HW116823   0.492   1.295   8.270  0.0777 -0.2339  0.0597
 1788SOL    HW216824   0.439   1.172   8.324 -1.4126  2.1057  0.3438
 1789SOL     OW16825   3.440   1.905   3.930  0.2030  0.0191  0.9091
 1789SOL    HW116826   3.419   1.925   4.022  0.1352  4.6903 -0.1534
 1789SOL    HW216827   3.536   1.905   3.933  0.2673  0.1279 -1.2248
 1790SOL     OW16828   2.603   0.978   6.411  0.3329  0.2048 -0.0179
 1790SOL    HW116829   2.512   0.956   6.431  0.0862  0.8939 -0.3865
 1790SOL    HW216830   2.643   0.973   6.498 -2.4755 -0.1172  1.2549
 1791SOL     OW16831   2.223   0.456   4.075 -0.0815  0.0880 -0.4642
 1791SOL    HW116832   2.303   0.425   4.118 -0.8421 -0.5113  0.5168
 1791SOL    HW216833   2.248   0.430   3.987  0.1770  0.3757 -0.4769
 1792SOL     OW16834   1.136   1.651   5.136  0.0850 -0.1309  0.6695
 1792SOL    HW116835   1.126   1.567   5.182 -0.8612 -0.4432 -0.1189
 1792SOL    HW216836   1.059   1.702   5.160 -0.7155 -0.7205 -0.6597
 1793SOL     OW16837   1.389   0.152   0.702  0.2541  0.8368 -0.1684
 1793SOL    HW116838   1.346   0.123   0.621 -2.8996 -1.4546  2.3279
 1793SOL    HW216839   1.393   0.068   0.748 -0.9442  1.2531  0.6840
 1794SOL     OW16840   1.303   3.453  11.564 -0.1772  0.3273  0.0822
 1794SOL    HW116841   1.388   3.414  11.545 -0.4694 -1.0157  1.4570
 1794SOL    HW216842   1.284   3.473  11.473 -0.2988  0.3393  0.1102
 1795SOL     OW16843   3.163   4.537   4.351 -0.1926 -0.5635 -0.0635
 1795SOL    HW116844   3.136   4.467   4.409  3.0441 -0.7701  1.2215
 1795SOL    HW216845   3.258   4.520   4.353 -0.6388 -2.5233  3.3334
 1796SOL     OW16846   0.006   2.765   3.543 -0.3523  0.2737  0.4083
 1796SOL    HW116847   4.701   2.685   3.502  0.7607 -0.0529  0.1945
 1796SOL    HW216848   4.657   2.819   3.568  0.4708  1.3648  0.5709
 1797SOL     OW16849   4.105   0.121   5.718 -0.0795  0.5053 -1.0213
 1797SOL    HW116850   4.093   0.101   5.625  2.0393 -0.9553 -0.9687
 1797SOL    HW216851   4.070   0.208   5.735  1.7930  1.3796 -1.6182
 1798SOL     OW16852   1.349   3.327   9.230  0.4600 -0.4240  0.6508
 1798SOL    HW116853   1.329   3.282   9.148  2.7652 -0.8456  0.3064
 1798SOL    HW216854   1.317   3.262   9.293 -2.4136  0.0189 -0.3436
 1799SOL     OW16855   1.889   1.028   8.030 -0.0034 -0.4712  0.2812
 1799SOL    HW116856   1.942   0.994   8.102  0.8749 -1.2399 -0.7293
 1799SOL    HW216857   1.835   1.094   8.074 -0.7492 -1.3363  0.6554
 1800SOL     OW16858   3.081   3.346   1.699 -0.1577 -0.0840 -0.1776
 1800SOL    HW116859   3.123   3.405   1.761 -1.6353 -0.3216  1.0416
 1800SOL    HW216860   2.994   3.382   1.682 -0.2191  0.1519  0.6163
 1801SOL     OW16861   1.710   4.541  14.823  0.2928 -0.4158  0.1506
 1801SOL    HW116862   1.698   4.446  14.812 -0.7254 -0.1579 -0.9267
 1801SOL    HW216863   1.665   4.554  14.906 -1.3222 -1.3186 -0.5797
 1802SOL     OW16864   0.080   4.323   5.781  0.2968 -0.1001  0.0198
 1802SOL    HW116865   0.164   4.314   5.825  0.7949 -0.4366 -1.0158
 1802SOL    HW216866   0.107   4.320   5.690  2.5649 -1.6779  0.7632
 1803SOL     OW16867   1.624   0.244   9.309 -0.1160 -0.4346 -0.1003
 1803SOL    HW116868   1.559   0.237   9.380 -0.8723  2.1429 -0.5348
 1803SOL    HW216869   1.581   0.180   9.252 -1.3670  1.2742 -1.0819
 1804SOL     OW16870   0.783   3.399   3.380  0.1557 -0.3155  0.5785
 1804SOL    HW116871   0.839   3.384   3.304 -0.9753 -0.0351 -0.3138
 1804SOL    HW216872   0.834   3.378   3.459  0.9761  1.2473  0.4600
 1805SOL     OW16873   2.360   1.264  13.431 -0.3221  0.4392 -0.7399
 1805SOL    HW116874   2.379   1.269  13.338 -2.8224  0.5516 -1.2185
 1805SOL    HW216875   2.435   1.220  13.473  0.1398  1.8824 -0.0648
 1806SOL     OW16876   0.200   0.773  11.538  0.3657 -0.5014  0.2892
 1806SOL    HW116877   0.211   0.758  11.445  1.4180  0.6400  0.2298
 1806SOL    HW216878   0.254   0.701  11.571  0.0791 -0.7270  0.2632
 1807SOL     OW16879   0.707   4.711   0.383 -0.4869 -0.4901 -0.1198
 1807SOL    HW116880   0.779   4.700   0.321 -0.7597  0.2190 -0.5503
 1807SOL    HW216881   0.699   4.619   0.411 -2.0158 -1.0998 -2.5140
 1808SOL     OW16882   0.435   3.677   2.086  0.1408  0.1097 -1.2321
 1808SOL    HW116883   0.487   3.715   2.015  1.1678  1.1117  0.0645
 1808SOL    HW216884   0.346   3.706   2.066 -0.7724 -0.6479  1.6766
 1809SOL     OW16885   4.312   0.227  14.866  0.0187 -0.0001  0.6126
 1809SOL    HW116886   4.277   0.152  14.913  1.4885 -0.1794  1.4201
 1809SOL    HW216887   4.386   0.253  14.922 -0.9527  1.4568  1.2237
 1810SOL     OW16888   1.960   0.675   6.479 -0.2640  0.2768 -0.4980
 1810SOL    HW116889   2.039   0.661   6.427  0.3576  2.4164 -0.1286
 1810SOL    HW216890   1.918   0.590   6.488 -0.4659  0.3835 -0.4289
 1811SOL     OW16891   0.250   3.707  13.280  0.2079  0.0532 -0.1959
 1811SOL    HW116892   0.261   3.613  13.292  0.2058  0.4981  3.1745
 1811SOL    HW216893   0.333   3.745  13.309 -0.3375  1.0170  0.1053
 1812SOL     OW16894   0.836   1.736   4.258 -0.1640 -0.3668  0.0136
 1812SOL    HW116895   0.873   1.701   4.177  2.0819  0.7184  0.5674
 1812SOL    HW216896   0.864   1.827   4.254 -1.3959  0.1192  2.0211
 1813SOL     OW16897   2.427   0.104   8.280  0.3430 -0.3618 -0.3925
 1813SOL    HW116898   2.439   0.054   8.199 -0.3131  1.4549 -1.6088
 1813SOL    HW216899   2.371   0.175   8.248  1.0415  0.7364  0.8246
 1814SOL     OW16900   0.417   4.514   2.725  0.2616 -0.4663 -0.0690
 1814SOL    HW116901   0.382   4.426   2.741  2.2164 -0.8466  2.1673
 1814SOL    HW216902   0.347   4.566   2.764  1.3121  1.0721 -0.2496
 1815SOL     OW16903   0.014   2.037   2.575 -0.0672 -0.1206 -0.0876
 1815SOL    HW116904   0.035   2.034   2.482  0.6223 -0.0085  0.0649
 1815SOL    HW216905   0.001   2.129   2.597 -3.9896 -0.3352 -1.6223
 1816SOL     OW16906   1.333   3.974   8.032  0.2549  0.3469  0.4617
 1816SOL    HW116907   1.265   3.915   7.998  1.0877 -1.8962  2.6664
 1816SOL    HW216908   1.387   3.910   8.078  1.4052  1.3327  0.4823
 1817SOL     OW16909   2.071   0.213   5.197  0.1996  0.3883  0.1148
 1817SOL    HW116910   2.058   0.215   5.102  1.3471 -0.3809 -0.0605
 1817SOL    HW216911   2.009   0.141   5.215  1.1080  0.0710  1.9474
 1818SOL     OW16912   3.325   4.718   8.770 -0.0624 -0.0931 -0.0960
 1818SOL    HW116913   3.265   4.644   8.766  1.5718 -1.4435  0.5571
 1818SOL    HW216914   3.376   4.704   8.690 -0.9859 -0.2537 -0.6633
 1819SOL     OW16915   4.035   3.500  14.982 -0.2153 -0.0101 -0.4402
 1819SOL    HW116916   4.099   3.557  15.024  0.5537 -1.1648 -0.0629
 1819SOL    HW216917   4.081   3.416  14.991 -2.2632 -0.9450  1.3481
 1820SOL     OW16918   4.320   2.166   7.403 -0.0233  0.3468  0.1927
 1820SOL    HW116919   4.387   2.119   7.452  0.3236  1.8785  1.2010
 1820SOL    HW216920   4.351   2.251   7.434 -0.4482 -0.6726  3.5040
 1821SOL     OW16921   4.214   1.547   5.362  0.0657 -0.3597  0.0496
 1821SOL    HW116922   4.186   1.496   5.286 -0.1799 -1.8067  1.0986
 1821SOL    HW216923   4.266   1.477   5.401 -0.9155 -1.1432 -0.0246
 1822SOL     OW16924   2.618   0.413   3.009 -0.0994 -0.2690 -0.9453
 1822SOL    HW116925   2.686   0.357   2.971 -0.0008 -0.7560 -0.0528
 1822SOL    HW216926   2.544   0.354   2.993  0.8801 -2.2547  1.8182
 1823SOL     OW16927   0.955   3.183  17.629 -0.7194 -0.4385  0.3671
 1823SOL    HW116928   1.008   3.115  17.670  1.9368  1.9971  0.9722
 1823SOL    HW216929   0.992   3.262  17.668  1.0074 -1.4135  0.7143
 1824SOL     OW16930   2.030   0.380  14.460 -0.1632 -0.0897  0.3722
 1824SOL    HW116931   1.989   0.439  14.397 -0.3878 -0.7626 -0.1004
 1824SOL    HW216932   1.993   0.415  14.541 -0.4745 -0.1206  0.2422
 1825SOL     OW16933   4.511   0.412   0.531 -0.2964 -0.0246  0.0565
 1825SOL    HW116934   4.561   0.486   0.499 -0.6247 -0.6713 -1.9482
 1825SOL    HW216935   4.569   0.336   0.526 -0.3760 -0.0897  0.1015
 1826SOL     OW16936   1.275   2.460  17.258 -0.0098 -0.0804  0.5204
 1826SOL    HW116937   1.328   2.540  17.260 -0.8582  0.4887 -0.2319
 1826SOL    HW216938   1.282   2.429  17.168  0.7537  1.3900  0.0761
 1827SOL     OW16939   2.326   2.922   3.651  0.3567  0.2503  0.2943
 1827SOL    HW116940   2.395   2.980   3.683  0.9459  0.3209 -1.1056
 1827SOL    HW216941   2.308   2.976   3.574 -1.1947  0.4198  0.7714
 1828SOL     OW16942   1.688   2.667   7.547 -0.1976 -0.3848 -0.0501
 1828SOL    HW116943   1.698   2.653   7.641  2.6665 -0.1615 -0.3341
 1828SOL    HW216944   1.667   2.759   7.528 -1.6635 -0.4636  1.2324
 1829SOL     OW16945   2.703   4.561   1.791  0.0099  0.2822 -0.2494
 1829SOL    HW116946   2.787   4.516   1.795  0.0057  0.0203 -3.2641
 1829SOL    HW216947   2.722   4.654   1.777 -2.0618  0.7217 -0.1829
 1830SOL     OW16948   0.216   2.050   7.920 -0.4376  0.3690 -0.3448
 1830SOL    HW116949   0.298   2.047   7.970 -0.5333 -2.5915 -0.3335
 1830SOL    HW216950   0.241   2.115   7.854  1.0577  2.1369  2.0031
 1831SOL     OW16951   2.735   1.655  15.468  0.1446 -0.2567 -0.3114
 1831SOL    HW116952   2.699   1.685  15.552 -0.4015  0.9316 -0.9628
 1831SOL    HW216953   2.727   1.735  15.416  2.2764  0.5065  0.5416
 1832SOL     OW16954   2.703   4.229  13.897  0.3217  0.2490  0.6778
 1832SOL    HW116955   2.708   4.179  13.978 -0.3526  0.6656  0.9775
 1832SOL    HW216956   2.774   4.181  13.855 -0.2847  0.0022 -0.0640
 1833SOL     OW16957   3.951   3.707  12.197 -0.0995 -0.5838 -0.0051
 1833SOL    HW116958   3.958   3.626  12.247 -3.0892 -0.6522  0.2836
 1833SOL    HW216959   3.864   3.692  12.162 -0.7923 -3.5693  2.9796
 1834SOL     OW16960   1.995   2.653  13.364  0.2543 -0.1376  0.0752
 1834SOL    HW116961   2.019   2.571  13.321 -1.3655  0.1442 -1.4161
 1834SOL    HW216962   1.910   2.668  13.322 -0.0446 -1.7528  0.1068
 1835SOL     OW16963   0.583   3.138   7.082 -0.1520  0.0775 -0.2769
 1835SOL    HW116964   0.539   3.055   7.101  2.6093 -1.1724  0.6346
 1835SOL    HW216965   0.655   3.111   7.024  1.5502  2.5521  0.6772
 1836SOL     OW16966   3.634   2.545   6.304  0.1922  0.1649 -0.1915
 1836SOL    HW116967   3.595   2.494   6.375 -2.0638  1.7126 -0.3416
 1836SOL    HW216968   3.694   2.484   6.261  0.4954  0.2515  0.1048
 1837SOL     OW16969   1.969   1.730  11.958 -0.6648  0.6132  0.1368
 1837SOL    HW116970   1.954   1.801  12.022 -1.7564  1.4231 -1.0298
 1837SOL    HW216971   1.927   1.775  11.885  0.4263 -1.0197 -1.5042
 1838SOL     OW16972   3.952   2.185   5.186 -0.0740  0.0039  0.0553
 1838SOL    HW116973   3.996   2.185   5.270  3.2172 -2.7594 -1.6600
 1838SOL    HW216974   3.867   2.143   5.200 -0.2011  0.2050 -0.1033
 1839SOL     OW16975   2.510   2.612   3.312 -0.1423  0.2877 -0.0745
 1839SOL    HW116976   2.520   2.522   3.280  0.3763 -0.0437  1.0258
 1839SOL    HW216977   2.507   2.586   3.404 -0.4258 -0.9283 -0.4201
 1840SOL     OW16978   0.627   0.512  14.454  0.3767  0.2889 -0.1227
 1840SOL    HW116979   0.652   0.440  14.397  0.4182  0.2576 -0.0654
 1840SOL    HW216980   0.642   0.587  14.396 -1.3880  0.5025 -0.2915
 1841SOL     OW16981   0.517   0.127  10.498  0.3955  0.1640 -0.0827
 1841SOL    HW116982   0.554   0.173  10.423 -0.0886  3.1892  1.5425
 1841SOL    HW216983   0.526   0.038  10.463  1.2565 -0.0105  0.5619
 1842SOL     OW16984   4.672   4.395   5.307 -0.7384  0.7190  0.0884
 1842SOL    HW116985   4.640   4.364   5.392  0.6931 -1.8377 -0.2770
 1842SOL    HW216986   4.717   4.476   5.329 -0.0240  0.3556 -0.0198
 1843SOL     OW16987   2.705   0.424   5.530 -0.2006  0.6159 -0.0138
 1843SOL    HW116988   2.733   0.350   5.584  1.8375 -0.2551 -2.2507
 1843SOL    HW216989   2.778   0.485   5.543 -0.2416  0.4733  0.8409
 1844SOL     OW16990   0.995   1.791  11.174 -0.2969  0.4324 -0.4286
 1844SOL    HW116991   1.049   1.856  11.129 -1.1990  1.4089 -0.1134
 1844SOL    HW216992   0.957   1.752  11.095 -0.1747 -0.2765 -0.1336
 1845SOL     OW16993   0.056   4.638  10.589  0.4161 -0.3606  0.6654
 1845SOL    HW116994   0.036   4.572  10.523  1.4146  0.8115 -0.8393
 1845SOL    HW216995   0.139   4.671  10.552  0.0165 -1.7167 -1.4693
 1846SOL     OW16996   0.021   3.389   3.450  0.3618 -0.2159 -0.0122
 1846SOL    HW116997   0.063   3.315   3.408 -0.2671 -1.7649  2.0688
 1846SOL    HW216998   4.699   3.429   3.377 -0.6160 -3.3899 -1.1060
 1847SOL     OW16999   3.314   2.922  10.513 -0.4714  0.1861  0.5444
 1847SOL    HW117000   3.336   2.874  10.593  1.8521  0.5730  0.1384
 1847SOL    HW217001   3.345   3.010  10.537 -1.3315  0.7459 -0.4019
 1848SOL     OW17002   3.926   2.658  17.630  0.1214 -0.6709 -0.4109
 1848SOL    HW117003   3.876   2.577  17.628 -0.2997 -0.4251  0.1139
 1848SOL    HW217004   3.866   2.732  17.634  2.1452  1.0450 -1.2700
 1849SOL     OW17005   1.833   1.888   7.771  0.3777  0.7274  0.1029
 1849SOL    HW117006   1.771   1.947   7.813  0.4997 -0.5854  2.1047
 1849SOL    HW217007   1.862   1.940   7.696  0.5909  0.4692  0.0050
 1850SOL     OW17008   1.781   4.476   5.655 -0.8882  0.3059 -0.1207
 1850SOL    HW117009   1.821   4.529   5.586  1.5709  0.1901  1.2101
 1850SOL    HW217010   1.735   4.541   5.709  0.8323 -0.8558  2.7225
 1851SOL     OW17011   3.204   4.252   5.485  0.4930 -0.9545 -0.2336
 1851SOL    HW117012   3.129   4.301   5.518 -0.2709 -0.1735 -3.1029
 1851SOL    HW217013   3.170   4.221   5.401 -1.5621 -0.0313  0.2578
 1852SOL     OW17014   2.850   2.838   0.584  0.1099 -0.1901 -0.3813
 1852SOL    HW117015   2.930   2.795   0.555  0.0080 -0.6975  0.0813
 1852SOL    HW217016   2.865   2.801   0.671  1.7579 -1.1225 -1.0560
 1853SOL     OW17017   4.441   3.046   7.083  0.2534 -0.1768  0.1382
 1853SOL    HW117018   4.427   3.033   7.177  2.1554 -2.2597  0.1298
 1853SOL    HW217019   4.521   2.995   7.073  0.8558  0.9137 -0.6561
 1854SOL     OW17020   3.563   4.288  17.370  0.0765  0.1025 -0.6958
 1854SOL    HW117021   3.526   4.358  17.317 -2.6946 -3.2332 -3.1836
 1854SOL    HW217022   3.653   4.320  17.378  0.8269 -2.0884 -0.3706
 1855SOL     OW17023   2.431   4.270   4.720 -0.5030  0.1711 -0.1882
 1855SOL    HW117024   2.408   4.344   4.777  0.8723  1.4118 -1.2399
 1855SOL    HW217025   2.410   4.312   4.636 -0.2120  0.0252 -0.3335
 1856SOL     OW17026   2.934   3.828   4.721  0.1894 -0.4399 -0.3786
 1856SOL    HW117027   2.934   3.914   4.761 -2.2410 -0.2174 -0.8826
 1856SOL    HW217028   2.847   3.821   4.683  0.2922  0.5475 -0.7882
 1857SOL     OW17029   4.463   0.875   3.703 -0.2756  0.4190 -0.4436
 1857SOL    HW117030   4.537   0.845   3.756  0.3871  1.0482 -1.0217
 1857SOL    HW217031   4.482   0.968   3.697 -0.8705  0.7000  1.8093
 1858SOL     OW17032   1.591   3.931   4.176  0.0933  0.3360  0.0295
 1858SOL    HW117033   1.500   3.904   4.162 -0.2977  0.2414  2.6442
 1858SOL    HW217034   1.588   4.019   4.213  0.0536  1.0623 -1.7239
 1859SOL     OW17035   4.720   3.061  13.518 -0.7553 -0.1725 -0.8385
 1859SOL    HW117036   0.007   3.118  13.594  0.8009 -0.4520 -0.8853
 1859SOL    HW217037   0.076   3.066  13.468  0.2454  0.7228  0.8748
 1860SOL     OW17038   3.335   3.647  17.063  0.9774 -0.4664  0.2704
 1860SOL    HW117039   3.292   3.691  17.136 -1.8106 -0.6173 -1.2740
 1860SOL    HW217040   3.307   3.708  16.995 -1.0828  0.5139  1.9931
 1861SOL     OW17041   0.656   2.106   4.955  0.1108  0.2588  0.6603
 1861SOL    HW117042   0.658   2.011   4.972  2.8012 -0.0698 -1.5693
 1861SOL    HW217043   0.683   2.147   5.037  1.3035  0.4330  0.1689
 1862SOL     OW17044   0.331   2.830   8.051  0.7760 -0.2426 -0.5347
 1862SOL    HW117045   0.422   2.800   8.051  1.4677  1.9156  2.3327
 1862SOL    HW217046   0.350   2.921   8.072  4.5141 -0.9327 -0.8552
 1863SOL     OW17047   1.823   4.530   6.256  0.6390 -0.1411  0.2195
 1863SOL    HW117048   1.912   4.527   6.292  1.3083  2.0695 -1.1947
 1863SOL    HW217049   1.768   4.505   6.330  0.1956  2.8173  0.8801
 1864SOL     OW17050   4.580   1.537  16.313  0.5670 -0.4016  0.1081
 1864SOL    HW117051   4.518   1.500  16.250 -0.0042 -0.6748  0.8374
 1864SOL    HW217052   4.606   1.457  16.358 -1.2210 -0.7354  0.5652
 1865SOL     OW17053   1.332   1.131   6.407 -0.0345 -0.4870  0.1625
 1865SOL    HW117054   1.409   1.164   6.451 -1.2458  1.3235  0.9071
 1865SOL    HW217055   1.338   1.188   6.330  2.1117 -1.3989 -0.3495
 1866SOL     OW17056   4.242   0.498   8.251 -0.3155 -0.1444  0.5930
 1866SOL    HW117057   4.189   0.510   8.173 -1.4577  0.0794  1.4019
 1866SOL    HW217058   4.272   0.409   8.233  1.8679  0.5923  0.6078
 1867SOL     OW17059   3.431   3.466   1.833  0.0579  0.5476 -0.6674
 1867SOL    HW117060   3.412   3.376   1.804  1.4920 -0.1053  0.4264
 1867SOL    HW217061   3.340   3.496   1.838 -0.4974 -1.0431 -0.9015
 1868SOL     OW17062   4.575   4.275   7.278 -0.1598 -0.8769  0.3042
 1868SOL    HW117063   4.573   4.218   7.201  0.9764  0.9092 -1.0469
 1868SOL    HW217064   4.604   4.358   7.240 -1.6938 -0.3543  0.2524
 1869SOL     OW17065   3.648   2.993   2.363  0.3998  0.0441 -0.4422
 1869SOL    HW117066   3.732   2.948   2.366  1.4406  2.0908  1.4435
 1869SOL    HW217067   3.617   2.973   2.451 -1.0782 -1.5726 -1.3239
 1870SOL     OW17068   3.863   2.164   7.475 -0.1338  0.6127  0.3963
 1870SOL    HW117069   3.871   2.084   7.527  1.0556  1.6753  1.8655
 1870SOL    HW217070   3.942   2.150   7.423  0.7031  1.9348  1.3074
 1871SOL     OW17071   4.393   0.661   5.014 -0.3486 -0.2990  0.0414
 1871SOL    HW117072   4.315   0.684   5.064  0.8347 -0.1998  1.8417
 1871SOL    HW217073   4.356   0.693   4.932 -0.2021  1.8269  0.8112
 1872SOL     OW17074   0.367   4.191   4.035 -0.2986  0.2531  0.1399
 1872SOL    HW117075   0.439   4.251   4.015  0.2230 -0.2700  0.4395
 1872SOL    HW217076   0.389   4.112   3.984  1.3041  0.3432  0.6948
 1873SOL     OW17077   3.349   3.683  12.780 -0.3366 -0.1259  0.3304
 1873SOL    HW117078   3.316   3.656  12.866  1.7222  0.5842  1.3458
 1873SOL    HW217079   3.424   3.625  12.778 -0.3275 -0.0716 -0.8637
 1874SOL     OW17080   0.775   0.999   4.095  0.0232  0.3668 -0.0196
 1874SOL    HW117081   0.701   0.967   4.044 -1.3116 -0.1125  2.1858
 1874SOL    HW217082   0.844   1.003   4.029  1.1540  0.3555  1.1636
 1875SOL     OW17083   0.412   1.108  11.221  0.4855 -0.6635  0.1586
 1875SOL    HW117084   0.438   1.016  11.218  0.7232 -0.5889 -0.1036
 1875SOL    HW217085   0.499   1.149  11.228  0.5656 -0.6585 -0.8302
 1876SOL     OW17086   0.677   0.818   5.309 -0.1008 -0.4101  0.3541
 1876SOL    HW117087   0.757   0.775   5.278  0.4986  0.1624  1.0980
 1876SOL    HW217088   0.725   0.895   5.339  0.4445 -0.7073  0.2436
 1877SOL     OW17089   1.421   1.853  14.563  0.2078  0.1248 -0.1394
 1877SOL    HW117090   1.423   1.762  14.534 -0.7682 -0.3927  1.4325
 1877SOL    HW217091   1.469   1.888  14.488 -1.1921 -0.2406 -1.2070
 1878SOL     OW17092   2.811   1.274   7.641  0.1299 -0.2347 -0.3585
 1878SOL    HW117093   2.848   1.186   7.636 -2.3079 -1.4310  3.0503
 1878SOL    HW217094   2.853   1.303   7.722  2.1952  0.5194 -1.7036
 1879SOL     OW17095   1.184   0.371   4.947 -0.3257  0.9328 -0.0671
 1879SOL    HW117096   1.268   0.325   4.947  0.0995  1.6999 -0.8228
 1879SOL    HW217097   1.147   0.319   4.875 -1.8105  1.6742  0.1591
 1880SOL     OW17098   0.958   4.363  17.639  0.0029  0.5963 -0.1903
 1880SOL    HW117099   0.863   4.368  17.655  0.2942  0.3981  1.6517
 1880SOL    HW217100   0.986   4.271  17.637  1.4208  1.0539 -0.9139
 1881SOL     OW17101   3.012   4.648   2.599 -0.3992  0.8037  0.0401
 1881SOL    HW117102   2.999   0.014   2.621 -0.0767  0.3404  2.2020
 1881SOL    HW217103   3.011   4.596   2.680  2.9949  3.0400  1.4946
 1882SOL     OW17104   0.811   1.039   0.294  0.0917 -0.1058 -0.0773
 1882SOL    HW117105   0.743   1.083   0.346  0.5040 -2.2557  2.2954
 1882SOL    HW217106   0.854   1.111   0.248 -1.3106 -0.0118 -1.2213
 1883SOL     OW17107   0.235   1.044   3.530 -0.8170  0.3650 -0.0446
 1883SOL    HW117108   0.310   1.090   3.567 -0.6419  1.5720 -1.8678
 1883SOL    HW217109   0.191   1.020   3.611 -1.5133  1.4027 -0.1156
 1884SOL     OW17110   4.036   3.443   2.808 -0.7342 -0.3270 -0.3229
 1884SOL    HW117111   4.090   3.421   2.731  2.7873 -1.3650  2.4303
 1884SOL    HW217112   4.025   3.355   2.843 -2.2012 -1.2293 -3.0811
 1885SOL     OW17113   1.653   0.874   7.567 -0.4668  0.2373  0.4890
 1885SOL    HW117114   1.575   0.922   7.594  0.3122  1.1304  1.1461
 1885SOL    HW217115   1.691   0.860   7.654  0.1291  1.1691  0.3781
 1886SOL     OW17116   0.082   4.603   1.781 -0.2572  0.9398 -0.2612
 1886SOL    HW117117   0.115   4.660   1.850  0.0336 -0.5770  0.8456
 1886SOL    HW217118   0.125   4.520   1.801 -0.5798  1.2628  1.7348
 1887SOL     OW17119   3.426   0.004   5.886 -0.1969  0.0953  0.1457
 1887SOL    HW117120   3.430   4.670   5.961  1.0486 -0.9455 -0.7563
 1887SOL    HW217121   3.340   4.707   5.853 -0.1237 -0.8339  0.5836
 1888SOL     OW17122   3.683   1.336   5.337 -0.1802 -0.0575  0.0271
 1888SOL    HW117123   3.679   1.274   5.264  0.1068 -1.2813  1.0528
 1888SOL    HW217124   3.671   1.272   5.408 -3.5733  1.3031  0.6847
 1889SOL     OW17125   1.144   1.119   4.382  0.3479 -0.5168  0.7773
 1889SOL    HW117126   1.110   1.037   4.419 -0.2965 -0.1306  1.0299
 1889SOL    HW217127   1.143   1.172   4.461  1.8334 -1.2775  1.2990
 1890SOL     OW17128   3.239   0.967   8.919 -0.6858 -0.6074 -0.6577
 1890SOL    HW117129   3.186   0.917   8.982 -0.3342  0.0963  0.2016
 1890SOL    HW217130   3.325   0.953   8.958 -0.4825  0.9900 -0.5312
 1891SOL     OW17131   4.140   3.387   3.893 -0.5087  0.3677  0.7637
 1891SOL    HW117132   4.064   3.424   3.849 -0.6811 -1.0306 -0.0968
 1891SOL    HW217133   4.125   3.417   3.983  0.9883 -1.5161  1.6412
 1892SOL     OW17134   0.677   3.053   2.571  0.4465 -0.5515 -0.5532
 1892SOL    HW117135   0.680   3.109   2.493 -1.0022 -0.2933 -0.4344
 1892SOL    HW217136   0.759   3.007   2.559 -0.5430 -2.2824 -0.6225
 1893SOL     OW17137   3.511   3.231  12.141  0.1592  0.0813  0.4466
 1893SOL    HW117138   3.606   3.234  12.156  0.3343  1.3869 -0.8847
 1893SOL    HW217139   3.483   3.277  12.220 -0.5661  0.2381  0.0939
 1894SOL     OW17140   2.321   4.073   8.132  0.3615  0.4316  0.0940
 1894SOL    HW117141   2.399   4.111   8.091 -0.3921  1.2735 -0.5790
 1894SOL    HW217142   2.270   4.154   8.140 -1.5276 -0.5955 -1.4819
 1895SOL     OW17143   3.399   1.279  15.583 -0.6165 -0.5819 -0.6411
 1895SOL    HW117144   3.493   1.292  15.588 -0.3686 -2.6886  0.4590
 1895SOL    HW217145   3.384   1.289  15.489 -1.1809 -1.6483 -0.6764
 1896SOL     OW17146   1.532   4.715   3.117 -0.2780 -0.4537  0.0774
 1896SOL    HW117147   1.454   4.668   3.088 -1.1730  1.5595 -0.8028
 1896SOL    HW217148   1.571   4.645   3.169  1.6598 -1.0666 -2.1977
 1897SOL     OW17149   2.092   1.738   2.308 -0.0233 -0.5329  0.8432
 1897SOL    HW117150   2.114   1.827   2.279 -1.5959 -0.6930 -0.8091
 1897SOL    HW217151   2.101   1.693   2.224  0.2227 -0.6684  0.9402
 1898SOL     OW17152   1.003   1.625   4.843 -0.0255 -0.0859  0.6328
 1898SOL    HW117153   0.991   1.677   4.923 -0.0364  0.7470  0.0918
 1898SOL    HW217154   1.026   1.538   4.874  0.1271 -0.1578  0.3132
 1899SOL     OW17155   2.416   2.652  14.528 -0.3481  0.0462 -0.0591
 1899SOL    HW117156   2.379   2.736  14.556 -0.2194  0.2594 -0.5370
 1899SOL    HW217157   2.508   2.677  14.524 -0.3207  0.0475  0.5624
 1900SOL     OW17158   1.043   4.526   8.660 -0.6957  0.3396 -0.8681
 1900SOL    HW117159   1.085   4.491   8.582  0.4585  0.3683 -0.2520
 1900SOL    HW217160   1.114   4.546   8.720  0.6998  0.6838 -2.6464
 1901SOL     OW17161   3.100   1.308   4.574 -0.5268 -0.2333  0.0202
 1901SOL    HW117162   3.078   1.285   4.484  2.3518  0.9240 -1.0063
 1901SOL    HW217163   3.195   1.317   4.560 -0.0111 -1.6930  2.6634
 1902SOL     OW17164   3.084   3.989   8.223 -0.1247  0.2074 -0.0854
 1902SOL    HW117165   3.113   4.040   8.147 -0.7706  1.9681  0.8546
 1902SOL    HW217166   3.040   3.919   8.176  0.8686  0.6352 -1.6868
 1903SOL     OW17167   0.501   3.427   8.620 -0.6654  0.5881 -0.0108
 1903SOL    HW117168   0.579   3.398   8.668 -0.6177 -1.7325 -1.4837
 1903SOL    HW217169   0.442   3.351   8.617 -1.0849  0.8511  1.6951
 1904SOL     OW17170   3.412   2.320   6.769  0.2029 -0.3199 -0.1809
 1904SOL    HW117171   3.403   2.407   6.809 -0.8380  0.5820 -2.4030
 1904SOL    HW217172   3.471   2.274   6.829 -0.2015 -0.0027  0.4668
 1905SOL     OW17173   2.834   1.357   9.553 -0.0907 -0.4007  0.2476
 1905SOL    HW117174   2.752   1.347   9.504 -0.5194  1.3667  0.6016
 1905SOL    HW217175   2.806   1.297   9.622  0.1559 -3.0310 -1.9305
 1906SOL     OW17176   0.124   0.318   5.591  0.3350  0.4647 -0.0342
 1906SOL    HW117177   0.078   0.396   5.623  1.2260  0.2107  1.8489
 1906SOL    HW217178   0.148   0.343   5.501 -1.7410  0.6979 -0.5179
 1907SOL     OW17179   3.706   0.420  17.188 -0.7826 -0.3018 -0.5617
 1907SOL    HW117180   3.686   0.455  17.275  0.4922  4.0217 -1.9862
 1907SOL    HW217181   3.752   0.493  17.147  0.5909 -1.0906 -0.3920
 1908SOL     OW17182   1.653   3.187   6.248  0.0553 -0.7765  0.2612
 1908SOL    HW117183   1.591   3.164   6.178  0.9319 -0.4446 -0.6206
 1908SOL    HW217184   1.741   3.168   6.215  0.0189  1.6534 -1.2545
 1909SOL     OW17185   0.627   4.660   6.196  0.2774 -0.0442 -0.0233
 1909SOL    HW117186   0.584   0.008   6.240 -1.1131  0.0811 -1.6123
 1909SOL    HW217187   0.561   4.652   6.127 -0.8708 -0.8058  1.1491
 1910SOL     OW17188   0.517   1.863   5.546  0.1907  0.4474 -0.3181
 1910SOL    HW117189   0.516   1.928   5.616  0.2966  1.1279 -0.9540
 1910SOL    HW217190   0.609   1.840   5.535  0.0376 -0.8150  0.9382
 1911SOL     OW17191   4.233   0.201  16.773  0.6363 -0.0551  0.0559
 1911SOL    HW117192   4.274   0.282  16.802 -1.0366  1.7148 -2.4507
 1911SOL    HW217193   4.252   0.141  16.845 -2.3142 -1.2053 -0.1372
 1912SOL     OW17194   2.304   3.194  13.457 -0.2090 -0.1511  0.3448
 1912SOL    HW117195   2.283   3.268  13.515  0.7158  1.7811 -1.7548
 1912SOL    HW217196   2.244   3.212  13.385  0.8968 -5.0375 -1.7437
 1913SOL     OW17197   3.738   0.495   9.880 -0.1665  0.0126  0.5133
 1913SOL    HW117198   3.747   0.479   9.974  0.2732 -2.0411  0.1213
 1913SOL    HW217199   3.796   0.431   9.839  0.3129  0.4195  0.5557
 1914SOL     OW17200   2.425   3.050   5.097 -0.3693  0.2710 -0.1058
 1914SOL    HW117201   2.497   3.113   5.092 -1.2820  1.1101 -2.4977
 1914SOL    HW217202   2.352   3.107   5.119 -1.5859 -2.1693  2.1460
 1915SOL     OW17203   0.054   4.410   2.106 -0.5175  0.2042 -0.2829
 1915SOL    HW117204   4.721   4.484   2.095  1.2679  1.3297 -2.3040
 1915SOL    HW217205   0.050   4.379   2.015  0.6882 -1.1293  0.1174
 1916SOL     OW17206   4.153   4.590   7.026 -0.0298  0.5404  0.4326
 1916SOL    HW117207   4.236   4.608   6.982  0.0693 -0.9296  0.0404
 1916SOL    HW217208   4.099   4.551   6.957  3.9757 -1.0696 -1.7552
 1917SOL     OW17209   1.326   0.744   0.389  0.2660 -0.0445 -0.0194
 1917SOL    HW117210   1.409   0.697   0.380  0.8656  0.7014  1.6162
 1917SOL    HW217211   1.276   0.686   0.447 -0.7423  1.6766  0.8344
 1918SOL     OW17212   1.391   1.450   2.844 -0.2996  0.4893  0.6628
 1918SOL    HW117213   1.357   1.377   2.792 -0.4932  0.4684  0.8197
 1918SOL    HW217214   1.484   1.459   2.824 -0.7294  0.6911 -1.2796
 1919SOL     OW17215   4.263   1.865   3.167 -0.3482  0.2166 -0.3387
 1919SOL    HW117216   4.201   1.897   3.102 -1.6440  0.1915  0.8836
 1919SOL    HW217217   4.286   1.935   3.228 -0.8575  0.5184 -0.4953
 1920SOL     OW17218   4.650   3.697   6.057 -0.0085  0.0345  0.8683
 1920SOL    HW117219   4.640   3.789   6.080 -0.7491  0.5470 -1.4669
 1920SOL    HW217220   4.660   3.669   6.148  0.8956 -2.2426  0.0532
 1921SOL     OW17221   1.292   2.603  14.685  0.4520 -0.0342 -0.2996
 1921SOL    HW117222   1.289   2.681  14.629  2.7821  1.3942  1.5547
 1921SOL    HW217223   1.288   2.630  14.777  0.8675 -2.5000  0.4437
 1922SOL     OW17224   4.587   3.045   2.100  0.5584 -0.4204 -0.0633
 1922SOL    HW117225   4.495   3.072   2.092  0.7421  0.0245 -0.6446
 1922SOL    HW217226   4.611   2.994   2.023  1.3067 -0.2083  0.0283
 1923SOL     OW17227   2.326   3.297  14.243  0.8464 -0.6694  0.1975
 1923SOL    HW117228   2.292   3.208  14.253  0.0957 -0.4691 -0.5684
 1923SOL    HW217229   2.315   3.312  14.149 -0.5929  0.0160  0.4821
 1924SOL     OW17230   1.442   2.637   9.688 -0.1269  0.1142 -0.0135
 1924SOL    HW117231   1.351   2.616   9.669  0.1012 -2.2935  1.5446
 1924SOL    HW217232   1.432   2.650   9.783  0.3796  0.7059 -0.0408
 1925SOL     OW17233   3.576   0.333   7.703 -0.0431 -0.1491  0.2356
 1925SOL    HW117234   3.489   0.341   7.741  0.3370  1.7215  0.7124
 1925SOL    HW217235   3.558   0.294   7.617 -3.0445  0.5507  0.5438
 1926SOL     OW17236   2.858   1.820   0.803 -0.3216 -0.7677 -0.7313
 1926SOL    HW117237   2.804   1.886   0.759 -0.0139  0.5141  0.8300
 1926SOL    HW217238   2.864   1.859   0.891 -0.1789  1.0680 -1.5568
 1927SOL     OW17239   3.806   2.917   8.311 -0.1476 -0.7836  0.3799
 1927SOL    HW117240   3.847   2.945   8.392 -2.2303 -0.0474  1.1829
 1927SOL    HW217241   3.888   2.896   8.266 -1.5095 -0.6873 -2.1494
 1928SOL     OW17242   3.563   2.239   0.212 -0.5414  0.6487 -0.4714
 1928SOL    HW117243   3.573   2.284   0.128  1.9557 -1.3866 -1.2558
 1928SOL    HW217244   3.651   2.237   0.251 -0.6394 -0.4885 -0.3115
 1929SOL     OW17245   3.412   4.511   6.065  0.0700  0.1250 -0.5246
 1929SOL    HW117246   3.431   4.444   6.000 -1.4383 -1.5264  0.7425
 1929SOL    HW217247   3.354   4.466   6.126 -0.4075 -0.0077 -1.0801
 1930SOL     OW17248   1.645   4.174   0.872 -0.2177  0.2188  0.6532
 1930SOL    HW117249   1.717   4.158   0.933  2.5786 -0.5516 -2.8552
 1930SOL    HW217250   1.609   4.085   0.879  2.0221 -0.7151  0.4288
 1931SOL     OW17251   1.036   0.231   4.787  0.4718  0.9646  0.2775
 1931SOL    HW117252   0.969   0.249   4.854 -1.0056 -0.1390 -0.8873
 1931SOL    HW217253   1.007   0.294   4.721 -2.7133 -1.0436 -0.2324
 1932SOL     OW17254   0.708   0.828   2.553  0.4878  0.2530 -0.2602
 1932SOL    HW117255   0.618   0.798   2.543  0.5199  0.1790 -0.3248
 1932SOL    HW217256   0.708   0.877   2.635  1.8156 -4.2668  2.4095
 1933SOL     OW17257   1.349   0.623   2.573 -0.1506  0.0118  0.2963
 1933SOL    HW117258   1.403   0.623   2.652  0.2444  0.8478  0.0228
 1933SOL    HW217259   1.397   0.564   2.515  1.6472  2.0714 -0.2717
 1934SOL     OW17260   2.894   1.138   7.352  0.3868 -0.1349 -0.1124
 1934SOL    HW117261   2.952   1.174   7.419  0.0872 -0.5041  0.3412
 1934SOL    HW217262   2.924   1.048   7.346  2.3357  0.6837 -2.9723
 1935SOL     OW17263   4.200   0.853  13.182  0.3538  0.1468 -0.3990
 1935SOL    HW117264   4.295   0.861  13.185  0.4367  0.3857 -3.6406
 1935SOL    HW217265   4.208   0.761  13.209 -1.0034  0.0150 -0.4695
 1936SOL     OW17266   1.527   2.265   7.368 -0.1924  0.0761 -0.7536
 1936SOL    HW117267   1.442   2.309   7.365 -0.1244  0.1404 -1.6272
 1936SOL    HW217268   1.587   2.335   7.341 -0.1388  0.5481  0.5907
 1937SOL     OW17269   3.126   2.168   1.694 -0.3291 -0.0273  0.5149
 1937SOL    HW117270   3.145   2.204   1.781 -0.4419 -0.1842  0.6040
 1937SOL    HW217271   3.098   2.082   1.726  0.3396 -0.6603 -0.6242
 1938SOL     OW17272   3.386   3.402  15.663 -0.0742  0.1674 -0.2031
 1938SOL    HW117273   3.311   3.344  15.681  0.0606  0.8077  2.3822
 1938SOL    HW217274   3.392   3.452  15.744 -0.9031  0.0510 -0.0656
 1939SOL     OW17275   3.082   3.004   8.377 -0.6154 -0.5564  0.4201
 1939SOL    HW117276   3.015   3.011   8.445  0.6930 -0.4625  1.7025
 1939SOL    HW217277   3.143   3.074   8.400  0.4228 -1.2270 -0.2576
 1940SOL     OW17278   4.561   1.878   3.693 -0.3338  0.1648 -0.0952
 1940SOL    HW117279   4.571   1.932   3.771  0.8053 -0.7703  0.3935
 1940SOL    HW217280   4.532   1.792   3.721  0.0328  0.3430  0.8206
 1941SOL     OW17281   3.760   2.846   4.222 -0.1862  0.1169 -0.0103
 1941SOL    HW117282   3.788   2.867   4.132  2.6423 -1.1334  0.5709
 1941SOL    HW217283   3.708   2.921   4.251 -1.7856 -0.1297 -2.2430
 1942SOL     OW17284   1.519   0.496   7.121  0.4233  0.1797 -0.2626
 1942SOL    HW117285   1.595   0.552   7.136  0.6682  0.1281 -1.3098
 1942SOL    HW217286   1.552   0.414   7.157  1.5367  0.0163 -1.6408
 1943SOL     OW17287   2.381   0.268   8.993  0.7758 -0.0780  0.4943
 1943SOL    HW117288   2.375   0.292   9.085 -0.8830 -1.7418  0.8316
 1943SOL    HW217289   2.468   0.302   8.974 -0.1207  1.6921 -0.5026
 1944SOL     OW17290   3.238   3.773   8.871 -0.8031  0.0849 -0.0739
 1944SOL    HW117291   3.233   3.770   8.967 -0.5747 -0.5537 -0.0794
 1944SOL    HW217292   3.177   3.705   8.843 -0.1093 -1.3188  1.8264
 1945SOL     OW17293   4.369   2.601   7.247  0.2545  0.7766 -0.1002
 1945SOL    HW117294   4.361   2.610   7.152  0.2883  0.5978 -0.1201
 1945SOL    HW217295   4.303   2.666   7.272  0.5261  0.8277  0.4954
 1946SOL     OW17296   2.141   0.843   5.332  0.0411 -0.0061 -0.1377
 1946SOL    HW117297   2.138   0.913   5.398  0.9997  0.2435 -0.3597
 1946SOL    HW217298   2.173   0.771   5.386 -0.1766  0.2430  0.3218
 1947SOL     OW17299   0.270   2.325  14.409 -0.1355 -0.0267 -0.2437
 1947SOL    HW117300   0.272   2.331  14.505 -0.5996 -1.1759 -0.1694
 1947SOL    HW217301   0.225   2.242  14.394  3.6399 -2.4077  1.5896
 1948SOL     OW17302   0.457   2.873   6.215  0.2323  0.1108  0.3083
 1948SOL    HW117303   0.551   2.870   6.231  0.4262  0.4090 -0.7972
 1948SOL    HW217304   0.420   2.837   6.296 -1.7932  0.7382 -0.3471
 1949SOL     OW17305   0.571   0.442  11.377 -0.0559  0.1429 -0.6541
 1949SOL    HW117306   0.554   0.502  11.304  0.1114 -0.3497 -1.1002
 1949SOL    HW217307   0.591   0.363  11.327  1.3701  0.5569 -0.7227
 1950SOL     OW17308   0.532   0.825   9.335 -0.2585  0.0643 -0.2547
 1950SOL    HW117309   0.623   0.839   9.363  0.3888 -4.1228 -0.3110
 1950SOL    HW217310   0.489   0.861   9.412  3.7611  0.4049  1.8332
 1951SOL     OW17311   3.664   0.582   5.101  0.8175 -0.1691 -0.2764
 1951SOL    HW117312   3.639   0.519   5.034 -1.6431 -0.8371  1.2505
 1951SOL    HW217313   3.733   0.636   5.063  0.4725 -0.7282 -1.7112
 1952SOL     OW17314   1.176   3.103   4.402 -0.5766  0.1143  0.5403
 1952SOL    HW117315   1.223   3.131   4.481  1.0172 -1.1563  0.0430
 1952SOL    HW217316   1.243   3.092   4.335 -0.5970 -2.4064  0.9048
 1953SOL     OW17317   0.122   4.102   2.038  0.0084 -0.0699  0.2398
 1953SOL    HW117318   0.041   4.137   2.002 -0.7295 -1.2653  0.7252
 1953SOL    HW217319   0.194   4.146   1.992  0.7979 -1.8743 -0.2835
 1954SOL     OW17320   4.028   2.137  17.596  0.3669  0.1813 -0.0812
 1954SOL    HW117321   4.006   2.100  17.510 -3.0315  3.5170 -0.6387
 1954SOL    HW217322   4.114   2.099  17.615 -0.1204 -0.0207  1.6816
 1955SOL     OW17323   0.016   3.549   7.011 -0.0826 -0.0921  0.3910
 1955SOL    HW117324   4.689   3.628   7.014  0.2854  0.1399  0.8071
 1955SOL    HW217325   4.691   3.487   7.063 -0.4390  0.0926  0.2610
 1956SOL     OW17326   4.466   0.904   9.768  0.6317  0.2055 -0.2678
 1956SOL    HW117327   4.389   0.909   9.711 -0.3715 -1.2216  0.9544
 1956SOL    HW217328   4.539   0.908   9.707  0.6458  0.2317 -0.2495
 1957SOL     OW17329   0.526   3.325   3.456  0.2718 -0.0807  0.5991
 1957SOL    HW117330   0.555   3.238   3.484 -0.6964 -0.6540 -0.2001
 1957SOL    HW217331   0.611   3.367   3.442 -0.4978  1.6418  0.9928
 1958SOL     OW17332   3.034   0.711   2.899 -0.3584  0.5088  0.2931
 1958SOL    HW117333   2.964   0.712   2.964 -0.5895  2.3382  0.0063
 1958SOL    HW217334   2.978   0.703   2.822  1.6853  0.0708 -1.1510
 1959SOL     OW17335   0.446   4.041   6.149  0.4318 -0.6462  0.3931
 1959SOL    HW117336   0.498   4.065   6.072  0.8898 -0.0631  0.8841
 1959SOL    HW217337   0.465   4.115   6.207  0.8056  0.4752 -1.1625
 1960SOL     OW17338   3.151   1.994   5.600  0.3738 -0.7356  1.1504
 1960SOL    HW117339   3.237   1.961   5.576  0.3217 -1.0500  1.3972
 1960SOL    HW217340   3.163   2.054   5.673 -0.0804  0.7337  0.0257
 1961SOL     OW17341   2.168   0.181   9.920 -0.1006  0.3491  0.1343
 1961SOL    HW117342   2.112   0.259   9.921 -0.1872  0.2885 -0.0494
 1961SOL    HW217343   2.108   0.118   9.961 -0.5206  0.5706 -0.1355
 1962SOL     OW17344   0.269   1.722   6.347  0.3589  0.5396 -0.2327
 1962SOL    HW117345   0.326   1.646   6.337 -0.6489 -0.0877 -1.2610
 1962SOL    HW217346   0.290   1.752   6.435 -2.2823  0.5304  0.3976
 1963SOL     OW17347   4.237   1.869   1.229  0.1135  0.0906 -0.5430
 1963SOL    HW117348   4.208   1.947   1.182 -2.1992 -1.3032 -1.4374
 1963SOL    HW217349   4.288   1.827   1.159 -0.3218 -0.8133 -0.3089
 1964SOL     OW17350   2.079   2.804   9.027  0.0773 -0.0059  0.0207
 1964SOL    HW117351   2.067   2.731   8.967  0.9744 -0.3959  0.3175
 1964SOL    HW217352   2.135   2.769   9.096  0.8410 -0.9386 -1.0770
 1965SOL     OW17353   0.630   2.343   9.088  0.2698 -0.0513 -0.1883
 1965SOL    HW117354   0.643   2.424   9.137 -1.3898  1.1138 -1.6492
 1965SOL    HW217355   0.688   2.278   9.128 -1.4211 -1.3213  0.2320
 1966SOL     OW17356   4.277   2.578  16.106  0.5643  0.6188  0.4777
 1966SOL    HW117357   4.356   2.545  16.063 -0.0752  2.1218 -1.8211
 1966SOL    HW217358   4.291   2.546  16.195 -0.8844 -3.5938 -0.8165
 1967SOL     OW17359   2.378   3.677   9.536 -0.4208 -0.1406 -0.3612
 1967SOL    HW117360   2.447   3.743   9.543  1.9583 -2.7688  1.4010
 1967SOL    HW217361   2.367   3.683   9.441  0.5754 -2.1563 -0.6160
 1968SOL     OW17362   2.262   4.711   5.754  0.3396  0.3416 -0.1435
 1968SOL    HW117363   2.241   4.644   5.688 -0.5404  1.1629 -0.6945
 1968SOL    HW217364   2.335   0.035   5.720 -1.0876  1.0645 -2.1053
 1969SOL     OW17365   2.491   1.116   8.883  0.0178  0.1158 -0.2470
 1969SOL    HW117366   2.500   1.086   8.793  0.5532  1.0159 -0.5011
 1969SOL    HW217367   2.457   1.035   8.920  0.5387 -0.6627 -1.4857
 1970SOL     OW17368   1.855   4.549  16.780 -0.4639 -0.1781  0.0348
 1970SOL    HW117369   1.841   4.642  16.764 -2.2539 -0.2357  1.2834
 1970SOL    HW217370   1.863   4.542  16.875 -2.2535  1.5660  0.3166
 1971SOL     OW17371   0.704   3.166   4.586  0.7959 -0.0979 -0.1567
 1971SOL    HW117372   0.734   3.212   4.508 -0.6077  1.2908  0.1178
 1971SOL    HW217373   0.645   3.234   4.619 -1.5640 -2.2419  0.0839
 1972SOL     OW17374   1.753   3.351  13.307  0.6689  0.5088  0.3884
 1972SOL    HW117375   1.666   3.367  13.271  0.9333  1.7682  0.2986
 1972SOL    HW217376   1.739   3.292  13.380  1.4537 -0.6048 -0.3507
 1973SOL     OW17377   0.775   4.109   5.044 -0.5576 -0.0194  0.2140
 1973SOL    HW117378   0.747   4.026   5.085 -0.6209 -1.2328 -2.2532
 1973SOL    HW217379   0.788   4.078   4.954 -1.6136 -0.0287  0.0631
 1974SOL     OW17380   1.366   2.266  17.431 -0.0063  0.7552  0.0384
 1974SOL    HW117381   1.354   2.297  17.521 -1.3008  0.0960  0.1027
 1974SOL    HW217382   1.368   2.348  17.381 -3.1316  0.0073 -1.2809
 1975SOL     OW17383   1.826   4.026   8.570 -0.2222 -0.3604 -0.3000
 1975SOL    HW117384   1.824   4.118   8.597 -0.0356 -0.7543  1.0762
 1975SOL    HW217385   1.733   4.006   8.562 -0.0002 -0.7132 -1.8875
 1976SOL     OW17386   2.724   4.470  16.283 -0.2167  0.1118 -0.3584
 1976SOL    HW117387   2.633   4.490  16.262 -0.3353 -0.4784 -0.4137
 1976SOL    HW217388   2.773   4.503  16.208  0.2649  0.5565  0.1507
 1977SOL     OW17389   0.938   3.996   4.143 -0.1123  0.2877  0.5730
 1977SOL    HW117390   0.999   3.933   4.105  0.5307  0.8767  0.6140
 1977SOL    HW217391   0.959   3.976   4.234 -1.6512  0.9269  1.0563
 1978SOL     OW17392   3.999   0.289   3.469 -0.3933  0.2819 -0.0162
 1978SOL    HW117393   4.070   0.309   3.408 -0.5417  2.4225  0.5447
 1978SOL    HW217394   4.026   0.328   3.552 -1.5061  0.1105  0.4207
 1979SOL     OW17395   0.137   0.177  15.643 -0.1282  0.1413 -0.2128
 1979SOL    HW117396   0.169   0.131  15.721 -1.7075 -0.6691 -0.0279
 1979SOL    HW217397   0.043   0.157  15.643 -0.2190  0.5649  0.2250
 1980SOL     OW17398   1.580   3.893   6.219  0.4245 -0.2514 -0.0107
 1980SOL    HW117399   1.671   3.907   6.193 -0.1499  1.2935 -1.2119
 1980SOL    HW217400   1.591   3.877   6.313  1.4983 -1.1205 -0.2855
 1981SOL     OW17401   3.506   1.469   0.391  1.2658  0.6640  0.5523
 1981SOL    HW117402   3.581   1.441   0.443  1.1414  3.1894  2.0647
 1981SOL    HW217403   3.464   1.513   0.465 -0.3357  0.9192 -0.4858
 1982SOL     OW17404   1.698   2.384   6.440  0.0941 -0.5240  0.2429
 1982SOL    HW117405   1.785   2.346   6.446  1.2905  2.1947 -0.0123
 1982SOL    HW217406   1.672   2.378   6.532 -0.4403 -1.4964  0.0241
 1983SOL     OW17407   0.830   1.524   7.580 -0.1214 -0.5007  0.4651
 1983SOL    HW117408   0.746   1.508   7.623  0.2294  2.0303  2.0772
 1983SOL    HW217409   0.897   1.480   7.632  0.8868 -0.4788 -0.8071
 1984SOL     OW17410   1.412   3.069   7.873 -0.0624 -0.0104 -0.4567
 1984SOL    HW117411   1.344   3.003   7.887 -0.0096 -0.1788 -0.9824
 1984SOL    HW217412   1.407   3.083   7.778 -2.3729 -0.8791 -0.4782
 1985SOL     OW17413   2.595   2.255  17.296 -0.3118  0.1411  0.7923
 1985SOL    HW117414   2.678   2.275  17.253  0.1184  2.2845  2.5981
 1985SOL    HW217415   2.535   2.250  17.222  2.1864  0.4906 -1.2307
 1986SOL     OW17416   2.872   2.854   4.595 -0.2818 -0.0806 -0.2595
 1986SOL    HW117417   2.792   2.843   4.647 -0.5478  0.9333 -0.4507
 1986SOL    HW217418   2.839   2.868   4.506  1.0061  1.5400 -0.4735
 1987SOL     OW17419   0.722   0.370   3.931  0.5073  0.0493  0.0881
 1987SOL    HW117420   0.698   0.458   3.958  2.1123 -0.0831  1.9632
 1987SOL    HW217421   0.655   0.318   3.975 -0.0047 -0.7989 -1.7002
 1988SOL     OW17422   3.351   2.992   5.474 -0.2350 -0.0077  0.6341
 1988SOL    HW117423   3.366   3.016   5.382  1.2341 -1.0492  0.6136
 1988SOL    HW217424   3.440   3.005   5.507  0.1261  1.2685 -0.7706
 1989SOL     OW17425   4.698   2.807   3.217  0.0843 -0.0983  0.5528
 1989SOL    HW117426   0.053   2.832   3.175  0.2332  1.5948  1.8511
 1989SOL    HW217427   4.686   2.884   3.273 -0.0068 -0.1864  0.6569
 1990SOL     OW17428   1.704   2.364  13.319 -0.3623  0.3343  0.6527
 1990SOL    HW117429   1.714   2.446  13.271 -0.4486 -0.7630 -1.2531
 1990SOL    HW217430   1.792   2.328  13.329 -0.5172 -0.2219  0.0555
 1991SOL     OW17431   3.476   2.067   4.747 -0.0846 -0.4879 -0.1935
 1991SOL    HW117432   3.396   2.111   4.775  0.4923  0.9077 -0.7238
 1991SOL    HW217433   3.464   1.981   4.789 -2.0056  0.6637  1.6473
 1992SOL     OW17434   1.594   1.196   2.271  0.0860  0.3229  0.5022
 1992SOL    HW117435   1.542   1.155   2.340 -1.8317  0.6100 -0.7565
 1992SOL    HW217436   1.619   1.118   2.221  1.0234  1.1500 -0.3141
 1993SOL     OW17437   2.024   1.362   7.678 -0.1943  0.1882  0.0175
 1993SOL    HW117438   2.022   1.272   7.711 -0.5785  0.1705 -0.0465
 1993SOL    HW217439   1.931   1.372   7.656 -0.4795  0.7668  1.4702
 1994SOL     OW17440   1.171   3.254   7.383 -0.4655 -0.0182  0.6895
 1994SOL    HW117441   1.140   3.217   7.465 -2.3553  0.0818  0.0093
 1994SOL    HW217442   1.254   3.289   7.415 -0.7028  0.8531  0.3736
 1995SOL     OW17443   3.112   2.317   4.680 -0.2054  0.1604  0.5301
 1995SOL    HW117444   3.205   2.341   4.679 -0.5203  1.4219  1.3267
 1995SOL    HW217445   3.113   2.251   4.611  0.5933  0.1022  0.6017
 1996SOL     OW17446   1.609   1.599   9.881 -0.0361  0.1669 -0.0567
 1996SOL    HW117447   1.674   1.528   9.877 -1.0278 -0.7491  0.0785
 1996SOL    HW217448   1.665   1.675   9.896  0.8637 -0.0502 -2.2664
 1997SOL     OW17449   3.946   1.516  13.967  0.5218 -0.2077 -0.1048
 1997SOL    HW117450   3.963   1.462  13.890 -0.5803  1.3704 -1.4829
 1997SOL    HW217451   3.884   1.581  13.934 -1.3968 -2.4066 -0.8100
 1998SOL     OW17452   3.081   1.224   5.133 -0.2837 -0.1388 -0.0945
 1998SOL    HW117453   2.996   1.192   5.164 -0.1975  0.1539  0.4452
 1998SOL    HW217454   3.072   1.209   5.039  1.4853 -2.9027  0.1893
 1999SOL     OW17455   0.746   1.780   8.294  0.2978  0.2320  0.2818
 1999SOL    HW117456   0.800   1.721   8.242 -1.8187  0.3182 -2.0716
 1999SOL    HW217457   0.819   1.816   8.344  1.3448  0.6929 -1.5760
 2000SOL     OW17458   1.504   0.403  11.898 -0.9563 -0.2851  0.1605
 2000SOL    HW117459   1.435   0.467  11.879  0.0030  0.4427 -0.8723
 2000SOL    HW217460   1.445   0.328  11.908 -1.4284  0.4688  2.8125
 2001SOL     OW17461   3.469   0.985   7.513  0.2765 -0.1369  0.3349
 2001SOL    HW117462   3.432   0.963   7.427 -1.9416  5.1830 -0.0279
 2001SOL    HW217463   3.536   0.918   7.529 -0.8276 -1.3177  0.0603
 2002SOL     OW17464   2.739   0.035   0.222 -0.0477 -0.8722 -0.0399
 2002SOL    HW117465   2.825   0.076   0.232 -0.3482 -0.1561 -0.3653
 2002SOL    HW217466   2.702   0.085   0.149  2.0442  0.0532 -0.4593
 2003SOL     OW17467   1.083   4.525   9.402 -0.7424 -0.3984  0.0680
 2003SOL    HW117468   1.162   4.488   9.441 -0.0856 -2.4841 -3.1623
 2003SOL    HW217469   1.083   4.612   9.442  0.4562 -1.1772  1.7580
 2004SOL     OW17470   0.886   3.661   8.469 -0.2487 -0.4084 -0.3028
 2004SOL    HW117471   0.957   3.672   8.407 -1.3141  0.5738 -1.3529
 2004SOL    HW217472   0.842   3.580   8.444 -0.3803 -0.1714 -0.8327
 2005SOL     OW17473   0.158   3.404  12.704  0.1500  0.5837  0.7066
 2005SOL    HW117474   0.240   3.368  12.672 -0.9431  1.6176 -3.2203
 2005SOL    HW217475   0.172   3.498  12.701 -1.6377  0.8257 -0.2808
 2006SOL     OW17476   1.653   0.041   9.868 -0.2136 -0.0130  0.0405
 2006SOL    HW117477   1.561   0.065   9.875 -0.2097  0.3394 -1.1192
 2006SOL    HW217478   1.665   0.006   9.956  2.8008 -0.1030 -0.4156
 2007SOL     OW17479   3.511   3.964  17.441 -0.2701  0.3144 -0.6457
 2007SOL    HW117480   3.443   3.969  17.507 -0.6397 -0.2101 -0.9817
 2007SOL    HW217481   3.512   4.055  17.412  2.2395  0.1707 -1.0630
 2008SOL     OW17482   3.229   1.621   3.452 -0.4131  0.4835 -0.0426
 2008SOL    HW117483   3.205   1.550   3.512 -0.6370 -0.7010 -1.5255
 2008SOL    HW217484   3.283   1.565   3.397 -0.9517 -1.1258  1.0567
 2009SOL     OW17485   0.921   0.818   0.701 -0.3099 -0.1545  0.1535
 2009SOL    HW117486   0.886   0.743   0.654  1.7459  0.1103 -1.8234
 2009SOL    HW217487   0.974   0.776   0.769 -0.9521 -0.0818  0.6964
 2010SOL     OW17488   0.223   3.466   2.456  1.1347  0.2797  0.3683
 2010SOL    HW117489   0.248   3.551   2.492  1.3270  0.1808  0.4652
 2010SOL    HW217490   0.233   3.479   2.362  1.1107  1.6939  0.5570
 2011SOL     OW17491   0.721   3.232   2.375 -0.4753  0.0743  0.2953
 2011SOL    HW117492   0.813   3.239   2.348 -0.9068  2.7899 -0.5394
 2011SOL    HW217493   0.673   3.232   2.292  0.7231  2.5950 -0.3867
 2012SOL     OW17494   1.023   4.077  10.146  0.0872 -0.2248  0.4762
 2012SOL    HW117495   0.954   4.095  10.210 -1.3371  1.8333 -1.6630
 2012SOL    HW217496   1.089   4.135  10.185  1.5582 -2.1340  0.8253
 2013SOL     OW17497   3.391   3.478  17.430 -0.4498 -0.4028 -0.4150
 2013SOL    HW117498   3.324   3.469  17.498  0.0788  0.1911  0.1784
 2013SOL    HW217499   3.352   3.553  17.384  0.1286 -0.0168 -0.2806
 2014SOL     OW17500   3.285   1.774   5.083  0.0394  0.7188 -0.2270
 2014SOL    HW117501   3.379   1.757   5.076 -0.1475 -0.4277  0.1745
 2014SOL    HW217502   3.263   1.689   5.122  0.9833 -0.3924 -2.1456
 2015SOL     OW17503   2.556   1.748  11.455 -0.9892  0.9032  0.1905
 2015SOL    HW117504   2.588   1.738  11.365 -1.6042  0.5779  0.0091
 2015SOL    HW217505   2.473   1.702  11.470 -0.4104  0.3792  1.8020
 2016SOL     OW17506   2.184   3.065  14.212 -0.5784 -0.4554  0.0526
 2016SOL    HW117507   2.220   3.049  14.125 -0.9502 -0.1936 -0.1492
 2016SOL    HW217508   2.092   3.084  14.194 -0.8127 -0.4011  1.2750
 2017SOL     OW17509   3.126   3.471   2.941  0.1417  0.0488  0.2834
 2017SOL    HW117510   3.163   3.492   3.027 -0.1950 -0.1263  0.4703
 2017SOL    HW217511   3.036   3.500   2.954 -0.2566 -0.2413 -1.8002
 2018SOL     OW17512   0.258   2.469   5.186  0.5930 -0.3274  0.0651
 2018SOL    HW117513   0.246   2.458   5.092  1.9346  0.4608 -0.1940
 2018SOL    HW217514   0.307   2.391   5.214  2.1564  0.0551 -1.6472
 2019SOL     OW17515   3.295   0.690   5.294 -0.1833 -0.4329 -0.1987
 2019SOL    HW117516   3.269   0.672   5.385 -0.7827 -1.0889 -0.5004
 2019SOL    HW217517   3.349   0.614   5.275 -0.0932 -0.2507 -0.6602
 2020SOL     OW17518   0.741   3.842   0.652  0.6919 -0.1147 -0.0136
 2020SOL    HW117519   0.728   3.776   0.721 -0.7043 -0.3352 -0.4910
 2020SOL    HW217520   0.726   3.794   0.571  1.5404  0.7094 -0.6528
 2021SOL     OW17521   3.664   1.642   1.923  0.4567  0.7860  0.2946
 2021SOL    HW117522   3.744   1.591   1.909 -1.3928 -2.3421  1.2996
 2021SOL    HW217523   3.601   1.609   1.860 -0.1691 -0.1452  1.4269
 2022SOL     OW17524   1.713   3.655   8.223 -0.1722  0.5892 -0.2973
 2022SOL    HW117525   1.726   3.642   8.317 -2.7013 -1.6746 -0.2488
 2022SOL    HW217526   1.700   3.749   8.212  2.4478  0.8244 -1.2223
 2023SOL     OW17527   0.805   2.709  15.618 -0.1748  0.2926  0.0694
 2023SOL    HW117528   0.834   2.627  15.576 -0.5497  0.0838  0.2206
 2023SOL    HW217529   0.723   2.727  15.571  0.0178 -0.4645 -0.5597
 2024SOL     OW17530   1.216   2.395   6.094 -0.4452 -0.8863 -0.2295
 2024SOL    HW117531   1.200   2.488   6.110 -1.7962 -1.0030 -0.9300
 2024SOL    HW217532   1.242   2.363   6.180  2.3021  1.6488 -0.1046
 2025SOL     OW17533   4.655   0.835   0.968 -0.0271  0.8138 -0.6414
 2025SOL    HW117534   4.599   0.828   0.891 -0.5586 -1.8147  0.0103
 2025SOL    HW217535   4.657   0.931   0.974  1.5759  0.4699  3.8912
 2026SOL     OW17536   3.650   3.041   7.597  0.0196  0.2049  0.0016
 2026SOL    HW117537   3.730   3.008   7.557 -0.8073  0.8741 -2.1625
 2026SOL    HW217538   3.629   2.959   7.642  2.1232 -0.2647  0.1661
 2027SOL     OW17539   4.645   2.428  13.134  0.1635  0.6080  0.2727
 2027SOL    HW117540   4.576   2.411  13.070 -0.7849 -0.7968  1.6699
 2027SOL    HW217541   4.706   2.356  13.120  0.1765  1.1436 -2.3771
 2028SOL     OW17542   0.051   0.507  14.534 -0.2507  0.5036 -0.1393
 2028SOL    HW117543   0.136   0.515  14.578  0.7616 -0.0336 -2.0160
 2028SOL    HW217544   0.075   0.467  14.450  0.8562  1.3795 -0.2425
 2029SOL     OW17545   0.915   0.950   7.526  0.1427  0.0621  0.0542
 2029SOL    HW117546   0.985   0.958   7.462  1.0679 -1.7864  0.8130
 2029SOL    HW217547   0.955   0.886   7.585  0.6732  0.7468  0.4358
 2030SOL     OW17548   4.108   4.479  16.673  0.3250 -0.1694  0.0800
 2030SOL    HW117549   4.196   4.479  16.712 -0.3918 -0.9865  1.7125
 2030SOL    HW217550   4.125   4.523  16.589  1.6722 -1.5178 -0.3603
 2031SOL     OW17551   3.068   1.777  12.189 -0.1768 -0.3287 -0.7649
 2031SOL    HW117552   3.091   1.848  12.129  1.8546 -1.4465 -1.3152
 2031SOL    HW217553   3.124   1.703  12.167  1.2600  1.0649 -1.7808
 2032SOL     OW17554   1.968   2.589  10.582 -0.5245 -0.0671  0.3047
 2032SOL    HW117555   1.939   2.498  10.597  0.0416 -0.2672  0.1741
 2032SOL    HW217556   1.920   2.637  10.649  1.8721  2.9267 -0.1530
 2033SOL     OW17557   1.680   1.524  11.910  0.0110  0.3195 -0.1919
 2033SOL    HW117558   1.646   1.444  11.869  3.3734 -1.8388  1.2087
 2033SOL    HW217559   1.712   1.490  11.993 -1.7199  0.8228  0.6888
 2034SOL     OW17560   4.442   0.105   8.987  0.4144  0.2762  0.0642
 2034SOL    HW117561   4.473   0.175   9.045  0.2605 -0.4145  0.9825
 2034SOL    HW217562   4.430   0.031   9.046  0.4634 -1.0382 -1.5858
 2035SOL     OW17563   2.453   3.723   5.775 -0.1955 -0.6483  0.3117
 2035SOL    HW117564   2.474   3.719   5.681 -1.2494 -1.0325  0.0979
 2035SOL    HW217565   2.401   3.644   5.787 -0.1646 -0.4801  1.5348
 2036SOL     OW17566   4.208   0.990   2.258  0.1723 -0.0663  0.1814
 2036SOL    HW117567   4.228   0.910   2.209  0.9041 -0.9974  2.0346
 2036SOL    HW217568   4.241   1.056   2.197 -2.0980  1.3132  0.4312
 2037SOL     OW17569   3.766   2.708   4.458 -0.3067 -0.0696  0.2799
 2037SOL    HW117570   3.733   2.788   4.500  1.4769 -0.9955  3.4911
 2037SOL    HW217571   3.771   2.740   4.368  2.3284 -3.2586 -0.7081
 2038SOL     OW17572   3.281   4.192   8.125 -0.0468  0.5638 -0.1584
 2038SOL    HW117573   3.328   4.274   8.113  1.9799 -0.4683  0.7691
 2038SOL    HW217574   3.206   4.221   8.177  0.1731 -1.8783  1.5249
 2039SOL     OW17575   4.239   2.577  12.888 -0.2167  0.7381  0.7477
 2039SOL    HW117576   4.169   2.635  12.916  0.4322  1.4725  0.8605
 2039SOL    HW217577   4.314   2.636  12.897  0.3633 -0.1526  1.8030
 2040SOL     OW17578   2.432   3.534   0.855 -0.2097 -0.1334 -0.3641
 2040SOL    HW117579   2.345   3.573   0.854  0.0968  0.4808 -2.3710
 2040SOL    HW217580   2.443   3.521   0.761  3.6168 -1.6941  0.2907
 2041SOL     OW17581   0.530   4.387  11.513  0.1690 -0.4597  0.6003
 2041SOL    HW117582   0.440   4.369  11.540 -0.1557 -0.3549 -0.4077
 2041SOL    HW217583   0.550   4.445  11.587 -2.7956 -0.0584  1.1002
 2042SOL     OW17584   4.411   3.565   7.296  0.1238 -0.0735  0.1008
 2042SOL    HW117585   4.367   3.485   7.268 -0.6428  0.3606  0.0514
 2042SOL    HW217586   4.498   3.532   7.317  1.1743  1.1390 -2.3896
 2043SOL     OW17587   0.344   1.739  17.215 -0.3596 -0.3258  0.0414
 2043SOL    HW117588   0.343   1.818  17.161  1.3691  0.7045  1.5029
 2043SOL    HW217589   0.420   1.748  17.273 -0.5291 -0.3637  0.2676
 2044SOL     OW17590   3.315   2.733   2.325 -0.5140 -0.1704  0.9662
 2044SOL    HW117591   3.280   2.806   2.274  2.8718  0.5249 -0.3950
 2044SOL    HW217592   3.407   2.752   2.304 -1.0862  1.0671 -0.3624
 2045SOL     OW17593   2.747   2.422  14.553  0.2992 -0.2846  0.6711
 2045SOL    HW117594   2.678   2.376  14.505  1.2869 -0.2938 -0.7461
 2045SOL    HW217595   2.728   2.385  14.639 -0.6255 -0.4807  0.3764
 2046SOL     OW17596   0.889   3.421   9.135  0.4705  0.2991  0.6615
 2046SOL    HW117597   0.796   3.416   9.158  0.5155 -2.0664  0.3390
 2046SOL    HW217598   0.889   3.350   9.070  2.2320  0.9598 -0.0677
 2047SOL     OW17599   3.467   0.785   0.248 -0.1712 -0.3202 -0.2064
 2047SOL    HW117600   3.538   0.800   0.186 -1.4709 -0.5389 -1.7505
 2047SOL    HW217601   3.493   0.699   0.282  1.8189  0.0389 -0.8635
 2048SOL     OW17602   2.516   3.390   4.731  0.0258  0.0727  0.2321
 2048SOL    HW117603   2.426   3.422   4.733 -1.1241 -3.1143 -0.6839
 2048SOL    HW217604   2.554   3.452   4.668  1.4908 -0.7959  0.2678
 2049SOL     OW17605   3.648   1.393  10.828 -0.0152 -0.1584 -0.0769
 2049SOL    HW117606   3.597   1.451  10.770 -0.5895 -1.7546 -1.1525
 2049SOL    HW217607   3.674   1.322  10.770 -1.1206 -0.1603 -0.5872
 2050SOL     OW17608   2.578   2.235   5.728 -0.1487  0.3119 -0.0404
 2050SOL    HW117609   2.484   2.249   5.718 -0.1153  0.9264  0.4783
 2050SOL    HW217610   2.580   2.164   5.793 -0.8286 -1.0688 -1.5304
 2051SOL     OW17611   1.285   2.629   3.883  0.2396 -0.3550 -0.3129
 2051SOL    HW117612   1.257   2.678   3.805 -2.3088 -0.7485  0.3696
 2051SOL    HW217613   1.206   2.640   3.935  0.7993 -0.7118  0.6052
 2052SOL     OW17614   3.729   3.743   8.369 -0.0470 -0.3025  0.1676
 2052SOL    HW117615   3.807   3.701   8.333  0.3959  0.7835 -0.1512
 2052SOL    HW217616   3.770   3.823   8.404 -0.0782 -0.5955  0.8834
 2053SOL     OW17617   1.689   0.701   2.985 -0.3931 -0.3997 -0.3463
 2053SOL    HW117618   1.638   0.781   3.000  2.0597  1.2219 -0.6905
 2053SOL    HW217619   1.779   0.730   2.972 -0.2397 -0.7752 -0.1358
 2054SOL     OW17620   0.029   2.765   3.909 -0.4613  0.3379  0.6428
 2054SOL    HW117621   0.073   2.748   3.826  0.9203 -1.8647  1.8260
 2054SOL    HW217622   4.721   2.677   3.930 -0.5201  0.5875  1.5864
 2055SOL     OW17623   2.131   2.930   1.335 -0.1492 -0.4845 -0.4397
 2055SOL    HW117624   2.116   2.964   1.246 -2.6152 -1.5907 -0.4324
 2055SOL    HW217625   2.084   2.848   1.328  0.3358 -0.7554 -0.5486
 2056SOL     OW17626   1.449   4.474  12.887  0.6216 -0.0525  0.5911
 2056SOL    HW117627   1.542   4.464  12.866  0.4324 -2.5511  0.9176
 2056SOL    HW217628   1.451   4.535  12.961 -0.6110  1.2290 -0.4516
 2057SOL     OW17629   0.208   3.787   6.361  0.2699  0.5593  0.4805
 2057SOL    HW117630   0.229   3.718   6.297  1.6048  2.4596 -1.1306
 2057SOL    HW217631   0.115   3.805   6.350  0.3612 -0.1251 -1.5807
 2058SOL     OW17632   2.348   4.348  16.767  0.3109 -0.0552  0.0455
 2058SOL    HW117633   2.383   4.296  16.695  0.4701 -1.3829  1.0937
 2058SOL    HW217634   2.255   4.354  16.743  0.6171  2.4994 -0.5209
 2059SOL     OW17635   3.330   2.858  11.787  0.4871  0.3100 -0.0883
 2059SOL    HW117636   3.362   2.922  11.723  1.7025 -0.5635 -0.3567
 2059SOL    HW217637   3.370   2.879  11.872  0.4755 -2.2376  0.5270
 2060SOL     OW17638   2.898   2.246   0.827 -0.0844  0.3842 -0.0935
 2060SOL    HW117639   2.989   2.221   0.838 -0.5541 -0.6173  1.5426
 2060SOL    HW217640   2.898   2.244   0.732 -1.6206  0.2077 -0.0966
 2061SOL     OW17641   3.211   1.477   5.092 -0.0159  0.6249 -0.6150
 2061SOL    HW117642   3.176   1.406   5.146  0.5834  1.2813  0.6519
 2061SOL    HW217643   3.159   1.465   5.013  0.5761  0.9749 -1.0560
 2062SOL     OW17644   4.632   2.942   2.356 -0.0287 -0.1261  0.6051
 2062SOL    HW117645   4.596   2.970   2.272  0.5363  2.8942  1.3864
 2062SOL    HW217646   4.603   3.015   2.411 -0.3218 -0.3614  0.7641
 2063SOL     OW17647   0.494   1.580   4.557  0.0759 -0.5544  0.1855
 2063SOL    HW117648   0.508   1.486   4.563 -1.0114 -0.8147 -1.2567
 2063SOL    HW217649   0.433   1.585   4.484  0.2457  1.6932  0.2073
 2064SOL     OW17650   4.278   2.330   2.877  0.4499 -0.0367  0.0211
 2064SOL    HW117651   4.284   2.235   2.886 -0.5463  0.0795  1.8812
 2064SOL    HW217652   4.186   2.340   2.850  0.7758 -1.2146 -1.5390
 2065SOL     OW17653   1.482   0.300   4.408 -0.3723 -0.1962 -0.2898
 2065SOL    HW117654   1.400   0.318   4.363 -0.4215  0.4422  0.0468
 2065SOL    HW217655   1.540   0.351   4.351 -0.7224  2.4685  1.7218
 2066SOL     OW17656   4.244   1.300   7.972  0.8419 -0.3316  0.0299
 2066SOL    HW117657   4.234   1.324   7.880 -1.0877 -2.4873 -0.3240
 2066SOL    HW217658   4.258   1.386   8.011  0.3624 -0.7448  1.1068
 2067SOL     OW17659   0.188   1.595   4.057  0.0930  0.1192  0.0546
 2067SOL    HW117660   0.247   1.643   3.999  0.7849 -0.9758 -0.1241
 2067SOL    HW217661   0.228   1.510   4.042 -0.8993 -0.4995  0.8825
 2068SOL     OW17662   1.950   1.145   4.579 -0.1504  0.1509 -0.4721
 2068SOL    HW117663   1.908   1.114   4.659 -0.1249  0.9769 -0.1487
 2068SOL    HW217664   1.877   1.152   4.518  0.0146  0.9425 -0.5757
 2069SOL     OW17665   2.202   2.220   3.776 -0.4096  0.3159  0.8152
 2069SOL    HW117666   2.177   2.213   3.684 -0.9629 -0.7904  1.0493
 2069SOL    HW217667   2.219   2.314   3.784  0.5024  0.2050  0.2089
 2070SOL     OW17668   3.266   2.887  11.400  0.7188 -1.0125  0.3821
 2070SOL    HW117669   3.305   2.967  11.367 -0.9910 -0.0985  0.5613
 2070SOL    HW217670   3.235   2.922  11.484  1.1415 -0.1014  0.1494
 2071SOL     OW17671   0.118   2.490   6.013  0.2526 -0.7107  0.1033
 2071SOL    HW117672   0.213   2.499   6.025 -0.1674  2.4442  0.8491
 2071SOL    HW217673   0.089   2.559   5.955 -0.2492 -0.9606  0.0616
 2072SOL     OW17674   1.851   2.839   2.960 -0.1588 -0.4241  0.1833
 2072SOL    HW117675   1.859   2.744   2.954 -0.0229 -0.5353  2.1369
 2072SOL    HW217676   1.945   2.856   2.968 -0.2160 -0.6515  1.2351
 2073SOL     OW17677   3.797   2.024  11.512 -0.6468  0.1436  0.3921
 2073SOL    HW117678   3.764   1.998  11.426 -0.2076  0.4399  0.1365
 2073SOL    HW217679   3.882   2.060  11.487 -0.0052 -0.3668  1.8283
 2074SOL     OW17680   2.255   2.502   3.144  0.1687 -0.4375 -0.3719
 2074SOL    HW117681   2.180   2.462   3.187 -0.5145  3.5550  2.1294
 2074SOL    HW217682   2.259   2.579   3.200  2.2367 -0.8005 -0.0139
 2075SOL     OW17683   2.528   4.721   2.975  0.0712  0.3176  0.4730
 2075SOL    HW117684   2.505   0.086   2.958  1.7029 -0.0248 -3.5268
 2075SOL    HW217685   2.487   4.678   2.900 -0.7280 -1.6052  1.9907
 2076SOL     OW17686   2.815   0.732  16.603  0.3731  0.3021  0.0715
 2076SOL    HW117687   2.748   0.776  16.552  0.9897  0.3546 -0.6836
 2076SOL    HW217688   2.830   0.653  16.551 -3.8407  0.6644 -1.6947
 2077SOL     OW17689   1.498   4.258   3.011  0.0875 -0.3405  0.0977
 2077SOL    HW117690   1.461   4.299   2.932 -2.6016 -1.3669  0.8377
 2077SOL    HW217691   1.422   4.231   3.061 -0.1209  1.0456  0.5352
 2078SOL     OW17692   3.278   0.954   2.245  0.1353 -0.3223  0.3676
 2078SOL    HW117693   3.218   0.912   2.307  0.8343  1.0619  1.9743
 2078SOL    HW217694   3.319   1.020   2.301  0.2467  0.3220 -0.4750
 2079SOL     OW17695   3.965   3.137   3.971 -0.3171 -0.0914  0.0568
 2079SOL    HW117696   4.014   3.180   3.901 -0.1882 -0.1236  0.1261
 2079SOL    HW217697   4.035   3.107   4.029  0.2907 -0.4513 -0.8528
 2080SOL     OW17698   1.775   1.801  11.224 -0.1422 -0.0683  0.3997
 2080SOL    HW117699   1.844   1.741  11.195 -0.0322  0.3119 -0.1321
 2080SOL    HW217700   1.757   1.751  11.303 -0.0033 -3.0118 -1.4147
 2081SOL     OW17701   2.324   0.507   3.020 -0.1676  0.4975 -0.2451
 2081SOL    HW117702   2.322   0.597   3.053 -1.2089  1.3910 -2.7637
 2081SOL    HW217703   2.306   0.462   3.103  1.2521 -0.1153 -0.2587
 2082SOL     OW17704   0.598   4.547   4.365  0.0290 -0.1855  0.0222
 2082SOL    HW117705   0.642   4.507   4.290  3.1587  0.5654  1.4972
 2082SOL    HW217706   0.529   4.481   4.376 -1.9413  2.4700  3.7308
 2083SOL     OW17707   3.379   1.862   7.616  0.5224 -0.2070 -0.1696
 2083SOL    HW117708   3.385   1.931   7.682  1.3054 -2.4202  2.0970
 2083SOL    HW217709   3.445   1.799   7.646  2.1674  0.5615 -2.1535
 2084SOL     OW17710   2.044   1.967   6.277  0.8073  0.2069 -0.3792
 2084SOL    HW117711   2.057   1.920   6.194  1.5513  0.9970 -0.7132
 2084SOL    HW217712   2.017   2.056   6.254 -3.0051 -0.7830  0.3101
 2085SOL     OW17713   4.029   4.470   4.209 -0.2853 -0.5036 -0.5666
 2085SOL    HW117714   4.068   4.508   4.287 -0.0687  0.5151 -1.1672
 2085SOL    HW217715   4.091   4.509   4.147  1.5836  0.9944  2.2835
 2086SOL     OW17716   3.358   4.120   4.004  0.0412  0.1019 -0.5842
 2086SOL    HW117717   3.421   4.135   3.934  0.5604 -0.2081 -0.1796
 2086SOL    HW217718   3.279   4.089   3.959 -1.0680  0.0723  1.3518
 2087SOL     OW17719   3.974   1.012  12.639  0.3204  0.4834  0.2288
 2087SOL    HW117720   4.056   0.969  12.664  0.0646  0.2223  0.6161
 2087SOL    HW217721   4.006   1.067  12.567 -2.6246  0.2199 -1.2703
 2088SOL     OW17722   3.406   0.502   3.497  0.0307 -0.1862 -0.4777
 2088SOL    HW117723   3.500   0.483   3.501  0.9086  4.3080  0.0207
 2088SOL    HW217724   3.399   0.578   3.554  1.9167  0.0522 -0.5504
 2089SOL     OW17725   1.304   3.330   4.539 -0.0257 -0.3260  0.3484
 2089SOL    HW117726   1.239   3.341   4.609  0.5445  4.5401  0.1043
 2089SOL    HW217727   1.298   3.418   4.503  0.0546 -0.5226 -0.1400
 2090SOL     OW17728   1.735   0.114  15.429  0.0946 -0.3282 -0.2960
 2090SOL    HW117729   1.757   0.023  15.447  1.0037 -0.0096  0.2095
 2090SOL    HW217730   1.640   0.115  15.434  0.1730  0.0623  1.0756
 2091SOL     OW17731   4.324   3.785   7.148 -0.5578 -0.1021  0.2053
 2091SOL    HW117732   4.345   3.695   7.172  1.2369 -0.0289 -1.0952
 2091SOL    HW217733   4.285   3.819   7.228  0.0305  0.2125  0.3556
 2092SOL     OW17734   1.276   1.193  14.708  0.0863 -0.2538 -0.8948
 2092SOL    HW117735   1.363   1.178  14.744  0.1455  0.1331 -0.8804
 2092SOL    HW217736   1.287   1.168  14.616 -0.1396 -1.3703 -0.6205
 2093SOL     OW17737   1.859   1.048  10.872 -0.4889  0.0597 -0.2208
 2093SOL    HW117738   1.922   1.110  10.908 -1.6756 -0.1279  2.1554
 2093SOL    HW217739   1.862   0.970  10.927 -0.4049  1.6275  2.0198
 2094SOL     OW17740   1.546   3.201   5.980  0.2185  0.4573  0.2160
 2094SOL    HW117741   1.602   3.215   5.904  0.9175  0.3399  0.7060
 2094SOL    HW217742   1.498   3.283   5.987 -1.2392 -0.5191  1.8236
 2095SOL     OW17743   2.204   4.199   3.525 -0.8877  0.2571  0.1744
 2095SOL    HW117744   2.137   4.229   3.463 -0.6528 -0.5835 -0.4875
 2095SOL    HW217745   2.286   4.182   3.478 -0.9249  1.2443 -0.2581
 2096SOL     OW17746   1.134   2.564   4.945 -0.1124 -0.0042  0.6938
 2096SOL    HW117747   1.153   2.602   4.860 -1.4540 -1.2533 -0.1551
 2096SOL    HW217748   1.223   2.567   4.981  0.8542  0.6106 -1.7760
 2097SOL     OW17749   3.077   2.134   1.193 -0.0751 -0.3502  0.0710
 2097SOL    HW117750   3.140   2.134   1.265  0.9116  0.4324 -0.8008
 2097SOL    HW217751   3.091   2.047   1.156 -2.0340 -0.6120 -0.0538
 2098SOL     OW17752   1.804   3.203  13.699 -0.4794 -0.2720  0.1427
 2098SOL    HW117753   1.888   3.183  13.657  0.3613  2.5136  0.5215
 2098SOL    HW217754   1.831   3.200  13.790  0.6640  1.2124 -0.1507
 2099SOL     OW17755   4.277   2.071   8.449  0.4548 -0.0363 -0.2549
 2099SOL    HW117756   4.337   2.028   8.510  1.5503  0.4688 -0.9771
 2099SOL    HW217757   4.199   2.017   8.455 -0.3531  0.9657 -1.9866
 2100SOL     OW17758   3.636   1.466   2.146 -0.3380 -0.2444 -0.5456
 2100SOL    HW117759   3.651   1.538   2.084  1.2348 -2.5161 -2.7809
 2100SOL    HW217760   3.696   1.490   2.216 -0.0736 -0.9470 -0.5323
 2101SOL     OW17761   3.018   2.183   8.273  0.6932 -0.6399  0.5285
 2101SOL    HW117762   3.017   2.107   8.332  2.1980  0.1399  1.5529
 2101SOL    HW217763   2.985   2.132   8.199  1.6926  2.7532 -2.2336
 2102SOL     OW17764   1.294   2.745   2.113  0.4453  0.3060 -0.4631
 2102SOL    HW117765   1.347   2.807   2.063  0.7644  2.0261  1.9629
 2102SOL    HW217766   1.359   2.715   2.177  0.8456 -0.0339 -1.0350
 2103SOL     OW17767   3.996   2.004   4.447 -0.0579  0.3399 -0.0367
 2103SOL    HW117768   4.024   2.036   4.533  1.4265 -2.3001  0.4544
 2103SOL    HW217769   3.946   2.072   4.402  0.2666  0.5369 -0.1079
 2104SOL     OW17770   0.791   1.764   1.886 -0.1979  0.0119 -0.1807
 2104SOL    HW117771   0.886   1.770   1.887 -0.2028 -0.4802  2.8292
 2104SOL    HW217772   0.770   1.802   1.801 -0.6846 -0.5781 -0.3235
 2105SOL     OW17773   2.291   3.728  10.086  0.0438 -0.4880 -0.2176
 2105SOL    HW117774   2.204   3.715  10.124  0.6016 -1.9227  0.5472
 2105SOL    HW217775   2.281   3.674  10.007 -0.3065  0.0328 -0.5348
 2106SOL     OW17776   1.352   4.466   6.051 -0.1940 -0.1493 -0.4103
 2106SOL    HW117777   1.371   4.426   6.136 -3.2592 -0.9822 -0.1142
 2106SOL    HW217778   1.375   4.395   5.991 -0.2899 -0.6989  0.2032
 2107SOL     OW17779   1.144   1.216  16.149  0.2094 -0.7421 -0.4076
 2107SOL    HW117780   1.148   1.123  16.128 -3.2704 -0.9993  0.0532
 2107SOL    HW217781   1.078   1.221  16.218  1.5094 -0.5367  0.8271
 2108SOL     OW17782   1.869   4.621   3.478  0.1564  0.3149  0.0263
 2108SOL    HW117783   1.791   4.591   3.525  0.8777 -2.3691 -0.5176
 2108SOL    HW217784   1.875   4.710   3.514  0.9420  0.7190 -1.1134
 2109SOL     OW17785   0.905   4.209   4.017 -0.0225 -0.1566  0.3681
 2109SOL    HW117786   0.874   4.266   4.088  1.9469  1.7005 -0.2547
 2109SOL    HW217787   0.918   4.127   4.065  2.2689 -0.6682 -1.1219
 2110SOL     OW17788   1.765   0.619  16.966 -0.1806 -0.4393 -0.1843
 2110SOL    HW117789   1.793   0.659  17.048  0.2850 -1.8959  0.3742
 2110SOL    HW217790   1.809   0.670  16.898  0.5524 -1.1569 -0.2502
 2111SOL     OW17791   1.762   1.056   3.038  0.3895  0.5481 -0.0462
 2111SOL    HW117792   1.694   1.045   3.103  0.4428 -0.5548 -0.1853
 2111SOL    HW217793   1.834   1.005   3.076  1.5281  1.6738 -0.6707
 2112SOL     OW17794   4.068   1.958   6.538 -0.3375  0.5931 -0.2596
 2112SOL    HW117795   4.010   2.024   6.502 -0.1214  1.6774  1.3658
 2112SOL    HW217796   4.149   2.008   6.549 -0.0240 -0.1993  1.0769
 2113SOL     OW17797   2.714   3.158   8.769 -0.0646  0.5488  0.0295
 2113SOL    HW117798   2.647   3.125   8.709  0.5894  0.1407 -0.4777
 2113SOL    HW217799   2.645   3.204   8.816 -0.3233  2.1950 -1.9587
 2114SOL     OW17800   3.884   2.233   4.782  0.3226  0.0492 -0.1935
 2114SOL    HW117801   3.953   2.199   4.839 -1.5412 -1.2727  1.3116
 2114SOL    HW217802   3.874   2.323   4.814 -2.1265 -0.2556 -0.0956
 2115SOL     OW17803   2.465   1.168   2.207 -0.2945  0.0108  0.1178
 2115SOL    HW117804   2.519   1.151   2.284  1.4925  0.0596 -1.1255
 2115SOL    HW217805   2.461   1.263   2.196  0.5457  0.2538  1.8479
 2116SOL     OW17806   2.714   0.238   7.517 -0.5412 -0.3364 -0.0820
 2116SOL    HW117807   2.661   0.300   7.467  0.7741  2.1858  1.6213
 2116SOL    HW217808   2.803   0.274   7.524 -0.5394 -0.4941  0.7039
 2117SOL     OW17809   4.623   3.367   1.609  0.3152 -0.4329  0.3114
 2117SOL    HW117810   4.601   3.337   1.697 -3.9881  1.7743 -0.0276
 2117SOL    HW217811   4.544   3.338   1.563 -0.2185  0.6767  0.5269
 2118SOL     OW17812   0.175   0.573   5.908 -0.1466 -0.0223 -0.0673
 2118SOL    HW117813   0.227   0.495   5.887 -0.7821 -0.8653  1.4826
 2118SOL    HW217814   0.142   0.577   5.818 -0.4443  0.2105  0.0546
 2119SOL     OW17815   2.226   4.119   9.059  0.4264  0.7713 -0.1906
 2119SOL    HW117816   2.263   4.183   8.998 -0.2797  1.5902  0.2550
 2119SOL    HW217817   2.133   4.134   9.073  0.2611 -0.6066  0.2157
 2120SOL     OW17818   0.395   4.362   4.382  0.2015  0.5356 -0.0571
 2120SOL    HW117819   0.351   4.387   4.463 -0.5651 -1.0221  0.0217
 2120SOL    HW217820   0.331   4.299   4.348  0.1355  0.2650  0.5621
 2121SOL     OW17821   0.046   4.458   1.001  0.2390 -0.0316 -0.2637
 2121SOL    HW117822   0.020   4.550   1.009  2.2077  0.2997  2.2141
 2121SOL    HW217823   4.701   4.425   0.946  0.2109  1.0852 -0.9042
 2122SOL     OW17824   2.685   1.716   8.168  0.5569 -0.0859 -0.1565
 2122SOL    HW117825   2.623   1.648   8.196 -2.1024  2.1141 -0.7492
 2122SOL    HW217826   2.619   1.775   8.133 -0.9522  0.6505  3.9597
 2123SOL     OW17827   4.125   4.442   9.000 -0.2680 -0.1028 -0.4572
 2123SOL    HW117828   4.061   4.386   9.044 -0.4799 -0.6777 -1.4856
 2123SOL    HW217829   4.190   4.433   9.070 -1.0777 -2.3467  0.0130
 2124SOL     OW17830   4.183   2.950  12.459 -0.0654  0.3974  0.4208
 2124SOL    HW117831   4.187   2.874  12.400 -1.1362 -0.1503  1.0576
 2124SOL    HW217832   4.090   2.971  12.461 -0.7040 -2.2717 -0.5394
 2125SOL     OW17833   3.701   3.240  15.363 -0.2008  0.5975 -0.3530
 2125SOL    HW117834   3.718   3.269  15.453  1.7453  0.3625 -0.6385
 2125SOL    HW217835   3.706   3.323  15.317  1.5960  1.0210  0.6037
 2126SOL     OW17836   1.318   2.818   3.412  0.6835  0.0563 -0.2603
 2126SOL    HW117837   1.372   2.849   3.485 -2.0947  0.4338  1.6252
 2126SOL    HW217838   1.339   2.725   3.410 -4.0165 -0.9999 -0.8034
 2127SOL     OW17839   0.072   1.027   2.657  0.1368  0.0837 -0.1795
 2127SOL    HW117840   0.119   1.040   2.575  0.9891 -0.9536  0.1458
 2127SOL    HW217841   0.141   0.981   2.704  1.3411  3.9424  1.9065
 2128SOL     OW17842   0.995   4.267   2.221  0.6049 -0.2537  0.3173
 2128SOL    HW117843   1.000   4.219   2.138  0.0090 -0.7472  0.5651
 2128SOL    HW217844   0.900   4.272   2.216  0.5178 -1.3744  0.7957
 2129SOL     OW17845   3.152   0.853   2.475 -0.5814  0.0236 -0.1443
 2129SOL    HW117846   3.111   0.791   2.416  0.1850 -2.5079  1.9827
 2129SOL    HW217847   3.176   0.798   2.550 -0.0852  0.9245  0.3597
 2130SOL     OW17848   0.651   1.208   1.431  0.0376 -0.2345  0.4625
 2130SOL    HW117849   0.591   1.280   1.413 -2.4377 -1.6832  2.8007
 2130SOL    HW217850   0.599   1.154   1.490  1.1688 -0.2217  1.4782
 2131SOL     OW17851   0.690   0.373  14.018  0.1726  0.1151  0.3609
 2131SOL    HW117852   0.741   0.328  13.950 -0.1160  0.5018 -0.1122
 2131SOL    HW217853   0.665   0.448  13.964 -1.1941  1.0477  2.2987
 2132SOL     OW17854   0.020   2.041   1.940 -1.1174 -0.4644 -0.2864
 2132SOL    HW117855   0.003   2.104   1.871 -1.5131  2.0757  2.1187
 2132SOL    HW217856   0.111   2.016   1.920  0.1123  3.9835 -0.1707
 2133SOL     OW17857   2.252   4.266   5.021 -0.7776 -0.7689 -0.2770
 2133SOL    HW117858   2.281   4.339   4.966  0.1001  1.4535  3.1744
 2133SOL    HW217859   2.327   4.258   5.079 -1.4376  1.1737  0.8536
 2134SOL     OW17860   0.450   1.471  15.858  0.6777 -0.1538 -0.3331
 2134SOL    HW117861   0.460   1.507  15.770 -0.5733 -2.0075 -1.2340
 2134SOL    HW217862   0.490   1.542  15.909 -4.0565  3.2693 -1.4139
 2135SOL     OW17863   3.383   2.711   0.171 -0.0626 -0.1423  0.0545
 2135SOL    HW117864   3.442   2.744   0.239  0.8927  2.2329 -1.9282
 2135SOL    HW217865   3.343   2.793   0.143 -1.7726  0.2355  3.7030
 2136SOL     OW17866   3.998   4.502  11.044  0.4186  0.2077  0.1637
 2136SOL    HW117867   3.906   4.492  11.020 -0.0689  0.2391  2.0323
 2136SOL    HW217868   4.030   4.420  11.082 -2.1695 -0.2309  1.3959
 2137SOL     OW17869   4.218   1.967  14.652 -0.0480 -0.2165  0.1422
 2137SOL    HW117870   4.313   1.978  14.665 -0.0342  0.2197 -0.3236
 2137SOL    HW217871   4.184   1.981  14.740  0.6088  1.8427  0.0652
 2138SOL     OW17872   3.903   0.818   9.507  0.1600  0.0859  0.3315
 2138SOL    HW117873   3.993   0.804   9.478  0.4742 -0.9972  1.8348
 2138SOL    HW217874   3.911   0.887   9.573 -0.4006  0.3119  0.1677
 2139SOL     OW17875   2.438   1.446   2.746  0.2529 -0.5775 -0.8202
 2139SOL    HW117876   2.358   1.497   2.758  0.4550 -0.6302  0.7462
 2139SOL    HW217877   2.398   1.365   2.714 -1.4597 -0.4961  1.1167
 2140SOL     OW17878   3.710   4.369   0.530 -0.3998 -0.0750  0.2354
 2140SOL    HW117879   3.743   4.310   0.598  2.0853  2.0757  0.8972
 2140SOL    HW217880   3.775   4.439   0.532 -1.9160  1.2619  2.8565
 2141SOL     OW17881   0.198   0.330   0.569 -0.0970  0.2467  0.3166
 2141SOL    HW117882   0.210   0.408   0.623 -0.4416  0.0741  0.6428
 2141SOL    HW217883   0.178   0.259   0.630  2.9449 -0.5592  0.3592
 2142SOL     OW17884   3.802   3.882  12.661 -0.5407 -0.1538  0.6141
 2142SOL    HW117885   3.892   3.865  12.632 -0.8912 -2.0051  0.5795
 2142SOL    HW217886   3.759   3.833  12.591  0.7138  0.3657 -0.5224
 2143SOL     OW17887   2.026   2.696  13.631 -0.4354  0.3162 -0.6647
 2143SOL    HW117888   1.971   2.644  13.689 -1.0563  1.1618 -0.4986
 2143SOL    HW217889   1.990   2.686  13.543  0.7037  0.3081 -1.1359
 2144SOL     OW17890   4.708   2.172   4.644  0.8070  0.0938  0.1673
 2144SOL    HW117891   4.654   2.179   4.723 -0.2856 -1.5297 -0.4444
 2144SOL    HW217892   0.010   2.081   4.635 -1.9495 -0.8840  1.4197
 2145SOL     OW17893   0.613   2.080   8.289  0.0520 -0.5214 -0.1335
 2145SOL    HW117894   0.542   2.016   8.300  1.9004 -2.1132  2.5980
 2145SOL    HW217895   0.554   2.154   8.306  1.1451  0.2377  0.3292
 2146SOL     OW17896   0.992   1.792   0.553  0.3599 -0.1149  0.1896
 2146SOL    HW117897   1.049   1.796   0.630 -0.2327 -3.1260  0.7871
 2146SOL    HW217898   1.043   1.718   0.520  0.2160 -0.0283 -0.2222
 2147SOL     OW17899   3.981   0.632   6.218 -0.2241  0.7033 -0.1622
 2147SOL    HW117900   3.984   0.543   6.185 -1.4888  1.4258 -2.2004
 2147SOL    HW217901   3.927   0.673   6.150  1.8373  2.3186 -0.8244
 2148SOL     OW17902   2.063   0.889   7.169 -0.3856  0.0611 -0.0542
 2148SOL    HW117903   2.094   0.938   7.245 -2.1663  1.7606 -0.4168
 2148SOL    HW217904   1.987   0.846   7.207 -0.6182 -0.0409 -0.6309
 2149SOL     OW17905   3.567   2.912   6.765 -0.5712  0.2450 -0.0437
 2149SOL    HW117906   3.522   2.969   6.828  2.1335  0.0455  2.0840
 2149SOL    HW217907   3.596   2.837   6.817 -2.0626 -1.1592 -1.2580
 2150SOL     OW17908   2.121   0.403   6.322 -0.1990 -0.6823  0.0869
 2150SOL    HW117909   2.111   0.365   6.234 -2.9699  1.1049 -0.3577
 2150SOL    HW217910   2.073   0.347   6.383 -1.0278  0.5226  0.5216
 2151SOL     OW17911   2.805   1.144   5.578 -0.8842 -0.6749  0.6158
 2151SOL    HW117912   2.756   1.220   5.610  1.6269  1.3960 -0.4172
 2151SOL    HW217913   2.849   1.182   5.501 -4.3166 -0.3914 -1.2316
 2152SOL     OW17914   4.143   1.435   2.871 -0.0060 -0.2775 -0.0947
 2152SOL    HW117915   4.199   1.364   2.840  0.5250  0.4053 -0.7014
 2152SOL    HW217916   4.141   1.401   2.960 -0.4104 -2.2892 -0.8753
 2153SOL     OW17917   0.674   2.135   6.015 -0.1487  0.6895  0.0746
 2153SOL    HW117918   0.751   2.186   5.989  0.6942  0.1606  1.5223
 2153SOL    HW217919   0.688   2.126   6.110 -0.5136  2.3415  0.2891
 2154SOL     OW17920   2.195   0.407   2.808  0.9165 -0.0319 -0.2287
 2154SOL    HW117921   2.222   0.464   2.880 -1.6365 -0.1036  0.7654
 2154SOL    HW217922   2.108   0.382   2.839  0.8291  0.5602  0.0059
 2155SOL     OW17923   2.744   1.284   8.123 -0.0654 -0.1765 -0.1851
 2155SOL    HW117924   2.704   1.266   8.208  1.0673  0.0651  0.3902
 2155SOL    HW217925   2.789   1.366   8.139 -0.6703  0.1400 -0.1124
 2156SOL     OW17926   4.680   0.202   0.512 -0.1794 -0.6982  0.6058
 2156SOL    HW117927   0.021   0.174   0.449 -0.4666  1.4925 -0.6950
 2156SOL    HW217928   4.664   0.119   0.557  0.9976 -0.0290  2.2621
 2157SOL     OW17929   0.067   2.211   9.207  0.2152 -0.2886 -0.3125
 2157SOL    HW117930   0.123   2.151   9.158  1.0667 -0.6961  1.1539
 2157SOL    HW217931   0.089   2.297   9.172  0.0413 -0.2738 -0.3887
 2158SOL     OW17932   1.060   0.520   6.051  0.1104  0.2166 -0.2156
 2158SOL    HW117933   1.104   0.600   6.022  0.1754  0.0790 -0.4989
 2158SOL    HW217934   1.005   0.561   6.118  0.7963 -0.4681  0.7589
 2159SOL     OW17935   1.009   4.697   4.850  0.4742 -0.1330 -0.2107
 2159SOL    HW117936   0.948   4.633   4.813  0.8839 -1.3053  1.1563
 2159SOL    HW217937   0.988   0.049   4.799  1.0847  0.1364 -0.0584
 2160SOL     OW17938   1.392   3.271   4.113  0.1594 -0.0666 -0.4034
 2160SOL    HW117939   1.379   3.214   4.189  1.0852 -0.3324 -0.4483
 2160SOL    HW217940   1.305   3.260   4.074 -0.7326  2.2877  0.9102
 2161SOL     OW17941   0.214   3.899   3.672  0.7101  0.2295 -0.2834
 2161SOL    HW117942   0.141   3.837   3.678  0.5449  0.3681 -0.8435
 2161SOL    HW217943   0.287   3.846   3.640  0.8810  1.0076 -1.1685
 2162SOL     OW17944   4.089   0.316   7.375 -0.1051  0.3655  0.2211
 2162SOL    HW117945   4.074   0.342   7.284 -1.1816  0.4528  0.4113
 2162SOL    HW217946   4.066   0.393   7.427 -2.7375  0.1200 -0.5743
 2163SOL     OW17947   4.419   0.872  14.822 -0.4974  0.5145  0.7939
 2163SOL    HW117948   4.386   0.782  14.829 -2.9705  1.4186  0.7996
 2163SOL    HW217949   4.510   0.850  14.803 -1.9506 -3.6007 -1.4063
 2164SOL     OW17950   1.064   3.503   4.617 -0.1643 -0.0593 -0.3415
 2164SOL    HW117951   1.042   3.445   4.544 -4.0139  0.3672  0.4814
 2164SOL    HW217952   0.985   3.492   4.669 -0.6483 -1.4059 -1.3663
 2165SOL     OW17953   0.054   3.353   3.696 -0.3286  0.5031 -0.7370
 2165SOL    HW117954   0.022   3.346   3.606  0.6118 -0.2636 -1.0080
 2165SOL    HW217955   0.143   3.379   3.673 -0.2082  1.8288  1.2544
 2166SOL     OW17956   3.099   3.653   4.876  0.2735 -0.4675  0.5215
 2166SOL    HW117957   3.017   3.688   4.841 -0.7738 -3.8852 -0.3674
 2166SOL    HW217958   3.162   3.700   4.822 -1.1868  1.9777  0.9003
 2167SOL     OW17959   0.899   3.744   7.272  0.5289 -0.2845  0.2692
 2167SOL    HW117960   0.950   3.673   7.232  0.7627  0.4580 -0.7403
 2167SOL    HW217961   0.858   3.783   7.195 -2.0316 -0.4619  1.5661
 2168SOL     OW17962   4.294   1.895   9.668 -0.3116 -0.7235 -0.0886
 2168SOL    HW117963   4.370   1.845   9.700  0.2630  0.3272  0.1876
 2168SOL    HW217964   4.251   1.906   9.753 -0.5657 -2.0267 -0.0480
 2169SOL     OW17965   1.753   3.547   5.948  0.0675  0.2644  0.4083
 2169SOL    HW117966   1.804   3.573   5.871 -0.0539  0.6052  0.4421
 2169SOL    HW217967   1.823   3.562   6.012 -0.1471  1.8607  0.2659
 2170SOL     OW17968   1.956   0.105   1.554  0.4753  0.0526  0.7536
 2170SOL    HW117969   1.888   0.161   1.591  0.4057  1.2692 -1.2049
 2170SOL    HW217970   2.009   0.065   1.623 -0.3357  0.6114  1.6822
 2171SOL     OW17971   2.465   3.529   1.727  0.2165 -0.1918 -0.7139
 2171SOL    HW117972   2.402   3.578   1.673  0.4615  1.3431  0.3906
 2171SOL    HW217973   2.509   3.465   1.672 -0.0113  0.2249 -1.3821
 2172SOL     OW17974   0.580   2.115   8.874  0.4974  0.0813 -0.5393
 2172SOL    HW117975   0.659   2.069   8.843 -0.4438 -2.0304  0.1663
 2172SOL    HW217976   0.619   2.190   8.919  0.3099 -1.2435  1.8140
 2173SOL     OW17977   1.564   4.455   0.681  0.7046  0.1638 -0.2455
 2173SOL    HW117978   1.658   4.469   0.694  0.9373 -4.0401  2.3417
 2173SOL    HW217979   1.564   4.449   0.585 -2.0746  0.3302 -0.2613
 2174SOL     OW17980   3.028   2.484   9.489  0.7389 -0.4605 -0.0454
 2174SOL    HW117981   2.997   2.395   9.505  1.0609 -0.8583 -1.6914
 2174SOL    HW217982   3.124   2.476   9.496  0.6481  0.1132  1.9859
 2175SOL     OW17983   2.716   1.605   4.405  0.4561 -0.9628  0.9414
 2175SOL    HW117984   2.747   1.589   4.316 -2.2295  1.8141 -0.4694
 2175SOL    HW217985   2.781   1.666   4.439 -0.0529 -1.1807  2.2894
 2176SOL     OW17986   0.032   1.333  17.618  0.5779 -0.5846  0.2152
 2176SOL    HW117987   0.062   1.406  17.672  1.2603  0.9452 -2.2270
 2176SOL    HW217988   0.066   1.256  17.663 -0.4175 -1.6092 -0.8175
 2177SOL     OW17989   3.576   3.861   7.951 -0.0208  0.3278  0.7558
 2177SOL    HW117990   3.546   3.777   7.987  2.7465 -1.9413 -2.1996
 2177SOL    HW217991   3.574   3.905   8.036 -0.6016 -2.1300  2.0500
 2178SOL     OW17992   3.998   1.288   2.384  0.3848  0.0868  0.0408
 2178SOL    HW117993   4.061   1.340   2.334  1.5052  0.6804  2.0537
 2178SOL    HW217994   3.992   1.332   2.469  1.2531  1.5272 -0.6399
 2179SOL     OW17995   0.960   2.520   5.748 -0.2475 -0.1221 -0.1122
 2179SOL    HW117996   0.939   2.594   5.805 -0.9802 -1.3573  1.1935
 2179SOL    HW217997   0.878   2.473   5.760  0.6326 -1.8390 -0.8711
 2180SOL     OW17998   4.655   3.232   5.926 -0.6368  0.4337 -0.5959
 2180SOL    HW117999   4.597   3.257   5.997 -1.3960 -2.6458 -0.1050
 2180SOL    HW218000   4.606   3.256   5.848  0.3546 -0.1887 -1.4195
 2181SOL     OW18001   2.905   0.364   8.927  0.1088  0.4890 -0.2402
 2181SOL    HW118002   2.925   0.361   9.020  1.6830 -0.1745 -0.5986
 2181SOL    HW218003   2.991   0.392   8.893  2.1424 -5.2301  0.1731
 2182SOL     OW18004   2.136   4.094  10.999  0.3117 -0.1262  0.5663
 2182SOL    HW118005   2.178   4.156  11.059 -2.6171  0.4137  2.0668
 2182SOL    HW218006   2.108   4.035  11.069  0.7741  0.2347  1.0550
 2183SOL     OW18007   0.592   1.127   4.915  0.3495  0.7929 -0.3666
 2183SOL    HW118008   0.591   1.223   4.916  0.2476  0.7980 -1.8094
 2183SOL    HW218009   0.639   1.108   4.834 -0.2588  0.2008 -0.5706
 2184SOL     OW18010   0.889   4.519   7.471 -0.1058  0.4673  1.0144
 2184SOL    HW118011   0.837   4.599   7.463  0.0014  0.5868  1.5687
 2184SOL    HW218012   0.971   4.548   7.509  0.4460 -2.9632  2.4393
 2185SOL     OW18013   1.396   2.309   4.908  0.4887 -0.1284  0.0797
 2185SOL    HW118014   1.332   2.339   4.973 -0.9564 -0.9025 -0.9936
 2185SOL    HW218015   1.378   2.215   4.906 -2.0609  0.3380  0.7550
 2186SOL     OW18016   0.298   2.832   9.277  0.1766 -0.2026 -0.7490
 2186SOL    HW118017   0.253   2.759   9.319  0.7894  0.3195  0.8290
 2186SOL    HW218018   0.312   2.888   9.353 -1.2463 -1.2582  0.2906
 2187SOL     OW18019   1.796   3.731   8.680 -0.2469 -0.5131  0.0655
 2187SOL    HW118020   1.855   3.690   8.743  1.1227  1.2345 -0.0772
 2187SOL    HW218021   1.745   3.794   8.731 -0.7533  0.9010 -2.1816
 2188SOL     OW18022   3.991   4.459   6.855 -0.5444 -0.3255 -0.0559
 2188SOL    HW118023   4.023   4.445   6.766 -0.5209  2.4511 -0.4717
 2188SOL    HW218024   3.978   4.373   6.896  0.2740 -1.6802 -2.6658
 2189SOL     OW18025   0.137   0.629  13.166  0.0272 -0.2247 -0.1776
 2189SOL    HW118026   0.044   0.614  13.150 -0.0331  1.2241 -1.1610
 2189SOL    HW218027   0.126   0.711  13.215  1.5437 -0.0595 -0.1180
 2190SOL     OW18028   3.755   1.452  12.976  0.0713 -0.2759 -0.0664
 2190SOL    HW118029   3.751   1.381  12.911  1.2924  0.6942 -1.2138
 2190SOL    HW218030   3.664   1.481  12.978  0.1656  0.1162 -1.3250
 2191SOL     OW18031   4.305   2.153   5.919  0.4562 -0.3040 -0.5710
 2191SOL    HW118032   4.349   2.155   5.833  0.2877  0.2807 -0.6421
 2191SOL    HW218033   4.278   2.245   5.927  0.2128 -0.6192  2.0289
 2192SOL     OW18034   3.322   2.166   5.790 -0.2518 -0.2637  0.0880
 2192SOL    HW118035   3.349   2.181   5.699  1.1989 -1.5137  0.3074
 2192SOL    HW218036   3.406   2.177   5.835 -0.4629 -0.8022  0.6017
 2193SOL     OW18037   3.623   3.033   4.852 -0.0690 -0.4141 -0.0845
 2193SOL    HW118038   3.548   2.984   4.886  0.7090 -1.3174  0.3351
 2193SOL    HW218039   3.682   3.011   4.924  2.2660  1.6844 -1.3331
 2194SOL     OW18040   1.983   4.406   4.712 -0.1484 -0.0588  0.2177
 2194SOL    HW118041   1.892   4.410   4.682 -0.0556 -1.9782 -0.3856
 2194SOL    HW218042   2.027   4.443   4.635  1.9054  0.2869  1.5652
 2195SOL     OW18043   3.526   2.498   0.079  0.2573 -0.0245 -0.1685
 2195SOL    HW118044   3.478   2.570   0.121  1.8260  0.0946  1.3968
 2195SOL    HW218045   3.456   2.440   0.047 -2.5065  2.6488  1.0238
 2196SOL     OW18046   3.258   3.983   3.211 -0.1450 -0.2358 -0.0701
 2196SOL    HW118047   3.297   3.907   3.167 -0.8029  0.9347 -2.6640
 2196SOL    HW218048   3.285   4.052   3.151  1.7518 -1.9600 -1.2267
 2197SOL     OW18049   2.654   4.550   4.605  0.3552 -0.3022  0.4698
 2197SOL    HW118050   2.641   4.613   4.676 -1.8310  2.0285 -1.9835
 2197SOL    HW218051   2.680   4.612   4.536  1.2278 -2.5905 -1.2401
 2198SOL     OW18052   4.286   0.115   3.905  0.0795  0.2023  0.0420
 2198SOL    HW118053   4.211   0.100   3.847  1.5148  0.7802 -1.9463
 2198SOL    HW218054   4.294   0.030   3.948  1.1549  1.4443  2.2719
 2199SOL     OW18055   0.788   1.738   7.908 -0.2885  1.0100  0.5571
 2199SOL    HW118056   0.761   1.825   7.936 -2.9061  0.5416 -0.4557
 2199SOL    HW218057   0.727   1.671   7.938  0.7563 -0.6801 -1.1297
 2200SOL     OW18058   2.542   1.149   1.384 -0.0735 -0.6956  0.6513
 2200SOL    HW118059   2.499   1.102   1.455 -0.4541 -1.2527  0.0555
 2200SOL    HW218060   2.480   1.150   1.311  0.4811  1.0006  0.2039
 2201SOL     OW18061   0.250   1.190   4.281 -0.3067 -0.0791 -0.0726
 2201SOL    HW118062   0.306   1.116   4.304  0.3012  0.3977 -0.0127
 2201SOL    HW218063   0.164   1.150   4.266 -0.5127 -0.7870  2.8592
 2202SOL     OW18064   3.606   2.043   7.484 -0.3696  0.3332  0.5135
 2202SOL    HW118065   3.646   2.114   7.434 -1.3990 -0.2265 -1.1209
 2202SOL    HW218066   3.688   2.009   7.520 -0.3842  0.5226  0.7295
 2203SOL     OW18067   4.423   1.546   9.230 -0.0134  0.7406 -0.3155
 2203SOL    HW118068   4.388   1.613   9.288  0.6883 -0.1371  1.1320
 2203SOL    HW218069   4.517   1.566   9.233 -0.2139  1.6014  0.1908
 2204SOL     OW18070   1.270   1.277   7.321 -0.4535  0.0902 -0.3636
 2204SOL    HW118071   1.264   1.326   7.239 -2.1762  0.8596  0.2237
 2204SOL    HW218072   1.358   1.239   7.327 -0.3231  0.6677  1.1850
 2205SOL     OW18073   4.265   1.305   2.656 -0.0753  0.4919  0.0565
 2205SOL    HW118074   4.270   1.261   2.572  1.2222  0.5394  0.1226
 2205SOL    HW218075   4.335   1.370   2.661  0.8864 -0.5741  0.2999
 2206SOL     OW18076   3.961   3.860  17.459 -0.0873  0.8770 -0.2322
 2206SOL    HW118077   3.959   3.772  17.497  0.3288  0.4433 -1.1944
 2206SOL    HW218078   3.892   3.850  17.393 -0.4068 -0.1274  0.2423
 2207SOL     OW18079   0.415   0.949  15.393  0.9125  0.1524  0.0877
 2207SOL    HW118080   0.411   0.953  15.297 -0.2389 -1.0453  0.0795
 2207SOL    HW218081   0.491   0.891  15.402  0.7255 -0.3969 -1.7248
 2208SOL     OW18082   1.469   4.478   8.437  0.1886  0.0115  0.5083
 2208SOL    HW118083   1.471   4.452   8.529  0.7454 -0.7407  0.2847
 2208SOL    HW218084   1.557   4.454   8.410  0.6349  1.1278  0.9903
 2209SOL     OW18085   2.367   2.003  13.244 -0.1907 -0.6376 -0.3519
 2209SOL    HW118086   2.337   2.030  13.157  0.8683 -4.8862 -2.0668
 2209SOL    HW218087   2.279   1.986  13.278  0.2485  0.5431  1.3251
 2210SOL     OW18088   2.590   3.446   1.511  0.9091  0.2766  0.0809
 2210SOL    HW118089   2.562   3.376   1.451  0.8548  0.7301 -0.4265
 2210SOL    HW218090   2.570   3.521   1.455 -0.2305 -1.8142 -2.3287
 2211SOL     OW18091   0.419   0.061   7.945  0.7557 -0.2570 -0.1823
 2211SOL    HW118092   0.409   0.133   8.007 -1.7403 -0.9815  0.2310
 2211SOL    HW218093   0.354   0.001   7.979 -0.3709  0.9753 -0.1443
 2212SOL     OW18094   2.929   2.513  17.650 -0.4228  0.0409  0.6542
 2212SOL    HW118095   3.020   2.516  17.679 -0.2868  0.7766  0.1469
 2212SOL    HW218096   2.946   2.580  17.583  0.1707 -0.7720 -0.0103
 2213SOL     OW18097   1.003   2.018   0.874  0.1636  0.2891  0.1315
 2213SOL    HW118098   1.015   2.089   0.811  1.2548  0.7087  0.8090
 2213SOL    HW218099   1.057   1.949   0.837  0.6422  0.2941  0.8265
 2214SOL     OW18100   4.168   3.535   7.571  0.6068  0.0340  0.5002
 2214SOL    HW118101   4.138   3.556   7.659  0.7014  0.8051  0.3530
 2214SOL    HW218102   4.226   3.460   7.586 -0.6199 -0.6246  1.9557
 2215SOL     OW18103   2.222   4.578  10.541 -0.2475  0.2574 -0.0641
 2215SOL    HW118104   2.241   4.580  10.447  1.2000  2.2038  0.2673
 2215SOL    HW218105   2.176   4.659  10.560 -0.0529  0.3573 -0.0150
 2216SOL     OW18106   4.092   3.218   5.319 -1.0734 -0.7074  0.1627
 2216SOL    HW118107   4.124   3.297   5.274  1.4491 -1.7177  0.1495
 2216SOL    HW218108   4.037   3.261   5.385 -0.1147 -3.3405  2.6624
 2217SOL     OW18109   2.304   2.279   9.356 -0.4277 -0.2063 -0.5066
 2217SOL    HW118110   2.391   2.287   9.395 -0.7802 -1.0289  0.4595
 2217SOL    HW218111   2.253   2.317   9.428  0.6044  1.0754 -0.4571
 2218SOL     OW18112   1.331   4.460   9.511 -0.1695 -0.0225 -0.2114
 2218SOL    HW118113   1.408   4.479   9.457  0.5760 -0.7220  0.5959
 2218SOL    HW218114   1.351   4.524   9.580  0.7065 -1.2875  0.7288
 2219SOL     OW18115   1.671   0.255   3.680  0.2818  0.2684  0.0268
 2219SOL    HW118116   1.591   0.271   3.630  0.3379  0.6308  0.0560
 2219SOL    HW218117   1.678   0.335   3.733  0.0986 -0.1327  0.6579
 2220SOL     OW18118   0.701   2.856   2.228 -0.1027  0.0301 -0.1154
 2220SOL    HW118119   0.785   2.828   2.266 -0.7552 -1.8558 -0.1084
 2220SOL    HW218120   0.687   2.796   2.155  0.7824  1.0797 -1.1505
 2221SOL     OW18121   0.776   1.202   7.511  0.0286 -0.3343  0.6927
 2221SOL    HW118122   0.839   1.273   7.514 -1.4610  0.9928  0.1946
 2221SOL    HW218123   0.833   1.125   7.520  2.8991  1.5136 -1.7311
 2222SOL     OW18124   0.285   1.987   7.386  0.0395  0.8075  0.8686
 2222SOL    HW118125   0.283   1.919   7.453  1.0102 -1.3778 -1.3031
 2222SOL    HW218126   0.376   1.969   7.362  0.3136  0.7952  1.9149
 2223SOL     OW18127   3.711   3.407   3.998  0.4112  0.1012  0.1721
 2223SOL    HW118128   3.701   3.312   3.996 -0.1296  0.2197 -2.1272
 2223SOL    HW218129   3.622   3.437   3.977  0.6938  1.2609  0.5811
 2224SOL     OW18130   2.992   1.182   6.452  0.7542  0.0013 -0.0591
 2224SOL    HW118131   2.990   1.261   6.399  0.9783  1.0708  1.5275
 2224SOL    HW218132   3.054   1.216   6.516 -0.6861 -0.3398  1.5171
 2225SOL     OW18133   2.288   4.018  12.287  0.0733  0.6763  0.2065
 2225SOL    HW118134   2.381   4.036  12.276  0.2160 -0.2597 -0.0883
 2225SOL    HW218135   2.255   4.105  12.262  1.3050  2.0703  3.3235
 2226SOL     OW18136   0.600   2.859   9.428  0.1782 -0.0881 -0.5682
 2226SOL    HW118137   0.523   2.914   9.441  0.1392 -0.6921  1.6679
 2226SOL    HW218138   0.619   2.871   9.335  2.1694  1.8970  0.0651
 2227SOL     OW18139   1.602   4.482   5.336  0.1616  0.1524 -0.6554
 2227SOL    HW118140   1.535   4.484   5.268 -0.4557  2.1428  0.0264
 2227SOL    HW218141   1.587   4.569   5.374 -1.7896 -0.5385  0.1501
 2228SOL     OW18142   1.265   2.529  13.625  0.0503 -0.5296  0.3736
 2228SOL    HW118143   1.314   2.471  13.683 -1.4223 -1.5099  0.6469
 2228SOL    HW218144   1.323   2.605  13.619 -1.3133  0.5528  0.7175
 2229SOL     OW18145   0.689   3.115   3.298 -0.2254  0.0928 -0.1895
 2229SOL    HW118146   0.771   3.069   3.316 -1.0434 -0.9807  0.7579
 2229SOL    HW218147   0.633   3.057   3.350 -0.7913 -0.0181 -0.9254
 2230SOL     OW18148   3.990   4.153  13.201  0.7094  0.3575  0.4355
 2230SOL    HW118149   4.025   4.118  13.119  2.7162  1.4567  0.8086
 2230SOL    HW218150   3.902   4.115  13.198  1.5043 -1.3722 -0.5877
 2231SOL     OW18151   0.373   3.624   2.773 -0.0851 -0.0462  0.3536
 2231SOL    HW118152   0.359   3.540   2.818  1.9511  0.6164  2.2801
 2231SOL    HW218153   0.285   3.646   2.745 -1.2845 -2.8696  1.9328
 2232SOL     OW18154   4.326   3.973  11.294  0.5114  0.1246 -0.2849
 2232SOL    HW118155   4.324   3.880  11.317  0.3666 -0.0454 -0.9658
 2232SOL    HW218156   4.362   4.025  11.365  1.4220 -2.2992  1.0092
 2233SOL     OW18157   2.844   3.444   2.969 -0.2017 -0.7420 -0.0928
 2233SOL    HW118158   2.869   3.352   2.963  3.8113  0.1572  1.9633
 2233SOL    HW218159   2.892   3.471   3.048 -0.2943  0.1753 -0.3415
 2234SOL     OW18160   3.623   0.428  14.466 -0.0404 -0.0866 -0.8938
 2234SOL    HW118161   3.675   0.468  14.397  2.7205  0.3971  1.4499
 2234SOL    HW218162   3.628   0.486  14.542  0.7855 -2.7122  1.0912
 2235SOL     OW18163   0.460   2.926   8.722  0.3072 -0.2840 -0.2624
 2235SOL    HW118164   0.540   2.953   8.676  0.0959 -0.4369 -0.7214
 2235SOL    HW218165   0.430   2.874   8.648  0.9643 -1.1557  0.0877
 2236SOL     OW18166   3.635   1.389   4.383 -0.1009  0.3254  0.2853
 2236SOL    HW118167   3.604   1.478   4.400  1.0453  1.1469 -1.9321
 2236SOL    HW218168   3.674   1.405   4.296  1.9113  0.2419  1.1772
 2237SOL     OW18169   0.216   3.574   8.431 -0.3982 -0.1728  0.0089
 2237SOL    HW118170   0.288   3.578   8.494  1.2065 -1.4336 -1.7298
 2237SOL    HW218171   0.226   3.664   8.400 -0.0069  0.1022  0.9237
 2238SOL     OW18172   1.804   3.902   7.713  0.1613  0.4386 -0.8646
 2238SOL    HW118173   1.728   3.879   7.767  1.8234 -0.2113  1.2251
 2238SOL    HW218174   1.780   3.856   7.633  0.6598 -1.4004  0.0325
 2239SOL     OW18175   1.603   3.340   0.682  0.3695 -0.6607  0.5178
 2239SOL    HW118176   1.604   3.364   0.774  2.1994 -0.8759  0.5617
 2239SOL    HW218177   1.606   3.245   0.673 -0.8415 -0.4953 -1.7395
 2240SOL     OW18178   2.704   1.289   8.424  0.6550 -0.1420  0.0551
 2240SOL    HW118179   2.655   1.225   8.476 -0.1129 -1.1387 -1.8819
 2240SOL    HW218180   2.642   1.358   8.403  0.2044  0.3624  3.0323
 2241SOL     OW18181   3.611   2.829   3.566 -0.1131  0.6153 -0.2445
 2241SOL    HW118182   3.574   2.804   3.651  0.6341 -0.4611 -0.2367
 2241SOL    HW218183   3.535   2.802   3.515  0.9574 -0.9662 -0.9984
 2242SOL     OW18184   2.768   2.439   5.479  0.6348  0.3695  0.6284
 2242SOL    HW118185   2.789   2.357   5.524 -0.4119  0.1872  0.7714
 2242SOL    HW218186   2.818   2.491   5.543  0.1217  1.0863  0.4459
 2243SOL     OW18187   1.576   3.236   3.207  0.5113 -0.6286 -0.0132
 2243SOL    HW118188   1.653   3.286   3.180  0.9539 -1.4896 -0.3491
 2243SOL    HW218189   1.593   3.151   3.166 -0.0719 -1.2925  1.1046
 2244SOL     OW18190   2.429   3.173   5.494  0.3284  0.4650 -0.2461
 2244SOL    HW118191   2.466   3.112   5.558 -2.0095  0.0334  0.6890
 2244SOL    HW218192   2.508   3.176   5.439  1.5353  0.6931  1.4695
 2245SOL     OW18193   1.636   1.119  16.356 -0.4388  0.2610  0.0687
 2245SOL    HW118194   1.598   1.067  16.427 -0.8588  2.2639  1.3188
 2245SOL    HW218195   1.632   1.210  16.387  1.8753 -0.2601  1.8788
 2246SOL     OW18196   4.366   2.458   0.755  0.0071 -0.2716 -0.5057
 2246SOL    HW118197   4.397   2.497   0.674  0.6901 -1.0927 -0.6456
 2246SOL    HW218198   4.272   2.469   0.741  0.5844  2.4265 -2.1426
 2247SOL     OW18199   0.858   1.080   6.472 -0.4227 -0.3660  0.0696
 2247SOL    HW118200   0.801   1.099   6.546  1.4212  1.8989  0.8964
 2247SOL    HW218201   0.870   0.986   6.484 -2.1306 -0.4275  1.2684
 2248SOL     OW18202   0.605   1.859   2.068  0.2507 -0.5624 -0.9012
 2248SOL    HW118203   0.655   1.818   1.997 -0.7234 -0.6695 -1.5194
 2248SOL    HW218204   0.563   1.935   2.028 -0.5706 -0.2201  0.6462
 2249SOL     OW18205   3.732   4.440   8.515 -0.2971 -0.1614  0.9769
 2249SOL    HW118206   3.784   4.517   8.494 -1.4474  0.4030  0.1807
 2249SOL    HW218207   3.682   4.431   8.434  0.8823  0.3477  0.2042
 2250SOL     OW18208   0.285   0.614   3.262 -0.0782 -0.0995 -0.2689
 2250SOL    HW118209   0.320   0.602   3.350  0.1372  2.8686  0.0408
 2250SOL    HW218210   0.198   0.652   3.274 -0.4885 -1.6732  1.7636
 2251SOL     OW18211   3.530   0.156   3.897  0.1544 -0.1536 -0.0158
 2251SOL    HW118212   3.554   0.247   3.880  1.5169 -0.3809  0.7621
 2251SOL    HW218213   3.451   0.143   3.843  0.2094  1.8454 -0.5809
 2252SOL     OW18214   3.850   3.369  14.559 -0.3051 -0.5251 -0.3057
 2252SOL    HW118215   3.901   3.318  14.496 -1.4897  0.4073 -2.0274
 2252SOL    HW218216   3.913   3.425  14.604 -0.3535  1.5767 -2.9229
 2253SOL     OW18217   0.506   2.509  12.659  0.1323  0.3594 -0.1604
 2253SOL    HW118218   0.464   2.427  12.685 -1.6214  0.9484 -1.2062
 2253SOL    HW218219   0.467   2.516  12.572  0.4434  0.4930 -0.2915
 2254SOL     OW18220   4.442   4.535  12.381 -0.2032 -0.6572 -0.5540
 2254SOL    HW118221   4.489   4.455  12.360 -1.4787 -1.6871  0.5757
 2254SOL    HW218222   4.512   4.582  12.427 -1.3643  1.9167 -1.3659
 2255SOL     OW18223   2.299   4.411  13.901  0.0918 -0.0187  0.1090
 2255SOL    HW118224   2.339   4.397  13.987  0.7400 -1.0624 -0.3562
 2255SOL    HW218225   2.274   4.503  13.910  0.8480  0.0330  1.5929
 2256SOL     OW18226   3.533   1.749   7.827  0.2827  0.4082 -0.4011
 2256SOL    HW118227   3.565   1.839   7.832 -1.0293  0.8509  0.0610
 2256SOL    HW218228   3.488   1.750   7.912  1.1998 -1.2189  0.0917
 2257SOL     OW18229   0.310   1.571  12.016 -0.2366 -0.0524  0.1821
 2257SOL    HW118230   0.318   1.605  11.927 -1.6852 -1.5190 -0.4855
 2257SOL    HW218231   0.292   1.655  12.059 -0.0088 -0.3473  0.8553
 2258SOL     OW18232   0.587   1.526   1.776 -0.3828 -0.0788 -0.6342
 2258SOL    HW118233   0.617   1.509   1.865  0.6940  1.4770 -0.7161
 2258SOL    HW218234   0.521   1.457   1.771 -1.8117  1.1511  1.3677
 2259SOL     OW18235   1.017   1.365   8.445 -0.5449  0.3910 -0.1956
 2259SOL    HW118236   1.084   1.315   8.491 -1.8570  0.2328  1.5673
 2259SOL    HW218237   1.070   1.399   8.373  0.2571  0.6540  0.5168
 2260SOL     OW18238   2.572   4.393   3.750  0.0220  0.6497  0.2495
 2260SOL    HW118239   2.549   4.300   3.755  0.8974  0.5026  1.3118
 2260SOL    HW218240   2.649   4.410   3.804 -0.2693  0.8520  0.5948
 2261SOL     OW18241   1.993   4.650  11.670 -0.2541  0.4965  0.0091
 2261SOL    HW118242   1.906   4.673  11.639 -0.3404 -1.0811 -0.9471
 2261SOL    HW218243   1.994   4.677  11.762  0.3734  0.4478  0.0168
 2262SOL     OW18244   2.298   3.292  12.341  0.5298  0.5081 -0.4900
 2262SOL    HW118245   2.243   3.215  12.330  0.3626  0.5697 -0.1016
 2262SOL    HW218246   2.256   3.330  12.418  0.8105  0.0731 -0.1201
 2263SOL     OW18247   0.855   3.742   5.021  0.2312  0.3571  0.0823
 2263SOL    HW118248   0.872   3.656   5.059 -0.8678  0.0961 -0.0328
 2263SOL    HW218249   0.792   3.766   5.090 -1.5490  0.1030 -1.4729
 2264SOL     OW18250   4.449   1.377   6.755  0.3294  0.1703 -0.1868
 2264SOL    HW118251   4.368   1.421   6.781  0.6591  1.1275 -0.7782
 2264SOL    HW218252   4.489   1.446   6.701  0.5533  2.0655  2.3615
 2265SOL     OW18253   4.398   2.368   6.783 -0.8701 -0.1382  0.0595
 2265SOL    HW118254   4.460   2.338   6.716 -1.2994  0.0516 -0.4239
 2265SOL    HW218255   4.453   2.361   6.861 -0.9076  2.3964  0.3165
 2266SOL     OW18256   1.075   2.928   5.396 -0.6338 -0.2941 -0.1382
 2266SOL    HW118257   0.990   2.900   5.431 -1.0932 -0.9352 -1.7840
 2266SOL    HW218258   1.138   2.857   5.411  0.1566  0.4055 -0.1280
 2267SOL     OW18259   3.882   0.854  15.109  0.4090  0.5752 -0.0476
 2267SOL    HW118260   3.881   0.921  15.178 -2.3259  0.3929  0.1024
 2267SOL    HW218261   3.833   0.789  15.160 -0.6671 -0.1673 -2.0419
 2268SOL     OW18262   3.459   1.443   8.020  0.4440  0.0489  0.0493
 2268SOL    HW118263   3.495   1.518   7.974 -1.3776  0.6130 -0.4843
 2268SOL    HW218264   3.485   1.374   7.959 -0.0467  0.4919 -0.6645
 2269SOL     OW18265   2.499   1.263   9.930 -0.0586 -0.1390  0.2472
 2269SOL    HW118266   2.404   1.270   9.925 -0.0921 -0.4163  0.5263
 2269SOL    HW218267   2.507   1.175   9.966  1.4777  0.7454  2.0578
 2270SOL     OW18268   3.626   0.432   2.864  0.5969  0.0260  0.3419
 2270SOL    HW118269   3.640   0.431   2.958  2.8367 -0.0957  0.0168
 2270SOL    HW218270   3.636   0.339   2.846 -1.1485 -0.3254  1.2100
 2271SOL     OW18271   1.034   1.635   7.946  0.4541 -0.1754  0.0681
 2271SOL    HW118272   1.052   1.600   7.859  1.2000  0.2899  0.0304
 2271SOL    HW218273   0.944   1.667   7.943  0.7800  0.7593  0.0536
 2272SOL     OW18274   1.926   1.569   9.976 -0.0070  0.4109  0.1520
 2272SOL    HW118275   1.878   1.509   9.919 -0.6758 -0.9351  2.1316
 2272SOL    HW218276   1.875   1.558  10.056  1.1451 -3.8718  0.2951
 2273SOL     OW18277   2.641   2.553   4.303 -0.0053  0.2554  0.1494
 2273SOL    HW118278   2.638   2.498   4.381  0.9219 -0.6970 -0.4899
 2273SOL    HW218279   2.735   2.569   4.298  0.2161 -0.8929  0.6504
 2274SOL     OW18280   0.826   2.808   7.821 -0.4487 -0.0231 -0.0942
 2274SOL    HW118281   0.800   2.899   7.806  0.0236  0.0934 -0.2163
 2274SOL    HW218282   0.884   2.789   7.747 -0.5778  1.4069 -0.5723
 2275SOL     OW18283   1.795   0.401   5.667  0.1129  0.3293 -0.3332
 2275SOL    HW118284   1.853   0.423   5.594  1.9005 -2.4490  0.2353
 2275SOL    HW218285   1.850   0.346   5.723 -0.8778  0.0186  0.3385
 2276SOL     OW18286   1.068   2.193   2.230  0.1944  0.2478  0.0563
 2276SOL    HW118287   1.136   2.161   2.290  1.2007  0.1264 -1.1450
 2276SOL    HW218288   0.998   2.211   2.292  1.1467  2.1735  0.5740
 2277SOL     OW18289   0.222   2.053  13.223  0.0621 -0.6005 -0.6871
 2277SOL    HW118290   0.230   1.959  13.241  0.0680 -0.5061 -0.1893
 2277SOL    HW218291   0.297   2.094  13.266 -0.1045 -0.4278 -0.5666
 2278SOL     OW18292   0.338   1.417   5.140  0.1111 -0.1037 -0.2996
 2278SOL    HW118293   0.256   1.460   5.161 -0.1532 -1.0705  0.6228
 2278SOL    HW218294   0.359   1.466   5.061  1.2907  0.5265  0.3997
 2279SOL     OW18295   4.289   1.967   6.111  0.3443 -0.2209 -0.7763
 2279SOL    HW118296   4.312   2.016   6.032 -1.8022  0.5702 -0.9088
 2279SOL    HW218297   4.300   2.038   6.175 -3.7875  0.0131 -0.3345
 2280SOL     OW18298   3.570   4.392   3.445  0.7978 -0.1009 -0.0731
 2280SOL    HW118299   3.651   4.361   3.403  0.6568  1.5271 -1.5916
 2280SOL    HW218300   3.513   4.317   3.428 -0.4674  0.9165 -0.3068
 2281SOL     OW18301   4.390   2.553   4.752 -0.4908 -0.6600 -0.3746
 2281SOL    HW118302   4.404   2.643   4.779  0.1736 -1.7172  2.7907
 2281SOL    HW218303   4.467   2.528   4.701  0.8932  1.4883  0.6592
 2282SOL     OW18304   3.471   1.524   8.963  0.4021  0.5772  0.4822
 2282SOL    HW118305   3.505   1.506   9.051  3.1486 -0.1592 -0.7166
 2282SOL    HW218306   3.408   1.594   8.975 -3.2438 -2.5411 -0.6041
 2283SOL     OW18307   3.444   1.990  13.778 -0.2538  0.0915  0.8649
 2283SOL    HW118308   3.412   1.902  13.757 -2.1517  0.8032  0.8240
 2283SOL    HW218309   3.364   2.039  13.795 -0.2413  0.2207  0.5413
 2284SOL     OW18310   2.787   0.694   8.737  0.0259  0.5937 -0.0692
 2284SOL    HW118311   2.878   0.724   8.743 -0.6142  2.1811  1.6312
 2284SOL    HW218312   2.804   0.600   8.737 -2.5690  0.1311  2.0102
 2285SOL     OW18313   1.037   2.626   5.253  0.1763 -0.2580  0.3956
 2285SOL    HW118314   1.031   2.593   5.163 -2.2938  0.2636  0.3445
 2285SOL    HW218315   0.960   2.587   5.295  0.3052 -0.9803 -0.0263
 2286SOL     OW18316   0.103   1.365   7.264 -0.0780  0.2828 -0.4518
 2286SOL    HW118317   0.027   1.309   7.278  0.1642  0.2750  0.8518
 2286SOL    HW218318   0.123   1.333   7.177  0.9632  2.8266 -1.1368
 2287SOL     OW18319   0.973   3.404  15.846  0.1659  0.4053  0.9175
 2287SOL    HW118320   0.915   3.477  15.866 -0.1146  0.6260 -0.7394
 2287SOL    HW218321   1.048   3.416  15.905  0.6294 -0.7567  0.5672
 2288SOL     OW18322   0.092   3.973  16.701 -0.8784 -0.8298 -0.1428
 2288SOL    HW118323   0.112   4.043  16.640  0.4564  0.1278  1.4165
 2288SOL    HW218324   0.067   4.017  16.782  2.2005 -0.0580  0.3694
 2289SOL     OW18325   2.687   4.455   0.905 -0.2402  0.1436  0.1816
 2289SOL    HW118326   2.736   4.405   0.840  1.0566  5.0794 -2.6326
 2289SOL    HW218327   2.614   4.474   0.846  0.1151 -0.7889 -0.5506
 2290SOL     OW18328   4.655   2.838   7.682  0.2561  0.9189 -0.0319
 2290SOL    HW118329   4.618   2.804   7.763  0.1964 -0.8878 -0.8045
 2290SOL    HW218330   4.594   2.793   7.623  0.1895  0.2653  0.5344
 2291SOL     OW18331   4.045   3.726   7.147 -0.2970 -0.0978  0.2456
 2291SOL    HW118332   3.969   3.695   7.098 -1.0020  1.7553  0.1813
 2291SOL    HW218333   4.073   3.644   7.188 -2.1196 -0.1735  1.3252
 2292SOL     OW18334   4.688   0.472  14.915  0.5566  0.5949  0.0203
 2292SOL    HW118335   0.056   0.489  14.928  1.5084 -3.9084 -0.7233
 2292SOL    HW218336   4.645   0.554  14.939  0.6555  0.6867 -0.1215
 2293SOL     OW18337   1.208   1.949  16.458  0.5775 -0.0655  0.1927
 2293SOL    HW118338   1.241   2.002  16.387  1.0728  0.0095  0.4817
 2293SOL    HW218339   1.115   1.951  16.435  0.5479 -0.6507  0.2612
 2294SOL     OW18340   2.484   3.863  16.253 -0.4573 -0.0029  0.3093
 2294SOL    HW118341   2.543   3.853  16.178 -0.5059  1.5069  0.0672
 2294SOL    HW218342   2.526   3.798  16.309  0.8023 -0.3137 -1.0152
 2295SOL     OW18343   0.537   4.449   7.272 -0.1954 -0.0341 -0.3556
 2295SOL    HW118344   0.478   4.520   7.245 -0.0259  0.1424 -0.2665
 2295SOL    HW218345   0.476   4.376   7.277 -2.0898  1.6473  1.2515
 2296SOL     OW18346   3.899   0.197  17.156  0.2099  0.0625  0.1106
 2296SOL    HW118347   3.910   0.135  17.228  0.8295 -0.5771 -0.5379
 2296SOL    HW218348   3.835   0.261  17.187  1.5515  1.5952 -0.2621
 2297SOL     OW18349   2.447   1.743   4.894  0.5393  0.6013 -0.1016
 2297SOL    HW118350   2.397   1.661   4.895  0.7789  0.4792  2.4245
 2297SOL    HW218351   2.467   1.759   4.802  0.1260 -2.0597 -0.6578
 2298SOL     OW18352   2.184   1.583   8.976  0.0344  0.6497 -0.1806
 2298SOL    HW118353   2.276   1.565   8.994 -0.1325  0.0136  0.0161
 2298SOL    HW218354   2.139   1.576   9.060 -1.2917  1.2280 -0.8537
 2299SOL     OW18355   4.215   3.091  10.675  0.0920 -0.0758  0.3623
 2299SOL    HW118356   4.212   3.186  10.664 -3.5691 -0.0915  1.1570
 2299SOL    HW218357   4.259   3.046  10.603  3.1271  1.1429  1.4572
 2300SOL     OW18358   0.361   3.201   8.556 -0.0892  0.1653 -0.6395
 2300SOL    HW118359   0.354   3.131   8.621  1.8709  1.1221  0.6092
 2300SOL    HW218360   0.305   3.172   8.484  0.0861 -3.5329  0.6864
 2301SOL     OW18361   2.675   3.250   1.856 -0.1348 -0.8521 -0.2666
 2301SOL    HW118362   2.633   3.312   1.915 -0.9704 -0.5752 -1.1609
 2301SOL    HW218363   2.607   3.203   1.809 -0.9750  0.4581 -0.3532
 2302SOL     OW18364   2.159   4.504  16.185  0.0633 -0.2098 -0.2258
 2302SOL    HW118365   2.189   4.492  16.095  0.1670  0.3049 -0.2596
 2302SOL    HW218366   2.075   4.546  16.169  0.7184  1.2038  0.0261
 2303SOL     OW18367   3.841   0.727  10.918 -0.3950  0.1257 -0.0296
 2303SOL    HW118368   3.900   0.655  10.895 -0.6061  0.6810 -2.2589
 2303SOL    HW218369   3.842   0.783  10.841  0.2883 -2.4021 -1.8303
 2304SOL     OW18370   0.961   2.536   2.428  0.0110 -0.4646  0.1803
 2304SOL    HW118371   0.992   2.447   2.447  0.5417 -0.5107 -0.9224
 2304SOL    HW218372   0.899   2.514   2.358 -0.9252  1.6912  0.3280
 2305SOL     OW18373   2.341   0.703   0.412 -0.3330 -0.1367 -0.0010
 2305SOL    HW118374   2.428   0.703   0.373 -0.4898  0.9053 -0.3436
 2305SOL    HW218375   2.284   0.731   0.341 -0.3519  1.6597  0.7190
 2306SOL     OW18376   4.341   2.640   9.073 -0.4139 -0.2374  0.1665
 2306SOL    HW118377   4.418   2.627   9.129  0.3575 -2.1225 -1.3057
 2306SOL    HW218378   4.348   2.735   9.066 -1.3807 -0.0653  1.6830
 2307SOL     OW18379   3.070   1.662   1.586 -0.3249 -0.1251  0.3636
 2307SOL    HW118380   2.983   1.620   1.587 -0.3775 -0.0108  1.1946
 2307SOL    HW218381   3.104   1.625   1.505  0.3192 -3.0029  1.9513
 2308SOL     OW18382   0.333   0.898  13.290  0.1934 -0.4615  0.2967
 2308SOL    HW118383   0.364   0.854  13.211  4.6618  0.3128  1.6047
 2308SOL    HW218384   0.330   0.991  13.267  1.4585 -0.3510  0.5769
 2309SOL     OW18385   2.063   3.307   8.531 -0.0046  0.1829  0.2861
 2309SOL    HW118386   1.970   3.311   8.553  0.1546  2.7301  0.5547
 2309SOL    HW218387   2.072   3.363   8.453  0.0310  1.8262  1.4545
 2310SOL     OW18388   0.998   0.724  13.411 -0.0637  0.6406 -0.4429
 2310SOL    HW118389   0.926   0.760  13.462  0.6279  2.2743 -0.6315
 2310SOL    HW218390   0.976   0.755  13.323  1.4536 -1.2371 -1.4991
 2311SOL     OW18391   3.380   1.184   7.166 -0.1834 -0.3271 -0.6061
 2311SOL    HW118392   3.429   1.222   7.093  1.1575 -0.2992  0.3160
 2311SOL    HW218393   3.432   1.233   7.230 -0.3038  0.6140 -1.2293
 2312SOL     OW18394   0.359   0.393   3.921 -0.0182 -0.3510  0.2118
 2312SOL    HW118395   0.417   0.347   3.982  1.0524 -0.6400 -1.0315
 2312SOL    HW218396   0.395   0.347   3.845 -0.5087 -0.9806  0.3610
 2313SOL     OW18397   1.839   1.273   0.734 -0.0919 -0.1051 -0.7831
 2313SOL    HW118398   1.928   1.308   0.737 -1.3469  2.8096  1.4581
 2313SOL    HW218399   1.836   1.236   0.822  1.6399  2.1807  0.2362
 2314SOL     OW18400   2.107   0.859   8.770  0.0234 -0.7228  0.6697
 2314SOL    HW118401   2.200   0.844   8.753  0.2158  1.8433 -0.4966
 2314SOL    HW218402   2.082   0.870   8.678 -2.2297  0.2066  1.3935
 2315SOL     OW18403   1.819   3.650   1.773  0.3804  0.2406 -0.2332
 2315SOL    HW118404   1.777   3.668   1.857  1.3790 -0.5221  0.4244
 2315SOL    HW218405   1.750   3.688   1.719 -2.3820 -1.6530  1.9277
 2316SOL     OW18406   1.673   1.583  14.618 -0.1704 -0.1624 -0.3389
 2316SOL    HW118407   1.611   1.613  14.551 -0.1365  0.4391 -0.0933
 2316SOL    HW218408   1.693   1.504  14.567 -1.3118  0.3430 -1.5855
 2317SOL     OW18409   0.619   0.080   2.750 -0.4260  0.2777 -0.3327
 2317SOL    HW118410   0.546   0.058   2.692  0.3468  0.1777 -1.2755
 2317SOL    HW218411   0.598   0.170   2.774 -0.9117 -0.3731  1.7168
 2318SOL     OW18412   2.850   0.391   9.260  0.0395 -0.0733  0.2115
 2318SOL    HW118413   2.929   0.379   9.311 -0.6066 -0.7346  1.0676
 2318SOL    HW218414   2.804   0.444   9.326 -2.6531 -1.2090 -0.7215
 2319SOL     OW18415   1.365   3.330   7.953 -0.0459  0.2117  0.1306
 2319SOL    HW118416   1.318   3.359   7.875  0.9231  3.2963  0.7105
 2319SOL    HW218417   1.403   3.251   7.915 -0.7198 -0.7979  1.5391
 2320SOL     OW18418   2.651   1.419   7.118 -0.0576  0.5223 -0.3233
 2320SOL    HW118419   2.675   1.327   7.111 -0.3852  0.3923  0.2690
 2320SOL    HW218420   2.691   1.430   7.204 -1.4391 -0.9074  0.4883
 2321SOL     OW18421   3.145   0.337   4.029  0.4160  0.0759 -0.4405
 2321SOL    HW118422   3.146   0.242   4.039 -0.0681  0.4106  2.8950
 2321SOL    HW218423   3.230   0.353   4.069  0.2256  0.5783 -0.2421
 2322SOL     OW18424   1.540   1.091   6.581  0.0925  0.2304 -0.8486
 2322SOL    HW118425   1.624   1.131   6.559  0.5942 -1.6882 -2.3896
 2322SOL    HW218426   1.568   1.000   6.583 -3.3488 -0.8178  1.3743
 2323SOL     OW18427   2.372   4.478   4.880 -0.2019  0.1775  0.0782
 2323SOL    HW118428   2.318   4.556   4.885 -0.2348  0.1008  0.9889
 2323SOL    HW218429   2.455   4.511   4.914  0.6559 -1.6475 -0.2614
 2324SOL     OW18430   0.616   3.735   1.884  0.0882  0.1390  0.1677
 2324SOL    HW118431   0.639   3.806   1.824  0.8505 -0.2265  0.0276
 2324SOL    HW218432   0.666   3.658   1.858  0.0265  0.0638  0.2711
 2325SOL     OW18433   0.402   0.405   6.973 -0.1364  0.4827  0.1278
 2325SOL    HW118434   0.383   0.468   6.904  1.5590  1.1239  0.2623
 2325SOL    HW218435   0.476   0.443   7.019  0.8026 -1.2917  0.0558
 2326SOL     OW18436   0.303   0.461  14.348  0.2227  0.2927 -0.0849
 2326SOL    HW118437   0.376   0.507  14.391 -1.0570  0.2882  2.0635
 2326SOL    HW218438   0.343   0.453  14.261 -0.7139  2.9672 -0.7850
 2327SOL     OW18439   1.543   0.371   1.540 -0.0828  0.0946 -0.2033
 2327SOL    HW118440   1.487   0.445   1.518  0.8412  1.0999  0.8577
 2327SOL    HW218441   1.578   0.357   1.452  0.1535 -2.1302  0.2473
 2328SOL     OW18442   1.173   3.526   9.045 -0.4377 -0.2844  0.3236
 2328SOL    HW118443   1.212   3.452   9.092 -3.2225  0.2900  3.5506
 2328SOL    HW218444   1.122   3.571   9.113 -1.6328 -2.8052  1.0873
 2329SOL     OW18445   4.265   3.779   5.877  0.0689 -0.6364  0.1470
 2329SOL    HW118446   4.196   3.791   5.942 -0.8100 -0.4600 -0.8212
 2329SOL    HW218447   4.317   3.706   5.912  2.3062  0.3181 -1.1940
 2330SOL     OW18448   0.682   4.221  12.073 -0.0951  0.1305 -0.0296
 2330SOL    HW118449   0.682   4.186  11.984 -0.9660 -1.2580  0.5135
 2330SOL    HW218450   0.675   4.315  12.056 -0.0677  0.3070  0.9480
 2331SOL     OW18451   3.055   2.631   0.548 -0.0911  0.9568  0.0426
 2331SOL    HW118452   3.139   2.604   0.510 -0.7239  0.3539 -0.9428
 2331SOL    HW218453   3.006   2.652   0.469 -0.4979 -1.3405 -0.3211
 2332SOL     OW18454   0.975   1.702   8.551  0.2784 -0.5833  0.2946
 2332SOL    HW118455   1.067   1.677   8.549  0.3699 -0.3095  1.0254
 2332SOL    HW218456   0.975   1.791   8.587  1.5874 -0.3883 -0.1740
 2333SOL     OW18457   1.189   4.410   4.252  0.2555  0.3457 -1.0156
 2333SOL    HW118458   1.271   4.408   4.301 -0.3581 -1.7499 -0.0641
 2333SOL    HW218459   1.212   4.360   4.173 -0.3880 -1.6536  0.0618
 2334SOL     OW18460   3.463   4.309   1.234 -0.4491  0.1735 -0.2107
 2334SOL    HW118461   3.435   4.282   1.321  2.6172 -1.6114  0.2193
 2334SOL    HW218462   3.475   4.226   1.188 -0.2423 -0.2376  0.5860
 2335SOL     OW18463   1.817   1.483   6.670  0.2655  0.5672 -0.5666
 2335SOL    HW118464   1.767   1.405   6.646  0.8159 -0.1897  0.7853
 2335SOL    HW218465   1.872   1.488   6.592 -0.1309 -1.8727 -0.9956
 2336SOL     OW18466   1.047   3.397  11.665  0.4484  0.1042 -0.2622
 2336SOL    HW118467   1.118   3.453  11.697  0.5483 -0.9068  1.3054
 2336SOL    HW218468   1.091   3.366  11.586  0.3329 -0.0374 -0.2722
 2337SOL     OW18469   1.298   0.764   2.317 -0.1792  0.3645 -0.3528
 2337SOL    HW118470   1.348   0.809   2.385 -2.2993  3.5445 -0.8644
 2337SOL    HW218471   1.282   0.680   2.360  0.1883  0.8937  0.8154
 2338SOL     OW18472   0.685   0.161   6.582 -0.2802 -0.4135  0.5236
 2338SOL    HW118473   0.767   0.211   6.586 -1.0434  0.9730 -1.0611
 2338SOL    HW218474   0.638   0.193   6.658  0.1120 -0.3514  0.7400
 2339SOL     OW18475   4.133   1.747   8.198 -0.2845  0.3839  0.3652
 2339SOL    HW118476   4.149   1.726   8.106  0.2620  1.2427  0.2611
 2339SOL    HW218477   4.130   1.653   8.219  0.2063  0.6441  1.6193
 2340SOL     OW18478   0.242   3.339   7.379 -0.1671  0.2573 -0.1787
 2340SOL    HW118479   0.237   3.369   7.470 -0.5879 -0.3473 -0.0026
 2340SOL    HW218480   0.321   3.375   7.338 -1.7000  3.1260 -0.5354
 2341SOL     OW18481   0.130   4.278   7.382  0.1771  0.4307  0.3839
 2341SOL    HW118482   0.042   4.284   7.344 -0.3199 -0.5826  1.3611
 2341SOL    HW218483   0.143   4.373   7.381 -1.0246  0.5729 -1.0334
 2342SOL     OW18484   0.684   3.985  11.625  0.6875  0.1654 -0.4694
 2342SOL    HW118485   0.598   3.949  11.601  0.8144 -0.9693  0.7815
 2342SOL    HW218486   0.742   3.912  11.607 -1.4046 -1.2140 -1.6309
 2343SOL     OW18487   1.511   3.500   0.920  0.2285 -0.3708  0.0710
 2343SOL    HW118488   1.587   3.554   0.940 -0.4221 -0.4744  2.7259
 2343SOL    HW218489   1.449   3.562   0.883  0.7962  0.7513  1.0063
 2344SOL     OW18490   2.209   2.502   3.817 -0.1349 -0.1492 -0.4273
 2344SOL    HW118491   2.131   2.503   3.874  1.6255 -0.1033  1.9797
 2344SOL    HW218492   2.180   2.552   3.741  4.2408  2.7447 -0.1508
 2345SOL     OW18493   1.279   2.725   5.301  0.4533  0.0027 -0.4752
 2345SOL    HW118494   1.306   2.650   5.354 -0.6154  0.1119  0.2114
 2345SOL    HW218495   1.191   2.697   5.274 -0.7174  2.7766  0.4193
 2346SOL     OW18496   0.726   0.806   2.888 -0.3043  0.3495  0.3117
 2346SOL    HW118497   0.709   0.890   2.845 -0.9263  0.8308  1.5027
 2346SOL    HW218498   0.698   0.831   2.976  0.8521  0.2469  0.7028
 2347SOL     OW18499   2.553   0.379   6.751 -0.1666  0.1137 -0.2304
 2347SOL    HW118500   2.632   0.351   6.797 -0.5388 -2.3656 -1.0885
 2347SOL    HW218501   2.492   0.327   6.804  0.7589  1.1594  1.8872
 2348SOL     OW18502   2.467   3.959   6.052  0.1311  0.3976 -0.2013
 2348SOL    HW118503   2.426   3.986   5.970  0.0223 -1.0849 -0.6365
 2348SOL    HW218504   2.527   4.031   6.070 -0.3629  1.3614 -2.3458
 2349SOL     OW18505   3.701   2.633   2.521  0.3198  0.2950 -0.1213
 2349SOL    HW118506   3.702   2.714   2.571  0.2636  0.2605 -0.0636
 2349SOL    HW218507   3.717   2.668   2.434  1.4238 -2.5069 -1.0488
 2350SOL     OW18508   3.133   3.728   8.567  0.6857  0.2932  0.1406
 2350SOL    HW118509   3.122   3.722   8.662 -2.5819 -1.0755 -0.3274
 2350SOL    HW218510   3.046   3.700   8.538  0.9260  1.1474 -1.4227
 2351SOL     OW18511   4.690   3.979   4.609  0.4420  0.1296  0.0172
 2351SOL    HW118512   4.679   3.940   4.695  0.5028  1.5952  0.6837
 2351SOL    HW218513   0.014   3.914   4.560  0.1505 -0.5838  0.6727
 2352SOL     OW18514   3.398   2.749   1.111  0.0474  0.4247  0.3712
 2352SOL    HW118515   3.390   2.704   1.195  1.5152  0.6213  0.6125
 2352SOL    HW218516   3.375   2.835   1.146  1.5734  0.9521  0.0645
 2353SOL     OW18517   2.847   0.669   7.438 -0.2079  0.1133  0.7337
 2353SOL    HW118518   2.827   0.581   7.470  1.5019 -0.4590  0.2154
 2353SOL    HW218519   2.886   0.714   7.513  1.9630 -1.4138  0.5175
 2354SOL     OW18520   3.773   0.795   7.387 -0.2916 -0.1955  0.1099
 2354SOL    HW118521   3.773   0.890   7.376 -1.2023 -0.1717  0.3302
 2354SOL    HW218522   3.733   0.758   7.309  1.0760 -0.1550 -0.6004
 2355SOL     OW18523   4.561   2.260  17.318 -0.0652  0.2273 -0.2043
 2355SOL    HW118524   4.629   2.199  17.288 -0.7611 -0.1468 -1.0199
 2355SOL    HW218525   4.553   2.318  17.243 -1.2315  0.5004  0.1402
 2356SOL     OW18526   0.292   4.455  17.185 -0.5526  0.0221  0.1970
 2356SOL    HW118527   0.349   4.432  17.112 -0.4015 -0.2286  0.3917
 2356SOL    HW218528   0.232   4.382  17.201  2.9093 -3.0245 -0.8538
 2357SOL     OW18529   1.234   4.053   7.556  0.0946  0.1040 -0.2014
 2357SOL    HW118530   1.174   4.057   7.631 -0.6789  2.1469 -0.9306
 2357SOL    HW218531   1.206   3.970   7.517  2.4687 -1.2521  0.9731
 2358SOL     OW18532   4.453   2.201   4.775  0.5641 -0.0620 -0.0906
 2358SOL    HW118533   4.383   2.151   4.732  1.9801 -0.8427 -1.5042
 2358SOL    HW218534   4.398   2.271   4.810 -0.0302  0.3065 -1.7373
 2359SOL     OW18535   2.795   0.968  11.180  0.2560  1.2555 -0.3131
 2359SOL    HW118536   2.778   1.027  11.253 -1.4766 -0.7164  0.8968
 2359SOL    HW218537   2.805   1.029  11.108  0.3494  1.7367  0.1069
 2360SOL     OW18538   0.604   3.169   9.617  0.4701  0.1637 -0.4787
 2360SOL    HW118539   0.662   3.245   9.614  1.2832 -0.4874 -1.2611
 2360SOL    HW218540   0.587   3.164   9.522  0.2962  2.0105 -0.5602
 2361SOL     OW18541   1.711   3.027   1.256  0.2963  0.2483  0.2593
 2361SOL    HW118542   1.726   2.995   1.167 -0.1554  2.9521 -0.7689
 2361SOL    HW218543   1.791   3.079   1.261  0.6045 -0.1563 -0.3710
 2362SOL     OW18544   2.016   1.767  13.429 -0.1259  0.5717 -0.3122
 2362SOL    HW118545   2.100   1.726  13.448 -1.4301  0.7306  5.5764
 2362SOL    HW218546   1.957   1.726  13.492 -1.8712  0.7587 -1.8058
 2363SOL     OW18547   0.471   0.376   8.140  0.2780  0.1872 -0.1972
 2363SOL    HW118548   0.520   0.434   8.083  1.5222 -2.4658 -1.8488
 2363SOL    HW218549   0.379   0.380   8.113  0.0869  1.2254  0.6099
 2364SOL     OW18550   0.386   2.141   4.906  0.3865  0.4092 -0.1681
 2364SOL    HW118551   0.374   2.129   4.812 -0.6459 -0.0792  0.0242
 2364SOL    HW218552   0.481   2.126   4.911  0.2853  0.6005  2.6220
 2365SOL     OW18553   0.094   1.478  15.925  1.0559  0.6111 -0.7467
 2365SOL    HW118554   0.171   1.510  15.971 -0.4868  1.7053  1.0833
 2365SOL    HW218555   0.129   1.494  15.837  1.3001 -0.4115 -0.8359
 2366SOL     OW18556   0.581   1.176   6.564 -0.0523 -0.0177 -0.7504
 2366SOL    HW118557   0.547   1.095   6.527  0.0845 -1.3020  1.8801
 2366SOL    HW218558   0.503   1.228   6.580  0.5499  0.4784  0.5756
 2367SOL     OW18559   3.327   2.961   0.242 -0.4382 -0.4534  0.0417
 2367SOL    HW118560   3.376   2.916   0.311 -1.0064 -1.6642 -0.3403
 2367SOL    HW218561   3.286   3.026   0.300 -1.1973 -0.0157 -0.9911
 2368SOL     OW18562   0.386   3.624   5.479  0.5712 -0.2168 -0.1103
 2368SOL    HW118563   0.436   3.687   5.530  0.5825  0.0374 -0.4391
 2368SOL    HW218564   0.422   3.630   5.391 -0.3096 -0.3713 -0.4862
 2369SOL     OW18565   3.368   3.748   0.436 -0.5798 -0.5636  0.0386
 2369SOL    HW118566   3.418   3.820   0.398 -1.0470 -0.1516  0.2063
 2369SOL    HW218567   3.367   3.677   0.371  0.0509 -0.9977  0.4986
 2370SOL     OW18568   4.322   3.320   5.517 -0.3938 -0.1966 -0.0626
 2370SOL    HW118569   4.317   3.297   5.610 -0.4016 -1.0922 -0.2763
 2370SOL    HW218570   4.232   3.342   5.493 -0.2070  0.7354  0.1123
 2371SOL     OW18571   4.483   2.916   8.554 -0.1326 -0.6911  0.1290
 2371SOL    HW118572   4.578   2.902   8.552 -0.2956 -2.1138  2.1606
 2371SOL    HW218573   4.455   2.839   8.603 -0.0322 -0.2970  0.8114
 2372SOL     OW18574   1.605   1.345   9.342  0.2105  0.1969 -0.1181
 2372SOL    HW118575   1.524   1.339   9.393  1.2314 -1.8655  1.2966
 2372SOL    HW218576   1.663   1.366   9.416 -0.1602  3.4515 -0.7587
 2373SOL     OW18577   2.698   3.382   6.113  0.1481  1.2114 -0.3088
 2373SOL    HW118578   2.712   3.474   6.090 -0.4851  1.0906 -1.1957
 2373SOL    HW218579   2.715   3.345   6.027 -0.6322  1.1106 -0.4247
 2374SOL     OW18580   3.687   2.103  15.173 -0.8178 -0.8276 -0.0409
 2374SOL    HW118581   3.766   2.140  15.133 -1.8658  0.2434 -1.1255
 2374SOL    HW218582   3.633   2.099  15.094 -0.5673 -3.7715 -0.0535
 2375SOL     OW18583   0.344   1.838  17.564  0.2727  0.1121  0.2567
 2375SOL    HW118584   0.314   1.753  17.597  0.9984 -0.1231  0.3068
 2375SOL    HW218585   0.421   1.810  17.515  0.7072  0.9489  0.4551
 2376SOL     OW18586   1.099   3.331   3.748  0.7665 -0.1958 -0.0061
 2376SOL    HW118587   1.156   3.403   3.722  1.7659 -0.9594  0.0560
 2376SOL    HW218588   1.137   3.308   3.833 -1.3676 -0.0682  1.0023
 2377SOL     OW18589   4.215   3.717   2.456 -0.8638 -0.1543  0.1026
 2377SOL    HW118590   4.306   3.696   2.479 -0.8261 -0.2117 -0.0943
 2377SOL    HW218591   4.213   3.810   2.432 -0.0172 -0.0310  0.4984
 2378SOL     OW18592   3.930   3.382   3.609 -0.4202 -0.0460  0.2157
 2378SOL    HW118593   3.907   3.448   3.674 -0.0120 -0.1253  0.4425
 2378SOL    HW218594   3.903   3.422   3.527 -1.9699 -0.3123  0.6040
 2379SOL     OW18595   1.514   0.917   3.393 -0.2812 -0.4617  0.0200
 2379SOL    HW118596   1.588   0.970   3.361 -0.1545  0.4475  1.8259
 2379SOL    HW218597   1.554   0.879   3.471  0.8094  0.7876  0.0661
 2380SOL     OW18598   1.470   0.654   3.222 -0.2015 -0.1122  0.1690
 2380SOL    HW118599   1.380   0.677   3.241 -0.2059 -2.2200  2.8806
 2380SOL    HW218600   1.482   0.718   3.152  1.2644 -1.7870 -1.1376
 2381SOL     OW18601   1.963   2.852   2.280  0.1907 -0.1164 -0.4142
 2381SOL    HW118602   2.057   2.868   2.282  0.2712 -0.8406  1.2705
 2381SOL    HW218603   1.932   2.878   2.193 -1.5238  3.8236  1.3644
 2382SOL     OW18604   2.070   0.331   6.067  0.3743  0.3844  0.6364
 2382SOL    HW118605   2.100   0.380   5.990  1.5416 -0.7760  0.3419
 2382SOL    HW218606   1.978   0.331   6.041  0.9537 -1.8038 -1.4053
 2383SOL     OW18607   3.954   2.971   7.138 -0.1229 -0.3183 -0.8954
 2383SOL    HW118608   3.863   2.979   7.164  0.1861  1.1850 -0.3134
 2383SOL    HW218609   3.943   2.950   7.045 -1.3416 -0.4149 -0.7231
 2384SOL     OW18610   2.811   2.102   4.386 -0.7090 -0.9780 -0.0140
 2384SOL    HW118611   2.754   2.146   4.450  1.4145  2.3315 -0.3921
 2384SOL    HW218612   2.765   2.134   4.309 -0.6787  0.5317  0.5962
 2385SOL     OW18613   0.974   1.104   7.087 -1.0816 -0.8607 -0.0831
 2385SOL    HW118614   1.046   1.108   7.024 -2.1885 -1.5077 -1.3738
 2385SOL    HW218615   1.008   1.050   7.158 -2.0426 -2.4552 -0.8658
 2386SOL     OW18616   3.324   0.342   6.973 -0.2660  0.1296  0.8124
 2386SOL    HW118617   3.288   0.330   6.885  1.0869  0.1861  0.2567
 2386SOL    HW218618   3.411   0.378   6.959  0.7036 -2.3886  0.3721
 2387SOL     OW18619   2.545   4.188   8.062  0.7605  0.0925 -0.9155
 2387SOL    HW118620   2.527   4.268   8.013  0.5354  1.4337  1.3469
 2387SOL    HW218621   2.609   4.214   8.129 -0.8069  1.1181  0.1723
 2388SOL     OW18622   3.704   4.096   7.907 -0.4726  0.0857 -0.4250
 2388SOL    HW118623   3.689   4.002   7.892  0.0978  0.0254 -0.6054
 2388SOL    HW218624   3.784   4.099   7.959  0.8674 -0.8272 -2.4156
 2389SOL     OW18625   1.239   1.597   3.670 -0.0284  0.3914 -0.3163
 2389SOL    HW118626   1.153   1.622   3.704 -1.0683  1.5495 -3.8554
 2389SOL    HW218627   1.227   1.502   3.666  1.1017  0.2080  0.5741
 2390SOL     OW18628   3.245   1.110   4.291  0.1386 -0.0796  0.5336
 2390SOL    HW118629   3.268   1.100   4.383 -0.1148  2.6834  0.9041
 2390SOL    HW218630   3.269   1.027   4.250  0.5091 -0.8432  2.2975
 2391SOL     OW18631   3.855   4.463   2.585  0.3139  0.3277  0.0965
 2391SOL    HW118632   3.835   4.415   2.666  0.3736 -0.5633 -0.4250
 2391SOL    HW218633   3.771   4.447   2.542  0.2358  1.0488 -0.0161
 2392SOL     OW18634   2.623   1.729  11.188  0.3047 -0.1109 -0.5979
 2392SOL    HW118635   2.624   1.755  11.096 -1.2002 -1.6185 -1.0459
 2392SOL    HW218636   2.716   1.717  11.203  0.3054  0.8044  0.1502
 2393SOL     OW18637   1.039   4.603  13.900  0.4696  0.3746 -0.1227
 2393SOL    HW118638   0.971   4.586  13.965 -0.2738  0.1773 -0.9426
 2393SOL    HW218639   1.105   4.535  13.907  0.6455  0.7295  1.5227
 2394SOL     OW18640   0.246   2.388  12.520 -0.0191  0.2582  0.0311
 2394SOL    HW118641   0.167   2.337  12.538  0.0227  0.5734  1.1536
 2394SOL    HW218642   0.300   2.362  12.596 -0.1385  0.8760  0.3294
 2395SOL     OW18643   3.765   3.525   7.885  0.0858  0.4172 -0.2774
 2395SOL    HW118644   3.813   3.547   7.965 -1.4876  0.9834  0.5022
 2395SOL    HW218645   3.682   3.490   7.917 -0.0257  1.7723  0.8852
 2396SOL     OW18646   4.537   0.080   1.910  0.3107 -0.6282 -0.6717
 2396SOL    HW118647   4.473   0.150   1.896  2.9197  1.8673  0.0328
 2396SOL    HW218648   4.619   0.125   1.927  0.2766 -1.5609  2.0017
 2397SOL     OW18649   3.005   4.699   7.697  0.0737 -0.0435  0.1782
 2397SOL    HW118650   3.011   4.642   7.774  0.0577  0.8123  0.8138
 2397SOL    HW218651   2.930   0.028   7.720 -0.4285 -1.0170  0.8585
 2398SOL     OW18652   4.618   1.479  11.601 -0.2790 -0.9188  0.0562
 2398SOL    HW118653   4.581   1.511  11.519  1.0469 -1.0953 -0.5929
 2398SOL    HW218654   4.612   1.554  11.661 -1.4117 -0.1052 -1.0650
 2399SOL     OW18655   0.119   3.170   2.164 -0.5871  0.2391 -0.0752
 2399SOL    HW118656   0.138   3.155   2.257  2.0495  0.2453 -0.6121
 2399SOL    HW218657   0.042   3.116   2.148 -2.2893  2.0578  1.9760
 2400SOL     OW18658   0.925   0.296   7.428  0.1922  0.7854 -0.1897
 2400SOL    HW118659   0.891   0.245   7.355 -0.8641 -0.9254  1.4916
 2400SOL    HW218660   0.845   0.346   7.442  0.0920  1.2100 -2.4050
 2401SOL     OW18661   0.907   2.713   9.320 -0.5850 -0.5603  0.2116
 2401SOL    HW118662   1.002   2.723   9.320 -0.4587 -1.6935  0.2536
 2401SOL    HW218663   0.874   2.796   9.287 -1.4544 -0.8691  0.2756
 2402SOL     OW18664   2.515   0.008   0.704  0.0294 -0.8069  0.6300
 2402SOL    HW118665   2.545   4.714   0.615 -2.1340  0.2707 -0.3357
 2402SOL    HW218666   2.593   0.045   0.746  0.0941 -1.2036  0.8626
 2403SOL     OW18667   0.826   4.607  14.091 -0.2775 -0.0131  0.4023
 2403SOL    HW118668   0.796   4.665  14.161  3.4051  0.5212  1.5446
 2403SOL    HW218669   0.748   4.558  14.063 -0.5030  1.9806 -2.3645
 2404SOL     OW18670   1.238   0.085   7.723  0.1829  0.4481 -0.0617
 2404SOL    HW118671   1.229   4.725   7.763  2.0401  0.3378  0.1172
 2404SOL    HW218672   1.305   0.120   7.782  1.9503  0.6203 -2.1493
 2405SOL     OW18673   2.194   2.013   4.008 -0.1688  0.0167 -0.0241
 2405SOL    HW118674   2.208   1.922   3.980  0.1416 -0.2644  1.0349
 2405SOL    HW218675   2.238   2.063   3.939 -1.4999  0.6106 -0.4446
 2406SOL     OW18676   1.983   3.738   6.521  0.1911 -0.2855  0.2062
 2406SOL    HW118677   1.927   3.770   6.592 -1.1613 -0.4944 -0.7764
 2406SOL    HW218678   2.044   3.809   6.504  0.5368 -0.2057  1.7688
 2407SOL     OW18679   2.303   0.330   3.206  0.2546  0.2001  0.5946
 2407SOL    HW118680   2.327   0.270   3.276  1.0111  1.1858  1.1848
 2407SOL    HW218681   2.222   0.368   3.240  0.3034  1.1368 -0.3340
 2408SOL     OW18682   1.378   4.648  12.604  0.3911 -0.0442  0.0295
 2408SOL    HW118683   1.449   4.711  12.600 -0.9873  1.6065  1.2528
 2408SOL    HW218684   1.337   4.665  12.689 -0.8800 -0.1569 -0.5562
 2409SOL     OW18685   3.275   0.632   3.016 -0.4261  0.2896 -0.0984
 2409SOL    HW118686   3.291   0.675   3.100 -0.1096  1.1206 -0.5845
 2409SOL    HW218687   3.212   0.694   2.980 -1.2294 -0.3211  0.2582
 2410SOL     OW18688   2.017   3.030  14.756  0.7245 -0.1968 -0.2152
 2410SOL    HW118689   2.062   2.950  14.730  1.1830 -0.2939  0.8698
 2410SOL    HW218690   2.089   3.094  14.758  1.1192 -0.6445 -0.2279
 2411SOL     OW18691   1.352   0.589   7.338 -0.2710  0.3189  0.8684
 2411SOL    HW118692   1.400   0.627   7.264  0.5987 -2.4232  0.0600
 2411SOL    HW218693   1.424   0.582   7.401  2.2756 -0.3744 -2.1609
 2412SOL     OW18694   3.426   0.624   7.159 -0.1740 -0.2985 -0.1106
 2412SOL    HW118695   3.431   0.577   7.076  0.4859 -0.3659 -0.0373
 2412SOL    HW218696   3.519   0.614   7.181 -0.1678 -0.6610 -0.3068
 2413SOL     OW18697   4.122   3.692  17.251 -0.1202 -0.3903 -0.2472
 2413SOL    HW118698   4.095   3.691  17.343  1.3644 -0.2400  0.1865
 2413SOL    HW218699   4.041   3.720  17.208  1.2857  0.6265 -2.2504
 2414SOL     OW18700   3.662   3.550   0.216 -0.1709 -0.0731  0.6972
 2414SOL    HW118701   3.721   3.484   0.182  1.3518  0.7509  1.7376
 2414SOL    HW218702   3.696   3.579   0.300 -0.8026 -2.0179  1.6194
 2415SOL     OW18703   0.066   1.788  15.771 -0.1706  0.6359 -0.4400
 2415SOL    HW118704   0.091   1.752  15.686  0.2737 -2.0946  0.8346
 2415SOL    HW218705   0.127   1.861  15.781  2.0585 -1.2416 -0.2082
 2416SOL     OW18706   1.810   3.305   3.562 -0.3727 -0.3116 -0.2049
 2416SOL    HW118707   1.847   3.219   3.541  2.6545  0.6635  1.2137
 2416SOL    HW218708   1.819   3.344   3.475 -0.1765 -1.9006 -0.8992
 2417SOL     OW18709   4.724   2.813   6.062  0.4151 -0.0369 -0.0011
 2417SOL    HW118710   0.036   2.772   5.984  2.4102 -1.1239  1.5252
 2417SOL    HW218711   0.048   2.776   6.135 -0.2237 -0.2939  0.3000
 2418SOL     OW18712   1.766   1.307   4.173  0.0068 -0.5466 -0.9971
 2418SOL    HW118713   1.844   1.357   4.148  0.0332 -0.3057 -0.4392
 2418SOL    HW218714   1.702   1.359   4.125 -1.1155  0.2969  1.4261
 2419SOL     OW18715   4.712   3.610  16.960 -0.4070  0.6904  0.2376
 2419SOL    HW118716   4.657   3.688  16.967 -0.2621  0.7647  0.5649
 2419SOL    HW218717   4.656   3.533  16.973  1.2575 -0.5921 -0.2573
 2420SOL     OW18718   3.718   2.876   7.264 -0.2009  0.5607  0.5087
 2420SOL    HW118719   3.706   2.860   7.358  0.6132  0.1290  0.5409
 2420SOL    HW218720   3.748   2.792   7.229  1.2190  1.2613  0.0335
 2421SOL     OW18721   1.488   2.176   8.447 -0.2240  0.7276 -0.3239
 2421SOL    HW118722   1.510   2.083   8.453  1.5014  1.3747  3.1325
 2421SOL    HW218723   1.418   2.163   8.382 -0.0861  0.3225 -0.3878
 2422SOL     OW18724   4.630   1.883   6.636 -0.2283 -0.2833  0.1652
 2422SOL    HW118725   4.643   1.923   6.722  1.2001 -0.4833  0.0449
 2422SOL    HW218726   4.537   1.862   6.639 -0.4458  1.0502  2.3036
 2423SOL     OW18727   3.684   1.016   7.868 -0.1061 -0.1024  0.1971
 2423SOL    HW118728   3.770   1.005   7.908  0.5991 -0.8610 -1.5379
 2423SOL    HW218729   3.698   0.950   7.800 -0.1365 -0.4678  0.5504
 2424SOL     OW18730   4.557   1.093  11.745  0.6248  0.0312 -0.0244
 2424SOL    HW118731   4.600   1.089  11.831  0.5142 -2.2925 -0.0642
 2424SOL    HW218732   4.632   1.090  11.686 -0.2670 -0.2150 -1.1474
 2425SOL     OW18733   3.111   2.229   3.166  0.7015  0.0312 -0.5732
 2425SOL    HW118734   3.139   2.140   3.183 -0.0957 -0.3555 -1.2927
 2425SOL    HW218735   3.046   2.221   3.096 -1.1176  1.4685  0.9633
 2426SOL     OW18736   0.180   4.147   4.618  0.1026 -0.5309 -0.0625
 2426SOL    HW118737   0.224   4.067   4.646  1.3506  0.5519  1.0904
 2426SOL    HW218738   0.089   4.117   4.610  0.5265 -1.3425 -1.7292
 2427SOL     OW18739   3.628   0.829   6.684 -0.1240  0.6810  0.4195
 2427SOL    HW118740   3.639   0.752   6.629  0.4184  0.0323  1.4469
 2427SOL    HW218741   3.702   0.818   6.744 -1.0746 -1.4319  1.1820
 2428SOL     OW18742   1.975   3.102   3.823  0.1781  0.0214 -0.4194
 2428SOL    HW118743   1.906   3.162   3.851  1.1345 -0.1341  2.2540
 2428SOL    HW218744   1.921   3.022   3.817  0.4378 -0.1958  0.1769
 2429SOL     OW18745   3.644   3.617   6.646 -0.2695  0.2368  0.3483
 2429SOL    HW118746   3.690   3.534   6.660 -2.2467 -1.1759 -1.5490
 2429SOL    HW218747   3.616   3.629   6.737  0.7459  0.8378  0.5870
 2430SOL     OW18748   3.724   0.981   4.836 -0.5265 -0.2500  0.0770
 2430SOL    HW118749   3.636   0.983   4.873 -0.6469  1.8200 -0.3006
 2430SOL    HW218750   3.713   0.949   4.747 -3.7599 -0.0521  0.4286
 2431SOL     OW18751   0.754   1.834  10.822  0.2342  0.2804 -0.7982
 2431SOL    HW118752   0.692   1.818  10.893  2.0471  1.0802  0.9478
 2431SOL    HW218753   0.820   1.768  10.840  0.7373  1.1213  0.3777
 2432SOL     OW18754   3.010   4.708   8.346 -0.1335  0.9790 -0.6722
 2432SOL    HW118755   3.069   0.048   8.310  0.8960  0.2062 -0.4116
 2432SOL    HW218756   2.921   4.726   8.318 -0.8919  0.6395  1.5807
 2433SOL     OW18757   1.937   4.410   3.884  0.0484 -0.0887 -0.2427
 2433SOL    HW118758   1.986   4.424   3.965 -0.6328  0.5612  0.0626
 2433SOL    HW218759   2.005   4.365   3.833  1.2676  0.6278  0.7505
 2434SOL     OW18760   2.624   3.533   4.048  0.1923  0.1773 -0.1649
 2434SOL    HW118761   2.549   3.586   4.022 -0.1034 -0.9316 -1.5724
 2434SOL    HW218762   2.586   3.451   4.078  2.5005 -1.5609 -1.9831
 2435SOL     OW18763   2.158   2.425   5.280 -0.1388 -0.0954  0.5401
 2435SOL    HW118764   2.228   2.369   5.246  0.7635  1.0888  0.4576
 2435SOL    HW218765   2.201   2.487   5.338  0.2511  0.8200 -0.7229
 2436SOL     OW18766   3.384   1.875   6.043  0.1114  0.1045 -0.2446
 2436SOL    HW118767   3.336   1.958   6.039 -3.3172 -1.8319  1.0221
 2436SOL    HW218768   3.319   1.809   6.023 -0.9117  2.2792 -3.9606
 2437SOL     OW18769   1.727   1.783  15.995  0.2354 -0.6995  0.7271
 2437SOL    HW118770   1.730   1.732  16.076 -0.6074 -1.5578  0.2088
 2437SOL    HW218771   1.727   1.721  15.923  0.0687 -1.7925  1.6761
 2438SOL     OW18772   2.134   4.714  14.314  0.0081 -0.0886  0.2502
 2438SOL    HW118773   2.055   0.006  14.262  0.5202  0.4215 -0.3373
 2438SOL    HW218774   2.213   0.023  14.273  0.7624 -0.8941  1.0263
 2439SOL     OW18775   2.178   3.138   5.175 -0.1306  0.0334  0.0034
 2439SOL    HW118776   2.087   3.114   5.156  0.2075 -0.8440 -0.5199
 2439SOL    HW218777   2.172   3.226   5.140 -0.5200 -1.2886 -3.2476
 2440SOL     OW18778   3.564   1.190   8.256 -0.3094 -0.4845  0.3963
 2440SOL    HW118779   3.595   1.280   8.251 -2.3494  0.1825 -0.1159
 2440SOL    HW218780   3.497   1.199   8.324 -0.9054  1.7874 -0.5046
 2441SOL     OW18781   2.595   2.975   7.801  0.1595 -0.4972  0.0916
 2441SOL    HW118782   2.575   3.062   7.765 -0.9523 -0.9931 -0.5133
 2441SOL    HW218783   2.531   2.918   7.757 -1.3388 -0.1842  1.8438
 2442SOL     OW18784   1.717   1.012   5.220 -0.3912 -0.5979  0.2453
 2442SOL    HW118785   1.664   1.090   5.232  0.1973 -0.0438 -0.7615
 2442SOL    HW218786   1.774   1.034   5.146 -0.8946  0.0665  0.0593
 2443SOL     OW18787   0.107   0.210   3.011 -0.5916 -0.4052  0.2020
 2443SOL    HW118788   0.088   0.302   2.993 -0.1525  0.3722  3.7506
 2443SOL    HW218789   0.202   0.218   2.998 -0.0186 -2.4235  3.1224
 2444SOL     OW18790   1.416   2.074   5.503  0.0743 -0.5723  0.3626
 2444SOL    HW118791   1.469   2.130   5.559 -1.6634 -0.0807  1.5092
 2444SOL    HW218792   1.462   1.990   5.497 -2.6867 -1.9898 -0.9448
 2445SOL     OW18793   4.566   1.131   3.659  0.0004 -0.4443 -0.0733
 2445SOL    HW118794   4.527   1.138   3.572 -0.6334 -0.9120  0.1756
 2445SOL    HW218795   4.496   1.159   3.717  1.0147 -2.6887  2.2408
 2446SOL     OW18796   1.688   0.196   6.384 -0.1219 -0.2511 -0.7076
 2446SOL    HW118797   1.774   0.156   6.396  0.8153  2.9921  3.1284
 2446SOL    HW218798   1.662   0.160   6.298 -0.5215 -0.8032 -0.3558
 2447SOL     OW18799   3.018   2.691   9.109  0.7630 -0.5087  0.6154
 2447SOL    HW118800   3.045   2.613   9.061 -1.2143  0.0776 -1.4209
 2447SOL    HW218801   3.072   2.758   9.068  0.8976 -1.1471 -0.2323
 2448SOL     OW18802   3.167   0.890   1.349  0.2069  0.1858  0.4378
 2448SOL    HW118803   3.252   0.919   1.381  1.4214  0.2899 -2.9027
 2448SOL    HW218804   3.120   0.960   1.304 -0.8034 -1.7393 -1.4939
 2449SOL     OW18805   0.472   2.901   7.162 -0.3428  0.0843 -1.1209
 2449SOL    HW118806   0.421   2.863   7.234  2.1794 -0.3041  0.4370
 2449SOL    HW218807   0.470   2.830   7.098 -2.6331 -0.4323 -0.5041
 2450SOL     OW18808   0.511   2.136   6.694  0.1578 -0.1744  0.7075
 2450SOL    HW118809   0.590   2.161   6.743  1.0990  2.3142 -2.0788
 2450SOL    HW218810   0.460   2.079   6.751  0.1139 -1.7728 -0.9395
 2451SOL     OW18811   1.465   4.463   5.093  0.5192 -0.2113 -0.1370
 2451SOL    HW118812   1.388   4.508   5.060  0.0620 -1.3208 -0.6099
 2451SOL    HW218813   1.534   4.505   5.041 -0.8334 -1.2252 -2.7074
 2452SOL     OW18814   1.949   0.643   5.866 -0.5268 -0.2401 -0.0090
 2452SOL    HW118815   1.889   0.605   5.929 -1.2714  0.5246 -0.2647
 2452SOL    HW218816   1.986   0.561   5.832  0.0449  0.2008 -0.4650
 2453SOL     OW18817   1.954   0.228   2.883 -0.3030  0.3668 -0.1945
 2453SOL    HW118818   1.922   0.164   2.948 -0.8823 -1.4825 -2.3053
 2453SOL    HW218819   1.873   0.263   2.845 -0.8284 -1.8200 -1.1175
 2454SOL     OW18820   4.291   2.808   3.422 -1.2833 -0.5063 -0.3456
 2454SOL    HW118821   4.269   2.854   3.341  0.4412  0.9959  0.0431
 2454SOL    HW218822   4.263   2.722   3.391 -1.6553 -0.8760  1.0514
 2455SOL     OW18823   4.095   3.487   5.469  0.1115  0.3403  0.2831
 2455SOL    HW118824   4.128   3.541   5.542 -0.0705 -2.2420  2.2933
 2455SOL    HW218825   4.039   3.428   5.520  1.4685 -1.1197  0.0917
 2456SOL     OW18826   0.799   1.460   1.598  0.5208 -0.2827  0.3239
 2456SOL    HW118827   0.865   1.394   1.616  3.4360  3.4474  3.4285
 2456SOL    HW218828   0.756   1.465   1.683  0.6475 -1.6354  0.4560
 2457SOL     OW18829   1.445   0.610   8.377  0.1579 -0.3158  0.3979
 2457SOL    HW118830   1.539   0.599   8.390 -0.0687 -0.5973  1.7256
 2457SOL    HW218831   1.416   0.529   8.418 -0.7323 -0.5365 -0.6688
 2458SOL     OW18832   3.332   3.477   5.683  0.3029 -0.3722  0.1804
 2458SOL    HW118833   3.375   3.538   5.622 -2.2562  0.7087 -0.5568
 2458SOL    HW218834   3.244   3.470   5.645  0.5082  2.6932 -0.8896
 2459SOL     OW18835   4.021   1.252   0.052  0.2367 -0.6146 -0.5932
 2459SOL    HW118836   3.952   1.308   0.089  0.5213 -0.2847 -0.5580
 2459SOL    HW218837   4.087   1.319   0.033  0.7366 -0.5146  1.4535
 2460SOL     OW18838   2.229   0.705   4.257  0.2189  0.1152 -0.5262
 2460SOL    HW118839   2.287   0.633   4.231 -0.6828 -0.6299 -0.4585
 2460SOL    HW218840   2.143   0.665   4.263  0.8262 -1.3439 -1.4081
 2461SOL     OW18841   3.839   1.936   4.995 -0.2899 -0.2905  0.3618
 2461SOL    HW118842   3.900   1.994   4.948 -0.6170 -2.0955 -2.2542
 2461SOL    HW218843   3.896   1.921   5.071 -1.4928 -1.4750  1.0232
 2462SOL     OW18844   2.790   0.140   3.214  0.0687  0.2441 -0.0489
 2462SOL    HW118845   2.791   0.189   3.132 -0.8591 -0.8525 -0.7280
 2462SOL    HW218846   2.803   0.051   3.180 -2.7615  0.3516 -1.4741
 2463SOL     OW18847   4.381   3.539   2.849 -0.5281 -0.2446  0.1828
 2463SOL    HW118848   4.456   3.547   2.790 -1.6403  2.4191 -0.8445
 2463SOL    HW218849   4.345   3.627   2.838 -1.9133 -1.0003 -1.3331
 2464SOL     OW18850   4.454   0.529   3.401 -0.4222  0.2700  0.0926
 2464SOL    HW118851   4.491   0.502   3.485 -0.2251  1.2414  0.3124
 2464SOL    HW218852   4.435   0.620   3.423 -0.8684  0.2506 -0.2130
 2465SOL     OW18853   2.498   1.178   6.611  1.0090 -0.4820  0.3974
 2465SOL    HW118854   2.523   1.101   6.662  0.2124 -0.7502  0.3880
 2465SOL    HW218855   2.549   1.253   6.643  0.6888 -0.2610  0.3898
 2466SOL     OW18856   3.021   4.580   1.834 -0.3133  0.3262 -0.5758
 2466SOL    HW118857   2.994   4.577   1.926 -1.8370 -2.8752 -1.1276
 2466SOL    HW218858   3.081   4.506   1.832 -0.7253 -0.0653  2.5271
 2467SOL     OW18859   0.588   3.392   4.042 -0.1006  0.2228 -0.5584
 2467SOL    HW118860   0.559   3.453   4.109 -0.0765 -0.5655  0.1686
 2467SOL    HW218861   0.539   3.310   4.052 -0.5297  0.5773  0.2399
 2468SOL     OW18862   2.383   4.005   4.614 -0.5746 -0.1359  0.8784
 2468SOL    HW118863   2.289   4.021   4.599 -0.8108 -1.0182  1.3991
 2468SOL    HW218864   2.408   4.087   4.656  0.2902  0.6694 -1.2053
 2469SOL     OW18865   0.329   2.728   8.957 -0.1416 -0.7664  0.9357
 2469SOL    HW118866   0.368   2.641   8.948  0.8858 -0.3075  0.9774
 2469SOL    HW218867   0.392   2.783   8.909 -0.5132 -0.8949  0.3013
 2470SOL     OW18868   1.997   2.376   6.359 -0.1040 -0.1086  0.0962
 2470SOL    HW118869   2.000   2.377   6.454  0.3177  2.3635  0.0650
 2470SOL    HW218870   2.029   2.466   6.349  1.5648 -0.6488  0.7001
 2471SOL     OW18871   3.640   2.583   5.889 -0.3944  0.2186  0.4774
 2471SOL    HW118872   3.607   2.665   5.852  0.1299  0.4358  0.4915
 2471SOL    HW218873   3.734   2.596   5.881 -0.5426  1.7791  1.2656
 2472SOL     OW18874   0.887   4.316  11.287  0.3235 -0.0715 -0.1163
 2472SOL    HW118875   0.815   4.336  11.227  2.0464  2.3464 -1.4059
 2472SOL    HW218876   0.840   4.259  11.347  0.5584 -0.2150 -0.0666
 2473SOL     OW18877   1.346   0.368   1.165  0.0206 -0.4758  0.0959
 2473SOL    HW118878   1.309   0.454   1.184  0.5220  0.1045 -1.5353
 2473SOL    HW218879   1.320   0.360   1.073 -0.1655  1.8193 -0.0685
 2474SOL     OW18880   3.179   2.915   4.504  0.6601 -0.2875  0.6944
 2474SOL    HW118881   3.234   2.839   4.526 -1.5960 -1.3934  2.4902
 2474SOL    HW218882   3.137   2.882   4.425  1.4110  0.9136 -0.2034
 2475SOL     OW18883   2.907   0.351   3.390  0.5012  0.6076  0.6191
 2475SOL    HW118884   2.907   0.265   3.349  2.5872  0.0781  1.7830
 2475SOL    HW218885   2.999   0.360   3.415  0.7884  3.2112 -1.2724
 2476SOL     OW18886   2.112   4.377   4.448 -0.3399  0.2502 -0.4500
 2476SOL    HW118887   2.053   4.320   4.399 -0.9053  0.5125 -0.0639
 2476SOL    HW218888   2.161   4.308   4.494  0.5079  1.4304  0.4085
 2477SOL     OW18889   2.966   4.430   8.540  0.2413 -0.0374 -0.3564
 2477SOL    HW118890   2.999   4.396   8.623  2.7283 -0.6841 -1.6385
 2477SOL    HW218891   2.928   4.514   8.568  0.9372 -0.4199  1.7031
 2478SOL     OW18892   4.118   2.083   4.986 -0.0068 -0.1422  0.0573
 2478SOL    HW118893   4.064   2.060   5.061  0.4756 -0.6546  0.2508
 2478SOL    HW218894   4.191   2.128   5.028 -1.6306  2.2008  0.3343
 2479SOL     OW18895   2.552   4.122   0.728 -0.0047 -0.2196 -0.2509
 2479SOL    HW118896   2.545   4.050   0.791 -0.2664  0.9310  1.0445
 2479SOL    HW218897   2.645   4.144   0.722  0.2939 -0.8222  2.1644
 2480SOL     OW18898   1.371   2.371   8.036  0.1905 -0.1304  0.5093
 2480SOL    HW118899   1.390   2.279   8.020 -4.1547 -0.9073 -0.1446
 2480SOL    HW218900   1.420   2.407   7.962 -1.1782  1.0414  0.1793
 2481SOL     OW18901   4.266   0.078   2.073 -0.2085  0.1325 -0.1565
 2481SOL    HW118902   4.334   0.101   2.137 -1.0372 -1.7997  1.4172
 2481SOL    HW218903   4.284   0.144   2.007  0.6258  0.6787  0.6001
 2482SOL     OW18904   4.422   0.266   8.468 -0.0040  0.1959 -0.5001
 2482SOL    HW118905   4.338   0.222   8.455 -0.9888  1.7943  0.4889
 2482SOL    HW218906   4.430   0.262   8.564  2.1856 -0.5745 -0.6966
 2483SOL     OW18907   0.708   1.339  11.078  0.2367  0.4768  0.2180
 2483SOL    HW118908   0.723   1.256  11.124 -0.8504  0.3223  0.2901
 2483SOL    HW218909   0.769   1.322  11.006  1.5570 -2.2887  1.9725
 2484SOL     OW18910   0.314   4.608   6.405 -0.1053 -0.2828 -0.2551
 2484SOL    HW118911   0.338   4.627   6.495  3.3117 -1.1964 -0.9797
 2484SOL    HW218912   0.361   4.680   6.363 -2.7398  0.8667 -1.2855
 2485SOL     OW18913   1.317   1.042   2.194 -0.3318 -0.3381 -0.0416
 2485SOL    HW118914   1.289   1.034   2.285 -1.8739 -0.4546 -0.5265
 2485SOL    HW218915   1.393   0.984   2.189  1.2753  1.7094  0.6995
 2486SOL     OW18916   2.919   3.023   2.281  0.5369 -0.6060 -0.0185
 2486SOL    HW118917   2.948   2.932   2.268  2.7189 -0.0884  1.2099
 2486SOL    HW218918   2.849   3.013   2.346  0.1081 -1.1824 -0.5593
 2487SOL     OW18919   0.553   2.790   0.874 -0.1507  0.1167  0.6045
 2487SOL    HW118920   0.519   2.875   0.903 -3.1572 -1.2473  1.0967
 2487SOL    HW218921   0.497   2.736   0.930  1.5972 -1.7178  0.5815
 2488SOL     OW18922   3.197   1.456   7.699 -0.5442 -0.0630 -0.2303
 2488SOL    HW118923   3.219   1.402   7.775 -2.8766 -1.4426 -0.5184
 2488SOL    HW218924   3.145   1.393   7.650 -2.6054  1.2687  0.2301
 2489SOL     OW18925   1.091   2.661   4.686 -0.0667  0.1558  0.2699
 2489SOL    HW118926   1.126   2.740   4.645  1.9751 -0.8846  0.0360
 2489SOL    HW218927   1.138   2.596   4.635 -0.5079  0.2253 -0.2299
 2490SOL     OW18928   0.878   0.831   9.052  1.0811  0.0892  0.2584
 2490SOL    HW118929   0.954   0.785   9.018  0.4224 -0.3163 -0.6507
 2490SOL    HW218930   0.808   0.794   8.998  1.9258  0.3882 -1.0347
 2491SOL     OW18931   1.518   4.099   2.276  0.5608 -0.3738 -0.1583
 2491SOL    HW118932   1.561   4.178   2.308  2.1315 -0.8445 -1.0680
 2491SOL    HW218933   1.434   4.141   2.257  0.8766 -0.1265 -1.0296
 2492SOL     OW18934   2.524   0.244   3.929 -0.2454 -0.5623  0.1903
 2492SOL    HW118935   2.568   0.187   3.866  0.2005 -0.2224  0.1982
 2492SOL    HW218936   2.558   0.327   3.898 -0.6227 -0.5116 -0.0854
 2493SOL     OW18937   2.943   0.978   0.889  0.8656 -0.2675 -0.4308
 2493SOL    HW118938   2.910   0.963   0.978  1.9700 -1.8325 -0.2823
 2493SOL    HW218939   2.938   0.891   0.849 -1.7330 -0.4096  0.1944
 2494SOL     OW18940   0.401   0.349   3.243 -0.7073  0.9063  0.5941
 2494SOL    HW118941   0.357   0.420   3.290 -2.1981 -0.0552  0.6510
 2494SOL    HW218942   0.482   0.398   3.232 -0.0774 -0.1319  0.5446
 2495SOL     OW18943   2.973   0.165   9.776  0.1526 -0.4183 -0.6084
 2495SOL    HW118944   3.044   0.105   9.799 -0.6856 -0.9271  0.6324
 2495SOL    HW218945   2.894   0.112   9.784 -0.1380  0.3087  1.2229
 2496SOL     OW18946   1.694   0.250   8.475 -0.3932  0.1491  0.7494
 2496SOL    HW118947   1.712   0.194   8.400 -0.3114 -0.3185  1.1221
 2496SOL    HW218948   1.748   0.213   8.545  0.1613 -2.8965 -1.2934
 2497SOL     OW18949   4.301   0.499   3.767 -0.5983  0.6908 -0.4178
 2497SOL    HW118950   4.385   0.456   3.753 -0.9447  0.2874 -1.2658
 2497SOL    HW218951   4.298   0.497   3.863 -1.6648 -1.8750 -0.5158
 2498SOL     OW18952   0.875   2.990   3.871 -0.2283 -0.7763  0.2072
 2498SOL    HW118953   0.876   2.897   3.852 -3.5947 -0.9311  0.7977
 2498SOL    HW218954   0.890   2.990   3.965 -1.3105  2.4537  0.3837
 2499SOL     OW18955   4.683   0.881   4.494 -0.2082  0.2054 -0.0716
 2499SOL    HW118956   4.631   0.954   4.528 -0.6476 -0.2303  0.1933
 2499SOL    HW218957   4.653   0.883   4.403 -1.7731  3.3672  0.5046
 2500SOL     OW18958   0.319   1.756   6.622 -0.1020 -0.0554 -0.0831
 2500SOL    HW118959   0.395   1.796   6.664  0.0958 -0.6112  0.0881
 2500SOL    HW218960   0.248   1.819   6.630 -0.5258 -0.3397 -1.5848
 2501SOL     OW18961   2.600   1.727   0.556  0.1439  1.1290  0.2203
 2501SOL    HW118962   2.692   1.717   0.531 -0.0896 -0.0299 -0.1501
 2501SOL    HW218963   2.600   1.817   0.589 -0.6714  0.0508  3.1576
 2502SOL     OW18964   4.189   0.020  17.546  0.6237  0.4580 -0.3611
 2502SOL    HW118965   4.282   0.023  17.568  0.0138 -1.6921  2.5446
 2502SOL    HW218966   4.149   4.726  17.631  0.1364  1.2999 -0.3909
 2503SOL     OW18967   4.700   2.127   1.632 -0.6831 -0.1414  0.0722
 2503SOL    HW118968   0.000   2.210   1.672  3.1902 -0.9573 -0.7776
 2503SOL    HW218969   0.051   2.095   1.585  0.2921  2.3357 -0.0369
 2504SOL     OW18970   2.097   2.011   0.411 -0.4848  0.1930 -0.6424
 2504SOL    HW118971   2.071   1.923   0.437 -2.6548  0.6526 -1.3110
 2504SOL    HW218972   2.146   1.990   0.331  1.4440  2.2159 -0.0135
 2505SOL     OW18973   2.016   1.855   8.831  0.0180 -0.1394  0.3077
 2505SOL    HW118974   2.043   1.875   8.921 -1.1425  0.7206  0.4740
 2505SOL    HW218975   1.973   1.938   8.811  1.2755  0.4946  0.2279
 2506SOL     OW18976   4.535   1.621   4.529 -0.0797  0.2000 -0.1996
 2506SOL    HW118977   4.626   1.591   4.534  0.3924  1.8494  0.8915
 2506SOL    HW218978   4.486   1.562   4.586 -0.7724  0.7476 -0.2362
 2507SOL     OW18979   3.692   3.342   2.412 -0.5076  0.2630 -0.1046
 2507SOL    HW118980   3.618   3.298   2.369  1.1010 -1.6349 -0.8997
 2507SOL    HW218981   3.650   3.362   2.496 -3.1301  1.5427 -1.6911
 2508SOL     OW18982   2.708   1.581   5.057  0.1483  0.7011  0.7537
 2508SOL    HW118983   2.696   1.534   5.139  2.4028  0.4105  0.9356
 2508SOL    HW218984   2.630   1.558   5.007  1.4366  2.7847 -2.2466
 2509SOL     OW18985   2.677   3.995   6.985 -0.2650 -0.1298 -0.2159
 2509SOL    HW118986   2.620   4.058   6.940  1.1711  0.1336 -1.6483
 2509SOL    HW218987   2.761   4.015   6.944  0.0674 -1.9627 -0.4502
 2510SOL     OW18988   2.705   0.579   9.092  0.0500  0.7409  0.4274
 2510SOL    HW118989   2.703   0.496   9.140  0.0622 -0.0923 -0.9976
 2510SOL    HW218990   2.723   0.643   9.161  2.1271  1.2933 -0.6329
 2511SOL     OW18991   3.951   0.586  14.505  0.1781 -0.0671  0.2113
 2511SOL    HW118992   4.007   0.658  14.533 -0.4543  0.1872  0.8424
 2511SOL    HW218993   3.953   0.532  14.584 -2.0659 -1.3613 -0.6196
 2512SOL     OW18994   3.990   1.757   7.384  0.6663  0.5419 -0.0113
 2512SOL    HW118995   4.053   1.792   7.448 -0.3651  1.3649  0.5523
 2512SOL    HW218996   3.963   1.678   7.430 -1.0577  1.5884  0.7475
 2513SOL     OW18997   3.329   3.786   5.203 -0.4962 -0.3658 -0.1218
 2513SOL    HW118998   3.242   3.805   5.168 -1.3596 -2.2900  1.0109
 2513SOL    HW218999   3.363   3.876   5.205 -1.9938  0.2093 -0.3783
 2514SOL     OW19000   1.863   3.191   2.352 -0.9449  0.3823 -0.1808
 2514SOL    HW119001   1.861   3.096   2.346  0.1527  0.5593 -3.4119
 2514SOL    HW219002   1.918   3.193   2.430 -2.5116 -0.1364  0.9133
 2515SOL     OW19003   4.154   2.204   2.584  0.0878 -0.8010  0.2021
 2515SOL    HW119004   4.111   2.240   2.662  1.0458 -0.2370  0.4644
 2515SOL    HW219005   4.074   2.164   2.549 -1.5199  0.3100  2.5798
 2516SOL     OW19006   1.689   1.147   6.176 -0.5080  0.7313 -0.5339
 2516SOL    HW119007   1.679   1.102   6.260 -1.0769  1.9159  0.0489
 2516SOL    HW219008   1.752   1.215   6.200  1.4311 -1.7638  1.3761
 2517SOL     OW19009   2.593   1.627   6.049  0.0420 -0.3849  0.1391
 2517SOL    HW119010   2.566   1.692   6.114  0.5744  1.1158 -1.1190
 2517SOL    HW219011   2.578   1.681   5.971  0.4330 -0.0112  0.3215
 2518SOL     OW19012   2.057   2.253  15.062  0.0866 -0.1386  0.0764
 2518SOL    HW119013   2.126   2.207  15.110  0.4240 -0.2340 -0.4902
 2518SOL    HW219014   2.080   2.338  15.099  1.0136 -1.2611  2.0743
 2519SOL     OW19015   3.806   3.452  14.841  0.4662  0.1302 -0.1193
 2519SOL    HW119016   3.836   3.434  14.752 -1.7810 -0.9606 -0.6732
 2519SOL    HW219017   3.882   3.483  14.891 -0.4626 -1.7217  2.4699
 2520SOL     OW19018   1.479   0.310   4.928  0.5607  0.0249 -0.3774
 2520SOL    HW119019   1.442   0.313   4.839  0.6462  0.8072 -0.3924
 2520SOL    HW219020   1.490   0.405   4.940  1.3644 -0.2588  1.0274
 2521SOL     OW19021   2.354   0.343   7.181 -0.1206  0.6291 -0.0745
 2521SOL    HW119022   2.439   0.353   7.223  0.0904  3.1622 -1.1089
 2521SOL    HW219023   2.292   0.374   7.246  0.1266  0.0548  0.4334
 2522SOL     OW19024   1.493   4.166   5.251 -0.0620  0.2748 -0.6791
 2522SOL    HW119025   1.483   4.247   5.201 -0.5174  0.6666  0.0428
 2522SOL    HW219026   1.417   4.115   5.221 -0.1812 -0.7243  1.3201
 2523SOL     OW19027   2.316   2.182  12.221  0.4388 -0.2022  0.1703
 2523SOL    HW119028   2.243   2.243  12.207  0.2095 -0.5188 -0.0289
 2523SOL    HW219029   2.365   2.193  12.139 -0.0758  1.9161  0.1453
 2524SOL     OW19030   3.113   3.584   8.271  0.3441 -1.3175 -0.2517
 2524SOL    HW119031   3.143   3.533   8.346 -1.2354 -1.1894  0.4619
 2524SOL    HW219032   3.194   3.635   8.264 -0.6867  0.5701  1.6379
 2525SOL     OW19033   3.235   1.780   4.151  0.1315 -0.0675 -0.1141
 2525SOL    HW119034   3.254   1.872   4.168  1.9320 -0.5436  0.4780
 2525SOL    HW219035   3.244   1.748   4.241  0.2998  0.0375 -0.0925
 2526SOL     OW19036   3.959   2.398  11.941 -0.0951 -0.0607  0.3096
 2526SOL    HW119037   3.882   2.440  11.902  1.3981 -0.1786 -2.7729
 2526SOL    HW219038   3.915   2.340  12.003  0.8343  0.2417  1.2553
 2527SOL     OW19039   2.527   1.377   8.831 -0.1430  0.4487  0.1467
 2527SOL    HW119040   2.515   1.445   8.897  0.9638  1.2563 -0.4870
 2527SOL    HW219041   2.535   1.295   8.880  1.1867  1.0647  0.9614
 2528SOL     OW19042   4.646   2.084   3.083  0.6228  0.5712 -0.5196
 2528SOL    HW119043   4.615   1.994   3.094 -0.1718  0.5153 -3.1392
 2528SOL    HW219044   4.623   2.101   2.992  0.2823  2.0748 -0.1491
 2529SOL     OW19045   4.372   3.946   8.376  0.2154 -0.0500  0.3607
 2529SOL    HW119046   4.409   3.949   8.464 -0.7456 -1.1643  0.8031
 2529SOL    HW219047   4.388   3.853   8.361  0.8569  0.2615 -0.8899
 2530SOL     OW19048   1.242   4.278  12.858  0.1633  0.2292 -0.4670
 2530SOL    HW119049   1.319   4.330  12.880  1.0921 -0.8064 -1.2735
 2530SOL    HW219050   1.248   4.301  12.766 -0.3123  0.4639 -0.4402
 2531SOL     OW19051   1.981   0.893   7.437  0.2983  0.3192 -0.1965
 2531SOL    HW119052   2.001   0.808   7.476  0.3932  0.6066  0.3895
 2531SOL    HW219053   1.949   0.949   7.509 -1.7842 -1.9104  0.6293
 2532SOL     OW19054   2.971   1.927  14.617 -0.3415 -0.0936 -0.2543
 2532SOL    HW119055   2.889   1.926  14.666 -0.5906  0.8892 -0.6547
 2532SOL    HW219056   2.974   2.022  14.601 -0.9553 -0.4055 -2.2271
 2533SOL     OW19057   3.848   3.284   7.126 -0.2597  0.9170  0.6876
 2533SOL    HW119058   3.825   3.372   7.097 -1.5358  0.1339 -0.7179
 2533SOL    HW219059   3.842   3.291   7.221 -0.0595  2.9349  0.5480
 2534SOL     OW19060   2.310   0.773   3.104  0.5649 -0.2885  0.0596
 2534SOL    HW119061   2.391   0.823   3.102  0.2191  0.2059 -1.2233
 2534SOL    HW219062   2.257   0.835   3.055  1.3544 -0.1632 -0.6396
 2535SOL     OW19063   3.929   2.971   4.459  0.1377 -0.0200 -0.2655
 2535SOL    HW119064   3.900   2.893   4.413 -3.0300 -0.0511  1.7839
 2535SOL    HW219065   3.941   3.036   4.389  3.4939 -0.5637 -0.2054
 2536SOL     OW19066   2.364   2.257  12.996 -0.1658  0.5521  0.0125
 2536SOL    HW119067   2.427   2.185  13.006 -0.6893  0.0929  0.0070
 2536SOL    HW219068   2.291   2.220  12.947 -0.6970 -0.1724  1.3426
 2537SOL     OW19069   3.947   2.726   7.903  0.1806 -0.1296  0.1381
 2537SOL    HW119070   3.952   2.674   7.823 -0.0138  1.1431 -0.7018
 2537SOL    HW219071   4.035   2.708   7.935  0.9885 -0.8267 -2.4485
 2538SOL     OW19072   1.670   3.042   2.984 -0.3967 -0.0218 -0.0895
 2538SOL    HW119073   1.733   2.969   2.991 -0.7330 -0.2010  1.0109
 2538SOL    HW219074   1.729   3.107   2.944 -0.7045  0.1544 -0.2516
 2539SOL     OW19075   2.410   3.098   8.186 -0.0925  0.8439  0.2789
 2539SOL    HW119076   2.395   3.138   8.100  3.0204  1.7614  0.1629
 2539SOL    HW219077   2.503   3.077   8.182 -0.3276 -0.3153  0.8772
 2540SOL     OW19078   4.174   2.119  15.989 -0.1531  0.7423  0.6646
 2540SOL    HW119079   4.086   2.155  15.993 -1.2790 -1.9259 -0.1203
 2540SOL    HW219080   4.164   2.032  16.029  0.3615  0.3707 -0.0083
 2541SOL     OW19081   2.743   1.077  12.765 -0.0507  0.1185  0.3075
 2541SOL    HW119082   2.783   0.992  12.783 -1.4343 -0.1082  2.4254
 2541SOL    HW219083   2.768   1.143  12.830  1.8664  0.3336 -0.6330
 2542SOL     OW19084   4.508   0.486   6.839 -0.4479  0.1951  0.1138
 2542SOL    HW119085   4.431   0.429   6.852  0.6705 -1.6225 -1.2653
 2542SOL    HW219086   4.539   0.467   6.751  0.6731  0.6626  0.4197
 2543SOL     OW19087   3.056   0.607  11.055  0.1148 -0.0576 -0.2278
 2543SOL    HW119088   3.045   0.678  11.118  0.0312  0.1760 -0.5092
 2543SOL    HW219089   3.148   0.621  11.031  0.6528 -0.6318  1.4855
 2544SOL     OW19090   4.086   2.873  11.820  0.1180  0.4010 -0.1552
 2544SOL    HW119091   4.072   2.932  11.895 -1.1990  2.1354 -1.7515
 2544SOL    HW219092   3.995   2.866  11.792  0.5020  2.4460 -1.9417
 2545SOL     OW19093   0.701   1.249   0.466  0.4804 -0.1740  0.0064
 2545SOL    HW119094   0.772   1.294   0.512 -1.0275  0.0799  2.0834
 2545SOL    HW219095   0.624   1.305   0.479  0.0433 -0.4944 -1.1828
 2546SOL     OW19096   2.484   3.294   8.792  0.4530 -0.5440 -0.2663
 2546SOL    HW119097   2.424   3.219   8.805 -1.8765  1.1980 -0.9329
 2546SOL    HW219098   2.433   3.366   8.754  1.1501 -0.8081 -1.7071
 2547SOL     OW19099   1.793   0.367   2.512 -0.2994 -0.4034  0.2936
 2547SOL    HW119100   1.830   0.279   2.512  0.7692  0.0452 -2.2656
 2547SOL    HW219101   1.700   0.352   2.530 -0.4948 -0.1783 -0.5091
 2548SOL     OW19102   4.320   3.090   3.758  0.4467 -0.5572  0.7745
 2548SOL    HW119103   4.240   3.116   3.712  0.6123  0.0409  0.8283
 2548SOL    HW219104   4.376   3.163   3.732 -1.6691 -0.3666 -3.3181
 2549SOL     OW19105   2.660   2.909   8.179  0.1174  0.2509  0.0436
 2549SOL    HW119106   2.668   2.899   8.274 -0.0105 -0.3463 -0.0092
 2549SOL    HW219107   2.728   2.848   8.150 -0.4923 -1.1995  1.6428
 2550SOL     OW19108   1.152   4.058  12.040 -0.4559 -0.0922 -0.5580
 2550SOL    HW119109   1.104   4.120  11.986 -1.7735  0.9712  1.8425
 2550SOL    HW219110   1.131   3.972  12.004  0.6393  0.4929 -2.5744
 2551SOL     OW19111   0.221   1.878   2.136 -0.5363  0.1539  0.0514
 2551SOL    HW119112   0.235   1.897   2.043 -3.2064 -0.2950 -0.4461
 2551SOL    HW219113   0.256   1.789   2.144 -1.6527 -0.3065 -0.1013
 2552SOL     OW19114   0.424   0.911   2.257 -0.9341 -0.3837 -0.0949
 2552SOL    HW119115   0.410   0.955   2.173 -0.4530  0.1498  0.1024
 2552SOL    HW219116   0.417   0.821   2.227  1.0399 -0.2257 -1.0364
 2553SOL     OW19117   2.439   1.451  13.180  0.0346 -0.3445 -0.0140
 2553SOL    HW119118   2.460   1.377  13.122 -1.1503 -0.8697  0.2215
 2553SOL    HW219119   2.403   1.505  13.110 -1.1857  0.6738  1.4057
 2554SOL     OW19120   2.665   2.518   8.833  0.2375  0.4190  0.2141
 2554SOL    HW119121   2.618   2.567   8.766 -1.9885 -0.4422  1.1361
 2554SOL    HW219122   2.719   2.457   8.782 -0.3218  0.1148 -0.0112
 2555SOL     OW19123   0.826   1.796   2.666 -0.3621  0.2184  0.1254
 2555SOL    HW119124   0.852   1.883   2.637 -1.7070  0.6025  0.0711
 2555SOL    HW219125   0.779   1.808   2.749  1.7083 -1.8333  1.6116
 2556SOL     OW19126   4.368   0.183   7.115 -0.9808  0.1479  0.5209
 2556SOL    HW119127   4.445   0.238   7.128 -0.8596  0.5467 -1.8107
 2556SOL    HW219128   4.399   0.112   7.060 -1.0175  0.7630 -0.2997
 2557SOL     OW19129   0.761   2.194   0.667 -0.2897 -0.1999  0.0184
 2557SOL    HW119130   0.759   2.139   0.589  0.9341 -2.4978  1.5850
 2557SOL    HW219131   0.855   2.198   0.682 -0.4899 -3.2039  2.0091
 2558SOL     OW19132   0.774   2.045   6.605 -0.3590 -0.2664  0.3466
 2558SOL    HW119133   0.839   2.114   6.598 -2.7459  1.9989  0.7159
 2558SOL    HW219134   0.814   1.980   6.664  3.0299  0.1692 -1.4861
 2559SOL     OW19135   1.101   2.394   8.002 -0.0875  0.3428  0.0153
 2559SOL    HW119136   1.195   2.384   8.016 -0.3939 -2.0077  0.4138
 2559SOL    HW219137   1.083   2.301   8.019 -1.2853  0.4827 -0.4485
 2560SOL     OW19138   3.086   1.065  14.030  0.2122 -0.3081  0.1752
 2560SOL    HW119139   3.017   0.999  14.024  1.0045 -0.9733 -1.6647
 2560SOL    HW219140   3.163   1.020  13.996 -0.4501 -1.2567 -0.0691
 2561SOL     OW19141   3.346   4.010   5.459  0.2940 -0.0925  0.6090
 2561SOL    HW119142   3.322   3.955   5.533  1.4816 -0.5948  0.6208
 2561SOL    HW219143   3.289   4.085   5.478 -0.5242 -0.3702 -0.7344
 2562SOL     OW19144   1.358   1.640  15.586 -0.0619  0.1903 -0.1380
 2562SOL    HW119145   1.347   1.555  15.628 -1.0136  1.3899  2.0337
 2562SOL    HW219146   1.449   1.624  15.560  0.6398 -0.9705  2.9326
 2563SOL     OW19147   0.336   0.742  12.514  0.1190 -0.1557 -0.0918
 2563SOL    HW119148   0.428   0.719  12.530 -0.2782 -0.9518  1.0512
 2563SOL    HW219149   0.340   0.739  12.419 -0.0386 -0.3751 -0.0909
 2564SOL     OW19150   0.597   3.497   9.412 -0.1879  0.2989 -0.1037
 2564SOL    HW119151   0.644   3.561   9.465  1.6824 -0.7381 -0.5270
 2564SOL    HW219152   0.541   3.561   9.369 -0.7543 -0.4440 -0.4769
 2565SOL     OW19153   4.106   3.530   3.221  0.1686  0.2615 -0.3260
 2565SOL    HW119154   4.201   3.522   3.220  0.1527 -0.0309  0.8716
 2565SOL    HW219155   4.083   3.481   3.300 -2.6450  1.2493 -0.5276
 2566SOL     OW19156   0.539   2.255   3.834 -0.0798  0.0020  0.1980
 2566SOL    HW119157   0.466   2.285   3.780  1.0406  0.6630 -0.9445
 2566SOL    HW219158   0.511   2.166   3.856  2.8183 -1.1129 -0.5662
 2567SOL     OW19159   1.707   2.974   9.135  0.4780 -0.1807  0.3473
 2567SOL    HW119160   1.734   2.892   9.095 -1.3370 -1.6073  2.0611
 2567SOL    HW219161   1.641   3.004   9.073  0.3486  1.1420  1.1184
 2568SOL     OW19162   1.593   0.876   8.856 -0.5702 -0.3384  0.2635
 2568SOL    HW119163   1.552   0.942   8.912  0.0952  0.1609  0.1656
 2568SOL    HW219164   1.684   0.890   8.881 -1.4399  1.5143  2.3538
 2569SOL     OW19165   2.775   1.598   6.659  0.2134 -0.2950  0.3932
 2569SOL    HW119166   2.761   1.692   6.668  4.3120  0.4488 -0.9813
 2569SOL    HW219167   2.819   1.583   6.743 -0.5729 -0.7945  0.7182
 2570SOL     OW19168   0.347   1.386   7.479  0.4254 -0.4473 -0.3901
 2570SOL    HW119169   0.292   1.397   7.556  0.7883 -0.5443 -0.1185
 2570SOL    HW219170   0.281   1.374   7.411 -1.4331 -0.4006  1.4027
 2571SOL     OW19171   4.354   2.595   6.660 -0.3092  0.1808  0.1648
 2571SOL    HW119172   4.263   2.584   6.632  0.7774  0.9309 -3.5592
 2571SOL    HW219173   4.370   2.507   6.695 -1.2342  0.1868  0.6172
 2572SOL     OW19174   1.913   2.595   2.830  0.1003 -0.3980  0.0365
 2572SOL    HW119175   1.846   2.535   2.798 -1.2660  0.7614  0.6973
 2572SOL    HW219176   1.989   2.538   2.841  0.3181 -0.1138  0.0256
 2573SOL     OW19177   1.670   4.043  15.469 -0.3533 -0.0681  0.4758
 2573SOL    HW119178   1.745   4.039  15.409  0.1931 -0.3666  1.1630
 2573SOL    HW219179   1.632   4.126  15.442  0.0011 -0.4665 -1.2696
 2574SOL     OW19180   1.374   1.960  14.995 -0.2148 -0.3041  0.2883
 2574SOL    HW119181   1.370   1.996  14.907 -0.6514  0.6041  0.6835
 2574SOL    HW219182   1.446   1.899  14.977  1.0901  1.4331 -0.3467
 2575SOL     OW19183   2.050   3.053  12.722 -0.2211  0.0778 -0.3376
 2575SOL    HW119184   2.053   3.148  12.732 -1.0016  0.1475 -0.7382
 2575SOL    HW219185   1.959   3.036  12.747 -0.9159  1.7506 -1.7104
 2576SOL     OW19186   0.971   3.760  15.739  0.5973  0.2327 -0.3420
 2576SOL    HW119187   0.998   3.773  15.830 -0.6724 -0.0177  0.0615
 2576SOL    HW219188   0.894   3.707  15.757 -0.0937  1.7297  1.0831
 2577SOL     OW19189   3.642   1.596   8.640 -0.3785 -0.1209 -0.4931
 2577SOL    HW119190   3.657   1.506   8.611  0.1556 -0.9732  2.4604
 2577SOL    HW219191   3.564   1.611   8.587 -0.3356 -0.7320 -0.7312
 2578SOL     OW19192   1.788   0.136  11.109  0.2859  0.2449 -0.1189
 2578SOL    HW119193   1.741   0.211  11.146 -1.1461 -0.9050  0.3568
 2578SOL    HW219194   1.786   0.151  11.014  2.3162 -0.3094 -0.2575
 2579SOL     OW19195   2.326   0.893  12.209 -0.6088  0.0172 -0.1309
 2579SOL    HW119196   2.363   0.979  12.190  0.6385 -0.8166 -1.5401
 2579SOL    HW219197   2.363   0.870  12.295 -0.1096  0.4316 -0.2362
 2580SOL     OW19198   0.980   2.639  16.822  0.2206  0.3351  0.3158
 2580SOL    HW119199   0.912   2.594  16.771  1.0312  0.6678 -1.0695
 2580SOL    HW219200   1.022   2.699  16.760 -1.6221  0.4387 -0.8236
 2581SOL     OW19201   1.220   3.572  10.940 -0.1149  0.5077  0.1166
 2581SOL    HW119202   1.270   3.611  11.012 -0.5484  1.3681 -0.0465
 2581SOL    HW219203   1.271   3.584  10.860 -0.8780 -2.2217 -0.7644
 2582SOL     OW19204   2.182   4.560   9.967  0.1131 -0.2674  0.0233
 2582SOL    HW119205   2.231   4.499  10.021  0.1759  0.9328  1.3169
 2582SOL    HW219206   2.096   4.555  10.008  0.4651  1.4395  0.9682
 2583SOL     OW19207   2.893   3.178   2.957 -0.8369 -0.1416 -0.4760
 2583SOL    HW119208   2.840   3.099   2.942 -0.2552 -0.8443  1.1853
 2583SOL    HW219209   2.957   3.158   3.026 -0.3608  2.2443 -0.2263
 2584SOL     OW19210   2.215   0.815  11.184 -0.9692  0.2137 -0.0424
 2584SOL    HW119211   2.292   0.763  11.159 -0.0268  0.8764  1.4704
 2584SOL    HW219212   2.198   0.853  11.098 -2.1939 -0.0870  0.0735
 2585SOL     OW19213   1.809   1.928   5.461  0.2568  0.1756 -0.6077
 2585SOL    HW119214   1.872   1.856   5.460 -2.4411 -2.2067  0.7443
 2585SOL    HW219215   1.725   1.882   5.456 -0.4874  1.2907  2.1982
 2586SOL     OW19216   0.766   1.822   5.467  0.0717 -0.4182 -0.5125
 2586SOL    HW119217   0.838   1.809   5.405 -1.1240  0.2871 -2.0402
 2586SOL    HW219218   0.804   1.784   5.546 -0.4685 -0.1555 -0.1230
 2587SOL     OW19219   1.106   1.985  15.861  0.4861 -0.2706  0.1253
 2587SOL    HW119220   1.048   1.910  15.849 -1.4330  0.9706  1.6117
 2587SOL    HW219221   1.179   1.962  15.804  1.2393 -1.7096  1.6517
 2588SOL     OW19222   2.391   2.831   7.682  0.0595  0.2425 -0.1740
 2588SOL    HW119223   2.417   2.830   7.590 -1.8863  1.5848 -0.7357
 2588SOL    HW219224   2.299   2.805   7.679 -0.1220  0.9878 -1.0667
 2589SOL     OW19225   4.672   3.650   2.206 -0.5501  0.1321 -0.0407
 2589SOL    HW119226   4.623   3.732   2.208 -1.5690 -0.5611  2.9798
 2589SOL    HW219227   4.610   3.597   2.157  0.3556  0.1201 -1.1767
 2590SOL     OW19228   4.352   1.713   6.168 -0.0901 -0.4263 -0.0140
 2590SOL    HW119229   4.406   1.704   6.089 -0.6680 -1.8836 -0.2254
 2590SOL    HW219230   4.310   1.797   6.150 -2.4212 -1.2703  1.6348
 2591SOL     OW19231   0.777   3.962   7.863 -0.2920  0.0898  0.2534
 2591SOL    HW119232   0.719   4.024   7.908  0.2768 -1.1065  2.6285
 2591SOL    HW219233   0.764   3.884   7.918  1.6292 -0.5610 -0.1975
 2592SOL     OW19234   1.051   1.260   4.132 -0.2671  0.5996  0.9623
 2592SOL    HW119235   0.997   1.241   4.209 -2.1659  1.8065 -0.0796
 2592SOL    HW219236   1.114   1.326   4.161 -0.5652 -0.1287  3.2305
 2593SOL     OW19237   2.874   3.509   5.385 -0.4360 -0.1417  0.2604
 2593SOL    HW119238   2.858   3.465   5.302 -0.6246  1.6990 -0.6927
 2593SOL    HW219239   2.798   3.495   5.441 -0.0430 -1.9528  0.3258
 2594SOL     OW19240   2.368   0.042   5.184  0.2744 -0.1332  0.4849
 2594SOL    HW119241   2.356   0.136   5.168  0.8356 -0.2939 -0.8168
 2594SOL    HW219242   2.348   0.016   5.094 -1.5290  2.0013  0.2551
 2595SOL     OW19243   1.905   4.007   7.940 -0.1935 -0.5048  0.2859
 2595SOL    HW119244   1.865   3.991   7.855 -1.9412  0.0175  1.0112
 2595SOL    HW219245   1.997   3.989   7.919 -0.2554  0.7995 -1.0484
 2596SOL     OW19246   1.044   0.017   7.961 -0.0427 -0.1859 -0.0865
 2596SOL    HW119247   1.028   4.653   7.933  2.4913 -0.5736 -0.3206
 2596SOL    HW219248   1.115   0.005   8.024 -0.3041  0.3206  0.2944
 2597SOL     OW19249   0.565   4.558   2.475 -0.2721  0.1395  0.3610
 2597SOL    HW119250   0.501   4.493   2.447  0.8939 -0.9397  0.2050
 2597SOL    HW219251   0.542   4.556   2.568 -0.2428 -1.7073  0.3159
 2598SOL     OW19252   2.897   4.354   3.926 -0.5621 -0.0671 -0.6244
 2598SOL    HW119253   2.982   4.350   3.970 -0.2359  2.2088 -1.0148
 2598SOL    HW219254   2.867   4.264   3.938  1.1994 -0.5355  0.3348
 2599SOL     OW19255   3.018   3.878  17.165  0.0558 -0.4013  0.1747
 2599SOL    HW119256   3.068   3.919  17.236 -2.1789 -3.6993  3.6417
 2599SOL    HW219257   3.055   3.926  17.091 -0.2891 -1.3446 -0.5966
 2600SOL     OW19258   1.293   1.919  15.666 -0.2325  0.1172 -0.3341
 2600SOL    HW119259   1.379   1.951  15.638 -0.0305  0.5809  0.8037
 2600SOL    HW219260   1.281   1.856  15.596 -2.6687  0.6797 -0.4212
 2601SOL     OW19261   2.127   2.816   4.437  0.1468  0.0240 -0.6378
 2601SOL    HW119262   2.203   2.867   4.463  0.4162 -1.1204  0.8135
 2601SOL    HW219263   2.169   2.733   4.416 -2.3549 -0.6821 -2.8674
 2602SOL     OW19264   0.541   2.426  13.832 -0.2837 -0.1600 -0.1804
 2602SOL    HW119265   0.462   2.449  13.782  0.9737 -0.7525 -2.4473
 2602SOL    HW219266   0.557   2.336  13.805 -0.9334 -1.1111  2.6269
 2603SOL     OW19267   3.620   2.796  17.669  0.6647 -0.4851 -0.2333
 2603SOL    HW119268   3.595   2.762   0.050 -2.2794 -0.3567 -1.0493
 2603SOL    HW219269   3.556   2.866  17.657 -0.2908 -1.2923  0.2173
 2604SOL     OW19270   3.952   1.683   0.559 -0.4970  0.2565 -0.0997
 2604SOL    HW119271   3.999   1.734   0.626 -0.3982 -1.5234  1.1879
 2604SOL    HW219272   3.928   1.603   0.605 -3.6626  0.3360 -1.6359
 2605SOL     OW19273   3.725   1.971   8.046  0.4375 -0.3275  0.4791
 2605SOL    HW119274   3.730   2.058   8.006 -2.8857  0.5194  1.8558
 2605SOL    HW219275   3.813   1.941   8.024 -0.0047  0.0168 -1.7620
 2606SOL     OW19276   1.593   3.849   7.877  0.2423  0.2841  0.4290
 2606SOL    HW119277   1.608   3.837   7.970 -0.5357  1.3179  0.6826
 2606SOL    HW219278   1.514   3.797   7.859  0.3185  1.1418 -2.4504
 2607SOL     OW19279   3.319   3.066   7.526  0.6514  0.0749  0.1637
 2607SOL    HW119280   3.243   3.073   7.584  0.4197  1.3290 -0.3063
 2607SOL    HW219281   3.375   3.142   7.544  2.4768 -1.3969  0.7404
 2608SOL     OW19282   3.773   0.884   2.758 -0.0294  0.3304 -0.9971
 2608SOL    HW119283   3.681   0.905   2.745 -1.1254 -2.4327  2.2524
 2608SOL    HW219284   3.790   0.876   2.852  1.4579 -0.2492 -1.3052
 2609SOL     OW19285   1.321   0.262  12.910 -0.6206 -0.5301 -0.6048
 2609SOL    HW119286   1.356   0.347  12.882  2.4454 -1.5431  0.1946
 2609SOL    HW219287   1.286   0.281  12.997  0.9204  3.0457 -0.7568
 2610SOL     OW19288   1.843   0.145  11.471 -0.4875 -0.1234 -0.4194
 2610SOL    HW119289   1.816   0.143  11.563  0.5677 -0.9045 -0.1292
 2610SOL    HW219290   1.789   0.074  11.436 -2.7832  0.3588  2.1363
 2611SOL     OW19291   1.067   4.464   6.241  0.3713  0.0226 -0.5681
 2611SOL    HW119292   1.102   4.548   6.211  2.3245 -0.3157  0.7291
 2611SOL    HW219293   1.146   4.420   6.273 -1.1467 -1.0556  1.6730
 2612SOL     OW19294   0.576   2.486   7.366 -0.1140 -0.3906  0.8247
 2612SOL    HW119295   0.638   2.476   7.438 -0.4720 -1.8403  0.9435
 2612SOL    HW219296   0.621   2.459   7.286  0.9443 -2.0438  1.9815
 2613SOL     OW19297   2.925   2.143   0.145 -0.0002 -0.1028 -0.7052
 2613SOL    HW119298   2.844   2.093   0.134 -0.1682  0.4402 -1.9272
 2613SOL    HW219299   2.917   2.196   0.066 -0.1685 -0.3168 -0.8326
 2614SOL     OW19300   0.922   1.886   9.139  0.7764 -0.1651 -0.0897
 2614SOL    HW119301   0.997   1.857   9.192  1.5774  0.9733 -0.6054
 2614SOL    HW219302   0.950   1.962   9.088  2.2136 -0.7992 -0.2598
 2615SOL     OW19303   1.677   4.658  11.547 -0.3826 -0.3898 -0.5820
 2615SOL    HW119304   1.661   4.572  11.509  1.5598 -0.8252 -0.3778
 2615SOL    HW219305   1.646   4.659  11.638 -0.0408 -0.0199 -0.4706
 2616SOL     OW19306   0.892   2.799   8.106  0.1072 -0.0906 -0.0549
 2616SOL    HW119307   0.932   2.712   8.113 -0.4007 -0.3686 -0.6631
 2616SOL    HW219308   0.856   2.799   8.018  2.2214  2.9813 -0.9377
 2617SOL     OW19309   4.247   1.378   7.665  0.0571 -0.1912 -0.0196
 2617SOL    HW119310   4.296   1.295   7.670  0.1646 -0.0876  0.5872
 2617SOL    HW219311   4.223   1.377   7.572  0.9480 -0.4031 -0.2446
 2618SOL     OW19312   1.824   4.042  15.217  0.4936 -0.0390 -0.2188
 2618SOL    HW119313   1.808   4.055  15.124 -1.9618 -1.3348  0.0249
 2618SOL    HW219314   1.904   3.989  15.211  0.2376 -0.2655 -1.8215
 2619SOL     OW19315   4.442   4.671   6.950  0.0452  0.7927  0.5654
 2619SOL    HW119316   4.516   0.005   6.941  1.4995 -0.8990  1.3810
 2619SOL    HW219317   4.445   4.620   6.869  1.5489 -1.0515  1.7757
 2620SOL     OW19318   3.497   1.531   6.794  0.0867 -0.5707 -0.4007
 2620SOL    HW119319   3.440   1.483   6.733 -0.6421 -1.7151  1.1847
 2620SOL    HW219320   3.583   1.523   6.751 -0.8417  0.6996 -2.5301
 2621SOL     OW19321   3.888   2.648   3.510  0.2734 -0.3329  0.4708
 2621SOL    HW119322   3.951   2.707   3.551 -0.4764  0.1288  0.9553
 2621SOL    HW219323   3.810   2.702   3.502  0.0440 -0.9162 -1.2114
 2622SOL     OW19324   3.275   3.469   6.902  0.0031 -0.0732 -0.1282
 2622SOL    HW119325   3.209   3.498   6.838 -0.9529  1.1153  1.4069
 2622SOL    HW219326   3.228   3.395   6.940  1.2694 -1.6174 -1.5746
 2623SOL     OW19327   1.093   0.557   8.584  0.5718  0.1098 -0.3670
 2623SOL    HW119328   1.007   0.590   8.609  0.6677  0.3049 -0.2952
 2623SOL    HW219329   1.150   0.631   8.564  0.8714  0.0236  0.1598
 2624SOL     OW19330   0.900   1.142   7.814 -0.5316  0.1776 -0.3014
 2624SOL    HW119331   0.829   1.196   7.778  0.2893  1.7355  0.4080
 2624SOL    HW219332   0.850   1.089   7.876 -0.6167 -0.3720 -0.8451
 2625SOL     OW19333   2.144   3.170  11.396 -0.6579  0.1393  0.4986
 2625SOL    HW119334   2.200   3.229  11.345  1.8489 -1.6525  1.1991
 2625SOL    HW219335   2.173   3.194  11.484  0.4012 -0.3002  0.2602
 2626SOL     OW19336   4.584   0.171   2.638 -0.1293 -0.2207  0.7588
 2626SOL    HW119337   4.586   0.264   2.661  1.6227 -0.6794  2.3947
 2626SOL    HW219338   4.672   0.161   2.602 -0.7237  1.0383 -1.0830
 2627SOL     OW19339   4.381   1.715   4.158  0.0943 -0.2562  0.3324
 2627SOL    HW119340   4.468   1.678   4.144 -0.0935  0.2395 -2.2085
 2627SOL    HW219341   4.389   1.736   4.251 -1.7546 -3.2280  1.1476
 2628SOL     OW19342   4.426   1.118   7.659  0.6574  0.0040 -0.0682
 2628SOL    HW119343   4.429   1.153   7.570  0.4410 -1.3556 -0.5985
 2628SOL    HW219344   4.469   1.035   7.640 -1.7991 -0.6911 -2.5426
 2629SOL     OW19345   3.147   2.920   2.126  0.0487  0.3974 -0.3648
 2629SOL    HW119346   3.116   3.010   2.120  0.1571  0.4585  0.0287
 2629SOL    HW219347   3.222   2.935   2.068 -0.5267  0.2436 -1.1551
 2630SOL     OW19348   2.114   4.644   5.971  0.4207 -0.0800 -0.0138
 2630SOL    HW119349   2.164   4.696   5.908 -0.2339  0.1378 -0.3495
 2630SOL    HW219350   2.142   4.557   5.942  0.0996  0.1561 -1.0250
 2631SOL     OW19351   3.173   1.654   7.024 -0.1912  0.0493 -0.1792
 2631SOL    HW119352   3.098   1.659   7.083  0.5365 -0.4418  0.8012
 2631SOL    HW219353   3.181   1.748   7.012 -0.1328 -0.0325 -0.7555
 2632SOL     OW19354   0.619   4.087   2.011  0.0414  0.1239  0.0621
 2632SOL    HW119355   0.623   4.020   2.080  1.0081 -0.8657 -0.9687
 2632SOL    HW219356   0.705   4.089   1.970 -0.9223 -1.2298 -2.0195
 2633SOL     OW19357   0.437   4.231   6.640  0.1333 -0.2801 -0.4061
 2633SOL    HW119358   0.530   4.251   6.629  0.0860 -0.0740 -0.4432
 2633SOL    HW219359   0.434   4.142   6.606  0.9529 -0.3539 -0.2823
 2634SOL     OW19360   1.273   2.308   7.281  0.2368  0.3284 -0.1313
 2634SOL    HW119361   1.231   2.297   7.366  1.4649  0.5007  0.4986
 2634SOL    HW219362   1.230   2.386   7.245 -0.2000  0.1929  0.1052
 2635SOL     OW19363   4.714   1.785   4.072  0.4168 -0.3759  0.2138
 2635SOL    HW119364   4.652   1.740   4.129  0.7877  1.2945  1.9174
 2635SOL    HW219365   0.060   1.722   4.074 -0.8114 -1.7203  1.9637
 2636SOL     OW19366   1.577   2.895   5.650  0.5127  0.0185 -0.2861
 2636SOL    HW119367   1.512   2.907   5.581 -1.8812 -0.7101  1.8542
 2636SOL    HW219368   1.627   2.977   5.642  0.6181 -0.1877 -1.6320
 2637SOL     OW19369   3.301   3.743   4.716  0.1887 -0.0529 -0.1077
 2637SOL    HW119370   3.243   3.791   4.657  1.0303 -0.8339 -1.5664
 2637SOL    HW219371   3.352   3.688   4.657 -1.3779 -0.3069 -1.2218
 2638SOL     OW19372   0.257   0.594   6.747  0.1994 -0.7679 -0.6711
 2638SOL    HW119373   0.316   0.618   6.819 -0.0377 -1.6917 -0.1670
 2638SOL    HW219374   0.283   0.668   6.693  0.1278 -0.7427 -0.6699
 2639SOL     OW19375   0.862   2.673  12.415 -0.2124 -0.6840 -0.1552
 2639SOL    HW119376   0.850   2.652  12.507 -1.3918 -1.1037 -0.3963
 2639SOL    HW219377   0.791   2.623  12.374 -0.4594  1.2859 -2.1210
 2640SOL     OW19378   2.643   2.783   4.707  0.0145 -0.5635 -0.3020
 2640SOL    HW119379   2.591   2.721   4.656 -1.5781 -0.3610  1.0691
 2640SOL    HW219380   2.643   2.730   4.786 -2.8198 -1.9895 -1.2619
 2641SOL     OW19381   4.698   3.605   6.296 -0.1837 -0.1318 -0.2992
 2641SOL    HW119382   0.004   3.637   6.381 -2.2440 -0.1012  0.4558
 2641SOL    HW219383   4.623   3.554   6.328 -1.1386  1.7853  0.4897
 2642SOL     OW19384   0.388   3.278  10.409 -0.4435  0.2510  0.1829
 2642SOL    HW119385   0.424   3.191  10.424  1.1927  0.9098  0.1237
 2642SOL    HW219386   0.312   3.268  10.465  0.4031 -2.4068  0.8432
 2643SOL     OW19387   2.441   1.551   9.024 -0.0988 -0.2238  0.2374
 2643SOL    HW119388   2.428   1.508   9.108  0.4326 -0.1713  0.3418
 2643SOL    HW219389   2.446   1.640   9.057  0.5954 -0.1000 -0.1994
 2644SOL     OW19390   2.911   3.980  14.743  0.1591  0.5548 -0.1649
 2644SOL    HW119391   2.863   3.917  14.690 -0.3336  1.7344 -1.1075
 2644SOL    HW219392   2.840   4.028  14.786 -0.5173 -1.4480  0.9875
 2645SOL     OW19393   1.826   1.875   2.833  0.3335 -0.2335  0.2656
 2645SOL    HW119394   1.753   1.869   2.895 -1.2332 -0.2113 -1.5730
 2645SOL    HW219395   1.779   1.917   2.761 -0.1207 -0.6351  0.3303
 2646SOL     OW19396   1.646   1.416   2.751 -0.7142 -0.3092 -0.3167
 2646SOL    HW119397   1.680   1.328   2.766  2.5048  0.9623 -0.2044
 2646SOL    HW219398   1.664   1.424   2.657  0.6331 -1.9812 -0.1886
 2647SOL     OW19399   0.770   1.608   5.036 -0.0215  0.1840  0.4314
 2647SOL    HW119400   0.778   1.590   4.942  0.5919 -0.2822  0.5766
 2647SOL    HW219401   0.733   1.696   5.027  0.7944  0.3358 -1.4361
 2648SOL     OW19402   2.970   2.094  12.880  0.0387 -0.2828 -0.0085
 2648SOL    HW119403   2.899   2.056  12.828 -0.3273  2.6529 -1.6456
 2648SOL    HW219404   2.980   2.022  12.942 -2.2287 -2.2881 -1.9625
 2649SOL     OW19405   4.555   0.053   1.640  0.2075  0.3451  0.0885
 2649SOL    HW119406   4.549   0.044   1.735  1.4318  0.5772  0.1850
 2649SOL    HW219407   4.472   0.014   1.613  1.3717 -2.7255  0.9953
 2650SOL     OW19408   3.980   2.180   6.405  0.4583  0.1112 -0.0783
 2650SOL    HW119409   3.892   2.214   6.389 -0.0312 -1.4661 -0.6333
 2650SOL    HW219410   4.037   2.220   6.339  0.1084  1.2375  0.2902
 2651SOL     OW19411   3.762   2.611   7.166 -0.1277  0.1921 -0.0528
 2651SOL    HW119412   3.672   2.588   7.186 -0.6250  2.1690 -0.0423
 2651SOL    HW219413   3.817   2.539   7.198 -0.9972 -0.9400 -1.0723
 2652SOL     OW19414   4.344   0.635   7.486 -0.2018  0.5456  0.0159
 2652SOL    HW119415   4.394   0.554   7.490  0.3621  0.9266  0.6461
 2652SOL    HW219416   4.326   0.640   7.580 -2.6698  0.4776 -0.4422
 2653SOL     OW19417   2.247   3.059  13.889  0.1676  0.4642  0.2040
 2653SOL    HW119418   2.210   3.002  13.822 -2.5716 -0.0321  2.1411
 2653SOL    HW219419   2.327   3.009  13.905 -0.6175 -1.3956 -1.6544
 2654SOL     OW19420   1.758   2.257   8.867  0.2116 -0.3545  0.1901
 2654SOL    HW119421   1.726   2.337   8.908 -0.4950 -0.7902  0.4924
 2654SOL    HW219422   1.787   2.212   8.947 -1.8880  1.6984  2.1285
 2655SOL     OW19423   1.152   2.641   5.612  0.5709  0.4990  0.7486
 2655SOL    HW119424   1.197   2.658   5.695  1.0956 -1.5733  0.9018
 2655SOL    HW219425   1.081   2.583   5.640  1.7706 -1.3674 -0.0058
 2656SOL     OW19426   2.057   3.890   9.017  0.2653 -0.4554  0.2342
 2656SOL    HW119427   2.136   3.892   9.072 -0.0888  0.7355  0.6864
 2656SOL    HW219428   2.072   3.970   8.966 -1.0462  0.5119  1.4106
 2657SOL     OW19429   3.465   0.933   6.196  0.1325 -0.3193 -0.0040
 2657SOL    HW119430   3.401   0.862   6.199 -0.9351  0.5706 -1.7396
 2657SOL    HW219431   3.543   0.903   6.244 -0.0309  2.6146  2.1110
 2658SOL     OW19432   3.169   3.244   2.345  0.2148  0.1183  0.5035
 2658SOL    HW119433   3.138   3.331   2.371  0.4472  0.5298 -0.6030
 2658SOL    HW219434   3.162   3.198   2.429  1.0613 -0.1012  0.4534
 2659SOL     OW19435   2.059   3.693   2.566 -0.1872 -0.0594 -0.2315
 2659SOL    HW119436   1.999   3.766   2.580  0.4191  0.5888 -1.0161
 2659SOL    HW219437   2.137   3.738   2.533  1.3812 -3.6972 -1.4848
 2660SOL     OW19438   4.693   1.467   0.216  0.3223  0.4884 -0.0079
 2660SOL    HW119439   4.697   1.544   0.272 -0.0724 -0.1233  0.8747
 2660SOL    HW219440   0.029   1.493   0.148  1.0393  1.7522  1.1171
 2661SOL     OW19441   0.150   0.341   7.450  0.2431  0.3967 -0.2509
 2661SOL    HW119442   0.179   0.427   7.479  0.1680 -0.0124  1.0473
 2661SOL    HW219443   0.055   0.347   7.444 -0.0128 -2.3766  0.7120
 2662SOL     OW19444   1.356   1.271   3.167  0.2491 -0.5279  0.0322
 2662SOL    HW119445   1.446   1.302   3.176  0.9802 -2.1151 -1.6742
 2662SOL    HW219446   1.348   1.268   3.071  2.1087 -0.0726 -0.1357
 2663SOL     OW19447   0.494   3.716   5.976  0.0993  0.4861 -0.0095
 2663SOL    HW119448   0.546   3.696   6.054 -0.6611  1.7598  0.8272
 2663SOL    HW219449   0.410   3.690   6.013  0.1853 -1.3112 -1.0950
 2664SOL     OW19450   1.368   3.109   8.632  0.2459  0.5477  0.7323
 2664SOL    HW119451   1.353   3.204   8.634  0.2151  0.5471  0.5192
 2664SOL    HW219452   1.281   3.070   8.634 -0.1980  1.6029  2.0103
 2665SOL     OW19453   0.010   4.428   6.347 -0.3760  0.4176 -0.0943
 2665SOL    HW119454   4.669   4.365   6.372  0.3140 -0.0359  0.6082
 2665SOL    HW219455   0.081   4.373   6.313 -1.2995 -0.7182 -0.1689
 2666SOL     OW19456   0.915   1.789   4.508 -0.2745 -0.1783  0.3169
 2666SOL    HW119457   0.824   1.807   4.534 -0.0990  0.0969  0.7375
 2666SOL    HW219458   0.900   1.727   4.437  1.4953  1.4618 -1.4671
 2667SOL     OW19459   2.405   2.980   1.301  0.1065 -0.3535  0.2115
 2667SOL    HW119460   2.406   2.888   1.275  2.3940  0.0925 -1.3037
 2667SOL    HW219461   2.314   2.979   1.330  0.0460  1.5495  0.1296
 2668SOL     OW19462   1.791   0.127  15.905  0.7933 -0.0641 -0.3904
 2668SOL    HW119463   1.806   0.142  15.812  0.3901  1.2384 -0.2383
 2668SOL    HW219464   1.708   0.171  15.922  1.8498  2.2102 -1.1752
 2669SOL     OW19465   4.054   0.652  17.193 -0.1690 -0.2160 -0.0047
 2669SOL    HW119466   4.032   0.737  17.156 -0.7996 -0.3690  0.0020
 2669SOL    HW219467   4.023   0.601  17.118 -0.1057 -1.1512  0.6095
 2670SOL     OW19468   1.258   2.266   6.335 -0.0252 -0.0937 -0.2896
 2670SOL    HW119469   1.172   2.281   6.376  0.2624 -0.2077  0.3557
 2670SOL    HW219470   1.256   2.170   6.331  1.4970 -0.1108 -0.4285
 2671SOL     OW19471   0.101   1.228   7.031  0.8832  0.3198 -0.0513
 2671SOL    HW119472   0.175   1.170   7.051  0.6341 -0.5120 -1.5301
 2671SOL    HW219473   0.088   1.220   6.937  1.8131 -0.5241 -0.1155
 2672SOL     OW19474   0.809   2.782   7.011 -0.0565 -0.0738  0.2140
 2672SOL    HW119475   0.802   2.799   7.105  2.3830  0.5648  0.3038
 2672SOL    HW219476   0.718   2.756   6.998  0.2649 -1.0156 -0.2216
 2673SOL     OW19477   2.300   3.302  13.977 -0.5387 -0.4086  0.5490
 2673SOL    HW119478   2.386   3.319  13.939 -0.5388 -3.8130 -0.9263
 2673SOL    HW219479   2.274   3.231  13.920 -2.2394  1.4747 -1.0120
 2674SOL     OW19480   4.319   1.885   0.606 -0.1865 -0.0326  0.0716
 2674SOL    HW119481   4.353   1.972   0.624  1.5079 -0.3879 -1.4475
 2674SOL    HW219482   4.283   1.904   0.519  0.3361 -1.3558 -0.4340
 2675SOL     OW19483   3.807   2.235   3.619  0.3760  0.4480 -0.3998
 2675SOL    HW119484   3.870   2.285   3.567  0.5989 -2.2883 -2.7836
 2675SOL    HW219485   3.855   2.224   3.701 -1.2186  0.8358  0.5883
 2676SOL     OW19486   2.879   0.430   8.639  0.4308 -0.4043  0.3189
 2676SOL    HW119487   2.876   0.338   8.666 -0.1112 -1.1915 -2.4234
 2676SOL    HW219488   2.943   0.461   8.704 -0.3090  0.4582  0.6307
 2677SOL     OW19489   1.853   0.041   8.081 -0.0175 -0.1092 -0.4753
 2677SOL    HW119490   1.852   0.042   8.177  0.1062 -2.2314 -0.4444
 2677SOL    HW219491   1.947   0.050   8.065 -0.5901  1.3742 -3.0876
 2678SOL     OW19492   4.303   2.107   6.562  1.2096  0.3459 -0.3313
 2678SOL    HW119493   4.309   2.196   6.526 -2.4358  0.3699 -0.8804
 2678SOL    HW219494   4.352   2.060   6.494  1.5231  2.6500 -1.7211
 2679SOL     OW19495   3.274   0.636   2.621 -0.0417 -0.8347 -0.1387
 2679SOL    HW119496   3.331   0.620   2.546 -1.2347  2.9043 -1.8695
 2679SOL    HW219497   3.339   0.662   2.687 -0.3885  3.0153 -1.2766
 2680SOL     OW19498   3.658   3.398  17.175 -0.3253  0.0411  0.0382
 2680SOL    HW119499   3.689   3.472  17.123 -1.1353 -0.5909 -1.3611
 2680SOL    HW219500   3.591   3.356  17.121 -0.7957 -0.8063  1.2803
 2681SOL     OW19501   1.844   0.447   2.252  0.4587 -0.2806  0.0472
 2681SOL    HW119502   1.935   0.462   2.279  1.2164  0.4951 -2.9082
 2681SOL    HW219503   1.803   0.398   2.323  2.5832 -0.1224  1.3797
 2682SOL     OW19504   0.604   4.068   4.723 -0.0300 -0.6345  0.1207
 2682SOL    HW119505   0.589   4.157   4.690  0.6769 -1.4808 -2.5225
 2682SOL    HW219506   0.699   4.062   4.714 -0.0238  0.0114 -0.2612
 2683SOL     OW19507   0.075   2.067   0.526  0.0944 -0.1286  0.3353
 2683SOL    HW119508   0.066   2.005   0.453  3.3797 -1.0701  0.7429
 2683SOL    HW219509   0.127   2.028   0.596  2.8063 -1.7114 -2.5887
 2684SOL     OW19510   1.392   0.914   4.563 -0.7498 -0.1833  0.0741
 2684SOL    HW119511   1.427   0.900   4.476  1.9819 -0.9529  1.3050
 2684SOL    HW219512   1.360   0.828   4.591  0.1200  0.1056  2.0141
 2685SOL     OW19513   1.105   3.070  15.113  0.5242 -0.3578  0.1746
 2685SOL    HW119514   1.067   3.014  15.181 -1.8249  0.6359 -0.3291
 2685SOL    HW219515   1.105   3.152  15.162  0.7275  0.1313 -0.6461
 2686SOL     OW19516   3.348   4.023   7.873 -0.0120 -0.2438 -0.0439
 2686SOL    HW119517   3.309   4.080   7.939 -1.4015 -1.2980  0.0405
 2686SOL    HW219518   3.425   3.990   7.919 -1.1028 -1.1624  1.1063
 2687SOL     OW19519   4.083   2.508   6.574  0.4603  0.1542 -0.0265
 2687SOL    HW119520   4.094   2.560   6.494 -2.0478  0.7854  0.0204
 2687SOL    HW219521   4.121   2.429   6.536 -0.0436 -0.6939  1.2225
 2688SOL     OW19522   0.748   0.712   1.561  0.1593 -0.3570 -0.1994
 2688SOL    HW119523   0.675   0.775   1.554  0.8257  0.3829 -0.4422
 2688SOL    HW219524   0.713   0.635   1.515  0.8534 -1.6054  1.3949
 2689SOL     OW19525   2.789   3.627   5.066  0.2785 -0.4854  0.5968
 2689SOL    HW119526   2.714   3.649   5.010  1.9837  0.9610 -1.1375
 2689SOL    HW219527   2.769   3.680   5.143  1.5660  0.7149  0.1119
 2690SOL     OW19528   2.537   4.463  12.249  0.2116 -0.5613 -0.9572
 2690SOL    HW119529   2.580   4.474  12.334 -2.1985 -0.0947  0.2236
 2690SOL    HW219530   2.530   4.550  12.211  0.7376  0.3883  1.0979
 2691SOL     OW19531   0.594   2.922   9.734 -0.3796 -0.5707 -0.6211
 2691SOL    HW119532   0.647   2.986   9.687 -1.3399  0.4468 -0.3097
 2691SOL    HW219533   0.607   2.842   9.684 -0.7438 -1.3258  0.4726
 2692SOL     OW19534   0.442   0.962   8.098  0.4115  0.3158  0.5642
 2692SOL    HW119535   0.368   1.002   8.052 -0.2515 -2.3289 -0.7216
 2692SOL    HW219536   0.436   1.021   8.173 -2.8885  2.2702 -1.2618
 2693SOL     OW19537   4.348   3.822   2.760  0.3320 -0.5663  0.4512
 2693SOL    HW119538   4.406   3.832   2.685 -0.7917  2.9699  0.0599
 2693SOL    HW219539   4.300   3.905   2.764  0.8413 -0.3551  1.9022
 2694SOL     OW19540   3.976   4.179   4.973 -0.5514 -0.4015  0.0558
 2694SOL    HW119541   4.071   4.188   4.968 -0.8394  1.1047 -2.1815
 2694SOL    HW219542   3.968   4.098   4.923 -1.2344 -0.7601  0.7311
 2695SOL     OW19543   0.910   1.083  16.454 -0.0224 -0.0400 -0.0998
 2695SOL    HW119544   0.829   1.122  16.487 -0.7478 -1.2826 -0.3826
 2695SOL    HW219545   0.918   1.008  16.513 -1.3494  0.2673  0.4635
 2696SOL     OW19546   3.600   0.786   2.416 -0.0911 -0.5896  0.1159
 2696SOL    HW119547   3.615   0.784   2.511  0.3177  1.1850  0.0899
 2696SOL    HW219548   3.680   0.753   2.375  0.4835  0.4859  0.3661
 2697SOL     OW19549   0.304   1.865   3.154  0.6651 -0.4856  0.0724
 2697SOL    HW119550   0.299   1.836   3.245  2.7496 -0.1380  0.3118
 2697SOL    HW219551   0.214   1.849   3.125  0.4308  1.9430 -0.5590
 2698SOL     OW19552   1.548   2.504   9.434 -0.0031  0.0959 -0.2625
 2698SOL    HW119553   1.510   2.549   9.510 -3.4948 -1.1774 -1.2523
 2698SOL    HW219554   1.632   2.549   9.441  0.4960 -0.7762 -0.7665
 2699SOL     OW19555   2.057   0.098  10.507  0.8351  0.0395 -0.2251
 2699SOL    HW119556   1.973   0.062  10.535 -0.2895  1.3963 -1.9523
 2699SOL    HW219557   2.047   0.101  10.412  0.9203  0.0323 -0.2348
 2700SOL     OW19558   2.892   2.117  11.279 -0.3037 -0.1852 -0.2911
 2700SOL    HW119559   2.801   2.086  11.275  0.1537 -1.3567 -1.6320
 2700SOL    HW219560   2.929   2.054  11.217 -0.3768 -0.9607  0.4471
 2701SOL     OW19561   1.889   1.068   2.608  0.2720  0.1076  0.1220
 2701SOL    HW119562   1.797   1.094   2.599  0.5766  0.7383 -1.2182
 2701SOL    HW219563   1.893   0.986   2.558 -2.5307 -0.5538  0.9627
 2702SOL     OW19564   3.264   0.193   2.812  0.5520 -0.1423 -0.4062
 2702SOL    HW119565   3.274   0.286   2.788  0.4810 -0.1706 -0.5473
 2702SOL    HW219566   3.302   0.191   2.900 -0.0272  0.1674 -0.1476
 2703SOL     OW19567   0.436   3.049   6.822 -0.6170 -0.0708 -0.1217
 2703SOL    HW119568   0.478   2.988   6.762 -1.2367 -0.2115 -0.4071
 2703SOL    HW219569   0.477   3.133   6.804 -0.8952  0.3663  1.2365
 2704SOL     OW19570   2.449   1.447   4.957  0.2785 -0.4150 -0.1688
 2704SOL    HW119571   2.437   1.416   5.047  0.1095  0.2193  0.0347
 2704SOL    HW219572   2.385   1.405   4.902 -1.5868 -0.6225  2.1640
 2705SOL     OW19573   1.575   2.402   8.248  0.7322 -0.4268 -0.0174
 2705SOL    HW119574   1.550   2.374   8.160  1.6936  0.4049 -0.5528
 2705SOL    HW219575   1.519   2.340   8.294  0.2088 -0.1501 -0.2853
 2706SOL     OW19576   0.032   0.174  15.978  0.3906  0.3564  0.7261
 2706SOL    HW119577   0.026   0.141  16.068 -0.8863  2.0635  1.2685
 2706SOL    HW219578   0.115   0.134  15.955  0.2848  0.1042  0.7854
 2707SOL     OW19579   3.211   2.307   7.089 -0.2816 -0.2085 -0.8448
 2707SOL    HW119580   3.269   2.231   7.091 -0.3023 -0.1987  0.2498
 2707SOL    HW219581   3.137   2.274   7.141  0.1864  0.3625  0.1897
 2708SOL     OW19582   1.308   0.381  10.918 -0.4224 -0.2055  1.1110
 2708SOL    HW119583   1.370   0.391  10.846 -3.4733  1.3263 -1.2632
 2708SOL    HW219584   1.341   0.446  10.980 -1.3115 -1.0509  2.4772
 2709SOL     OW19585   4.347   0.589  17.351 -0.5596 -0.5059  0.0013
 2709SOL    HW119586   4.423   0.540  17.383  0.3086  2.8903  3.1848
 2709SOL    HW219587   4.387   0.663  17.305 -1.2975 -0.2107 -0.1524
 2710SOL     OW19588   0.295   3.672   9.715 -0.5113 -0.1942  0.3723
 2710SOL    HW119589   0.342   3.589   9.705  1.0861  0.8054 -0.3980
 2710SOL    HW219590   0.263   3.661   9.805 -0.3834 -0.6543  0.3641
 2711SOL     OW19591   1.919   2.812   1.755 -0.4626  0.7700 -0.2449
 2711SOL    HW119592   1.983   2.855   1.698 -0.2031  1.6806  0.7296
 2711SOL    HW219593   1.848   2.799   1.693 -2.3564 -0.4355  2.1653
 2712SOL     OW19594   3.891   3.626  16.382 -0.0520 -0.1602  0.1933
 2712SOL    HW119595   3.808   3.602  16.340  0.8590  2.1446 -2.8713
 2712SOL    HW219596   3.954   3.574  16.334  0.2848  0.4673 -0.0424
 2713SOL     OW19597   2.162   4.158  11.436 -0.5558  0.4339 -0.0756
 2713SOL    HW119598   2.159   4.213  11.357 -0.5993  2.0021  1.0031
 2713SOL    HW219599   2.236   4.195  11.485 -0.2173  0.5173 -0.6559
 2714SOL     OW19600   2.294   1.141   1.730  0.2913  0.3616  0.0619
 2714SOL    HW119601   2.322   1.079   1.664  1.1073 -0.4787  1.1976
 2714SOL    HW219602   2.209   1.157   1.690 -1.2171 -2.1814  2.2211
 2715SOL     OW19603   3.670   1.042   2.195  0.2496 -0.4917 -0.2515
 2715SOL    HW119604   3.607   1.064   2.263  1.4599  0.3042  0.6206
 2715SOL    HW219605   3.738   1.006   2.252 -0.7956 -1.2157  0.5324
 2716SOL     OW19606   2.569   1.982   8.438 -0.5290  0.0120 -0.2891
 2716SOL    HW119607   2.477   1.970   8.464  0.2041 -1.9895  1.3628
 2716SOL    HW219608   2.594   1.890   8.429  0.5978  0.4426 -1.5142
 2717SOL     OW19609   3.394   1.292   9.757  0.0604  0.2187  0.1110
 2717SOL    HW119610   3.456   1.348   9.805 -3.2683 -0.2294  4.8773
 2717SOL    HW219611   3.448   1.268   9.681 -0.2669  0.6944 -0.2676
 2718SOL     OW19612   2.606   0.438  10.313 -0.5039  0.8194 -0.3207
 2718SOL    HW119613   2.694   0.473  10.300 -1.0164  1.5100 -1.9580
 2718SOL    HW219614   2.608   0.441  10.408  0.6661  0.8250 -0.3488
 2719SOL     OW19615   1.235   3.564  11.330  0.2794 -0.1451  0.2854
 2719SOL    HW119616   1.172   3.626  11.292  0.9735 -1.4368 -2.9978
 2719SOL    HW219617   1.317   3.607  11.308  0.6312 -1.1611 -0.3989
 2720SOL     OW19618   1.501   2.111   4.133 -0.2084 -0.0025  0.0799
 2720SOL    HW119619   1.528   2.106   4.041 -1.2568  3.1912 -0.3794
 2720SOL    HW219620   1.415   2.152   4.122  0.2596  0.9978  0.1991
 2721SOL     OW19621   0.096   3.187   7.194 -0.0218 -1.1582 -0.4540
 2721SOL    HW119622   0.081   3.101   7.233 -0.3817 -0.9166 -0.0562
 2721SOL    HW219623   0.161   3.220   7.256 -2.2301 -0.5817  1.5555
 2722SOL     OW19624   1.791   1.585   2.944 -0.0592  0.0847  0.3015
 2722SOL    HW119625   1.769   1.493   2.961 -1.0322 -0.0875 -1.9639
 2722SOL    HW219626   1.716   1.618   2.895 -0.2008 -1.8923 -0.8001
 2723SOL     OW19627   3.066   4.370   5.982  0.1250  0.3283  0.1879
 2723SOL    HW119628   3.131   4.371   6.052  0.5177 -2.8914 -0.0898
 2723SOL    HW219629   3.099   4.300   5.925  0.3136 -0.2554  1.0077
 2724SOL     OW19630   0.254   2.013   5.410 -0.1062  0.0221 -0.1039
 2724SOL    HW119631   0.277   2.079   5.345 -1.2401 -1.0151 -1.5628
 2724SOL    HW219632   0.218   1.950   5.347  0.9697 -1.3892  0.6851
 2725SOL     OW19633   1.427   0.079   6.687 -0.3243 -0.7211 -0.1932
 2725SOL    HW119634   1.453   0.170   6.675 -0.8076 -0.6368 -0.5783
 2725SOL    HW219635   1.506   0.042   6.728  0.5922  0.1871 -1.1497
 2726SOL     OW19636   0.421   1.331   5.754  0.0745 -0.1861  0.3194
 2726SOL    HW119637   0.504   1.327   5.705 -0.7958  2.2819 -1.3413
 2726SOL    HW219638   0.358   1.367   5.692  0.6054  0.2654  0.0385
 2727SOL     OW19639   0.457   1.769   1.732 -0.5469 -0.0406  0.1268
 2727SOL    HW119640   0.513   1.694   1.752  1.4975  1.0181 -1.5998
 2727SOL    HW219641   0.374   1.721   1.738 -0.3901 -0.6001 -2.1323
 2728SOL     OW19642   1.575   1.448   3.290  0.2396 -0.5251  0.3258
 2728SOL    HW119643   1.648   1.429   3.231  0.1944 -0.8262  0.3674
 2728SOL    HW219644   1.544   1.535   3.266 -1.3725 -1.4267 -0.8458
 2729SOL     OW19645   4.349   4.010   6.298  0.6456 -0.1597 -0.4545
 2729SOL    HW119646   4.289   4.040   6.229  0.9254  0.3900 -0.4593
 2729SOL    HW219647   4.314   4.055   6.374 -0.9403  1.5372 -2.1850
 2730SOL     OW19648   0.982   0.802   6.457  0.3633  0.2052 -0.0325
 2730SOL    HW119649   0.950   0.724   6.410 -0.8675  0.8524 -0.2728
 2730SOL    HW219650   1.056   0.825   6.402 -0.3849  1.4851 -0.5159
 2731SOL     OW19651   1.676   1.251  11.346 -0.3004 -0.2717  0.2034
 2731SOL    HW119652   1.747   1.292  11.295  0.7264 -3.0747 -0.6123
 2731SOL    HW219653   1.671   1.306  11.424  0.7861 -0.2382  0.2515
 2732SOL     OW19654   0.411   2.927   3.650  0.4431  0.1064  0.1658
 2732SOL    HW119655   0.351   2.946   3.723 -0.8925 -0.4890 -0.7856
 2732SOL    HW219656   0.352   2.945   3.577  0.9263  0.9738  0.0005
 2733SOL     OW19657   2.851   0.534  10.255  0.1407 -0.3114 -0.2097
 2733SOL    HW119658   2.893   0.459  10.213 -1.5043 -1.0123 -0.6002
 2733SOL    HW219659   2.913   0.568  10.320 -0.3743  1.5604 -0.6766
 2734SOL     OW19660   3.749   0.953   5.237 -0.2248 -0.3424  0.3738
 2734SOL    HW119661   3.703   0.953   5.321  0.4206 -0.0133  0.7254
 2734SOL    HW219662   3.713   1.027   5.189 -0.6631 -2.5391 -2.6625
 2735SOL     OW19663   1.790   0.660   7.114  0.5902 -0.1485  0.0996
 2735SOL    HW119664   1.767   0.739   7.063 -3.2211 -0.1840  1.7560
 2735SOL    HW219665   1.858   0.618   7.062  0.7215  0.7881 -0.4960
 2736SOL     OW19666   0.751   2.660   8.568 -0.4171  0.1048 -0.1590
 2736SOL    HW119667   0.723   2.617   8.649  3.3659 -0.1261  1.0295
 2736SOL    HW219668   0.842   2.680   8.590 -0.2576 -1.9568  1.1333
 2737SOL     OW19669   3.028   1.528   9.425  0.3767  0.0720 -0.0390
 2737SOL    HW119670   3.072   1.445   9.407  1.9819  0.8130  0.4700
 2737SOL    HW219671   2.966   1.497   9.491  1.4857 -2.5163 -0.2077
 2738SOL     OW19672   2.579   3.996   6.334 -0.2819  0.6104  0.4927
 2738SOL    HW119673   2.582   4.079   6.382  1.5105  0.6065  0.4182
 2738SOL    HW219674   2.484   3.990   6.324  0.1146  0.0286 -2.8304
 2739SOL     OW19675   3.131   1.574  13.567  0.3020  0.0955 -0.2910
 2739SOL    HW119676   3.109   1.612  13.652  0.9290 -0.1305 -0.0247
 2739SOL    HW219677   3.088   1.624  13.498  0.0662  1.5918  0.9380
 2740SOL     OW19678   0.542   3.398   7.484 -0.0724  0.2025  0.4270
 2740SOL    HW119679   0.587   3.314   7.480 -1.7481 -0.7012  0.5558
 2740SOL    HW219680   0.497   3.394   7.399 -0.6273 -3.5474  0.9186
 2741SOL     OW19681   4.717   1.502   8.024  0.4612  0.5490 -0.1446
 2741SOL    HW119682   0.038   1.453   8.092  1.0505  2.0051  0.4776
 2741SOL    HW219683   4.700   1.583   8.070  1.5963  0.0747  1.1035
 2742SOL     OW19684   0.471   0.500   2.629  0.2657 -0.2971  0.0892
 2742SOL    HW119685   0.549   0.475   2.580  0.5839 -0.3501  0.6294
 2742SOL    HW219686   0.490   0.464   2.716 -2.4222  0.9611  1.2194
 2743SOL     OW19687   3.455   1.180   5.522  0.3631  0.8386  0.0750
 2743SOL    HW119688   3.433   1.268   5.492 -0.7094  0.8800  1.0128
 2743SOL    HW219689   3.372   1.145   5.553  1.0341 -1.6790 -0.9444
 2744SOL     OW19690   1.505   0.106  11.994  0.4577  0.8427  0.2282
 2744SOL    HW119691   1.589   0.080  12.033  0.2696 -1.8733 -1.2080
 2744SOL    HW219692   1.444   0.100  12.067  0.9379 -2.3999  0.3790
 2745SOL     OW19693   2.750   0.526  12.577 -0.5080 -0.0361 -0.2666
 2745SOL    HW119694   2.842   0.552  12.583 -0.5045 -1.0094  3.8040
 2745SOL    HW219695   2.747   0.445  12.628 -2.4661  0.7871  0.9276
 2746SOL     OW19696   0.129   1.224   5.853 -0.5678  0.1804 -0.0812
 2746SOL    HW119697   0.122   1.191   5.942 -1.1138  0.4090 -0.0348
 2746SOL    HW219698   0.166   1.311   5.870  1.2314 -0.2828 -1.6403
 2747SOL     OW19699   1.755   2.544   5.385  0.1468 -0.2975  0.0605
 2747SOL    HW119700   1.755   2.479   5.314 -0.8994 -2.2078  1.8307
 2747SOL    HW219701   1.825   2.514   5.444  0.4835 -0.1076 -0.2401
 2748SOL     OW19702   4.198   4.517   8.201 -0.1353  0.2720  0.0158
 2748SOL    HW119703   4.140   4.487   8.130 -0.1569  1.3716 -0.4444
 2748SOL    HW219704   4.212   4.438   8.252 -1.8695 -0.5659 -0.8184
 2749SOL     OW19705   2.975   0.091   8.915 -0.0138 -0.3219 -0.2372
 2749SOL    HW119706   3.059   0.124   8.947  2.1515 -4.4224 -1.6695
 2749SOL    HW219707   2.920   0.169   8.919 -0.6538 -0.8877  2.1657
 2750SOL     OW19708   1.758   3.560  12.493 -0.0134 -0.3230 -0.6750
 2750SOL    HW119709   1.696   3.571  12.565 -1.1526 -0.6000 -1.6275
 2750SOL    HW219710   1.762   3.466  12.475 -0.9123 -0.5134  0.1277
 2751SOL     OW19711   0.847   1.886   4.767 -0.1488  0.3816 -0.2606
 2751SOL    HW119712   0.861   1.791   4.764 -0.4857  0.3188  0.2822
 2751SOL    HW219713   0.777   1.893   4.701 -0.3304 -0.6805 -0.1823
 2752SOL     OW19714   0.275   2.856   4.026 -0.5470 -0.1601 -0.5648
 2752SOL    HW119715   0.244   2.947   4.030 -1.4943 -0.5453  1.1245
 2752SOL    HW219716   0.192   2.814   4.001 -0.3123 -0.9857  0.0536
 2753SOL     OW19717   1.279   0.727   4.949 -0.0311 -0.2091  0.6298
 2753SOL    HW119718   1.190   0.705   4.976  0.9316 -2.2591  2.1405
 2753SOL    HW219719   1.284   0.820   4.967  0.1876 -0.5990  2.6044
 2754SOL     OW19720   0.055   3.585   4.940 -0.3955 -0.0998  0.0843
 2754SOL    HW119721   0.120   3.654   4.923  0.2721 -0.6750  0.3164
 2754SOL    HW219722   0.092   3.552   5.021 -0.7307 -1.9565 -0.5303
 2755SOL     OW19723   3.595   4.267   4.317 -0.1627  0.3264 -0.1541
 2755SOL    HW119724   3.645   4.333   4.270 -2.0738  1.4328 -0.6224
 2755SOL    HW219725   3.508   4.275   4.278 -0.4001 -0.1054  0.2782
 2756SOL     OW19726   3.101   0.920  10.453  0.7137 -0.3360 -0.2126
 2756SOL    HW119727   3.041   0.991  10.476 -0.0996 -0.6352 -1.4193
 2756SOL    HW219728   3.185   0.964  10.460 -0.1164  0.8085  2.4597
 2757SOL     OW19729   3.257   0.933   6.926 -0.3854 -0.1566  0.6300
 2757SOL    HW119730   3.163   0.916   6.919 -0.7607  1.9055  0.6036
 2757SOL    HW219731   3.298   0.853   6.896  1.4658  0.8315  0.5502
 2758SOL     OW19732   3.433   1.150   3.879 -0.4511 -0.0508  0.4540
 2758SOL    HW119733   3.478   1.197   3.949  0.3423  0.0487 -0.1212
 2758SOL    HW219734   3.410   1.068   3.923 -1.1598  1.8538  3.6438
 2759SOL     OW19735   2.998   1.126  16.184 -0.5854 -0.5041  0.0873
 2759SOL    HW119736   2.980   1.033  16.170 -0.5790 -0.7791  1.8984
 2759SOL    HW219737   2.912   1.160  16.208 -0.6531  0.3450 -1.3233
 2760SOL     OW19738   4.710   3.850  12.160 -0.5399  0.3025  0.2996
 2760SOL    HW119739   0.035   3.776  12.195  2.0509  1.8545 -0.1943
 2760SOL    HW219740   0.023   3.919  12.214 -0.9573 -0.9263  2.1706
 2761SOL     OW19741   3.478   0.219  12.913  0.1856  0.2706  0.0185
 2761SOL    HW119742   3.471   0.223  12.818  0.1019 -1.3151 -0.0385
 2761SOL    HW219743   3.470   0.310  12.943  1.9369 -0.2566  2.1094
 2762SOL     OW19744   0.624   2.402  12.068  0.2332  0.3868 -0.2680
 2762SOL    HW119745   0.693   2.347  12.032  0.2345 -0.5763  1.2394
 2762SOL    HW219746   0.565   2.336  12.104 -0.8064  1.7364  0.5002
 2763SOL     OW19747   4.371   1.490   3.379  0.2422  0.1294  0.7472
 2763SOL    HW119748   4.329   1.433   3.443 -1.2536 -1.6391 -1.8114
 2763SOL    HW219749   4.289   1.525   3.344 -0.8941 -0.6071  2.6595
 2764SOL     OW19750   1.899   2.054   5.175 -0.4172  0.0945  0.4464
 2764SOL    HW119751   1.909   2.007   5.258 -0.1402 -1.0872 -0.2570
 2764SOL    HW219752   1.831   2.119   5.192 -0.9222 -0.5328  0.8161
 2765SOL     OW19753   0.964   3.807  16.039 -0.3029 -0.4619  0.1203
 2765SOL    HW119754   0.995   3.716  16.039  1.0527 -0.0051 -2.8787
 2765SOL    HW219755   1.020   3.853  16.101  0.3963  0.2067 -1.0118
 2766SOL     OW19756   3.827   3.145   8.655  0.2810 -0.1263 -0.4606
 2766SOL    HW119757   3.816   3.085   8.581  1.1810 -0.0344 -0.6775
 2766SOL    HW219758   3.756   3.117   8.713  1.8856  0.3492  1.7170
 2767SOL     OW19759   3.798   4.034   3.079 -0.0805 -0.1348 -0.1567
 2767SOL    HW119760   3.834   4.010   2.993  0.8126 -2.0382  0.7509
 2767SOL    HW219761   3.798   3.945   3.114 -0.7762  0.9944  2.7160
 2768SOL     OW19762   2.218   2.351   6.770 -0.2244  0.6145 -0.2006
 2768SOL    HW119763   2.241   2.374   6.860 -0.4099 -0.6888  0.1693
 2768SOL    HW219764   2.297   2.391   6.734 -0.1211  1.3773  0.8593
 2769SOL     OW19765   3.707   2.956   6.453  0.0841 -0.1765  0.1620
 2769SOL    HW119766   3.732   3.006   6.531  1.9519 -1.0489  0.1194
 2769SOL    HW219767   3.715   2.864   6.478  1.6011  0.1645  0.9238
 2770SOL     OW19768   1.652   0.269   5.163  0.3703  0.1988 -0.2422
 2770SOL    HW119769   1.579   0.252   5.103 -0.1129 -0.0574  0.4155
 2770SOL    HW219770   1.633   0.360   5.186 -0.0600 -0.6542  2.8206
 2771SOL     OW19771   3.509   0.624  17.349 -0.0157 -0.1809  0.2697
 2771SOL    HW119772   3.450   0.606  17.276  0.1350  2.8256 -0.6127
 2771SOL    HW219773   3.475   0.550  17.400  1.1539 -1.4312 -0.7617
 2772SOL     OW19774   1.546   3.317   3.897  0.1662  0.0769 -0.1720
 2772SOL    HW119775   1.516   3.408   3.899 -0.5507 -0.1926  1.2075
 2772SOL    HW219776   1.484   3.265   3.949  2.9996 -2.5553  0.5199
 2773SOL     OW19777   3.272   0.093  14.953 -0.9016 -0.4125  0.2845
 2773SOL    HW119778   3.329   0.165  14.981 -1.0108 -0.6129  1.0436
 2773SOL    HW219779   3.299   0.075  14.863 -1.0561  0.1466  0.1278
 2774SOL     OW19780   0.494   3.070   7.837 -0.2405  0.0140  0.6507
 2774SOL    HW119781   0.492   2.989   7.786  0.1797 -0.3968  1.2822
 2774SOL    HW219782   0.421   3.124   7.808  1.1866  0.9387 -1.2610
 2775SOL     OW19783   0.432   0.616  15.419  0.0515 -0.0218 -0.3339
 2775SOL    HW119784   0.521   0.650  15.409  0.2694 -0.2816  0.7421
 2775SOL    HW219785   0.402   0.675  15.489  0.8076 -0.6083  0.4828
 2776SOL     OW19786   3.152   0.375   3.729  0.2728 -0.1091 -0.4717
 2776SOL    HW119787   3.144   0.322   3.809 -0.8004 -0.2137 -0.6430
 2776SOL    HW219788   3.097   0.450   3.749 -1.9468 -1.6814 -0.6412
 2777SOL     OW19789   0.146   1.386   8.236  0.4729 -0.1766  0.3575
 2777SOL    HW119790   0.157   1.455   8.302 -0.9027 -0.4167  0.8419
 2777SOL    HW219791   0.120   1.320   8.300 -0.6024  2.5122  2.7320
 2778SOL     OW19792   4.585   0.577   6.340  0.0175  0.3949  0.1244
 2778SOL    HW119793   4.499   0.567   6.299  0.9317 -1.5506 -1.3360
 2778SOL    HW219794   4.646   0.572   6.267 -1.8649 -0.1911 -1.4290
 2779SOL     OW19795   1.123   3.616  15.548  0.3708  0.9419  0.2450
 2779SOL    HW119796   1.082   3.699  15.573  2.2941  1.6834  0.9299
 2779SOL    HW219797   1.081   3.562  15.614  0.8826 -1.9775 -1.8347
 2780SOL     OW19798   4.490   4.581   7.744 -0.3018  0.0243  0.4915
 2780SOL    HW119799   4.404   4.573   7.786 -0.3190  0.1444  0.4785
 2780SOL    HW219800   4.468   4.605   7.654 -0.6014 -1.3679  0.1849
 2781SOL     OW19801   3.450   0.780  17.595 -0.1604  0.4397  1.0312
 2781SOL    HW119802   3.372   0.748  17.640 -0.2891 -1.1082 -0.2717
 2781SOL    HW219803   3.479   0.690  17.582 -1.6364  0.0078  0.7012
 2782SOL     OW19804   2.041   3.164   2.024 -0.3450  0.0846  0.5775
 2782SOL    HW119805   1.962   3.213   2.046 -0.8598 -1.2950  1.8146
 2782SOL    HW219806   2.100   3.213   2.082 -0.5260  2.1046 -0.9785
 2783SOL     OW19807   1.875   3.420   9.786  0.2669  1.0567  0.1597
 2783SOL    HW119808   1.794   3.425   9.836 -0.5424 -0.1424 -1.0526
 2783SOL    HW219809   1.832   3.400   9.703  0.8938 -2.1677  0.6146
 2784SOL     OW19810   1.410   0.492   9.374  0.0420 -0.1810 -0.3579
 2784SOL    HW119811   1.428   0.504   9.467  0.3491 -1.2038 -0.2888
 2784SOL    HW219812   1.454   0.571   9.344 -1.6300  2.1925  3.3996
 2785SOL     OW19813   1.387   1.655   3.986  0.1298 -0.7719  0.3178
 2785SOL    HW119814   1.331   1.613   3.921 -1.0309  2.0261 -0.4719
 2785SOL    HW219815   1.422   1.731   3.940 -1.8030  1.1271  2.0371
 2786SOL     OW19816   0.011   1.135  11.346  0.4422  0.4969 -0.2506
 2786SOL    HW119817   0.028   1.229  11.360 -2.4079  0.8367  1.0924
 2786SOL    HW219818   0.034   1.102  11.433 -0.8721 -0.6459 -0.3406
 2787SOL     OW19819   1.054   1.581   1.187  0.7990 -0.1808  0.6968
 2787SOL    HW119820   1.068   1.616   1.275 -1.0542 -1.5268  1.5431
 2787SOL    HW219821   0.961   1.601   1.173  0.3868 -2.0787  0.6666
 2788SOL     OW19822   2.294   3.482   6.482  0.2079  0.3324 -0.1558
 2788SOL    HW119823   2.299   3.388   6.466  0.5991  0.4907 -0.9289
 2788SOL    HW219824   2.384   3.509   6.470  0.3818 -0.1819 -0.0283
 2789SOL     OW19825   1.523   3.492   2.667  0.5955 -0.2339 -0.0917
 2789SOL    HW119826   1.526   3.449   2.753 -0.2874  0.9283  0.5231
 2789SOL    HW219827   1.546   3.419   2.610 -0.1896  0.2559 -1.0264
 2790SOL     OW19828   1.448   3.419   6.869 -0.4874 -0.3082  0.4824
 2790SOL    HW119829   1.385   3.490   6.859  2.1250  1.8450 -0.8210
 2790SOL    HW219830   1.521   3.467   6.908  1.5321 -0.1355 -3.5069
 2791SOL     OW19831   0.490   0.108   6.405  0.1253 -0.1519  0.2191
 2791SOL    HW119832   0.563   0.145   6.454  0.1004 -0.0950  0.2130
 2791SOL    HW219833   0.443   0.185   6.374 -1.8028 -2.4387 -2.5259
 2792SOL     OW19834   4.306   0.902   6.411 -0.6542  0.6321 -0.0644
 2792SOL    HW119835   4.374   0.946   6.462 -0.6652 -1.1723  1.5179
 2792SOL    HW219836   4.292   0.956   6.334  0.0249  0.8333 -0.0459
 2793SOL     OW19837   4.365   2.486  13.183 -0.2581  0.3785 -0.4706
 2793SOL    HW119838   4.344   2.493  13.090 -0.8602 -0.1628 -0.3754
 2793SOL    HW219839   4.454   2.450  13.185  0.5268  2.3129 -0.4155
 2794SOL     OW19840   3.683   3.780   7.172  0.4830 -0.4668  0.4187
 2794SOL    HW119841   3.675   3.701   7.225  2.8772 -0.9245  0.0857
 2794SOL    HW219842   3.751   3.837   7.208 -0.4359 -0.3774  2.0088
 2795SOL     OW19843   0.290   1.180   3.838 -0.2153  0.4010  0.6958
 2795SOL    HW119844   0.355   1.180   3.768 -0.0391 -0.5450  0.8585
 2795SOL    HW219845   0.218   1.128   3.803  1.6417 -0.3937 -1.9002
 2796SOL     OW19846   2.168   1.670   8.723 -0.0263 -0.6400  0.5270
 2796SOL    HW119847   2.179   1.632   8.810 -0.9613 -0.1003  0.8787
 2796SOL    HW219848   2.119   1.750   8.743 -0.8165 -1.6271  2.4883
 2797SOL     OW19849   4.136   1.552  14.401 -0.1030 -0.0964 -0.3777
 2797SOL    HW119850   4.179   1.531  14.318  0.6913 -0.7786  0.2020
 2797SOL    HW219851   4.140   1.648  14.407 -0.4386 -0.1063 -0.0611
 2798SOL     OW19852   0.706   4.207   7.752 -0.5221 -0.3039 -0.4102
 2798SOL    HW119853   0.689   4.128   7.701 -0.1307 -0.2131 -0.6850
 2798SOL    HW219854   0.759   4.259   7.691 -0.8073 -0.0280 -0.4260
 2799SOL     OW19855   3.990   2.449   3.188 -0.0255 -0.0582  0.0937
 2799SOL    HW119856   4.019   2.358   3.198  0.5101  0.4324  3.2822
 2799SOL    HW219857   3.895   2.449   3.193 -0.0228 -0.3078  0.1433
 2800SOL     OW19858   1.040   1.703  15.066  0.4600 -0.1308 -0.3616
 2800SOL    HW119859   1.110   1.685  15.003  0.2564  0.9194 -0.8833
 2800SOL    HW219860   1.098   1.732  15.137 -0.4803 -1.4626  0.9332
 2801SOL     OW19861   4.694   4.434   7.674  0.0188  0.2828  0.3033
 2801SOL    HW119862   4.609   4.477   7.674 -0.4606 -0.6617  0.0229
 2801SOL    HW219863   4.663   4.356   7.628  0.4080 -0.1366  0.7448
 2802SOL     OW19864   2.333   3.659   6.926 -0.0273  0.1793  0.0029
 2802SOL    HW119865   2.387   3.673   6.848  1.6310 -2.8210  0.6021
 2802SOL    HW219866   2.400   3.700   6.981 -1.0067 -0.9879  2.0744
 2803SOL     OW19867   3.209   0.655   4.210  0.1183  0.2788 -0.2119
 2803SOL    HW119868   3.178   0.728   4.156  0.2595  1.0703  0.7767
 2803SOL    HW219869   3.301   0.644   4.186  0.4124 -0.1167  1.1425
 2804SOL     OW19870   2.583   4.006   2.589 -0.4350  0.1458 -0.0429
 2804SOL    HW119871   2.517   3.950   2.631  1.0444 -1.6469 -0.1061
 2804SOL    HW219872   2.646   4.028   2.658  1.1661  0.5560 -1.6566
 2805SOL     OW19873   1.967   3.099   6.285 -0.6435 -0.9771 -0.1494
 2805SOL    HW119874   1.991   3.157   6.212 -1.1856 -0.9651 -0.3147
 2805SOL    HW219875   1.980   3.151   6.364  1.9176  0.9156 -1.8119
 2806SOL     OW19876   0.412   1.830   4.798 -0.2408  0.0732 -0.3521
 2806SOL    HW119877   0.465   1.819   4.719 -0.9769  1.8418 -1.1034
 2806SOL    HW219878   0.331   1.784   4.777 -0.9490  1.6593 -1.1121
 2807SOL     OW19879   4.385   4.012  11.017 -0.0168  0.4191 -0.1416
 2807SOL    HW119880   4.363   3.992  11.108  1.4995  3.6748  0.9495
 2807SOL    HW219881   4.410   4.104  11.018  3.1919 -0.4198 -1.1022
 2808SOL     OW19882   2.939   1.091   8.002  0.2523  0.2839  0.3269
 2808SOL    HW119883   2.846   1.099   8.023  0.1336 -1.5489  0.5174
 2808SOL    HW219884   2.970   1.179   8.024  1.4939 -0.6446  2.3360
 2809SOL     OW19885   2.360   3.584   5.077 -0.3254 -0.2725  0.4305
 2809SOL    HW119886   2.332   3.666   5.118 -1.6881  0.6176 -2.3537
 2809SOL    HW219887   2.442   3.619   5.041 -0.7558 -1.6209 -1.8144
 2810SOL     OW19888   0.584   0.389   5.492 -0.6235 -0.5747  1.1306
 2810SOL    HW119889   0.544   0.303   5.496 -1.2320 -0.3875 -1.0272
 2810SOL    HW219890   0.506   0.444   5.496 -2.0946 -2.4438 -2.4549
 2811SOL     OW19891   0.009   2.316   2.608  0.0543 -0.0090  0.2335
 2811SOL    HW119892   0.006   2.324   2.703  1.2221 -0.6065  0.3213
 2811SOL    HW219893   0.031   2.405   2.581  1.2373 -0.3029  0.2407
 2812SOL     OW19894   0.501   3.993   7.308 -0.2081 -1.1272  0.0725
 2812SOL    HW119895   0.512   3.913   7.255  1.1521 -1.0680  0.2732
 2812SOL    HW219896   0.541   3.966   7.390  0.1712  0.6858  0.4682
 2813SOL     OW19897   2.824   1.394  15.174  0.3084  0.1636  0.4057
 2813SOL    HW119898   2.826   1.365  15.265  0.2368 -0.0411  0.3426
 2813SOL    HW219899   2.761   1.466  15.178  0.7712  0.6395 -0.7028
 2814SOL     OW19900   1.863   1.582   5.619 -0.6645  0.4983  0.1130
 2814SOL    HW119901   1.930   1.610   5.557 -0.6761 -1.3401 -0.7128
 2814SOL    HW219902   1.897   1.591   5.708  1.2337  0.0242 -0.5762
 2815SOL     OW19903   0.283   0.823  13.737  0.1477  0.4384  0.3221
 2815SOL    HW119904   0.242   0.851  13.819  2.5620 -0.2311  1.7616
 2815SOL    HW219905   0.340   0.896  13.711  1.8766 -0.2857  2.0591
 2816SOL     OW19906   3.153   1.736   6.051 -0.6031  0.3769  0.0730
 2816SOL    HW119907   3.080   1.761   5.994  1.5011  0.9874 -2.3720
 2816SOL    HW219908   3.149   1.798   6.123  0.2687  0.8189 -0.2665
 2817SOL     OW19909   1.791   2.214  14.932 -0.2515 -0.0497 -0.2759
 2817SOL    HW119910   1.723   2.190  14.995 -0.1821 -1.5569 -0.7688
 2817SOL    HW219911   1.872   2.198  14.980  0.2125 -1.2648 -1.4453
 2818SOL     OW19912   1.455   0.131  17.402  0.2492  0.2975 -0.0824
 2818SOL    HW119913   1.381   0.160  17.349  1.4202 -1.4657 -2.6980
 2818SOL    HW219914   1.529   0.150  17.343  0.4490  0.1829  0.1298
 2819SOL     OW19915   4.271   2.876  16.045 -0.3794 -0.0479 -0.5395
 2819SOL    HW119916   4.289   2.843  15.957 -1.9210  2.0482 -1.6307
 2819SOL    HW219917   4.282   2.794  16.093 -0.9619 -0.1690 -0.6224
 2820SOL     OW19918   4.233   1.179   9.837  0.2303 -0.0042 -0.4264
 2820SOL    HW119919   4.257   1.194   9.745  1.7208  2.0611  0.3181
 2820SOL    HW219920   4.283   1.099   9.846  0.8469  0.4636  0.3077
 2821SOL     OW19921   2.598   0.521   3.888 -0.4738 -0.4571  0.0432
 2821SOL    HW119922   2.646   0.597   3.921 -1.1465  0.2120 -0.5026
 2821SOL    HW219923   2.525   0.557   3.837  1.1881 -0.8607 -2.6266
 2822SOL     OW19924   4.626   3.839  14.926 -0.2949 -0.0015 -0.1751
 2822SOL    HW119925   4.607   3.755  14.882  1.4053 -1.2203  1.4449
 2822SOL    HW219926   4.700   3.864  14.870 -0.2784  2.2965  0.9114
 2823SOL     OW19927   3.510   1.896   8.747 -0.5892 -0.0244  0.3265
 2823SOL    HW119928   3.585   1.914   8.804 -1.3296 -0.7147  1.5192
 2823SOL    HW219929   3.528   1.804   8.727 -0.2130  0.9026 -3.6392
 2824SOL     OW19930   1.592   1.255   3.501  0.4929 -0.3071  0.3454
 2824SOL    HW119931   1.648   1.315   3.552  2.2643  0.3168 -2.3297
 2824SOL    HW219932   1.570   1.307   3.424 -0.8286  0.0098  0.9404
 2825SOL     OW19933   2.242   2.723  13.210  0.3304 -0.2284 -0.8597
 2825SOL    HW119934   2.265   2.805  13.254 -0.0984 -0.2777 -0.5498
 2825SOL    HW219935   2.178   2.684  13.270  0.7540  0.5976  0.1341
 2826SOL     OW19936   0.214   3.663   9.328  0.4292 -0.2889 -0.0970
 2826SOL    HW119937   0.154   3.704   9.266  1.0938 -0.4558 -0.8601
 2826SOL    HW219938   0.291   3.720   9.334  1.0728 -1.0909 -0.6883
 2827SOL     OW19939   2.103   0.354  13.149  0.2926 -0.7624  0.2986
 2827SOL    HW119940   2.061   0.408  13.216 -0.6856 -1.5864  0.3500
 2827SOL    HW219941   2.168   0.418  13.121 -1.3070  1.1603  0.9942
 2828SOL     OW19942   1.623   1.097   9.570  0.2020 -0.5029  0.0313
 2828SOL    HW119943   1.558   1.163   9.592  0.6834  0.5278 -1.6632
 2828SOL    HW219944   1.694   1.129   9.625  0.6568 -1.4492  0.0060
 2829SOL     OW19945   2.511   3.691  10.267  0.0274  0.1161 -0.2686
 2829SOL    HW119946   2.562   3.613  10.244  0.5579  0.2043  0.5926
 2829SOL    HW219947   2.435   3.686  10.209  0.4283 -4.6663 -0.3955
 2830SOL     OW19948   3.415   1.722  12.900 -0.2906 -0.2521  0.8090
 2830SOL    HW119949   3.376   1.810  12.899  0.8922  0.2700  0.4849
 2830SOL    HW219950   3.505   1.743  12.873 -0.9305  2.1546  0.5210
 2831SOL     OW19951   4.663   3.345   7.700 -0.3497 -0.0941  0.1285
 2831SOL    HW119952   4.627   3.257   7.712  2.2617 -1.3170 -1.1209
 2831SOL    HW219953   4.671   3.382   7.787  1.2785  1.1059 -0.5328
 2832SOL     OW19954   3.252   2.035   7.399 -0.2832 -0.3911 -0.1092
 2832SOL    HW119955   3.272   2.050   7.306 -1.9419 -1.3911 -0.6065
 2832SOL    HW219956   3.300   1.954   7.418  0.2226 -0.1524 -0.3469
 2833SOL     OW19957   2.737   4.550  14.517 -0.2150  0.1448  0.0461
 2833SOL    HW119958   2.796   4.593  14.579  0.7853 -2.6642  1.0625
 2833SOL    HW219959   2.796   4.478  14.496  1.0899  1.5983 -1.2182
 2834SOL     OW19960   0.197   3.298   7.988  0.3359  0.1526 -0.2992
 2834SOL    HW119961   0.105   3.276   8.002  0.7615 -1.0488  0.5785
 2834SOL    HW219962   0.213   3.368   8.050  0.5038 -0.0953 -0.0611
 2835SOL     OW19963   3.954   0.683   3.779  0.9307  0.0101  0.6008
 2835SOL    HW119964   3.896   0.752   3.746  0.6786  0.8575  2.7589
 2835SOL    HW219965   4.041   0.722   3.778  1.1967 -0.6550 -1.4788
 2836SOL     OW19966   2.550   1.133   7.468 -0.2253  0.0817 -0.1741
 2836SOL    HW119967   2.542   1.154   7.375 -0.0429 -0.2624 -0.2665
 2836SOL    HW219968   2.633   1.178   7.484  0.2509 -0.3545 -1.3937
 2837SOL     OW19969   4.543   4.193  10.797 -0.5070  0.3111  0.3221
 2837SOL    HW119970   4.448   4.196  10.806 -0.4867 -0.9099  0.9181
 2837SOL    HW219971   4.547   4.133  10.723 -2.6373  0.0097  0.4543
 2838SOL     OW19972   4.330   0.395  15.781  0.0963 -0.7324  0.1164
 2838SOL    HW119973   4.408   0.435  15.741  0.7515 -0.9714  1.1422
 2838SOL    HW219974   4.351   0.302  15.789  0.2778 -0.6114  1.1218
 2839SOL     OW19975   2.748   3.207  16.287 -0.4308  0.3674 -0.4601
 2839SOL    HW119976   2.722   3.286  16.239  1.5506  2.1084  1.3544
 2839SOL    HW219977   2.808   3.158  16.231 -1.4168  0.1443 -1.3177
 2840SOL     OW19978   0.400   2.328   3.621  0.3260 -0.3880  0.3187
 2840SOL    HW119979   0.304   2.331   3.618  0.3242 -1.9232 -1.0415
 2840SOL    HW219980   0.424   2.377   3.543  0.0012  0.7104  0.8998
 2841SOL     OW19981   1.273   0.503   5.515  0.0009  0.1227  0.2075
 2841SOL    HW119982   1.242   0.481   5.427 -2.3642 -1.0190  1.3460
 2841SOL    HW219983   1.191   0.479   5.558 -0.1796 -1.1100 -0.8420
 2842SOL     OW19984   0.191   2.523   3.935 -0.1680 -0.0306 -0.3653
 2842SOL    HW119985   0.177   2.429   3.924 -2.9506  0.2845  0.3891
 2842SOL    HW219986   0.164   2.562   3.852 -0.8993  0.3758  0.0639
 2843SOL     OW19987   0.075   2.994   5.099  0.3348  0.1976 -0.1695
 2843SOL    HW119988   0.077   3.032   5.187  0.4646  1.0501 -0.5386
 2843SOL    HW219989   0.023   3.056   5.048 -2.7322 -0.5073  2.0831
 2844SOL     OW19990   0.675   3.126   3.721 -0.0743 -0.1924  0.3025
 2844SOL    HW119991   0.716   3.081   3.795  0.3801  0.4276  0.4317
 2844SOL    HW219992   0.729   3.205   3.724 -1.8125  0.9733  0.4489
 2845SOL     OW19993   0.009   2.376  11.627 -0.2403  0.0141 -0.0314
 2845SOL    HW119994   0.007   2.465  11.593 -1.6198 -0.1340 -0.3558
 2845SOL    HW219995   0.100   2.354  11.609 -0.0903  0.3837  0.2677
 2846SOL     OW19996   1.144   3.242   6.466 -0.3687 -0.5057  0.3216
 2846SOL    HW119997   1.168   3.149   6.462 -0.9268 -0.6996  1.5551
 2846SOL    HW219998   1.062   3.257   6.420 -0.1941 -1.4116 -0.2888
 2847SOL     OW19999   3.778   0.293  16.607  0.1208 -0.3195 -0.0890
 2847SOL    HW120000   3.748   0.284  16.517  0.6368 -1.0928 -0.1833
 2847SOL    HW220001   3.694   0.308  16.651  0.8773  0.4435  1.1133
 2848SOL     OW20002   3.813   1.749   2.702  0.0636 -0.1062 -0.4123
 2848SOL    HW120003   3.876   1.705   2.645  0.8357 -0.6111  0.8372
 2848SOL    HW220004   3.865   1.739   2.782  1.1885 -2.8146 -1.4715
 2849SOL     OW20005   0.232   3.774   7.409  0.1049  0.9865  0.4246
 2849SOL    HW120006   0.271   3.724   7.480 -3.5187 -1.3241  0.7444
 2849SOL    HW220007   0.262   3.730   7.330  1.3480  1.3362  0.7000
 2850SOL     OW20008   4.224   4.156   9.729  0.5676 -0.2840 -0.3297
 2850SOL    HW120009   4.129   4.152   9.720  0.6724  0.7741 -1.8418
 2850SOL    HW220010   4.246   4.095   9.660 -0.0098 -1.7048  0.7386
 2851SOL     OW20011   1.198   4.692   1.093  0.3975  0.1225  0.0645
 2851SOL    HW120012   1.287   4.689   1.128 -0.0003  0.1234  1.0501
 2851SOL    HW220013   1.150   0.008   1.164  1.0341  0.4427  0.3104
 2852SOL     OW20014   2.578   1.858  17.322 -0.0099 -0.1744  0.2162
 2852SOL    HW120015   2.641   1.794  17.353  1.1848  0.3668 -1.1362
 2852SOL    HW220016   2.635   1.919  17.276 -0.7683  1.3050  1.2241
 2853SOL     OW20017   2.865   1.693  12.565 -0.1677 -0.1649 -0.4413
 2853SOL    HW120018   2.833   1.769  12.614  2.5757  0.1807  0.8106
 2853SOL    HW220019   2.895   1.735  12.484  2.4829 -2.1235 -0.4569
 2854SOL     OW20020   2.233   0.859  13.072  0.1291  0.1048 -0.3095
 2854SOL    HW120021   2.292   0.929  13.100  1.1608 -1.8923  2.4657
 2854SOL    HW220022   2.151   0.896  13.103  0.5406  0.8069 -0.0587
 2855SOL     OW20023   3.769   0.082  17.595  0.5662  0.2181  0.2597
 2855SOL    HW120024   3.715   0.034  17.532  1.8626  0.1736 -0.7985
 2855SOL    HW220025   3.705   0.095  17.665 -0.1614 -0.3300 -0.3013
 2856SOL     OW20026   1.856   3.370   8.284  0.1854 -0.3388 -0.2403
 2856SOL    HW120027   1.838   3.441   8.345 -1.0425  0.0373 -1.0452
 2856SOL    HW220028   1.951   3.373   8.268  0.3444  1.2364  1.0666
 2857SOL     OW20029   2.938   3.142   8.558  0.1511 -0.4539  0.2152
 2857SOL    HW120030   2.887   3.113   8.634  1.5579  1.9710  2.0845
 2857SOL    HW220031   2.993   3.211   8.593  0.0764  0.2242 -1.0167
 2858SOL     OW20032   4.696   2.226  11.889 -0.3224 -0.3726 -0.1625
 2858SOL    HW120033   4.675   2.314  11.922 -1.7383 -0.8784  0.3014
 2858SOL    HW220034   4.704   2.241  11.795 -0.8375  0.6542 -0.0527
 2859SOL     OW20035   2.228   1.259   5.625 -0.0492 -0.5230  0.0416
 2859SOL    HW120036   2.200   1.300   5.707 -1.4356  0.0165 -0.7081
 2859SOL    HW220037   2.320   1.283   5.638 -0.0738 -1.4578  2.0645
 2860SOL     OW20038   2.384   3.077   9.387 -0.2422  0.1327 -0.0270
 2860SOL    HW120039   2.352   3.002   9.437  2.3217 -0.6483  0.4171
 2860SOL    HW220040   2.346   3.152   9.433 -0.0627  0.2746 -0.1093
 2861SOL     OW20041   4.720   3.866   5.155 -0.2885 -0.5359  0.1130
 2861SOL    HW120042   0.063   3.918   5.114  1.1055 -0.9205  1.9264
 2861SOL    HW220043   0.044   3.820   5.223 -0.9899 -0.1109  0.9265
 2862SOL     OW20044   1.442   0.348   8.487 -0.2702 -0.0533 -0.0117
 2862SOL    HW120045   1.534   0.322   8.490 -0.1884  0.1573 -0.6781
 2862SOL    HW220046   1.422   0.332   8.395  0.7125  2.1162 -0.6122
 2863SOL     OW20047   3.750   1.765   6.329  0.2970 -0.3727 -0.0492
 2863SOL    HW120048   3.676   1.719   6.291 -1.0777  1.3578  0.5108
 2863SOL    HW220049   3.809   1.696   6.360 -0.8584 -1.6960 -0.8045
 2864SOL     OW20050   2.292   0.903   9.017 -0.6652 -0.0814 -0.4045
 2864SOL    HW120051   2.343   0.831   9.056 -0.4318 -0.0638 -0.6775
 2864SOL    HW220052   2.220   0.848   8.986 -0.2404 -0.2032 -1.1770
 2865SOL     OW20053   2.608   2.123   7.936  0.2571  1.1048  0.3186
 2865SOL    HW120054   2.577   2.213   7.941  3.1320  2.1303 -0.5757
 2865SOL    HW220055   2.606   2.104   8.030  3.3129 -0.4325  0.0871
 2866SOL     OW20056   0.310   0.762   1.822 -0.6034  0.1962  0.2177
 2866SOL    HW120057   0.375   0.828   1.847  0.4291 -0.1488 -1.5163
 2866SOL    HW220058   0.354   0.721   1.748 -0.7504 -0.7441  0.6557
 2867SOL     OW20059   1.087   4.167   4.583 -0.0069  0.0246  0.1174
 2867SOL    HW120060   1.115   4.211   4.503  2.1155 -0.1007  0.7766
 2867SOL    HW220061   1.144   4.216   4.642  0.0497 -0.1853  0.2397
 2868SOL     OW20062   2.269   2.145  15.191  0.6063 -0.5783  0.1231
 2868SOL    HW120063   2.361   2.137  15.164  0.5612  0.0562 -0.2185
 2868SOL    HW220064   2.276   2.208  15.264 -4.1063  0.6289 -0.4772
 2869SOL     OW20065   3.118   3.452   6.682  0.1013  0.2832  0.7972
 2869SOL    HW120066   3.170   3.411   6.612 -0.8945 -3.5161  2.2963
 2869SOL    HW220067   3.101   3.528   6.626 -1.9247 -0.5040  0.3644
 2870SOL     OW20068   4.605   1.737   5.199 -0.3264 -0.0829 -0.0916
 2870SOL    HW120069   4.584   1.831   5.201 -0.9935 -0.2382  0.1993
 2870SOL    HW220070   4.573   1.714   5.286  0.6057 -0.3317  0.1825
 2871SOL     OW20071   1.410   4.669  16.055  0.1058  0.1619 -0.2952
 2871SOL    HW120072   1.391   0.028  16.015 -0.6261 -1.0844 -2.6241
 2871SOL    HW220073   1.437   4.617  15.979  1.7953 -0.4204  0.7126
 2872SOL     OW20074   2.842   0.463  14.280  0.3401 -0.3535  0.6135
 2872SOL    HW120075   2.803   0.482  14.365  0.8942  1.6359  0.4123
 2872SOL    HW220076   2.927   0.431  14.308 -0.1893 -2.1951  0.1292
 2873SOL     OW20077   1.398   2.592   8.989  0.0716 -0.7556  0.0966
 2873SOL    HW120078   1.321   2.568   8.937 -0.1232 -0.4571  0.2521
 2873SOL    HW220079   1.366   2.622   9.073 -1.0578  1.7879 -1.2481
 2874SOL     OW20080   0.515   1.923  13.797 -0.2564 -0.4470  0.2941
 2874SOL    HW120081   0.489   1.918  13.706  2.9502 -1.1220 -0.6006
 2874SOL    HW220082   0.571   2.001  13.791  0.4865 -1.0655 -0.8087
 2875SOL     OW20083   1.829   2.435  14.628  0.8207  0.3273  0.7577
 2875SOL    HW120084   1.762   2.369  14.612  0.4149  0.6917  0.9753
 2875SOL    HW220085   1.782   2.514  14.605 -0.2568 -0.5564 -0.0629
 2876SOL     OW20086   1.826   2.567   3.795 -0.0536  0.2974  0.0109
 2876SOL    HW120087   1.881   2.624   3.848  0.6139  0.7559 -1.1696
 2876SOL    HW220088   1.824   2.487   3.848  0.0921  1.5047  1.8124
 2877SOL     OW20089   0.375   3.955   3.934 -0.4728 -0.3635  0.0620
 2877SOL    HW120090   0.381   3.862   3.957  0.5199 -0.6940 -1.5213
 2877SOL    HW220091   0.311   3.941   3.864 -0.3001  0.8264 -0.3383
 2878SOL     OW20092   2.629   2.003  15.137 -0.0331  0.4690  0.4133
 2878SOL    HW120093   2.621   1.967  15.048  0.9423  0.1681  0.4403
 2878SOL    HW220094   2.666   2.091  15.132  1.2414 -0.0130  1.2792
 2879SOL     OW20095   4.097   3.333   5.759  0.2871 -0.0130 -0.0749
 2879SOL    HW120096   4.061   3.251   5.793  2.9119 -2.5979 -3.5384
 2879SOL    HW220097   4.021   3.392   5.758  0.4283  0.1562 -0.8883
 2880SOL     OW20098   3.615   1.941   5.531 -0.8318  0.1870  0.0525
 2880SOL    HW120099   3.666   1.901   5.461 -0.7259  0.2883  0.0706
 2880SOL    HW220100   3.636   2.034   5.525 -1.5644  0.3143 -0.4451
 2881SOL     OW20101   0.688   1.941   5.799  0.6187 -0.8336 -0.7742
 2881SOL    HW120102   0.673   2.019   5.746  0.9522 -0.2638 -0.0338
 2881SOL    HW220103   0.667   1.985   5.881  0.7142 -0.5151 -0.9210
 2882SOL     OW20104   3.869   3.143   0.271  0.2042  0.3160  0.2519
 2882SOL    HW120105   3.782   3.108   0.254  0.2154  0.8206 -0.8352
 2882SOL    HW220106   3.872   3.230   0.231 -3.1586  0.5780  0.6189
 2883SOL     OW20107   3.536   3.541   2.099  0.1375 -0.3382  0.2250
 2883SOL    HW120108   3.501   3.488   2.028  1.8782 -1.0053 -0.1480
 2883SOL    HW220109   3.603   3.480   2.131  0.0055  0.0857  1.3286
 2884SOL     OW20110   1.368   1.628   0.280 -0.0422  0.2141 -0.1953
 2884SOL    HW120111   1.335   1.697   0.337 -1.3487  0.6470 -1.4678
 2884SOL    HW220112   1.447   1.589   0.319  0.2288  0.3432 -0.6162
 2885SOL     OW20113   1.122   3.042   2.181 -0.7747 -0.1308 -0.8872
 2885SOL    HW120114   1.217   3.039   2.177 -0.6505 -0.4187  2.3063
 2885SOL    HW220115   1.120   2.993   2.263  0.1034 -0.1248 -0.8689
 2886SOL     OW20116   1.922   3.038   5.141 -0.1022  0.0451  0.8564
 2886SOL    HW120117   1.860   3.102   5.175 -0.3355 -0.1096  0.7161
 2886SOL    HW220118   1.889   2.957   5.180  1.4677 -0.4484  1.1758
 2887SOL     OW20119   3.530   0.293  17.008 -0.2066 -0.9112 -0.0188
 2887SOL    HW120120   3.596   0.341  17.058 -0.1988 -0.4702 -0.4499
 2887SOL    HW220121   3.495   0.248  17.084 -4.3947  0.7419 -0.9663
 2888SOL     OW20122   2.186   1.196  12.182 -0.0341 -0.0828 -0.2625
 2888SOL    HW120123   2.217   1.286  12.175 -0.9593  0.0638 -2.6835
 2888SOL    HW220124   2.270   1.151  12.188 -0.4552 -0.7514  0.6479
 2889SOL     OW20125   2.776   0.081   7.311  0.0085  0.2374 -0.2213
 2889SOL    HW120126   2.823   0.024   7.371 -1.4296  0.8615  1.4988
 2889SOL    HW220127   2.732   0.137   7.375  0.4903 -1.8534  1.8992
 2890SOL     OW20128   4.604   1.361  11.925  0.1236 -0.3799 -0.1666
 2890SOL    HW120129   4.671   1.342  11.860 -0.5703  3.6603 -2.0619
 2890SOL    HW220130   4.627   1.286  11.980  1.3356 -0.8061 -1.2649
 2891SOL     OW20131   1.371   1.345  11.543 -0.3132  0.1728  0.6163
 2891SOL    HW120132   1.363   1.282  11.471 -1.8487 -0.6725  1.5409
 2891SOL    HW220133   1.382   1.428  11.496 -1.6781 -0.6410 -1.1469
 2892SOL     OW20134   1.604   0.813   5.542 -0.3101 -0.1531  0.3845
 2892SOL    HW120135   1.695   0.841   5.555 -0.5654  1.6551 -1.6969
 2892SOL    HW220136   1.613   0.730   5.588 -0.2036  0.3167  1.2095
 2893SOL     OW20137   3.152   4.090  13.000  0.5189  0.4609  0.1872
 2893SOL    HW120138   3.163   4.050  13.086  3.1776  0.1560 -0.2860
 2893SOL    HW220139   3.112   4.011  12.965 -1.0614  0.5859  1.7492
 2894SOL     OW20140   4.315   0.929   0.897  0.3043 -0.0360  0.1710
 2894SOL    HW120141   4.322   1.023   0.915 -0.1199 -0.6626  3.7233
 2894SOL    HW220142   4.236   0.913   0.950  0.2276 -1.8593 -0.5142
 2895SOL     OW20143   3.898   2.303   2.455 -0.3687  0.3134  0.3581
 2895SOL    HW120144   3.807   2.314   2.426 -0.5130  1.2724  1.1720
 2895SOL    HW220145   3.889   2.226   2.511  0.2757  1.0652  1.4918
 2896SOL     OW20146   0.529   0.894   1.477 -0.1625  0.0487 -0.1087
 2896SOL    HW120147   0.530   0.939   1.393 -1.9386  0.4621  0.0871
 2896SOL    HW220148   0.499   0.968   1.529 -1.1488  0.6274 -1.4838
 2897SOL     OW20149   3.409   0.291   5.562 -0.6398 -0.0300  0.0646
 2897SOL    HW120150   3.464   0.244   5.499  2.8846  1.9463  1.6335
 2897SOL    HW220151   3.468   0.314   5.634  0.7051 -3.5095  0.0609
 2898SOL     OW20152   1.625   0.419   0.107 -0.0902  0.1615 -0.7583
 2898SOL    HW120153   1.657   0.359   0.174 -0.1529 -0.8425 -1.6201
 2898SOL    HW220154   1.600   0.354   0.041  0.7291 -0.2938 -0.6224
 2899SOL     OW20155   3.697   0.572   8.519  0.4784  0.5627 -0.0917
 2899SOL    HW120156   3.730   0.543   8.433 -0.1190 -2.6674  0.7547
 2899SOL    HW220157   3.777   0.610   8.554  0.8168  0.7372 -1.0487
 2900SOL     OW20158   3.170   2.488   3.198  0.4335  0.4955  0.2964
 2900SOL    HW120159   3.183   2.474   3.291  0.1214  0.8603  0.3943
 2900SOL    HW220160   3.155   2.396   3.176  1.7915 -0.0879  1.8445
 2901SOL     OW20161   3.419   1.256   8.511 -0.2699 -0.2505  0.5429
 2901SOL    HW120162   3.515   1.255   8.520 -0.2558  0.1850  0.4474
 2901SOL    HW220163   3.378   1.207   8.582 -0.4311 -0.5506  0.2410
 2902SOL     OW20164   3.023   2.890   1.683 -0.3006  0.3306  0.4339
 2902SOL    HW120165   3.009   2.972   1.730 -0.2954  1.0680 -0.8381
 2902SOL    HW220166   3.028   2.830   1.757 -0.8358  0.9838  0.9947
 2903SOL     OW20167   0.909   4.215   2.891 -0.6426 -0.2255 -0.2992
 2903SOL    HW120168   0.844   4.281   2.915 -0.2514 -0.1597  0.5582
 2903SOL    HW220169   0.857   4.143   2.855  0.6682 -1.0879 -0.4385
 2904SOL     OW20170   1.334   0.441   9.101 -0.0064  0.6679 -0.1693
 2904SOL    HW120171   1.254   0.391   9.122  1.6727 -0.7739  2.7163
 2904SOL    HW220172   1.360   0.482   9.182  1.2652 -1.9415  0.7377
 2905SOL     OW20173   3.163   1.365   7.977 -0.9187  0.2996  0.0986
 2905SOL    HW120174   3.155   1.449   8.022 -0.5419  0.7870 -0.7502
 2905SOL    HW220175   3.256   1.361   7.998 -0.5378 -0.5260 -1.7306
 2906SOL     OW20176   4.499   0.776  12.415  0.0376  0.0425  0.0727
 2906SOL    HW120177   4.474   0.692  12.453 -1.1340  0.1624 -0.4426
 2906SOL    HW220178   4.582   0.793  12.460 -0.3723 -1.1778  1.2814
 2907SOL     OW20179   2.702   1.346   6.747  0.3256 -0.3984  0.2299
 2907SOL    HW120180   2.723   1.433   6.713  0.0045 -1.4255 -2.6024
 2907SOL    HW220181   2.791   1.312   6.747  1.5377  2.7610  1.8497
 2908SOL     OW20182   2.788   3.619   4.255  0.5685  0.3508  0.1401
 2908SOL    HW120183   2.732   3.588   4.184  2.4392  1.1935 -1.7382
 2908SOL    HW220184   2.857   3.553   4.259 -1.1752 -1.4236  0.8277
 2909SOL     OW20185   4.604   2.815   5.561 -0.9005  0.0478  0.5713
 2909SOL    HW120186   4.679   2.874   5.561  0.0332 -1.1346  2.2631
 2909SOL    HW220187   4.529   2.873   5.546 -1.5714 -1.4101 -1.6997
 2910SOL     OW20188   0.114   3.045   6.734  0.0739  0.5017 -0.4022
 2910SOL    HW120189   0.194   3.033   6.786 -0.9028  0.4680  1.0777
 2910SOL    HW220190   0.051   3.087   6.792  0.1070 -1.2906  0.9069
 2911SOL     OW20191   1.565   0.822  13.113  0.1659  0.6735  0.2140
 2911SOL    HW120192   1.515   0.902  13.095  1.8594  1.5984 -0.3940
 2911SOL    HW220193   1.656   0.852  13.103  0.5989 -0.5933  0.3338
 2912SOL     OW20194   4.695   2.466   1.121  0.1487 -0.0973  0.2435
 2912SOL    HW120195   4.687   2.376   1.154 -1.8070 -0.0731 -0.1827
 2912SOL    HW220196   4.613   2.509   1.141  0.3719 -1.0190  3.1237
 2913SOL     OW20197   3.547   3.886   4.313  0.4781 -0.1009  0.0304
 2913SOL    HW120198   3.584   3.805   4.349  3.4463  1.9115  1.5391
 2913SOL    HW220199   3.455   3.863   4.302 -0.0555  0.9658  2.2470
 2914SOL     OW20200   1.142   4.309   4.969 -0.2497  0.3915 -0.6223
 2914SOL    HW120201   1.144   4.396   5.009  0.7738  0.8040 -1.5588
 2914SOL    HW220202   1.118   4.254   5.043  0.6927 -0.3969 -0.9032
 2915SOL     OW20203   0.415   0.974  11.951  0.0326  0.1049  0.2066
 2915SOL    HW120204   0.344   0.961  12.014  0.8124 -0.0119  1.0542
 2915SOL    HW220205   0.366   1.036  11.897 -1.0887 -0.2555  0.7971
 2916SOL     OW20206   3.268   4.623   5.567  0.4200 -0.2048 -0.3341
 2916SOL    HW120207   3.226   4.662   5.490  0.8165  1.8412  0.4610
 2916SOL    HW220208   3.216   4.649   5.643  1.5563  1.8145 -0.2304
 2917SOL     OW20209   1.832   3.707   5.706 -0.2065  0.2732  0.1991
 2917SOL    HW120210   1.926   3.723   5.717 -0.2835  0.5192  0.5181
 2917SOL    HW220211   1.826   3.757   5.624 -0.3926 -0.7831 -0.4224
 2918SOL     OW20212   2.533   2.725   3.585  0.1303 -0.0042  0.1613
 2918SOL    HW120213   2.509   2.632   3.592  0.1381 -0.2147 -2.9715
 2918SOL    HW220214   2.465   2.766   3.637  1.1436  0.8021  0.8543
 2919SOL     OW20215   2.624   0.775   5.345  0.2610  0.1018  0.2771
 2919SOL    HW120216   2.542   0.740   5.380 -0.2922  0.6501 -0.4743
 2919SOL    HW220217   2.635   0.858   5.392  2.6887 -0.6767  1.0843
 2920SOL     OW20218   3.691   0.242   0.150  0.3247 -0.0590  0.4142
 2920SOL    HW120219   3.741   0.275   0.075  0.5491 -1.1849  0.0605
 2920SOL    HW220220   3.705   0.324   0.198 -0.2180  0.3732 -0.1639
 2921SOL     OW20221   4.637   3.453   7.399 -0.6256 -0.4075  0.0490
 2921SOL    HW120222   0.003   3.441   7.376 -0.3966 -0.4179  0.9539
 2921SOL    HW220223   4.630   3.400   7.479  1.3643 -2.2941 -1.0160
 2922SOL     OW20224   4.682   0.755   3.502 -0.9034  0.0588 -0.4090
 2922SOL    HW120225   0.010   0.788   3.431 -1.5445  1.9166 -0.0356
 2922SOL    HW220226   4.593   0.781   3.477 -1.5882  1.3681  3.3719
 2923SOL     OW20227   0.345   1.731   3.867 -0.3063  0.4362  0.2344
 2923SOL    HW120228   0.345   1.716   3.773  0.1314 -1.4999  0.5296
 2923SOL    HW220229   0.320   1.823   3.867  2.6336  1.2108 -1.7476
 2924SOL     OW20230   0.328   1.755   5.734 -0.1160  0.0622  0.4034
 2924SOL    HW120231   0.401   1.777   5.792  0.0026 -2.3647  1.1883
 2924SOL    HW220232   0.362   1.786   5.650  1.2289  0.9109  1.2622
 2925SOL     OW20233   2.837   4.089   8.365 -0.0169  0.3151  0.1504
 2925SOL    HW120234   2.923   4.102   8.325  0.7191 -0.2375  1.5437
 2925SOL    HW220235   2.852   4.035   8.443  1.4334  0.2495 -0.1791
 2926SOL     OW20236   3.178   2.307   8.567  0.8067 -0.1261  0.3160
 2926SOL    HW120237   3.191   2.212   8.560 -0.5476 -0.1389 -2.0164
 2926SOL    HW220238   3.159   2.303   8.661 -0.1329 -1.3578  0.0794
 2927SOL     OW20239   4.491   3.341   3.736  0.3184 -0.1836  0.1048
 2927SOL    HW120240   4.586   3.335   3.728  0.3335  1.7622 -0.9679
 2927SOL    HW220241   4.483   3.395   3.815  0.5963 -1.2095  0.8344
 2928SOL     OW20242   3.675   4.605   6.514 -0.1854 -0.0029 -0.7829
 2928SOL    HW120243   3.751   4.563   6.475  0.8769  0.8826  0.3575
 2928SOL    HW220244   3.642   4.662   6.444 -0.7249 -0.7972 -1.1756
 2929SOL     OW20245   3.649   1.374   2.714 -0.6257 -0.8906  0.0814
 2929SOL    HW120246   3.651   1.372   2.618  0.4027 -2.3886  0.1258
 2929SOL    HW220247   3.745   1.373   2.721 -0.2096  2.3510 -4.8698
 2930SOL     OW20248   0.174   2.945   4.744  0.3697 -0.4332 -0.2089
 2930SOL    HW120249   0.162   2.866   4.797  1.6349  0.6209  1.6532
 2930SOL    HW220250   0.235   2.996   4.798  2.4450 -0.9305 -2.0842
 2931SOL     OW20251   4.250   3.301   2.638  0.0775  0.6268 -0.4017
 2931SOL    HW120252   4.295   3.362   2.580 -2.3263  2.2960 -0.5283
 2931SOL    HW220253   4.287   3.328   2.722 -1.7686  0.6427  0.4225
 2932SOL     OW20254   1.392   1.103   4.220  0.0445  0.3533 -0.2179
 2932SOL    HW120255   1.421   1.157   4.293  2.2891 -1.2438  0.0491
 2932SOL    HW220256   1.299   1.097   4.244 -0.6735 -1.0906 -3.4112
 2933SOL     OW20257   0.603   4.194   0.272  0.5426 -0.0184 -0.2629
 2933SOL    HW120258   0.597   4.284   0.304  2.6424  0.5392 -1.4287
 2933SOL    HW220259   0.697   4.179   0.279 -0.4091 -4.4583  3.4683
 2934SOL     OW20260   4.265   1.113  10.699  0.4910  0.0252  0.1262
 2934SOL    HW120261   4.174   1.099  10.672  0.1301  2.3998  0.1631
 2934SOL    HW220262   4.294   1.022  10.706 -0.0307  0.0641  2.6269
 2935SOL     OW20263   0.942   4.584  17.271  0.0628  0.7996 -0.0164
 2935SOL    HW120264   0.927   4.493  17.296 -1.7620  0.9621 -0.5222
 2935SOL    HW220265   0.914   4.622  17.355  0.4862 -0.1114  0.5335
 2936SOL     OW20266   2.062   1.132   3.745 -0.2151  0.7329 -0.0333
 2936SOL    HW120267   2.155   1.113   3.729  0.0959  0.3693  2.1909
 2936SOL    HW220268   2.036   1.065   3.808  1.5398 -1.0400 -1.2159
 2937SOL     OW20269   4.471   1.650   2.008  0.1418 -0.0613 -0.0928
 2937SOL    HW120270   4.449   1.617   1.921 -2.4637  0.2979  0.4252
 2937SOL    HW220271   4.550   1.704   1.999  0.6089 -0.8372 -0.5590
 2938SOL     OW20272   2.943   3.610  17.213 -0.3557  0.0009  0.4205
 2938SOL    HW120273   2.943   3.701  17.184  0.4462 -0.2830 -0.4955
 2938SOL    HW220274   2.848   3.605  17.220 -0.4513 -1.3967 -1.7455
 2939SOL     OW20275   1.801   0.943  12.959  0.1819  0.1504  0.2427
 2939SOL    HW120276   1.810   0.906  12.871 -1.3321 -0.5621  0.3785
 2939SOL    HW220277   1.774   1.030  12.930  1.9187  0.7320  0.3681
 2940SOL     OW20278   2.015   3.485   1.408  0.2716 -0.0492 -0.0377
 2940SOL    HW120279   2.011   3.560   1.468 -0.6990  0.2027 -0.4252
 2940SOL    HW220280   2.101   3.448   1.428 -0.2264 -0.4238  1.4425
 2941SOL     OW20281   1.569   1.286   8.436 -0.5337  0.7738  0.5617
 2941SOL    HW120282   1.563   1.245   8.522  0.2719 -0.3706  0.0701
 2941SOL    HW220283   1.657   1.321   8.450  0.7024 -2.9881  2.1394
 2942SOL     OW20284   0.892   2.569   6.869 -0.0671 -0.1070 -0.6757
 2942SOL    HW120285   0.863   2.649   6.912 -0.4649 -0.6431  0.0504
 2942SOL    HW220286   0.902   2.612   6.784 -3.2368 -0.3957 -1.1976
 2943SOL     OW20287   2.531   1.574  12.607 -0.1767 -1.1843 -0.1531
 2943SOL    HW120288   2.540   1.625  12.687 -0.2490  0.7728 -1.4156
 2943SOL    HW220289   2.618   1.535  12.616  0.2026 -0.2014  0.4533
 2944SOL     OW20290   1.339   1.966   4.720 -0.1187 -0.6097 -0.4192
 2944SOL    HW120291   1.262   1.910   4.711  0.0979 -1.2178  1.5241
 2944SOL    HW220292   1.308   2.047   4.678  0.0583 -0.2326  0.1914
 2945SOL     OW20293   2.785   2.805   3.661  0.2735 -0.0344  0.2310
 2945SOL    HW120294   2.705   2.769   3.623  0.8745 -1.7624  0.6057
 2945SOL    HW220295   2.791   2.764   3.748 -0.6915  0.6759  0.6344
 2946SOL     OW20296   3.398   4.020   7.397 -0.1913 -0.2526 -0.0430
 2946SOL    HW120297   3.406   3.981   7.310 -1.1408 -1.1069  0.2455
 2946SOL    HW220298   3.413   4.114   7.394  0.1914 -0.3576 -1.2060
 2947SOL     OW20299   2.202   3.333   7.352  0.2626 -0.8933  0.3548
 2947SOL    HW120300   2.216   3.278   7.275 -0.7872  0.2885 -0.6756
 2947SOL    HW220301   2.171   3.274   7.420 -2.4392  1.6883  1.3548
 2948SOL     OW20302   2.559   4.710  10.019  0.3165 -0.2806  0.3013
 2948SOL    HW120303   2.540   0.058  10.077 -2.0795  0.9975 -2.0908
 2948SOL    HW220304   2.479   4.703   9.967  0.4169  0.7184  0.0243
 2949SOL     OW20305   3.810   3.051   8.935 -0.5528  0.3033 -0.4859
 2949SOL    HW120306   3.745   3.050   9.005 -1.1221 -4.0910 -1.0726
 2949SOL    HW220307   3.834   3.142   8.948 -0.7340  0.7610 -3.5389
 2950SOL     OW20308   2.521   1.896   8.798  0.0273 -0.5116  0.7114
 2950SOL    HW120309   2.439   1.926   8.837  0.3945  1.1280  0.1927
 2950SOL    HW220310   2.578   1.925   8.869 -1.1087  2.1813  0.5339
 2951SOL     OW20311   1.331   0.185   3.968 -0.8151  0.3849  0.2152
 2951SOL    HW120312   1.253   0.161   3.917 -0.8324 -0.6901  0.7323
 2951SOL    HW220313   1.399   0.204   3.904 -1.0430  0.5443  0.0221
 2952SOL     OW20314   3.743   1.532   5.143 -0.0568 -0.5282  0.6821
 2952SOL    HW120315   3.747   1.485   5.226  0.8101  0.5691  1.2574
 2952SOL    HW220316   3.814   1.486   5.099 -1.4044 -1.7915 -0.1479
 2953SOL     OW20317   4.043   1.747  14.130  0.4922  0.2537  0.4393
 2953SOL    HW120318   3.985   1.731  14.055 -0.7686  2.4749  0.9466
 2953SOL    HW220319   3.981   1.786  14.191  0.9129 -0.8644  1.5829
 2954SOL     OW20320   4.364   3.278  13.979  0.3307 -0.5062 -0.1432
 2954SOL    HW120321   4.363   3.216  14.052  2.2580 -2.0736 -1.4521
 2954SOL    HW220322   4.450   3.319  13.988 -0.2994  0.3812  1.7429
 2955SOL     OW20323   3.758   3.252   5.130  0.6251 -0.1947 -0.0983
 2955SOL    HW120324   3.703   3.288   5.060 -1.0380  0.7517  1.6964
 2955SOL    HW220325   3.736   3.311   5.202  0.5842  0.1906 -0.4282
 2956SOL     OW20326   2.976   1.699  10.508  0.0449  0.2673  0.3640
 2956SOL    HW120327   2.959   1.714  10.414  1.3447 -0.0096  0.0881
 2956SOL    HW220328   2.917   1.760  10.552 -0.2122 -1.0903  1.9030
 2957SOL     OW20329   1.350   1.207  11.316 -0.1734  1.1046  0.2675
 2957SOL    HW120330   1.413   1.135  11.326 -0.5050  1.0123  1.8166
 2957SOL    HW220331   1.390   1.247  11.239 -1.5770  2.6583  0.3544
 2958SOL     OW20332   4.625   1.339   1.498  0.2333 -0.5960  0.0084
 2958SOL    HW120333   4.548   1.342   1.441 -0.8534 -3.3460  1.3587
 2958SOL    HW220334   4.701   1.354   1.440  1.1511 -0.7238  1.1776
 2959SOL     OW20335   1.659   3.167   7.323  0.0552 -0.1960  0.6187
 2959SOL    HW120336   1.720   3.110   7.370  1.1795  0.3676 -0.1707
 2959SOL    HW220337   1.711   3.209   7.254  0.4603  0.1753  1.1445
 2960SOL     OW20338   3.722   2.450  16.962  0.0708 -0.1713 -0.4620
 2960SOL    HW120339   3.677   2.504  17.026 -1.3499  1.6384 -2.9724
 2960SOL    HW220340   3.766   2.522  16.916 -0.2549 -0.1218 -0.6997
 2961SOL     OW20341   1.065   1.073   4.853 -0.3038  0.7137  0.2383
 2961SOL    HW120342   1.002   1.019   4.901  1.0507 -0.5169  0.6436
 2961SOL    HW220343   1.147   1.038   4.887  0.1684  0.6969 -0.9169
 2962SOL     OW20344   3.892   2.973  12.406 -0.4534  0.0714  0.3018
 2962SOL    HW120345   3.899   2.901  12.468 -0.3413 -1.2738 -1.2609
 2962SOL    HW220346   3.877   3.046  12.465 -0.0614  1.3113 -1.1414
 2963SOL     OW20347   0.692   2.624   9.797  0.0527  0.0889  0.5271
 2963SOL    HW120348   0.774   2.648   9.840  0.6682  0.1753 -0.6756
 2963SOL    HW220349   0.730   2.633   9.709 -2.0768 -2.0990 -0.6554
 2964SOL     OW20350   3.464   2.392   6.472  0.3936  0.0697 -0.5990
 2964SOL    HW120351   3.465   2.456   6.543 -0.7231 -0.0001 -0.5337
 2964SOL    HW220352   3.469   2.311   6.523  2.0610  1.1099  0.8917
 2965SOL     OW20353   2.295   2.656   5.409  0.6416  0.3408  0.4579
 2965SOL    HW120354   2.307   2.668   5.504 -0.5723  0.5529  0.5828
 2965SOL    HW220355   2.383   2.641   5.376 -0.0906  0.1338 -1.3715
 2966SOL     OW20356   1.567   4.071   4.517 -0.1041 -0.2657 -0.0765
 2966SOL    HW120357   1.479   4.048   4.546  0.8156  1.1039  3.8456
 2966SOL    HW220358   1.555   4.104   4.429  2.9841  0.5394 -0.2071
 2967SOL     OW20359   3.260   3.386  10.727  0.9273  0.1954 -0.4517
 2967SOL    HW120360   3.180   3.362  10.681 -0.3014 -0.8323  2.1755
 2967SOL    HW220361   3.218   3.455  10.780  1.5367  1.0172 -1.0418
 2968SOL     OW20362   0.692   3.140  13.163  0.7181  0.2856 -0.1110
 2968SOL    HW120363   0.653   3.211  13.111  0.5661 -0.3539 -0.8693
 2968SOL    HW220364   0.754   3.189  13.217 -0.4871  2.1667 -0.4143
 2969SOL     OW20365   3.726   1.828   6.849  0.2866  0.2458 -0.2362
 2969SOL    HW120366   3.815   1.834   6.815  1.1453  0.8231  2.1536
 2969SOL    HW220367   3.683   1.847   6.765 -0.1629 -2.0582 -0.5415
 2970SOL     OW20368   0.533   4.495   9.390 -0.6738 -0.7201 -0.0339
 2970SOL    HW120369   0.462   4.547   9.429 -0.3477  1.4906 -2.3713
 2970SOL    HW220370   0.602   4.497   9.456 -0.7727 -1.6881  0.0984
 2971SOL     OW20371   1.040   1.866   1.357  0.0758  0.1802 -0.0908
 2971SOL    HW120372   0.966   1.816   1.390 -0.8737  2.0282  0.5870
 2971SOL    HW220373   1.002   1.921   1.288 -1.6696  0.4956  1.1291
 2972SOL     OW20374   0.138   0.586  15.390  0.5898  0.5523 -0.5668
 2972SOL    HW120375   0.231   0.567  15.401  0.4227  0.1465  0.1321
 2972SOL    HW220376   0.135   0.678  15.362  0.1346  1.0977  1.2155
 2973SOL     OW20377   1.253   0.316  13.157 -0.2118 -0.3785 -0.4949
 2973SOL    HW120378   1.170   0.358  13.179  0.6552  1.7755 -1.3223
 2973SOL    HW220379   1.302   0.332  13.237 -0.6933 -0.3382 -0.2094
 2974SOL     OW20380   2.124   0.615  16.972 -0.9504 -0.4846 -0.7491
 2974SOL    HW120381   2.165   0.655  17.049  0.2976 -1.0485 -1.1239
 2974SOL    HW220382   2.073   0.683  16.927  0.7650 -0.4206 -2.6135
 2975SOL     OW20383   2.051   2.279   9.235  0.0319  0.3782  0.1188
 2975SOL    HW120384   2.145   2.284   9.254  0.2209 -0.3560 -0.6261
 2975SOL    HW220385   2.032   2.338   9.162 -1.8429 -1.7209 -1.0915
 2976SOL     OW20386   1.135   3.850   8.843 -0.4655 -0.4750  0.4414
 2976SOL    HW120387   1.069   3.919   8.848 -1.0431 -0.9477 -0.5577
 2976SOL    HW220388   1.133   3.813   8.931 -0.2699  2.2903  1.6085
 2977SOL     OW20389   1.307   2.861  14.530  0.2991 -0.6279 -0.4779
 2977SOL    HW120390   1.380   2.921  14.548  0.0295 -0.5211  0.2521
 2977SOL    HW220391   1.309   2.870  14.435  2.5104 -1.4526 -0.5191
 2978SOL     OW20392   2.002   3.817   3.252 -0.3271  0.4576 -0.1415
 2978SOL    HW120393   2.062   3.790   3.322 -0.6115 -0.3955 -0.2308
 2978SOL    HW220394   2.050   3.895   3.223  1.0023 -0.8896 -1.5344
 2979SOL     OW20395   0.403   2.322   5.454  0.0066 -0.1150 -0.0263
 2979SOL    HW120396   0.469   2.376   5.410  0.0426 -0.8042 -0.8337
 2979SOL    HW220397   0.332   2.375   5.491 -0.7715 -0.7441 -0.6132
 2980SOL     OW20398   3.942   2.412   6.805 -0.0455  0.1535 -0.0202
 2980SOL    HW120399   4.001   2.435   6.733  0.1672  0.0014  0.1055
 2980SOL    HW220400   4.004   2.422   6.877  1.2742 -2.9135 -0.7297
 2981SOL     OW20401   2.178   2.203  17.378 -0.0716  0.2956  0.1443
 2981SOL    HW120402   2.236   2.130  17.397 -0.4830 -0.4310 -1.4229
 2981SOL    HW220403   2.086   2.174  17.381 -0.2862  1.0638  0.9873
 2982SOL     OW20404   3.892   0.608   9.228  0.5833  0.3778 -0.3616
 2982SOL    HW120405   3.976   0.583   9.267  0.9499 -0.8997 -1.9588
 2982SOL    HW220406   3.932   0.679   9.178  0.4019  0.0569 -0.9662
 2983SOL     OW20407   3.793   0.938   3.759 -0.5093  0.4122  0.8732
 2983SOL    HW120408   3.760   1.025   3.781  0.7046  1.7445 -2.5596
 2983SOL    HW220409   3.868   0.964   3.707 -1.2907  0.1325 -0.3865
 2984SOL     OW20410   1.209   0.034   2.281  0.4016 -0.2644 -0.0737
 2984SOL    HW120411   1.126   0.002   2.317 -0.5067 -0.7996 -2.6570
 2984SOL    HW220412   1.177   0.096   2.217  0.2711 -0.8928 -0.6134
 2985SOL     OW20413   2.327   4.716  14.817 -0.2121 -0.3804 -0.0973
 2985SOL    HW120414   2.362   4.641  14.865  1.5761 -0.0337 -0.8245
 2985SOL    HW220415   2.249   4.678  14.778 -0.1412 -0.7097  0.0835
 2986SOL     OW20416   2.957   4.697  12.811  0.9254  0.2291 -0.3533
 2986SOL    HW120417   2.945   0.057  12.853  0.8786  0.6202 -1.1575
 2986SOL    HW220418   3.030   4.672  12.867  0.0785  0.6508  0.9445
 2987SOL     OW20419   0.123   2.578   3.347 -0.2295 -0.0564  0.3246
 2987SOL    HW120420   0.113   2.505   3.286  0.9833  0.1619 -0.1292
 2987SOL    HW220421   0.083   2.645   3.292 -0.0832 -0.5628 -0.4076
 2988SOL     OW20422   1.496   1.727   4.325 -0.0520 -0.1315 -0.7407
 2988SOL    HW120423   1.521   1.668   4.254  0.8388  1.0022 -1.3678
 2988SOL    HW220424   1.466   1.670   4.395 -3.0521  1.2667 -0.8837
 2989SOL     OW20425   1.047   3.567   7.137  0.1854 -0.3136  0.4277
 2989SOL    HW120426   1.031   3.569   7.043 -1.9045  2.5792  0.8379
 2989SOL    HW220427   1.139   3.592   7.143 -0.3080  1.4348  1.0434
 2990SOL     OW20428   1.586   2.201   1.166 -0.6381  0.6882 -0.1351
 2990SOL    HW120429   1.523   2.261   1.127 -0.6712  1.7391  1.5621
 2990SOL    HW220430   1.603   2.138   1.095 -0.4570  0.3816  0.1795
 2991SOL     OW20431   1.430   3.644  14.045  0.2385 -0.2290 -0.0305
 2991SOL    HW120432   1.365   3.608  14.105  1.9192  1.8015  2.9984
 2991SOL    HW220433   1.396   3.640  13.955  1.4430 -4.2432 -0.2862
 2992SOL     OW20434   0.263   3.549   9.953  0.1630 -0.0237 -0.4123
 2992SOL    HW120435   0.348   3.506   9.961 -0.6323 -1.6712 -0.7963
 2992SOL    HW220436   0.198   3.479   9.959 -0.8984  0.7772 -2.7841
 2993SOL     OW20437   3.615   0.970   5.483 -0.2605  0.8495  0.5969
 2993SOL    HW120438   3.557   0.897   5.503 -0.6441  1.1176  0.4526
 2993SOL    HW220439   3.553   1.043   5.493  0.0538  1.0321  1.2399
 2994SOL     OW20440   3.265   4.406   6.699  0.0551  0.4527 -0.2908
 2994SOL    HW120441   3.315   4.448   6.770 -2.0148 -0.6874  1.8297
 2994SOL    HW220442   3.306   4.448   6.624 -1.3114 -1.5086 -2.1097
 2995SOL     OW20443   4.588   0.708  15.025 -0.4184 -0.5138  0.2067
 2995SOL    HW120444   4.641   0.784  15.046 -0.5611 -0.3485 -0.0288
 2995SOL    HW220445   4.585   0.661  15.108 -2.2165  1.6085  1.3442
 2996SOL     OW20446   1.901   4.664   2.373  0.4973 -0.3049  0.0659
 2996SOL    HW120447   1.934   4.577   2.350 -1.7288 -1.1113 -0.0498
 2996SOL    HW220448   1.848   4.677   2.294 -0.0355  1.0768  0.6505
 2997SOL     OW20449   0.511   4.670   0.130  0.3388  0.1703 -0.3471
 2997SOL    HW120450   0.489   4.694   0.220 -2.2304 -0.3908 -0.8369
 2997SOL    HW220451   0.599   4.709   0.123 -0.2787  1.4459 -0.9272
 2998SOL     OW20452   1.471   0.054  15.722 -0.1477 -0.4276  0.0251
 2998SOL    HW120453   1.499   0.083  15.635  0.2742  2.8509  1.2409
 2998SOL    HW220454   1.512   0.111  15.787  0.8758 -0.5066 -0.5653
 2999SOL     OW20455   0.542   1.503  12.205  0.1473 -0.0240  0.4749
 2999SOL    HW120456   0.513   1.581  12.253  2.7784 -0.3846  2.6051
 2999SOL    HW220457   0.488   1.513  12.125 -1.3800 -0.0357  1.5001
 3000SOL     OW20458   4.621   2.006   3.937 -0.3238 -0.0729  0.4188
 3000SOL    HW120459   4.639   2.074   4.002  1.1202  0.4290 -0.4917
 3000SOL    HW220460   4.673   1.935   3.976 -1.0840 -1.1014 -0.4519
 3001SOL     OW20461   1.921   0.584  14.306  0.1777  0.1411 -0.1330
 3001SOL    HW120462   1.836   0.611  14.341  0.4882 -1.5979  1.9636
 3001SOL    HW220463   1.947   0.675  14.294  1.9650 -0.6028 -1.8234
 3002SOL     OW20464   2.923   1.590   2.697  0.0100  0.2074  0.5191
 3002SOL    HW120465   2.831   1.597   2.672  0.0068  0.1700  0.5208
 3002SOL    HW220466   2.958   1.679   2.703  2.1467 -0.5840 -0.6846
 3003SOL     OW20467   2.524   2.727  17.082 -0.9417 -0.5256 -0.2600
 3003SOL    HW120468   2.507   2.761  16.994 -1.8907 -0.0727  0.1079
 3003SOL    HW220469   2.590   2.659  17.065  0.2715  0.6858 -0.3359
 3004SOL     OW20470   2.578   0.050   5.396 -0.3647  0.0670  0.8549
 3004SOL    HW120471   2.617   0.136   5.377  0.0244  0.0100  1.3665
 3004SOL    HW220472   2.517   0.050   5.323 -0.2220  0.9891  0.7350
 3005SOL     OW20473   1.507   1.901   6.776  0.5218 -0.0512  0.1042
 3005SOL    HW120474   1.565   1.977   6.785  0.8219 -0.4546  1.6530
 3005SOL    HW220475   1.578   1.837   6.776  2.1812  1.7760 -1.5593
 3006SOL     OW20476   4.268   1.673  13.219 -0.3446 -0.0111  0.4546
 3006SOL    HW120477   4.205   1.655  13.148 -0.1263  0.8575  0.0447
 3006SOL    HW220478   4.267   1.768  13.211 -1.7703  0.1220  2.2392
 3007SOL     OW20479   3.868   3.964   8.450 -0.2716 -0.8115 -0.2706
 3007SOL    HW120480   3.843   4.039   8.395 -0.3801  0.0817  0.9884
 3007SOL    HW220481   3.958   3.994   8.463 -0.0504 -1.1283 -1.1338
 3008SOL     OW20482   1.493   2.930   6.787 -0.3684  0.1093 -0.6833
 3008SOL    HW120483   1.437   2.998   6.824 -0.9328 -1.0763  0.6183
 3008SOL    HW220484   1.569   2.988   6.780  0.1837 -0.7039 -1.5053
 3009SOL     OW20485   2.649   1.428   1.742 -0.1376  0.1532  0.3115
 3009SOL    HW120486   2.572   1.413   1.796 -1.6097  0.6554 -1.6315
 3009SOL    HW220487   2.650   1.346   1.693  0.1998  0.1444  0.3291
 3010SOL     OW20488   0.371   1.737   8.755 -0.1660 -0.0346  0.0475
 3010SOL    HW120489   0.414   1.773   8.677 -1.1730  1.6996  0.2656
 3010SOL    HW220490   0.381   1.808   8.819 -0.1070 -0.7608  0.8337
 3011SOL     OW20491   3.719   3.494  15.240  0.5527  0.1524 -0.7578
 3011SOL    HW120492   3.795   3.551  15.227  1.4614 -0.3867  1.9680
 3011SOL    HW220493   3.662   3.545  15.297  0.4237 -0.2188 -0.5497
 3012SOL     OW20494   2.895   4.070  17.417  0.4216 -0.6380  0.1207
 3012SOL    HW120495   2.853   4.001  17.468  2.5016 -0.5165  2.0052
 3012SOL    HW220496   2.852   4.152  17.441 -0.0450 -1.0968  0.8190
 3013SOL     OW20497   2.089   2.650   5.918  0.8040 -0.1922 -0.5180
 3013SOL    HW120498   2.173   2.632   5.960  0.7394  0.6688 -0.0248
 3013SOL    HW220499   2.059   2.562   5.895  0.2266 -0.1846  0.2222
 3014SOL     OW20500   3.591   4.632   6.229  0.1105 -0.9628  0.2990
 3014SOL    HW120501   3.527   4.594   6.171  1.1954 -2.0333 -0.1934
 3014SOL    HW220502   3.576   4.726   6.215  1.6592 -0.5921  1.0903
 3015SOL     OW20503   4.515   3.453   8.394 -0.4364  0.2982  0.0912
 3015SOL    HW120504   4.550   3.514   8.459  1.7691 -1.7968  0.8947
 3015SOL    HW220505   4.587   3.391   8.379 -0.2037  0.5300  0.2694
 3016SOL     OW20506   0.001   1.741   0.014  0.2518  0.1653 -0.0289
 3016SOL    HW120507   0.061   1.668   0.001 -0.2520 -0.7350  2.6649
 3016SOL    HW220508   0.005   1.788  17.635 -0.3469 -0.8373 -0.6198
 3017SOL     OW20509   1.229   3.707   3.042 -0.1499  0.0393 -0.0189
 3017SOL    HW120510   1.318   3.704   3.077  0.2510  2.0769 -0.8569
 3017SOL    HW220511   1.192   3.755   3.117 -0.8798 -1.2901  0.4807
 3018SOL     OW20512   0.858   0.295   0.636 -0.5118 -0.0283 -0.0370
 3018SOL    HW120513   0.949   0.269   0.622 -0.7978 -1.9510  1.6872
 3018SOL    HW220514   0.818   0.209   0.620 -0.8778 -0.2661  2.1772
 3019SOL     OW20515   2.288   3.240  11.961  0.1551 -0.7964 -0.5761
 3019SOL    HW120516   2.339   3.306  12.006 -1.5155  0.0295  0.1058
 3019SOL    HW220517   2.201   3.252  11.998  1.0869  2.9473  0.3775
 3020SOL     OW20518   1.112   3.599   8.652 -0.3571 -0.4678  0.1579
 3020SOL    HW120519   1.134   3.674   8.707  0.2253 -0.2322 -0.3979
 3020SOL    HW220520   1.031   3.624   8.608 -1.6830 -2.1648  1.6296
 3021SOL     OW20521   2.294   2.424   7.403  1.0054  0.2758  0.4179
 3021SOL    HW120522   2.379   2.438   7.445  1.5986  0.9057 -0.9683
 3021SOL    HW220523   2.238   2.467   7.467 -0.7160 -0.8426 -0.3591
 3022SOL     OW20524   1.272   4.548   7.763  0.0687  0.4554  0.0682
 3022SOL    HW120525   1.312   4.577   7.845 -1.0179 -0.7079  1.0080
 3022SOL    HW220526   1.248   4.460   7.792  1.6537  0.0773  0.1874
 3023SOL     OW20527   2.987   2.859   9.943 -0.0743 -0.3758  0.0930
 3023SOL    HW120528   3.004   2.947   9.976 -0.0525 -0.1776 -0.4361
 3023SOL    HW220529   2.940   2.892   9.867 -0.2957 -2.4855 -0.6900
 3024SOL     OW20530   4.435   0.082  10.885 -0.0855 -0.0277  0.0155
 3024SOL    HW120531   4.382   0.137  10.827  1.1889  1.7060  0.5247
 3024SOL    HW220532   4.367   0.017  10.906 -0.5069  0.2594 -0.4629
 3025SOL     OW20533   2.564   0.998   4.823  0.1735 -0.1925  0.2396
 3025SOL    HW120534   2.534   0.912   4.794 -0.7929  0.3916 -0.4576
 3025SOL    HW220535   2.494   1.015   4.886 -1.8343  1.3890 -2.4608
 3026SOL     OW20536   1.017   3.374   5.039 -0.1172  0.0930  0.0573
 3026SOL    HW120537   1.110   3.365   5.020  0.1030 -0.6771  1.4744
 3026SOL    HW220538   0.989   3.285   5.018 -1.6071 -0.1405  3.0104
 3027SOL     OW20539   0.778   3.264   2.896  0.2065 -0.2093  0.3167
 3027SOL    HW120540   0.743   3.334   2.840 -0.2325  0.0387  0.9063
 3027SOL    HW220541   0.787   3.316   2.976 -1.4627  0.2392  0.2010
 3028SOL     OW20542   1.161   4.368  10.560 -0.0613 -0.2524 -0.4288
 3028SOL    HW120543   1.247   4.328  10.574  0.4018  0.8016 -0.2666
 3028SOL    HW220544   1.095   4.300  10.579 -1.7852  1.7749  0.8043
 3029SOL     OW20545   4.110   1.191   5.704 -0.0845 -0.4263  0.0765
 3029SOL    HW120546   4.033   1.225   5.658 -0.7251 -1.5287  0.3231
 3029SOL    HW220547   4.079   1.157   5.788 -1.7655  0.3711 -0.2254
 3030SOL     OW20548   3.411   0.470  16.350 -0.0240 -0.0128  0.5851
 3030SOL    HW120549   3.363   0.504  16.275  1.1109 -1.5879 -0.8719
 3030SOL    HW220550   3.345   0.406  16.375 -1.2124  0.6026 -0.9455
 3031SOL     OW20551   0.656   2.566  12.275  0.5288  0.4986 -0.2334
 3031SOL    HW120552   0.602   2.501  12.321 -2.1635  0.1247 -3.8295
 3031SOL    HW220553   0.662   2.524  12.189 -0.1782  1.2324 -0.6496
 3032SOL     OW20554   2.855   1.150   9.067 -0.1219 -0.0022 -0.7335
 3032SOL    HW120555   2.889   1.079   9.121 -0.0773  0.5975  0.0291
 3032SOL    HW220556   2.770   1.165   9.108 -0.7214  1.0783 -2.3870
 3033SOL     OW20557   1.152   3.198   4.012  0.2917 -0.2174 -0.5543
 3033SOL    HW120558   1.064   3.190   4.049  0.7459 -0.4352  0.4725
 3033SOL    HW220559   1.182   3.110   3.991  0.7561 -0.4844  1.1912
 3034SOL     OW20560   4.144   2.789   7.237 -0.5397 -0.5829 -0.3515
 3034SOL    HW120561   4.214   2.845   7.269  1.1729 -2.1194 -1.4646
 3034SOL    HW220562   4.092   2.859   7.197 -0.8408 -0.3244  0.5004
 3035SOL     OW20563   0.184   2.697   3.707  0.4906 -0.0782  0.7541
 3035SOL    HW120564   0.122   2.733   3.644  0.4516 -0.0924  0.7846
 3035SOL    HW220565   0.272   2.696   3.669  0.4047  1.6101  0.4775
 3036SOL     OW20566   4.581   4.109   7.864  0.0532  0.1735  0.8833
 3036SOL    HW120567   4.497   4.133   7.824 -0.0660 -1.3891  0.2094
 3036SOL    HW220568   4.614   4.198   7.877 -0.6309  0.4540  0.7364
 3037SOL     OW20569   4.483   3.902   4.126 -0.4608  0.2018 -0.1754
 3037SOL    HW120570   4.434   3.979   4.098 -1.8348 -0.1199  1.3173
 3037SOL    HW220571   4.431   3.840   4.075 -0.5764  0.1633 -0.0131
 3038SOL     OW20572   3.007   1.389   6.303 -0.9142 -0.2931 -0.2402
 3038SOL    HW120573   2.971   1.429   6.224 -0.8334 -0.0614 -0.1607
 3038SOL    HW220574   3.078   1.448   6.328 -1.9318  0.9016 -0.0915
 3039SOL     OW20575   2.424   0.899   7.480  0.2084 -0.0298  0.3905
 3039SOL    HW120576   2.478   0.979   7.481 -0.4704  0.4213  1.4931
 3039SOL    HW220577   2.358   0.925   7.416  1.5832 -0.5000 -1.2117
 3040SOL     OW20578   2.524   0.223   1.011 -0.3279  0.4346 -0.0418
 3040SOL    HW120579   2.500   0.298   0.956 -1.2109 -0.3981 -0.7965
 3040SOL    HW220580   2.460   0.236   1.081 -1.7148  1.1573 -1.4277
 3041SOL     OW20581   2.742   1.868   5.037 -0.0670 -0.0346  1.0696
 3041SOL    HW120582   2.827   1.881   5.078 -0.5874 -1.4333  2.5584
 3041SOL    HW220583   2.734   1.778   5.068  0.0491 -0.9472 -1.5454
 3042SOL     OW20584   0.709   2.825   5.768 -0.5075  0.4103 -0.0482
 3042SOL    HW120585   0.782   2.815   5.829 -0.3627  0.5329 -0.1996
 3042SOL    HW220586   0.641   2.848   5.831  2.6705  1.1350  3.0847
 3043SOL     OW20587   1.679   3.178   8.004 -0.3982 -0.5382 -0.1286
 3043SOL    HW120588   1.604   3.126   7.977 -0.9069  0.7025 -1.1102
 3043SOL    HW220589   1.707   3.217   7.920 -2.4721  0.3920 -0.3750
 3044SOL     OW20590   1.077   1.722  16.258  0.6128 -0.2238 -0.3177
 3044SOL    HW120591   1.096   1.683  16.344 -1.4784  1.6870  1.0228
 3044SOL    HW220592   1.166   1.751  16.238  0.0475  0.6860 -1.4478
 3045SOL     OW20593   0.096   1.041  11.604  0.2951  0.0644  0.2235
 3045SOL    HW120594   0.169   1.097  11.578 -1.6734  3.6428  2.3896
 3045SOL    HW220595   0.130   0.956  11.575 -1.8579 -0.0219 -1.9536
 3046SOL     OW20596   1.487   3.632   3.140 -0.3481 -0.5608 -0.0608
 3046SOL    HW120597   1.495   3.608   3.233 -0.3035  1.4729  0.4475
 3046SOL    HW220598   1.577   3.640   3.107 -0.3167 -2.5826 -0.4963
 3047SOL     OW20599   3.979   4.425   5.095  0.1215 -0.5259 -0.4354
 3047SOL    HW120600   3.968   4.341   5.052  0.4072 -1.5353  1.4681
 3047SOL    HW220601   3.903   4.439   5.151 -1.2690 -0.5201 -2.3131
 3048SOL     OW20602   1.202   1.309   3.376  0.2669  0.4093 -0.3356
 3048SOL    HW120603   1.256   1.315   3.298 -0.0087 -2.0701 -0.7152
 3048SOL    HW220604   1.249   1.230   3.400 -3.4762 -2.1829 -1.6127
 3049SOL     OW20605   0.526   2.337   7.713 -1.0256  0.5515  0.0491
 3049SOL    HW120606   0.576   2.416   7.690  0.7491 -0.8985 -1.0960
 3049SOL    HW220607   0.529   2.334   7.808 -0.5369 -1.9626 -0.0430
 3050SOL     OW20608   2.986   4.717   4.658  0.3016 -0.1643 -0.5581
 3050SOL    HW120609   2.991   0.015   4.565  1.6422 -0.0289 -0.4454
 3050SOL    HW220610   2.983   4.621   4.659  0.9432 -0.2212 -3.2289
 3051SOL     OW20611   0.155   1.960   6.606 -0.0267  0.4026  0.4024
 3051SOL    HW120612   0.073   1.910   6.613 -1.2841  2.2129 -1.3341
 3051SOL    HW220613   0.145   2.031   6.543  1.4054  1.1225  0.9952
 3052SOL     OW20614   1.282   3.402   8.714 -0.0416 -0.0289  0.7700
 3052SOL    HW120615   1.228   3.479   8.693 -1.4260 -0.9704  0.9150
 3052SOL    HW220616   1.367   3.433   8.682 -0.9314  2.8731  1.1503
 3053SOL     OW20617   4.601   3.106   7.809 -0.0299 -0.4168  0.3358
 3053SOL    HW120618   4.591   3.012   7.818 -0.0641 -0.2473  2.0409
 3053SOL    HW220619   4.620   3.134   7.899  0.2057 -0.0508  0.1745
 3054SOL     OW20620   0.047   3.207   4.558 -0.5857 -0.2625  0.0754
 3054SOL    HW120621   4.699   3.234   4.613 -1.6727  1.9950 -2.4645
 3054SOL    HW220622   0.114   3.200   4.627 -0.5467  1.1249  0.1785
 3055SOL     OW20623   0.820   4.524   4.774 -0.9214  0.6789  0.3441
 3055SOL    HW120624   0.798   4.467   4.848 -2.0355 -0.2615 -0.6955
 3055SOL    HW220625   0.735   4.538   4.732 -0.2804 -0.1067 -1.2501
 3056SOL     OW20626   4.042   2.822   3.668  0.3048 -0.0249  0.1460
 3056SOL    HW120627   4.085   2.818   3.754  1.1753 -0.9465 -0.3396
 3056SOL    HW220628   4.117   2.819   3.609 -0.2718 -1.7885 -0.4953
 3057SOL     OW20629   3.138   1.931  16.938  0.4380  0.4942 -0.4801
 3057SOL    HW120630   3.204   1.861  16.935  1.5384  1.6500 -3.1012
 3057SOL    HW220631   3.128   1.929  17.033  0.8425  0.6122 -0.4323
 3058SOL     OW20632   0.176   0.303  13.882  0.3774 -0.0400 -0.5500
 3058SOL    HW120633   0.097   0.297  13.828 -0.2935  0.4866  0.3698
 3058SOL    HW220634   0.204   0.393  13.864 -0.0392  0.6978  2.4614
 3059SOL     OW20635   0.312   2.297  10.304  0.2889  0.0622 -0.5306
 3059SOL    HW120636   0.400   2.332  10.292  1.7790 -2.8205  1.9145
 3059SOL    HW220637   0.305   2.282  10.398 -0.2028 -1.6545 -0.8259
 3060SOL     OW20638   4.272   2.361   6.442 -0.3041  0.0323  0.1251
 3060SOL    HW120639   4.219   2.373   6.364  1.0548 -0.3738 -0.8611
 3060SOL    HW220640   4.357   2.391   6.411 -0.1162 -0.1508  0.4568
 3061SOL     OW20641   3.857   2.445   5.118 -0.1663 -0.0748  0.4787
 3061SOL    HW120642   3.912   2.369   5.135 -1.5531 -0.9229  1.1345
 3061SOL    HW220643   3.833   2.426   5.027  1.9778  1.0675 -0.3351
 3062SOL     OW20644   1.124   4.540   4.477  0.4457 -0.0211  0.6726
 3062SOL    HW120645   1.183   4.615   4.485 -1.1620  1.0966  2.1392
 3062SOL    HW220646   1.150   4.500   4.394 -1.1711  1.1671 -0.4116
 3063SOL     OW20647   0.962   0.902   1.752 -0.0132 -0.2048  0.3087
 3063SOL    HW120648   0.914   0.983   1.773  1.4177  0.7723 -0.1718
 3063SOL    HW220649   0.995   0.870   1.836  1.6795 -0.6222 -0.5089
 3064SOL     OW20650   0.233   1.248   5.363 -0.0670 -0.3454  0.3486
 3064SOL    HW120651   0.252   1.302   5.287 -0.3094 -2.0960 -0.9480
 3064SOL    HW220652   0.146   1.212   5.342 -0.7063  0.6470  1.3041
 3065SOL     OW20653   3.611   2.818   3.191 -0.5745  0.9232  0.2563
 3065SOL    HW120654   3.593   2.811   3.284  1.2249 -3.3351  0.2803
 3065SOL    HW220655   3.521   2.841   3.167  0.0292  3.1060  0.1534
 3066SOL     OW20656   0.489   2.482  13.428  0.5838  0.0537  0.2919
 3066SOL    HW120657   0.453   2.436  13.352 -0.8663 -1.6753  2.0103
 3066SOL    HW220658   0.408   2.480  13.479  0.3188 -0.2954 -0.1362
 3067SOL     OW20659   3.469   0.749  15.952  0.4700 -0.1681 -0.2870
 3067SOL    HW120660   3.539   0.705  16.000  1.3686  0.9903 -0.5190
 3067SOL    HW220661   3.416   0.787  16.023  2.7828  0.2910  1.2065
 3068SOL     OW20662   2.623   3.452  10.197 -0.0471 -0.2767  0.0612
 3068SOL    HW120663   2.558   3.400  10.150 -0.1762 -1.2176  1.2845
 3068SOL    HW220664   2.702   3.404  10.171  1.2545  1.3988  0.9069
 3069SOL     OW20665   3.651   1.458  15.204 -0.2512  0.1727 -0.0009
 3069SOL    HW120666   3.693   1.530  15.157 -1.2793  0.1061 -1.0162
 3069SOL    HW220667   3.679   1.385  15.149 -1.2729  1.2058 -1.9052
 3070SOL     OW20668   2.849   1.442   9.948  0.2622 -0.0856  0.1030
 3070SOL    HW120669   2.888   1.431  10.035 -1.0229  1.5222  0.8800
 3070SOL    HW220670   2.759   1.422   9.973 -0.2278  0.9757 -0.8099
 3071SOL     OW20671   3.920   1.213   4.024  0.2937 -0.1452  0.3367
 3071SOL    HW120672   3.861   1.205   3.948  0.4259 -0.1486  0.2354
 3071SOL    HW220673   3.886   1.292   4.067 -0.5550  0.5258 -1.5162
 3072SOL     OW20674   4.308   0.577   0.702  0.4336 -0.9697 -0.2600
 3072SOL    HW120675   4.351   0.515   0.644  1.7866 -0.1854 -0.0838
 3072SOL    HW220676   4.356   0.659   0.690 -0.5976 -0.3790 -0.3693
 3073SOL     OW20677   1.521   4.127  15.206  0.2680  0.2847 -0.0077
 3073SOL    HW120678   1.455   4.059  15.220 -0.5067  1.2681  1.1394
 3073SOL    HW220679   1.600   4.075  15.221 -0.4219 -0.9158 -0.5851
 3074SOL     OW20680   3.810   3.085   6.701  0.3201  0.0671 -0.1567
 3074SOL    HW120681   3.765   3.081   6.785  1.5399 -1.9496  0.4003
 3074SOL    HW220682   3.888   3.032   6.719  0.3435  0.8276  2.0660
 3075SOL     OW20683   4.472   0.792   2.473  0.4106  0.3187  0.4522
 3075SOL    HW120684   4.490   0.702   2.447 -1.9794  0.2984 -1.0685
 3075SOL    HW220685   4.554   0.834   2.446  0.8652 -0.6239  0.3444
 3076SOL     OW20686   1.388   3.233  13.491  0.4599  0.0082  0.1263
 3076SOL    HW120687   1.327   3.195  13.428 -0.1136  2.1433 -0.6050
 3076SOL    HW220688   1.473   3.200  13.463 -0.4048  0.2288 -2.7497
 3077SOL     OW20689   0.551   4.634   9.100  0.2872  0.3545  0.3679
 3077SOL    HW120690   0.554   4.546   9.138 -2.0562  0.0136 -0.2395
 3077SOL    HW220691   0.646   4.645   9.102  0.4047 -1.3499  3.5860
 3078SOL     OW20692   1.747   1.233   8.143  0.0674  0.4427 -0.0436
 3078SOL    HW120693   1.759   1.305   8.205  0.8314  0.3616 -0.0917
 3078SOL    HW220694   1.675   1.186   8.184 -0.2760 -0.5824 -1.8338
 3079SOL     OW20695   4.635   4.193  11.059  0.1830 -0.3595 -0.0507
 3079SOL    HW120696   4.691   4.263  11.093 -0.6959  0.0291  0.6058
 3079SOL    HW220697   4.625   4.203  10.965  0.1578  0.5422  0.0479
 3080SOL     OW20698   2.521   0.333   6.249  0.7945  0.5582 -0.2411
 3080SOL    HW120699   2.489   0.423   6.239 -3.3553 -1.1894 -2.6735
 3080SOL    HW220700   2.480   0.325   6.335  0.8830 -1.5254 -0.4131
 3081SOL     OW20701   1.230   4.408  12.625  0.4908 -0.7158  0.5412
 3081SOL    HW120702   1.211   4.439  12.536  0.4183  1.6863  1.3772
 3081SOL    HW220703   1.266   4.493  12.654 -1.6433  0.3494  0.0407
 3082SOL     OW20704   4.589   2.032   8.413 -0.7406  0.1218  0.5552
 3082SOL    HW120705   4.542   1.950   8.395 -1.1346  0.7265 -1.1773
 3082SOL    HW220706   4.657   1.996   8.470  2.0745  0.1292 -2.7867
 3083SOL     OW20707   1.562   0.246  15.936 -0.4006  1.2927  0.0619
 3083SOL    HW120708   1.468   0.258  15.953 -0.1886  0.3716  1.8120
 3083SOL    HW220709   1.592   0.299  16.010  0.6870  1.2880 -0.3775
 3084SOL     OW20710   1.829   3.769   6.750  0.1528 -0.1107  0.2048
 3084SOL    HW120711   1.790   3.853   6.772 -1.6803 -0.7174 -0.6793
 3084SOL    HW220712   1.866   3.748   6.836  1.3850 -1.1272 -0.5734
 3085SOL     OW20713   3.390   3.604  15.875 -0.2187 -0.6853  0.2617
 3085SOL    HW120714   3.418   3.692  15.848 -1.0373 -0.1282  1.2263
 3085SOL    HW220715   3.476   3.564  15.885  0.2768 -0.3081 -2.4797
 3086SOL     OW20716   4.687   3.375   2.365 -0.0460 -0.1924 -0.4506
 3086SOL    HW120717   4.721   3.464   2.358  0.7582 -0.6900 -2.8691
 3086SOL    HW220718   0.031   3.337   2.418  0.5528  1.3642 -0.1428
 3087SOL     OW20719   4.352   2.743   5.829  0.4428 -0.3089  0.1062
 3087SOL    HW120720   4.289   2.813   5.810  1.3089 -0.1009 -1.9328
 3087SOL    HW220721   4.425   2.802   5.847 -1.4416  2.3728 -0.8965
 3088SOL     OW20722   1.082   2.197   4.451  0.1905 -0.5099  0.2292
 3088SOL    HW120723   1.110   2.133   4.386  0.5910 -0.3603  0.2549
 3088SOL    HW220724   1.069   2.133   4.521 -2.6070  1.9545  1.9640
 3089SOL     OW20725   3.887   3.297   5.479 -0.2655 -0.0907  0.3778
 3089SOL    HW120726   3.872   3.247   5.559  0.4257  0.0473  0.5961
 3089SOL    HW220727   3.802   3.340   5.481  0.5022  1.5670 -2.3933
 3090SOL     OW20728   3.161   3.045   0.728  0.3338  0.2167  0.4285
 3090SOL    HW120729   3.176   2.970   0.670 -1.9939 -0.3627  0.5549
 3090SOL    HW220730   3.076   3.027   0.769  0.4413 -1.2114  0.0447
 3091SOL     OW20731   0.438   3.725   7.572 -0.2613 -0.4322 -0.4819
 3091SOL    HW120732   0.489   3.740   7.651 -0.8093  0.5281 -0.3064
 3091SOL    HW220733   0.499   3.684   7.511  0.3292 -2.1515  1.2921
 3092SOL     OW20734   0.850   3.628   8.126  0.1564  0.1370  0.4049
 3092SOL    HW120735   0.832   3.585   8.210 -1.3109 -1.1645 -0.5649
 3092SOL    HW220736   0.877   3.714   8.156  0.6104 -0.1522  0.8353
 3093SOL     OW20737   3.168   0.351   5.468  0.5430  0.1543  0.7502
 3093SOL    HW120738   3.253   0.342   5.511  1.6787  1.1683 -1.2466
 3093SOL    HW220739   3.119   0.394   5.538 -1.2539 -0.0405 -0.3977
 3094SOL     OW20740   3.044   3.196  14.196  0.1504 -0.2249  0.0368
 3094SOL    HW120741   2.964   3.248  14.191  1.3419  1.3711 -2.4040
 3094SOL    HW220742   3.099   3.254  14.145 -2.5565  0.3649 -2.1898
 3095SOL     OW20743   2.340   1.754  10.354  0.0985  0.8885  0.0031
 3095SOL    HW120744   2.336   1.664  10.321 -1.2439  2.0851 -3.1580
 3095SOL    HW220745   2.249   1.782  10.341 -0.3641 -0.9474 -0.6736
 3096SOL     OW20746   1.372   2.169   4.516  0.3110  0.3651  0.0250
 3096SOL    HW120747   1.455   2.125   4.498 -0.4828 -0.9640 -0.3539
 3096SOL    HW220748   1.311   2.121   4.461 -0.1026  1.7974 -0.7533
 3097SOL     OW20749   0.085   4.083   2.324  0.6105  0.0672 -0.0828
 3097SOL    HW120750   0.113   3.996   2.353 -2.3470 -0.4056  1.3743
 3097SOL    HW220751   0.121   4.088   2.236  2.9097 -1.6968  0.7659
 3098SOL     OW20752   1.581   1.059  17.455  0.0228 -0.2402 -0.0958
 3098SOL    HW120753   1.604   1.139  17.409  1.1223  0.2410  1.2740
 3098SOL    HW220754   1.607   1.076  17.546 -0.6409 -0.8557  0.2093
 3099SOL     OW20755   4.639   1.445   2.817  0.1741  0.6419 -0.3418
 3099SOL    HW120756   4.720   1.398   2.839 -1.2381 -0.6441  2.0944
 3099SOL    HW220757   4.674   1.534   2.810  1.2630  0.0599 -2.3335
 3100SOL     OW20758   1.737   2.758   1.345  0.7572  0.3533 -0.6139
 3100SOL    HW120759   1.740   2.854   1.335  2.0335  0.2753 -1.0049
 3100SOL    HW220760   1.791   2.739   1.268 -1.6505 -2.5301 -1.5310
 3101SOL     OW20761   1.045   2.931   5.844  0.0420 -0.2203  0.1887
 3101SOL    HW120762   1.082   3.007   5.799 -0.6143  0.5923  1.0361
 3101SOL    HW220763   1.111   2.862   5.836 -1.8884 -1.8674 -1.6766
 3102SOL     OW20764   0.107   1.594  17.155 -0.6800  0.2100  0.1953
 3102SOL    HW120765   0.185   1.644  17.180 -1.0945  0.4134  1.0961
 3102SOL    HW220766   0.057   1.587  17.237  0.8688 -3.6125  0.8245
 3103SOL     OW20767   4.602   0.829  11.048 -0.0263  0.1811  0.4161
 3103SOL    HW120768   4.587   0.861  10.959  0.8264  0.0761  0.2394
 3103SOL    HW220769   4.663   0.897  11.077 -0.6386  0.5543  0.8275
 3104SOL     OW20770   3.476   0.977   9.042 -0.2240  0.2942  0.1782
 3104SOL    HW120771   3.518   1.062   9.056 -0.0703 -0.2084  2.7690
 3104SOL    HW220772   3.465   0.951   9.133  1.8532 -0.5611  0.1981
 3105SOL     OW20773   0.672   3.216   8.458  0.0720  0.2421  0.1103
 3105SOL    HW120774   0.606   3.261   8.510  0.5858  0.8416  0.2453
 3105SOL    HW220775   0.662   3.122   8.474  1.9281 -0.0839 -0.5348
 3106SOL     OW20776   0.983   3.167   4.644  0.4032 -0.4807 -0.7113
 3106SOL    HW120777   1.037   3.107   4.695  0.6691  1.7304  1.6129
 3106SOL    HW220778   0.895   3.131   4.643  1.2835 -2.7019  0.9747
 3107SOL     OW20779   2.820   0.433   4.811  0.5560 -0.3697  0.6448
 3107SOL    HW120780   2.878   0.407   4.738 -1.1176 -2.5666  0.0963
 3107SOL    HW220781   2.837   0.359   4.869 -1.1571  0.4885  2.2055
 3108SOL     OW20782   4.413   0.814  17.241  0.0735  0.3439  0.1244
 3108SOL    HW120783   4.485   0.861  17.198  0.6028  1.0045  1.7446
 3108SOL    HW220784   4.353   0.879  17.278 -0.1519  1.1652 -1.6674
 3109SOL     OW20785   3.891   3.423  12.232  0.2275 -0.1492 -0.2281
 3109SOL    HW120786   3.819   3.417  12.295  0.4813  0.5288  0.1355
 3109SOL    HW220787   3.876   3.353  12.169 -0.2093  0.2286 -0.5411
 3110SOL     OW20788   0.136   3.134   3.480  0.4363 -0.0269 -0.1901
 3110SOL    HW120789   0.168   3.046   3.459  0.6348 -0.2681  1.0841
 3110SOL    HW220790   0.201   3.183   3.429  0.5268 -0.6571 -0.6724
 3111SOL     OW20791   2.529   1.652   7.536 -0.3560 -0.1633 -0.2290
 3111SOL    HW120792   2.597   1.645   7.604  0.7497 -0.0400 -1.3294
 3111SOL    HW220793   2.576   1.603   7.469 -3.1257 -2.2683 -0.6105
 3112SOL     OW20794   4.187   2.588   3.328  0.0128 -0.5266 -0.4680
 3112SOL    HW120795   4.231   2.551   3.252  1.7163 -0.7916  0.6320
 3112SOL    HW220796   4.099   2.554   3.309 -0.8219 -0.0863  2.5849
 3113SOL     OW20797   0.695   0.431  11.608  0.3004  0.4411  0.0198
 3113SOL    HW120798   0.647   0.425  11.525 -0.3161  0.3932  0.3796
 3113SOL    HW220799   0.779   0.460  11.571  1.0102 -0.3863  1.0149
 3114SOL     OW20800   1.344   4.673   8.002 -0.4275  0.4742 -0.4283
 3114SOL    HW120801   1.394   4.610   8.053 -1.1815  0.1923 -0.0342
 3114SOL    HW220802   1.314   0.001   8.075  0.0738  0.2537 -0.0674
 3115SOL     OW20803   0.520   2.032  14.979 -0.2953  0.2159  0.0304
 3115SOL    HW120804   0.515   1.949  15.026  2.8676 -0.5834 -1.0420
 3115SOL    HW220805   0.473   2.011  14.899  1.1905  0.2701 -0.8459
 3116SOL     OW20806   2.621   1.702   1.866  0.2838  0.8184 -0.2691
 3116SOL    HW120807   2.591   1.741   1.784 -1.7068 -0.7018 -0.2600
 3116SOL    HW220808   2.632   1.608   1.851 -2.3102  0.8432 -2.3645
 3117SOL     OW20809   0.408   4.405  15.281 -0.6042  0.1457  0.5509
 3117SOL    HW120810   0.326   4.386  15.236  0.1452 -3.6485  0.8254
 3117SOL    HW220811   0.471   4.369  15.218  0.0460 -1.9678  2.4422
 3118SOL     OW20812   0.042   0.287   3.382  0.0607  0.0329 -0.1219
 3118SOL    HW120813   0.134   0.300   3.360 -0.3856  0.6151 -1.6308
 3118SOL    HW220814   0.007   0.269   3.295 -0.0572 -0.1251 -0.0410
 3119SOL     OW20815   1.656   0.174   4.128 -0.2586 -0.2069 -0.6197
 3119SOL    HW120816   1.660   0.101   4.065 -0.8663 -1.7026  1.0777
 3119SOL    HW220817   1.663   0.257   4.081 -0.7284 -0.7421 -1.6257
 3120SOL     OW20818   3.514   0.057   4.363 -0.3005  0.1361 -0.7042
 3120SOL    HW120819   3.559   0.064   4.279 -1.2685  2.5383 -0.9942
 3120SOL    HW220820   3.487   4.691   4.362 -1.3378  0.4522 -1.6130
 3121SOL     OW20821   2.115   4.109   5.184  0.6130 -0.2079 -0.1508
 3121SOL    HW120822   2.171   4.146   5.253 -1.2648  2.7151 -0.1662
 3121SOL    HW220823   2.156   4.162   5.116 -0.0939 -0.7630 -1.0025
 3122SOL     OW20824   0.006   0.230   7.892  0.5207 -0.3476  0.2974
 3122SOL    HW120825   4.690   0.215   7.977  2.3370  0.6039  1.3391
 3122SOL    HW220826   4.669   0.179   7.840  0.6350 -0.6557  0.4574
 3123SOL     OW20827   4.267   4.182  14.903 -0.1520  0.4681 -0.3882
 3123SOL    HW120828   4.259   4.087  14.890 -2.5947  1.0092 -2.7484
 3123SOL    HW220829   4.335   4.208  14.841  0.4443 -1.5975 -0.6009
 3124SOL     OW20830   2.615   0.896   6.667  0.3047  0.1564 -0.1292
 3124SOL    HW120831   2.586   0.806   6.654  1.1509 -0.1561  0.1172
 3124SOL    HW220832   2.653   0.876   6.752  2.3815  1.2935 -0.7830
 3125SOL     OW20833   3.451   2.147   5.276  0.1464 -0.2257  0.6302
 3125SOL    HW120834   3.510   2.080   5.240  0.8775  1.5766 -1.5003
 3125SOL    HW220835   3.484   2.225   5.233  0.9461 -0.2347  1.2264
 3126SOL     OW20836   1.577   0.287   0.520 -0.7817  0.0694 -0.2489
 3126SOL    HW120837   1.617   0.217   0.571  0.4032 -0.4645 -1.9095
 3126SOL    HW220838   1.501   0.313   0.573 -1.9392 -0.4662 -1.6491
 3127SOL     OW20839   1.732   1.740   7.431 -0.1053 -0.2224 -0.1318
 3127SOL    HW120840   1.740   1.825   7.475  1.3354 -0.7596  0.6149
 3127SOL    HW220841   1.663   1.701   7.485  0.7452  0.6926  1.5946
 3128SOL     OW20842   3.001   1.775   5.059  0.6673 -0.2183  0.0665
 3128SOL    HW120843   3.086   1.811   5.086  0.3249  1.1205 -0.6956
 3128SOL    HW220844   3.018   1.734   4.974 -2.8713 -2.6098  0.5007
 3129SOL     OW20845   3.018   2.817   4.244 -0.1872 -0.0552  0.1119
 3129SOL    HW120846   2.996   2.724   4.257  0.5485 -0.0809  1.1793
 3129SOL    HW220847   3.113   2.807   4.243 -0.2833 -1.0471  1.1753
 3130SOL     OW20848   1.324   4.706   5.319  0.1690  0.6513  0.1523
 3130SOL    HW120849   1.323   4.702   5.414  0.8285 -2.5786  0.0399
 3130SOL    HW220850   1.419   4.708   5.305  0.2192 -2.5972 -0.0731
 3131SOL     OW20851   2.088   2.671   1.240  0.3651  0.1590  0.5952
 3131SOL    HW120852   2.171   2.633   1.211  0.0658 -1.2242  1.5168
 3131SOL    HW220853   2.050   2.602   1.295  1.4668 -2.2354 -1.6704
 3132SOL     OW20854   4.162   0.545   1.034 -0.4988  0.2416 -0.0064
 3132SOL    HW120855   4.081   0.510   1.071 -0.8550 -0.4592 -1.4329
 3132SOL    HW220856   4.137   0.610   0.968 -0.3879  2.0462  1.7207
 3133SOL     OW20857   1.306   2.950   8.910  0.8168  0.2516 -0.0672
 3133SOL    HW120858   1.303   3.013   8.982 -4.4212  0.3875 -0.4068
 3133SOL    HW220859   1.242   2.884   8.936 -0.3316  1.9244  1.3728
 3134SOL     OW20860   0.588   4.220  15.150  0.1658  0.2507 -0.2964
 3134SOL    HW120861   0.612   4.129  15.136 -0.0146 -0.0015  1.0101
 3134SOL    HW220862   0.590   4.263  15.064 -0.7363  0.5802 -0.1512
 3135SOL     OW20863   0.384   0.052   6.060 -0.1198 -0.0941 -0.2455
 3135SOL    HW120864   0.294   0.018   6.065 -0.2718  0.4387  0.5778
 3135SOL    HW220865   0.381   0.140   6.098  0.0833  0.2214 -0.9727
 3136SOL     OW20866   4.721   0.559   1.451 -1.2307  0.0523  0.5041
 3136SOL    HW120867   4.671   0.631   1.413 -1.5841 -0.5847 -0.2587
 3136SOL    HW220868   0.010   0.593   1.539  2.2337 -0.0728 -0.0425
 3137SOL     OW20869   1.793   3.130  13.155  0.2445 -0.0623 -0.5028
 3137SOL    HW120870   1.717   3.081  13.185  0.8990 -0.9304 -0.2513
 3137SOL    HW220871   1.777   3.216  13.193 -1.8387  0.0404 -1.5940
 3138SOL     OW20872   3.950   3.904   2.871  0.0932  0.6386  0.4163
 3138SOL    HW120873   4.037   3.940   2.856  0.5744 -0.1866  1.2194
 3138SOL    HW220874   3.967   3.811   2.888  1.0392  0.8747  0.7889
 3139SOL     OW20875   0.392   0.678  15.018  0.5407  0.5751 -0.3021
 3139SOL    HW120876   0.318   0.621  14.995  0.5491  1.4337 -2.5405
 3139SOL    HW220877   0.431   0.630  15.091  0.3685  1.4398  0.3598
 3140SOL     OW20878   2.476   1.539   0.324 -0.5408 -0.3850  0.8136
 3140SOL    HW120879   2.539   1.577   0.386 -0.6278  1.4504 -0.2205
 3140SOL    HW220880   2.530   1.498   0.257 -0.2529  0.6005  0.4406
 3141SOL     OW20881   0.308   0.807  12.796  0.4212  0.5858  0.1549
 3141SOL    HW120882   0.260   0.888  12.779 -1.5223 -0.2692  1.6078
 3141SOL    HW220883   0.320   0.779  12.705 -1.7981  0.1496  0.0026
 3142SOL     OW20884   1.014   2.204   0.651 -0.2595 -0.2518 -0.2137
 3142SOL    HW120885   1.088   2.202   0.590 -0.2919 -3.2526 -0.1569
 3142SOL    HW220886   1.005   2.298   0.663  1.4603  0.1168 -1.8742
 3143SOL     OW20887   2.169   3.252  14.738  0.9217  0.5996  0.4322
 3143SOL    HW120888   2.101   3.312  14.769  0.0602 -0.3231  0.3068
 3143SOL    HW220889   2.229   3.314  14.697  2.2157  0.6650  2.4199
 3144SOL     OW20890   0.523   3.378   1.694  0.3459  0.8436  0.4916
 3144SOL    HW120891   0.595   3.425   1.737 -0.7128  1.1046  1.9708
 3144SOL    HW220892   0.542   3.286   1.715  1.3150  0.7984 -0.5930
 3145SOL     OW20893   0.077   2.046   2.293 -0.2304  0.3363 -0.1264
 3145SOL    HW120894   0.128   1.979   2.249  0.3223 -0.5287  1.8089
 3145SOL    HW220895   0.005   2.043   2.230  0.5443 -1.1457 -0.9343
 3146SOL     OW20896   2.006   3.107   8.798  0.2282 -0.0777 -0.1663
 3146SOL    HW120897   1.928   3.052   8.804  0.4795 -0.2646  1.4108
 3146SOL    HW220898   2.036   3.077   8.713 -2.8226 -0.8491 -0.9571
 3147SOL     OW20899   0.839   3.628   3.692  0.1670 -0.5428 -0.1973
 3147SOL    HW120900   0.920   3.611   3.645  1.9608 -0.3064  2.7956
 3147SOL    HW220901   0.861   3.698   3.753 -2.5617 -0.5932  0.8638
 3148SOL     OW20902   3.404   1.403   3.375 -0.0557 -0.6192 -0.0487
 3148SOL    HW120903   3.469   1.356   3.322  1.3165  0.7889  0.4123
 3148SOL    HW220904   3.457   1.427   3.451 -1.1406  0.1997  0.4505
 3149SOL     OW20905   2.157   0.820   7.626 -0.1529  0.2824  0.1762
 3149SOL    HW120906   2.122   0.892   7.679 -2.0722 -0.3639 -0.2411
 3149SOL    HW220907   2.252   0.833   7.618  0.2381 -3.5412 -1.1409
 3150SOL     OW20908   3.527   0.719  14.968  0.3635 -0.4035  0.1646
 3150SOL    HW120909   3.520   0.636  14.921  0.2292 -0.4701  0.3038
 3150SOL    HW220910   3.598   0.759  14.918  0.9489  0.6466  1.8451
 3151SOL     OW20911   0.248   4.595  17.424 -0.5834 -0.3049 -0.3066
 3151SOL    HW120912   0.267   4.542  17.347  1.5867 -1.8635  1.2966
 3151SOL    HW220913   0.326   4.589  17.479 -0.0922  0.7160 -0.8932
 3152SOL     OW20914   0.511   0.745   4.271  0.3369  0.1565 -0.6508
 3152SOL    HW120915   0.595   0.702   4.286 -0.9003 -2.3407 -0.7747
 3152SOL    HW220916   0.471   0.667   4.232 -1.1763 -0.1131  1.4209
 3153SOL     OW20917   1.906   1.225  17.676 -0.1077  0.4756  0.0134
 3153SOL    HW120918   1.838   1.192   0.030 -0.5128 -0.2038 -0.8342
 3153SOL    HW220919   1.985   1.241   0.023  1.7556 -1.2127 -2.3292
 3154SOL     OW20920   4.467   1.053   4.632 -0.0238  0.4161  0.5629
 3154SOL    HW120921   4.470   1.109   4.709 -1.6563  0.3861  0.6449
 3154SOL    HW220922   4.377   1.021   4.623  0.2042  0.1727 -0.8053
 3155SOL     OW20923   1.897   2.288   1.449 -0.0571 -0.6822 -0.2921
 3155SOL    HW120924   1.938   2.265   1.366  0.8186 -1.6856  0.4118
 3155SOL    HW220925   1.877   2.199   1.479 -2.5828 -0.6607 -1.9061
 3156SOL     OW20926   0.263   1.844   8.168 -0.3489 -0.0942  0.0735
 3156SOL    HW120927   0.237   1.881   8.083 -0.6276  1.2570  0.7556
 3156SOL    HW220928   0.355   1.819   8.164 -0.0339  0.9308  1.1160
 3157SOL     OW20929   0.546   4.097   7.968 -0.2730 -0.3846 -0.3035
 3157SOL    HW120930   0.584   4.178   7.934 -2.8727  0.7340 -0.5485
 3157SOL    HW220931   0.486   4.075   7.897  1.0820  0.2744 -1.6511
 3158SOL     OW20932   2.911   4.619   9.616 -0.2440  0.1683 -0.1744
 3158SOL    HW120933   2.836   4.645   9.669  0.0131  1.3452 -0.3949
 3158SOL    HW220934   2.923   4.525   9.631 -1.9999  0.1751  1.2522
 3159SOL     OW20935   1.483   1.159   8.918 -0.2101  0.2672 -0.3382
 3159SOL    HW120936   1.523   1.161   9.005 -1.5916 -1.6953  0.3298
 3159SOL    HW220937   1.390   1.164   8.938 -0.0951  0.1498  0.2364
 3160SOL     OW20938   3.873   4.197   1.262 -0.2758 -0.3398  0.3744
 3160SOL    HW120939   3.820   4.122   1.289 -2.0567  1.1841  1.1166
 3160SOL    HW220940   3.926   4.207   1.341  1.8964  2.1055 -1.3979
 3161SOL     OW20941   1.012   1.414  15.478 -0.2195  0.5520  0.9325
 3161SOL    HW120942   1.065   1.488  15.447 -2.1925  1.2647 -0.8111
 3161SOL    HW220943   1.077   1.374  15.535 -0.7323 -1.0023  0.4273
 3162SOL     OW20944   0.920   0.774   4.215  0.0245  0.2810 -0.3323
 3162SOL    HW120945   0.863   0.848   4.193  0.5073 -0.0319 -2.6257
 3162SOL    HW220946   0.977   0.810   4.282 -0.8333  0.2461  0.4103
 3163SOL     OW20947   1.483   3.566   4.695 -0.1707 -0.1695  0.2623
 3163SOL    HW120948   1.539   3.631   4.653 -0.2112 -0.1877  0.1802
 3163SOL    HW220949   1.409   3.617   4.727  0.5219 -0.5573  2.4767
 3164SOL     OW20950   1.966   1.652  11.141  0.3692  0.3221 -0.3871
 3164SOL    HW120951   2.028   1.704  11.091 -3.0148  2.3453 -2.4285
 3164SOL    HW220952   2.032   1.620  11.202 -0.3738  0.6443  0.5980
 3165SOL     OW20953   2.764   1.556   5.821  0.2400  0.1181  0.2528
 3165SOL    HW120954   2.711   1.631   5.848  0.1764 -0.3362  1.3853
 3165SOL    HW220955   2.787   1.589   5.734  0.9304  1.5106  0.9504
 3166SOL     OW20956   1.235   2.002   8.998 -0.0573  0.2492  0.1302
 3166SOL    HW120957   1.281   1.930   8.956 -1.5362  0.8253 -2.4521
 3166SOL    HW220958   1.143   1.985   8.979  0.3964 -1.4338 -0.4926
 3167SOL     OW20959   0.434   4.612   0.397  0.0297  0.0409 -0.2518
 3167SOL    HW120960   0.410   4.621   0.489 -2.5984 -1.5868 -0.7619
 3167SOL    HW220961   0.487   4.533   0.406 -2.0885 -1.5044 -1.2166
 3168SOL     OW20962   0.423   1.616   5.500  0.0010 -0.0660  0.2384
 3168SOL    HW120963   0.500   1.595   5.446 -2.0039  0.1726 -2.7161
 3168SOL    HW220964   0.440   1.707   5.525 -1.0666 -0.4384  2.2867
 3169SOL     OW20965   1.658   0.977   2.138  0.1521  0.2898  0.8677
 3169SOL    HW120966   1.752   0.994   2.140  0.2544 -0.0674 -1.1679
 3169SOL    HW220967   1.672   0.899   2.084  2.2447  0.0877  1.7062
 3170SOL     OW20968   2.757   1.450  12.572 -0.4570  0.6462  0.2285
 3170SOL    HW120969   2.811   1.528  12.585  0.2279  0.0833  0.7912
 3170SOL    HW220970   2.795   1.422  12.489 -1.3115  0.9104 -0.2507
 3171SOL     OW20971   3.306   2.041   3.302  0.0574 -0.1504 -0.2895
 3171SOL    HW120972   3.247   2.018   3.374  0.1025  0.3453 -0.0956
 3171SOL    HW220973   3.381   1.985   3.321 -0.1010  0.3302  1.7433
 3172SOL     OW20974   1.629   0.858   6.668 -0.1965 -0.6282  0.2333
 3172SOL    HW120975   1.723   0.858   6.682 -0.4088  0.8276  1.6319
 3172SOL    HW220976   1.614   0.766   6.644  1.6802  0.0207 -3.4944
 3173SOL     OW20977   4.117   4.182  15.121  0.2806  0.3726 -0.1179
 3173SOL    HW120978   4.184   4.163  15.055 -0.5579  1.2109 -1.2032
 3173SOL    HW220979   4.078   4.266  15.095  1.0644  0.8000  0.0730
 3174SOL     OW20980   0.220   3.444   7.632 -0.2484  0.3109 -0.1436
 3174SOL    HW120981   0.143   3.480   7.676 -0.0682  0.5538 -0.0213
 3174SOL    HW220982   0.291   3.498   7.668 -0.0246 -0.0386 -0.0600
 3175SOL     OW20983   2.980   0.717   5.402  0.6034 -0.1263  0.9454
 3175SOL    HW120984   3.045   0.768   5.449  0.2376  0.1983  1.0978
 3175SOL    HW220985   2.905   0.733   5.460  1.5686  1.3898  1.7624
 3176SOL     OW20986   2.895   0.893   9.141 -0.2075  0.1743  0.5022
 3176SOL    HW120987   2.950   0.817   9.119 -0.9176 -0.5320  1.2052
 3176SOL    HW220988   2.828   0.843   9.186 -0.2477  0.3298  0.6156
 3177SOL     OW20989   0.642   2.218   6.406 -0.0172  0.3218  0.1400
 3177SOL    HW120990   0.688   2.154   6.352 -3.5802 -1.2713 -0.9562
 3177SOL    HW220991   0.644   2.186   6.496  2.4562  0.8613  0.2902
 3178SOL     OW20992   0.328   3.384  13.344  0.5232 -0.1558 -0.2769
 3178SOL    HW120993   0.275   3.361  13.268 -1.4816  0.2881  0.9881
 3178SOL    HW220994   0.271   3.354  13.415 -0.4144  3.1750  0.3823
 3179SOL     OW20995   1.979   2.301   6.639 -0.5087 -0.3686  0.3353
 3179SOL    HW120996   1.930   2.363   6.692  0.0150  0.2319  0.1142
 3179SOL    HW220997   2.065   2.311   6.682  1.4571 -1.6103 -3.3054
 3180SOL     OW20998   1.547   2.992  12.352  0.1742  0.2960 -0.7356
 3180SOL    HW120999   1.455   2.996  12.376  0.4222  0.9619  0.1039
 3180SOL    HW221000   1.550   2.990  12.257  1.3418  1.6265 -0.7341
 3181SOL     OW21001   1.581   3.103  16.916  0.2317 -0.2442  0.0763
 3181SOL    HW121002   1.606   3.177  16.972 -2.5809  0.3707  0.5440
 3181SOL    HW221003   1.505   3.142  16.872 -0.4943  0.8980  2.3367
 3182SOL     OW21004   1.327   3.705   4.332 -0.0644  0.0550 -0.7024
 3182SOL    HW121005   1.406   3.672   4.289  1.3186 -0.6683  2.3883
 3182SOL    HW221006   1.274   3.629   4.353  2.8720 -1.6673  0.4625
 3183SOL     OW21007   3.885   2.254  15.103  0.1483  0.5024 -0.3106
 3183SOL    HW121008   3.872   2.331  15.157  0.2664  1.6776 -1.9597
 3183SOL    HW221009   3.952   2.286  15.043  0.4578  0.7332  0.1599
 3184SOL     OW21010   0.240   2.980  10.406  0.1080  0.2503 -0.1066
 3184SOL    HW121011   0.233   3.044  10.477 -2.3912  3.2117 -3.0226
 3184SOL    HW221012   0.207   3.033  10.333 -0.8156 -2.2141 -1.5049
 3185SOL     OW21013   0.549   3.525  12.509 -0.9332 -0.5364  0.6422
 3185SOL    HW121014   0.488   3.566  12.448  1.2103  0.3911 -0.8616
 3185SOL    HW221015   0.618   3.522  12.444  0.8125  3.1107  2.3130
 3186SOL     OW21016   1.193   3.613   3.805 -0.8308 -0.2924  0.1744
 3186SOL    HW121017   1.122   3.598   3.868 -0.0261 -1.1144  0.8800
 3186SOL    HW221018   1.178   3.702   3.775  1.6267 -0.4454 -1.5514
 3187SOL     OW21019   0.271   0.130   0.080  0.1917  0.1060  0.6104
 3187SOL    HW121020   0.345   0.078   0.112  3.1110  4.8247  1.7039
 3187SOL    HW221021   0.285   0.135  17.691 -1.2106 -2.8806  0.2782
 3188SOL     OW21022   0.134   2.172  17.416  0.1479 -0.3732 -0.5240
 3188SOL    HW121023   0.088   2.115  17.355 -2.2323  0.7609  0.2383
 3188SOL    HW221024   0.142   2.257  17.371  1.3674 -1.1901 -1.8814
 3189SOL     OW21025   0.046   3.196   0.398 -0.2880 -0.3631  0.5875
 3189SOL    HW121026   0.081   3.238   0.477 -1.6473  0.0015  1.0020
 3189SOL    HW221027   0.124   3.154   0.362 -1.4202 -1.2479 -0.8229
 3190SOL     OW21028   0.117   0.489   7.086  0.3692  0.1677  0.2753
 3190SOL    HW121029   0.174   0.534   7.148 -0.1300 -0.0410  0.8868
 3190SOL    HW221030   0.116   0.549   7.011  0.2178 -0.3170 -0.1114
 3191SOL     OW21031   3.399   0.715  10.594  0.1548 -0.0343 -0.1914
 3191SOL    HW121032   3.347   0.638  10.571  0.0063 -0.3151  1.0457
 3191SOL    HW221033   3.326   0.759  10.638 -0.3642  1.3144 -2.4220
 3192SOL     OW21034   4.454   4.194  15.884  0.0339  0.5417  0.1530
 3192SOL    HW121035   4.489   4.141  15.813 -1.7393 -0.4406  0.0051
 3192SOL    HW221036   4.523   4.260  15.877 -0.5389  1.1568  0.2730
 3193SOL     OW21037   3.683   4.047   1.405  0.1617  0.0708 -0.2802
 3193SOL    HW121038   3.744   3.975   1.389 -2.1385 -1.6107 -1.4681
 3193SOL    HW221039   3.604   4.003   1.375  0.5716 -0.0038 -1.2650
 3194SOL     OW21040   4.570   2.464  12.366  0.4558 -0.0403  0.0403
 3194SOL    HW121041   4.599   2.437  12.453 -3.7966 -2.8950  0.5497
 3194SOL    HW221042   4.483   2.485  12.398  1.0068 -0.9349  2.1067
 3195SOL     OW21043   4.106   2.378   6.201  0.3696 -0.5435 -0.2675
 3195SOL    HW121044   4.137   2.358   6.113  1.4585  0.9108 -0.2154
 3195SOL    HW221045   4.067   2.464   6.188 -0.8999 -1.1339 -0.3022
 3196SOL     OW21046   2.485   4.472   5.908 -0.1770  0.1625 -0.2030
 3196SOL    HW121047   2.512   4.443   5.820  2.0076 -0.2922  0.6227
 3196SOL    HW221048   2.390   4.462   5.898  0.0954  0.0653 -2.7954
 3197SOL     OW21049   3.673   0.893   5.753 -0.1107  0.1283  0.1858
 3197SOL    HW121050   3.665   0.937   5.838 -3.3933  0.6886 -0.4189
 3197SOL    HW221051   3.584   0.890   5.718 -0.1303 -0.6641  0.3130
 3198SOL     OW21052   2.836   2.323   0.338  0.3094  0.2230  0.3796
 3198SOL    HW121053   2.876   2.238   0.320  0.6017  0.4311  0.0466
 3198SOL    HW221054   2.770   2.333   0.270  1.6324  0.7840 -0.8192
 3199SOL     OW21055   1.507   3.103  13.131  0.2851 -0.5894 -0.1221
 3199SOL    HW121056   1.432   3.077  13.185  0.1453  1.1242  0.4950
 3199SOL    HW221057   1.509   3.197  13.147 -0.2041 -0.6896  0.5327
 3200SOL     OW21058   0.949   2.131   7.667 -0.3874  0.1566 -0.3348
 3200SOL    HW121059   1.029   2.096   7.707 -1.3561 -0.6630  0.8617
 3200SOL    HW221060   0.887   2.059   7.665 -0.4069  0.1510  0.3178
 3201SOL     OW21061   4.113   4.091   6.193  0.3809 -0.3841  0.0870
 3201SOL    HW121062   4.034   4.081   6.246 -0.1638 -0.4039 -0.7383
 3201SOL    HW221063   4.076   4.141   6.120 -0.6881  0.8360  1.4672
 3202SOL     OW21064   3.845   3.904   7.402  0.7746 -0.2938 -0.0480
 3202SOL    HW121065   3.841   3.976   7.465  2.2579  0.3836 -0.7220
 3202SOL    HW221066   3.880   3.953   7.327 -0.4621  0.9485  0.1826
 3203SOL     OW21067   0.605   3.434  13.388 -0.5058 -0.3763 -0.1483
 3203SOL    HW121068   0.514   3.429  13.358 -0.0978  0.7848 -1.5412
 3203SOL    HW221069   0.601   3.399  13.477 -0.6732 -0.5761 -0.2342
 3204SOL     OW21070   0.767   2.740   3.333 -0.4162  0.7513 -0.2443
 3204SOL    HW121071   0.742   2.819   3.381  0.5444  0.7327  0.2798
 3204SOL    HW221072   0.863   2.745   3.330 -0.4699  0.8925 -1.7493
 3205SOL     OW21073   4.030   2.105  12.419 -0.5409  0.4076 -0.4496
 3205SOL    HW121074   4.030   2.071  12.330 -0.1914  0.6248 -0.5296
 3205SOL    HW221075   4.041   2.024  12.469  0.0841  1.2419  0.7628
 3206SOL     OW21076   1.803   2.370   5.851 -0.4833  0.4610 -0.0213
 3206SOL    HW121077   1.810   2.321   5.769 -0.0697  1.2229 -0.4420
 3206SOL    HW221078   1.889   2.350   5.888 -1.2561 -1.6896  0.6108
 3207SOL     OW21079   4.193   3.054  15.221  0.7321  0.0154 -0.0564
 3207SOL    HW121080   4.258   2.999  15.265  1.2591 -1.1162 -2.2660
 3207SOL    HW221081   4.221   3.143  15.246  0.4503 -0.6055  2.5248
 3208SOL     OW21082   1.245   1.566   5.903  0.2917  0.1604  0.3167
 3208SOL    HW121083   1.276   1.591   5.816 -2.2175  2.2401  0.0284
 3208SOL    HW221084   1.314   1.521   5.952  1.2234  0.3228 -0.8431
 3209SOL     OW21085   2.417   2.621   7.878  0.1226  0.1180  0.0396
 3209SOL    HW121086   2.337   2.586   7.839 -0.2341 -0.5628  1.3847
 3209SOL    HW221087   2.429   2.705   7.834 -0.4845  0.2260  0.0916
 3210SOL     OW21088   1.435   0.232   3.050 -0.2438  0.0879  0.2766
 3210SOL    HW121089   1.453   0.145   3.086  2.2908  0.5703  0.2270
 3210SOL    HW221090   1.439   0.291   3.126  0.5207 -0.7152  0.8692
 3211SOL     OW21091   1.280   0.630   4.322 -0.2867  0.2503  0.6395
 3211SOL    HW121092   1.316   0.604   4.406  1.8123 -1.7353 -0.8656
 3211SOL    HW221093   1.342   0.696   4.290  1.4217 -2.0475 -0.7449
 3212SOL     OW21094   2.256   1.175   7.574 -0.4807 -0.1431  0.5054
 3212SOL    HW121095   2.285   1.206   7.660  0.5101 -0.2408  0.2044
 3212SOL    HW221096   2.339   1.182   7.527 -2.2372  0.0078 -2.5769
 3213SOL     OW21097   1.151   0.852  15.358 -0.0422  0.4317 -0.5117
 3213SOL    HW121098   1.190   0.775  15.316  0.9847  0.4557  0.4014
 3213SOL    HW221099   1.059   0.828  15.347 -0.1281  0.4853  0.0964
 3214SOL     OW21100   2.390   2.840   0.276 -0.2955 -0.1211 -0.0157
 3214SOL    HW121101   2.382   2.840   0.180  0.0607  0.0527 -0.0424
 3214SOL    HW221102   2.303   2.802   0.289 -0.2491 -0.3724 -0.4206
 3215SOL     OW21103   1.911   2.121   7.265 -0.3318 -0.1585 -0.0706
 3215SOL    HW121104   1.968   2.125   7.342  0.3521  0.0601 -0.5799
 3215SOL    HW221105   1.949   2.198   7.222 -0.2250  0.0281  0.3573
 3216SOL     OW21106   1.697   0.245   8.964  0.4668 -0.4834  0.5425
 3216SOL    HW121107   1.693   0.332   9.006  0.5032 -0.4748  0.5282
 3216SOL    HW221108   1.738   0.196   9.036  1.5895  0.7682  0.7676
 3217SOL     OW21109   4.057   1.573   2.154  0.1246 -0.0650  0.3168
 3217SOL    HW121110   3.982   1.566   2.214  0.2024 -0.4653  0.3686
 3217SOL    HW221111   4.035   1.604   2.066 -1.8881 -0.1821  0.7724
 3218SOL     OW21112   1.331   1.582   4.525 -0.3936  1.0512 -0.8333
 3218SOL    HW121113   1.297   1.646   4.588 -0.0913 -0.4205  0.8273
 3218SOL    HW221114   1.252   1.573   4.472 -1.7002 -2.8307  1.7047
 3219SOL     OW21115   3.571   1.480   8.276 -0.3662 -0.1093  0.1365
 3219SOL    HW121116   3.588   1.572   8.255 -2.2604  0.1237 -0.3807
 3219SOL    HW221117   3.509   1.458   8.206  1.4606  0.6561 -1.7088
 3220SOL     OW21118   0.320   3.540   1.794  0.8727  0.0198 -0.2113
 3220SOL    HW121119   0.402   3.499   1.765  0.4915 -1.2757  0.5213
 3220SOL    HW221120   0.286   3.569   1.709 -1.1694  0.7476  0.8577
 3221SOL     OW21121   3.274   3.313   6.096 -1.0266 -0.2747  0.0972
 3221SOL    HW121122   3.187   3.272   6.095 -0.4982 -1.4788  3.0814
 3221SOL    HW221123   3.325   3.232   6.093 -1.5121 -0.4685 -2.1963
 3222SOL     OW21124   3.375   4.517   6.487  0.5191 -0.2743  0.3999
 3222SOL    HW121125   3.314   4.580   6.448 -0.8123  0.2900  3.4404
 3222SOL    HW221126   3.457   4.561   6.463  0.2523 -0.1116 -0.2297
 3223SOL     OW21127   1.419   2.356   1.448 -0.1529  0.2507  0.7718
 3223SOL    HW121128   1.486   2.398   1.503 -0.9469 -0.5575  2.3594
 3223SOL    HW221129   1.397   2.284   1.507  0.4872 -1.3901 -0.9820
 3224SOL     OW21130   2.527   0.483   9.517 -0.3351 -0.3106  0.7158
 3224SOL    HW121131   2.589   0.422   9.558 -0.0373 -0.5061 -0.0387
 3224SOL    HW221132   2.586   0.517   9.450  0.3376 -0.8960  1.0049
 3225SOL     OW21133   1.009   2.524   2.779  0.1156 -0.7370 -0.1304
 3225SOL    HW121134   1.047   2.605   2.815 -1.7298  0.8872 -1.8430
 3225SOL    HW221135   0.917   2.531   2.805 -0.0393 -1.2428 -0.5535
 3226SOL     OW21136   3.377   2.098   7.127 -0.0778  0.3153 -0.0214
 3226SOL    HW121137   3.425   2.115   7.208  2.2075  1.0906 -1.5194
 3226SOL    HW221138   3.415   2.014   7.102  1.1475  0.6339  0.7348
 3227SOL     OW21139   2.219   1.756   7.146  0.3420 -0.3378 -0.1375
 3227SOL    HW121140   2.267   1.700   7.207  2.4119  1.1890 -0.3685
 3227SOL    HW221141   2.145   1.777   7.202  0.7433  0.1749  0.1941
 3228SOL     OW21142   2.547   1.461   9.768  0.3104 -0.8353  0.3615
 3228SOL    HW121143   2.458   1.495   9.774  0.9167  0.4602  1.8996
 3228SOL    HW221144   2.549   1.385   9.827  0.3424  0.8756  2.5618
 3229SOL     OW21145   0.174   2.884  14.249  0.4440 -0.5992 -0.0885
 3229SOL    HW121146   0.226   2.957  14.215  1.0221 -1.0209 -0.1138
 3229SOL    HW221147   0.194   2.886  14.343 -0.1137 -0.6349  0.0308
 3230SOL     OW21148   1.504   2.109   8.062  0.8258 -0.1335  0.1030
 3230SOL    HW121149   1.589   2.107   8.017  0.5733  1.7102 -0.4538
 3230SOL    HW221150   1.497   2.025   8.108  1.2651 -0.0230  0.3811
 3231SOL     OW21151   3.607   3.243   2.039 -0.3099  0.1943  0.2557
 3231SOL    HW121152   3.639   3.153   2.046 -0.1571  0.4381  2.5570
 3231SOL    HW221153   3.610   3.253   1.944  1.6052  0.9777  0.3945
 3232SOL     OW21154   0.826   0.588   9.447  0.9096  0.6342 -0.3078
 3232SOL    HW121155   0.740   0.575   9.486  0.4619  0.0221 -1.5215
 3232SOL    HW221156   0.863   0.509   9.486 -2.1168 -0.0892  1.0420
 3233SOL     OW21157   4.630   2.391  15.660 -0.0354  0.6112  0.3878
 3233SOL    HW121158   4.571   2.332  15.706  0.3833 -0.0030  0.1493
 3233SOL    HW221159   4.667   2.442  15.732 -0.7852  0.5828  0.7842
 3234SOL     OW21160   4.694   3.454   0.317 -0.2238 -0.3149 -0.3983
 3234SOL    HW121161   0.059   3.456   0.288  0.7730 -0.9699  2.6916
 3234SOL    HW221162   4.688   3.368   0.358 -1.2780 -1.3435 -2.7348
 3235SOL     OW21163   0.579   3.282   2.115 -0.0096  0.4013  0.0850
 3235SOL    HW121164   0.510   3.328   2.066  1.1896 -2.3241 -4.1383
 3235SOL    HW221165   0.644   3.351   2.127  1.5788 -0.8359 -1.4499
 3236SOL     OW21166   3.191   0.795   9.156 -0.9124  0.0107  0.1323
 3236SOL    HW121167   3.268   0.836   9.196 -2.1002  1.6004  0.7942
 3236SOL    HW221168   3.211   0.702   9.143  0.0638  0.4744 -1.6207
 3237SOL     OW21169   0.597   2.356   2.340 -0.1761  0.2994 -0.2042
 3237SOL    HW121170   0.683   2.389   2.315  0.0163  0.2962  0.4536
 3237SOL    HW221171   0.566   2.414   2.409  0.4929  0.5180 -0.0810
 3238SOL     OW21172   4.144   1.215   4.201 -0.9810 -0.1497  0.4357
 3238SOL    HW121173   4.088   1.146   4.165 -1.2767 -0.8376  2.1959
 3238SOL    HW221174   4.084   1.254   4.264 -1.0972 -0.4553  0.5138
 3239SOL     OW21175   1.109   3.817   6.789  0.9114  0.1559  0.2249
 3239SOL    HW121176   1.151   3.861   6.715 -0.5759  0.8066 -0.2384
 3239SOL    HW221177   1.065   3.886   6.839 -2.0064 -1.2512 -0.3809
 3240SOL     OW21178   3.392   0.903   9.296  0.4138 -0.6334  1.1436
 3240SOL    HW121179   3.383   0.976   9.357 -3.1786  1.4419 -1.8803
 3240SOL    HW221180   3.475   0.866   9.328 -0.3915 -3.2465  0.2118
 3241SOL     OW21181   2.538   0.495  16.083  0.0050  0.1176  0.2060
 3241SOL    HW121182   2.453   0.523  16.119 -0.4531 -1.1104  0.0830
 3241SOL    HW221183   2.568   0.441  16.156  0.4533 -1.1726 -0.9443
 3242SOL     OW21184   2.103   1.305   0.723  0.6715 -0.0743  0.1653
 3242SOL    HW121185   2.183   1.258   0.699  0.7856 -0.5582  1.4502
 3242SOL    HW221186   2.130   1.356   0.799 -0.0961  3.2046 -1.7961
 3243SOL     OW21187   2.622   0.849   2.518  1.2648  0.2832 -0.0141
 3243SOL    HW121188   2.594   0.873   2.430  0.5834  0.9872  0.3985
 3243SOL    HW221189   2.695   0.792   2.493  1.1797 -0.3981  1.3261
 3244SOL     OW21190   0.949   2.294   5.216 -0.6465  0.5772  0.2193
 3244SOL    HW121191   0.949   2.210   5.261 -0.1413 -0.3015 -1.4271
 3244SOL    HW221192   0.908   2.352   5.281 -2.5408  1.4786 -1.7715
 3245SOL     OW21193   2.814   0.367   1.615 -0.0631  0.4716  0.0657
 3245SOL    HW121194   2.896   0.413   1.631  0.9228 -1.8996  1.8528
 3245SOL    HW221195   2.831   0.314   1.537 -3.7646  0.7986 -0.9721
 3246SOL     OW21196   1.153   0.990   3.135  0.0148 -0.2968 -0.0420
 3246SOL    HW121197   1.221   1.037   3.184 -0.3448  0.1206  0.0558
 3246SOL    HW221198   1.123   0.938   3.210  0.9627 -0.4400  0.2375
 3247SOL     OW21199   1.759   0.600   8.926  0.4534 -0.2487  0.4762
 3247SOL    HW121200   1.678   0.647   8.904  1.4863 -0.7018 -4.3750
 3247SOL    HW221201   1.735   0.546   9.002  2.3139 -2.1739 -0.2903
 3248SOL     OW21202   2.287   1.177   0.425  0.2569  0.0035  0.3265
 3248SOL    HW121203   2.284   1.156   0.331  1.0992  0.4877  0.1988
 3248SOL    HW221204   2.241   1.261   0.428 -1.0581 -0.7565  1.1740
 3249SOL     OW21205   1.400   4.214   9.807 -0.1315 -0.1546  0.2798
 3249SOL    HW121206   1.436   4.176   9.727 -4.2038 -0.6050 -1.3136
 3249SOL    HW221207   1.428   4.306   9.807 -1.6475  0.2980  1.2012
 3250SOL     OW21208   3.142   4.603   7.009 -0.0048  0.0101 -0.6270
 3250SOL    HW121209   3.132   4.631   7.100  1.2949  1.5724 -0.9716
 3250SOL    HW221210   3.173   4.516   7.034 -0.3648 -0.0142 -0.2662
 3251SOL     OW21211   1.973   0.446   5.443 -0.2898 -0.3670 -0.1630
 3251SOL    HW121212   2.014   0.385   5.382  0.4454  0.6486 -0.6859
 3251SOL    HW221213   2.036   0.516   5.460 -3.4267  2.6215 -1.0540
 3252SOL     OW21214   4.428   2.104   2.600  0.3316 -0.9471 -0.1369
 3252SOL    HW121215   4.447   2.088   2.507  1.9806  0.9001 -0.1142
 3252SOL    HW221216   4.340   2.136   2.582 -0.6459 -3.1075  0.9300
 3253SOL     OW21217   0.631   2.165  13.798  0.3558 -0.2378 -0.4560
 3253SOL    HW121218   0.655   2.176  13.890  4.1917 -0.9899 -1.3661
 3253SOL    HW221219   0.715   2.163  13.753  0.2413 -3.4460 -0.5498
 3254SOL     OW21220   3.283   0.640   1.826  0.2815 -0.5597  0.2237
 3254SOL    HW121221   3.366   0.669   1.865  0.6788  0.3747 -1.3394
 3254SOL    HW221222   3.225   0.685   1.888 -0.1108 -0.0283 -0.5263
 3255SOL     OW21223   1.483   4.467   3.216  0.7893 -0.2817 -0.0836
 3255SOL    HW121224   1.391   4.487   3.201  0.6842  1.2572  2.5488
 3255SOL    HW221225   1.491   4.382   3.175  0.5894  0.4349 -1.5939
 3256SOL     OW21226   3.628   4.370   6.307 -0.2004 -0.1157 -0.4207
 3256SOL    HW121227   3.560   4.355   6.373 -0.1786 -2.4117 -0.9320
 3256SOL    HW221228   3.628   4.466   6.298  0.4990 -0.1040 -0.2987
 3257SOL     OW21229   1.597   3.827   5.791 -0.0263 -0.6308  0.3237
 3257SOL    HW121230   1.653   3.761   5.751  0.2354  0.8091 -1.6595
 3257SOL    HW221231   1.658   3.894   5.821 -1.0764  0.9807 -1.1631
 3258SOL     OW21232   1.150   2.663   6.371  0.1399 -0.0431  0.0077
 3258SOL    HW121233   1.208   2.729   6.407 -0.2108  0.2807 -0.0180
 3258SOL    HW221234   1.115   2.619   6.449  1.5172 -0.3403  0.4456
 3259SOL     OW21235   0.552   2.039   9.206  0.3678  0.1417  0.1818
 3259SOL    HW121236   0.591   2.061   9.290 -0.4152 -2.1721  1.1615
 3259SOL    HW221237   0.579   1.948   9.195 -1.2767 -0.3168 -0.0613
 3260SOL     OW21238   4.579   0.171   5.654  0.1902  0.0661  0.1064
 3260SOL    HW121239   4.663   0.152   5.696  0.1556 -0.6652 -0.1557
 3260SOL    HW221240   4.608   0.240   5.595 -0.4470 -1.4244 -1.9183
 3261SOL     OW21241   0.907   4.459   3.604  0.0096  0.0201  0.0641
 3261SOL    HW121242   0.992   4.421   3.628 -0.4730 -0.6078  0.7764
 3261SOL    HW221243   0.890   4.412   3.523 -1.7456 -1.4336  1.2845
 3262SOL     OW21244   0.701   1.885   1.669 -0.5393 -0.0270  0.0466
 3262SOL    HW121245   0.683   1.972   1.705  0.5495  0.1101  0.2626
 3262SOL    HW221246   0.610   1.857   1.672 -0.9661  1.2481 -0.9550
 3263SOL     OW21247   3.554   4.312   8.354 -0.6357 -0.4530  0.1306
 3263SOL    HW121248   3.476   4.275   8.396  0.6071 -2.2227  0.8806
 3263SOL    HW221249   3.526   4.332   8.265  2.0411 -0.1702 -0.6582
 3264SOL     OW21250   0.900   4.384   4.518  0.5827  0.0690 -0.4613
 3264SOL    HW121251   0.982   4.431   4.508  0.6444  0.2644  0.9295
 3264SOL    HW221252   0.881   4.398   4.611  0.5690 -0.2978 -0.4098
 3265SOL     OW21253   0.270   3.068  13.440  0.6186 -0.4523  0.0603
 3265SOL    HW121254   0.258   2.975  13.425 -3.6419 -0.1148  1.2281
 3265SOL    HW221255   0.363   3.087  13.449  0.8300  0.0889 -3.5215
 3266SOL     OW21256   4.224   3.184  16.294 -0.1948  0.0153  0.0391
 3266SOL    HW121257   4.210   3.152  16.204 -0.8026  1.9785 -0.5528
 3266SOL    HW221258   4.316   3.162  16.309  0.1320  1.1674 -0.3004
 3267SOL     OW21259   1.747   0.808  14.383  0.0995 -0.0739 -0.1152
 3267SOL    HW121260   1.703   0.855  14.312  1.7159  0.5721 -0.6826
 3267SOL    HW221261   1.831   0.853  14.379  0.5581 -0.8636  0.5591
 3268SOL     OW21262   0.630   0.404   4.766  0.2985 -1.1689  0.3143
 3268SOL    HW121263   0.631   0.406   4.671 -0.7882 -2.5929  0.2705
 3268SOL    HW221264   0.555   0.354   4.796 -0.7079  0.7914  1.1065
 3269SOL     OW21265   4.182   3.011  14.672  0.5463  0.2681  0.0428
 3269SOL    HW121266   4.129   2.956  14.615  3.8636 -4.3277  1.4401
 3269SOL    HW221267   4.198   2.952  14.745  1.6931  1.5708  0.8471
 3270SOL     OW21268   1.898   2.346   4.206  0.1954  0.3021  0.3849
 3270SOL    HW121269   1.935   2.266   4.242 -2.8665 -1.0622  0.4625
 3270SOL    HW221270   1.925   2.407   4.275 -0.3463  0.2804  0.6112
 3271SOL     OW21271   1.500   4.538   4.662 -0.3401  0.0742  0.6567
 3271SOL    HW121272   1.531   4.611   4.716  0.0845 -0.6764  1.4294
 3271SOL    HW221273   1.513   4.464   4.721  1.7907  1.0643  1.4408
 3272SOL     OW21274   0.149   0.067   4.371  0.1563  0.2238 -0.1672
 3272SOL    HW121275   0.135   0.019   4.453  0.2714  2.6426  1.2700
 3272SOL    HW221276   0.242   0.048   4.363 -0.0556 -0.0554 -1.9901
 3273SOL     OW21277   3.581   1.858   2.576  0.0121 -0.5322  0.1563
 3273SOL    HW121278   3.554   1.768   2.556  0.7870 -0.8526  0.5534
 3273SOL    HW221279   3.666   1.847   2.619  0.7432  0.5363 -1.0255
 3274SOL     OW21280   3.125   0.471  16.656  1.4963  0.3374 -0.0836
 3274SOL    HW121281   3.172   0.388  16.668  1.2484  0.4046  1.3608
 3274SOL    HW221282   3.114   0.468  16.561 -0.3597  0.3614  0.1303
 3275SOL     OW21283   0.959   3.610   6.870 -0.0173 -0.3727 -0.4326
 3275SOL    HW121284   0.994   3.542   6.812 -2.0609  0.7436 -3.0020
 3275SOL    HW221285   1.000   3.689   6.833 -1.1981  0.8216  0.8156
 3276SOL     OW21286   3.069   4.025   3.728  0.3354  0.2250 -0.1528
 3276SOL    HW121287   3.068   3.965   3.653 -2.6964 -0.9539  0.8288
 3276SOL    HW221288   2.974   4.030   3.740  0.1654 -2.9017 -0.2396
 3277SOL     OW21289   3.220   2.129  13.848 -0.0245  0.8533  0.5672
 3277SOL    HW121290   3.129   2.132  13.818  0.0493 -0.8628  0.1697
 3277SOL    HW221291   3.215   2.107  13.941 -0.1074  0.8136  0.5529
 3278SOL     OW21292   2.973   0.078   1.693  0.4831 -0.0931  0.4465
 3278SOL    HW121293   2.957   0.011   1.627 -0.8909  0.5455  0.1397
 3278SOL    HW221294   2.985   0.020   1.769 -0.6913  1.7180  2.0070
 3279SOL     OW21295   4.273   0.314   6.854 -0.6451 -0.2468  0.1172
 3279SOL    HW121296   4.246   0.275   6.771 -1.0133  0.4499 -0.0926
 3279SOL    HW221297   4.262   0.239   6.913 -1.4908 -0.0506  0.2097
 3280SOL     OW21298   3.781   3.439   9.638  0.4432 -0.1530 -0.0937
 3280SOL    HW121299   3.735   3.429   9.555  0.4473  0.1785 -0.1338
 3280SOL    HW221300   3.760   3.354   9.678  2.7846 -0.3526  0.7135
 3281SOL     OW21301   0.676   3.992   2.531  0.1666  0.1579 -0.0952
 3281SOL    HW121302   0.763   3.956   2.514  0.4554  0.6280  0.3819
 3281SOL    HW221303   0.617   3.918   2.516 -0.5206  1.1357 -2.2386
 3282SOL     OW21304   3.654   0.196   1.948 -0.1214 -0.2666 -0.1982
 3282SOL    HW121305   3.631   0.133   2.017  0.8277  1.3411  1.6079
 3282SOL    HW221306   3.677   0.143   1.872 -1.2177  0.0971 -0.7813
 3283SOL     OW21307   4.287   0.323  13.322 -0.0035 -0.3446  0.3982
 3283SOL    HW121308   4.266   0.230  13.325  0.8104 -0.4711  2.0960
 3283SOL    HW221309   4.351   0.334  13.393  0.3605  0.6574 -0.0935
 3284SOL     OW21310   1.987   1.803   1.678  0.4578  0.1567  0.0770
 3284SOL    HW121311   2.004   1.869   1.746  2.4832 -0.8551  0.5535
 3284SOL    HW221312   1.908   1.762   1.716  0.3840 -1.1857 -1.5361
 3285SOL     OW21313   1.865   1.746   2.022 -1.1427 -0.4527 -0.0590
 3285SOL    HW121314   1.943   1.695   2.046 -1.6414 -0.1559  2.2107
 3285SOL    HW221315   1.823   1.764   2.106 -1.5093  2.3643 -0.8464
 3286SOL     OW21316   1.483   1.243   7.620 -0.6562 -0.5899  0.4896
 3286SOL    HW121317   1.494   1.221   7.527 -0.3664 -0.3814  0.4747
 3286SOL    HW221318   1.558   1.201   7.663  1.1054 -0.2234 -2.2439
 3287SOL     OW21319   1.785   1.617  14.849 -0.2030  0.0405 -0.2636
 3287SOL    HW121320   1.762   1.611  14.756  2.6561  0.5687 -1.0009
 3287SOL    HW221321   1.776   1.527  14.880  1.6476  0.5687  1.7805
 3288SOL     OW21322   2.904   0.061   4.139 -0.4673 -0.2789 -0.3391
 3288SOL    HW121323   2.869   4.702   4.113 -2.5780  0.5626 -0.3220
 3288SOL    HW221324   2.986   0.067   4.091 -0.7329 -0.6290 -0.8398
 3289SOL     OW21325   4.464   2.430   4.135 -0.2055 -0.2578 -0.0874
 3289SOL    HW121326   4.551   2.437   4.096 -0.6348 -0.4853 -1.0796
 3289SOL    HW221327   4.448   2.524   4.146 -1.3616 -0.4331 -0.1721
 3290SOL     OW21328   2.737   1.689   7.873 -0.6737 -0.1795  0.3310
 3290SOL    HW121329   2.701   1.763   7.825  1.4946 -0.1033 -1.1717
 3290SOL    HW221330   2.815   1.729   7.911 -0.8385 -0.5481  1.0679
 3291SOL     OW21331   3.955   3.079   7.994 -0.1994  0.0655  0.1965
 3291SOL    HW121332   3.996   3.015   8.052  0.8839  0.2043 -0.4121
 3291SOL    HW221333   3.869   3.037   7.997 -0.5605  0.8754  1.4055
 3292SOL     OW21334   4.530   0.547  12.615  0.2705  0.0402  0.3651
 3292SOL    HW121335   4.457   0.586  12.662 -1.5218 -0.8591 -1.7031
 3292SOL    HW221336   4.571   0.522  12.698 -1.5684 -1.2267  0.8918
 3293SOL     OW21337   0.879   2.987   7.340  0.4294 -0.0704 -0.6261
 3293SOL    HW121338   0.820   3.054   7.373 -0.0215 -1.6799  1.8034
 3293SOL    HW221339   0.958   3.031   7.307  1.5498 -0.3173  1.7169
 3294SOL     OW21340   2.751   3.268  11.101  0.1662  0.0351  0.0144
 3294SOL    HW121341   2.671   3.235  11.141  0.0175  1.5629  0.9860
 3294SOL    HW221342   2.800   3.277  11.182  2.4253 -1.2352 -1.2036
 3295SOL     OW21343   3.820   4.616   0.385 -0.0253 -0.2589 -0.7864
 3295SOL    HW121344   3.830   4.711   0.382 -1.5800 -0.0589  0.7471
 3295SOL    HW221345   3.910   4.592   0.407  0.0370  0.1466 -0.6059
 3296SOL     OW21346   0.533   3.489   5.801  0.4714 -0.1274  0.1356
 3296SOL    HW121347   0.575   3.575   5.797 -1.6018  0.9889  2.4276
 3296SOL    HW221348   0.438   3.497   5.808  0.2326 -1.4793 -1.7102
 3297SOL     OW21349   2.236   0.628  14.672 -0.3520 -0.3100 -0.1003
 3297SOL    HW121350   2.214   0.549  14.721  0.6527 -0.0266  0.7978
 3297SOL    HW221351   2.189   0.618  14.589 -1.2845  1.8872  0.1614
 3298SOL     OW21352   1.651   0.637  11.880  0.2370 -0.5489  0.1222
 3298SOL    HW121353   1.602   0.703  11.930 -0.8451 -0.5935 -0.8636
 3298SOL    HW221354   1.586   0.567  11.876  0.3792 -0.8075  2.4541
 3299SOL     OW21355   2.308   1.369   3.318 -0.1542 -0.1339  0.0642
 3299SOL    HW121356   2.358   1.314   3.378 -0.4424 -0.9439 -0.4469
 3299SOL    HW221357   2.315   1.320   3.236  6.4181  0.4327  0.3408
 3300SOL     OW21358   0.422   0.532   0.465 -0.1088  0.5045  1.1819
 3300SOL    HW121359   0.427   0.436   0.466 -0.8063  0.4520 -0.1363
 3300SOL    HW221360   0.393   0.547   0.555 -0.1489 -0.5513  1.3527
 3301SOL     OW21361   2.902   1.217  10.264  0.7276 -0.4359 -0.2211
 3301SOL    HW121362   2.883   1.167  10.343 -0.8548  1.7762  0.8055
 3301SOL    HW221363   2.818   1.207  10.219  0.5003 -0.7521  0.2682
 3302SOL     OW21364   3.174   3.447   2.665  0.0832  0.3379  0.0245
 3302SOL    HW121365   3.162   3.476   2.755  0.4136 -1.1080  0.5420
 3302SOL    HW221366   3.117   3.505   2.615  0.8165 -0.2468 -1.4923
 3303SOL     OW21367   0.013   2.292   8.786 -0.7564  0.0396  0.1315
 3303SOL    HW121368   4.664   2.304   8.844 -1.5013  4.1199 -1.6442
 3303SOL    HW221369   4.697   2.289   8.700  0.6642  2.0820 -0.6254
 3304SOL     OW21370   1.762   3.376   6.422 -0.0114 -0.2262  0.2368
 3304SOL    HW121371   1.720   3.297   6.388  1.7698 -0.8079 -0.5996
 3304SOL    HW221372   1.840   3.341   6.465 -0.3157 -1.1620  0.0387
 3305SOL     OW21373   2.107   3.175   9.585  0.1197  0.2163 -0.4809
 3305SOL    HW121374   2.161   3.250   9.561  0.1078 -0.5843 -2.9959
 3305SOL    HW221375   2.056   3.161   9.505 -2.7815 -1.1644  1.5793
 3306SOL     OW21376   1.696   1.691  12.887  0.4225  0.0244  0.2103
 3306SOL    HW121377   1.636   1.732  12.950 -1.2821 -2.4240  0.2074
 3306SOL    HW221378   1.682   1.740  12.806  0.1320  0.5898  0.5995
 3307SOL     OW21379   3.183   2.631  13.740  0.1610 -0.1568  0.2771
 3307SOL    HW121380   3.194   2.599  13.651 -1.1298 -0.3280  0.1815
 3307SOL    HW221381   3.193   2.549  13.787  0.2938 -0.8904 -1.0387
 3308SOL     OW21382   0.154   3.729   2.604 -0.6757  0.4189  0.1818
 3308SOL    HW121383   0.130   3.757   2.515 -0.9836  0.6142  0.3271
 3308SOL    HW221384   0.067   3.706   2.637 -0.8889 -2.2421 -2.1687
 3309SOL     OW21385   0.464   0.842  11.275  0.9474  0.4622 -0.1109
 3309SOL    HW121386   0.415   0.787  11.215  0.1758 -0.2545  1.1901
 3309SOL    HW221387   0.469   0.790  11.355  1.0228  1.5834  0.6129
 3310SOL     OW21388   3.696   1.218  12.832  0.5333 -0.0764 -0.5808
 3310SOL    HW121389   3.667   1.129  12.854  0.5320  0.8756  3.2258
 3310SOL    HW221390   3.630   1.238  12.765  0.6874 -0.8610 -0.9709
 3311SOL     OW21391   0.993   1.920   5.241 -0.1288  0.6424  0.1890
 3311SOL    HW121392   1.065   1.957   5.292 -0.8069  1.9950  0.1833
 3311SOL    HW221393   0.990   1.973   5.161  0.9922 -1.2318 -1.1016
 3312SOL     OW21394   2.091   3.230   3.514  0.2807 -0.2331  0.2261
 3312SOL    HW121395   2.031   3.210   3.586  1.9352  1.4346  2.0566
 3312SOL    HW221396   2.106   3.140   3.485 -1.4276 -0.9736  1.6346
 3313SOL     OW21397   3.250   0.949   8.185  0.4723  0.0730 -0.2948
 3313SOL    HW121398   3.285   0.924   8.100 -1.6947  0.4983 -1.3043
 3313SOL    HW221399   3.325   0.996   8.222  1.4741 -0.0872 -2.1067
 3314SOL     OW21400   0.508   1.652   6.849 -0.2726  0.1557  0.1178
 3314SOL    HW121401   0.516   1.560   6.825  1.1538  0.9892 -2.6409
 3314SOL    HW221402   0.598   1.681   6.840 -0.3355  0.1076 -0.6095
 3315SOL     OW21403   0.588   4.128   3.600  0.1922  0.0159  0.4558
 3315SOL    HW121404   0.676   4.131   3.639  0.8789  1.4262 -1.2132
 3315SOL    HW221405   0.590   4.044   3.554  0.4830  0.3632 -0.1608
 3316SOL     OW21406   3.456   3.898  10.994  0.4210  0.1564  0.1132
 3316SOL    HW121407   3.473   3.815  10.950 -1.1343 -0.0225 -0.1651
 3316SOL    HW221408   3.491   3.863  11.076  0.6202  0.7568  0.2871
 3317SOL     OW21409   4.508   2.106   5.008  0.6450 -0.5301  0.0396
 3317SOL    HW121410   4.603   2.105   4.994  0.8558  2.6967  1.1316
 3317SOL    HW221411   4.483   2.132   4.919  1.1743  0.6624  0.2259
 3318SOL     OW21412   0.096   2.193   5.100 -0.3559 -0.9002 -0.3414
 3318SOL    HW121413   0.112   2.115   5.046 -1.2710  0.1005 -2.0454
 3318SOL    HW221414   0.181   2.204   5.144  0.2160 -0.1919 -1.6372
 3319SOL     OW21415   4.157   0.423   7.119 -0.0183 -0.2701  0.1265
 3319SOL    HW121416   4.214   0.482   7.169 -1.9189  2.2036 -0.6072
 3319SOL    HW221417   4.214   0.380   7.056 -0.8299  0.9433 -1.4162
 3320SOL     OW21418   0.729   2.722   5.505 -0.6209 -0.0198  0.2306
 3320SOL    HW121419   0.685   2.796   5.464  1.4099 -0.6670 -3.0257
 3320SOL    HW221420   0.710   2.742   5.597 -2.0734 -1.7230  0.3023
 3321SOL     OW21421   0.284   4.502   4.125 -0.1138 -0.2204 -0.1010
 3321SOL    HW121422   0.273   4.449   4.204  1.7866 -1.6341 -0.7981
 3321SOL    HW221423   0.355   4.456   4.080 -1.3132 -0.1145 -2.1144
 3322SOL     OW21424   0.939   0.766   5.559 -0.0359 -0.3519  0.1845
 3322SOL    HW121425   0.963   0.726   5.476 -0.3179  1.7361 -0.8827
 3322SOL    HW221426   0.897   0.688   5.597  0.6570  0.2759  2.2446
 3323SOL     OW21427   1.133   4.132   2.500 -0.7932  0.5908  0.0144
 3323SOL    HW121428   1.203   4.167   2.555 -0.9588 -0.1029  0.6510
 3323SOL    HW221429   1.175   4.130   2.413  0.2923 -0.4158  0.5659
 3324SOL     OW21430   3.471   3.266   2.274  0.1180  0.4960 -0.3467
 3324SOL    HW121431   3.516   3.244   2.193  0.4387  0.1105 -0.0681
 3324SOL    HW221432   3.400   3.203   2.281  0.0900  0.8289  2.6342
 3325SOL     OW21433   0.993   4.093   3.121 -0.6288  0.0740 -0.1766
 3325SOL    HW121434   0.903   4.083   3.153  0.6856 -0.2598  3.3941
 3325SOL    HW221435   0.976   4.126   3.033  0.6061  1.1160 -0.0160
 3326SOL     OW21436   1.056   2.906   5.064  0.0422  0.4018 -0.7218
 3326SOL    HW121437   1.081   2.912   5.156 -1.1956  0.7025 -0.4069
 3326SOL    HW221438   1.147   2.914   5.033  0.4162 -1.0806  0.0080
 3327SOL     OW21439   2.145   2.115   7.043  0.1945 -0.1020  0.6514
 3327SOL    HW121440   2.139   2.210   7.054  1.8062  0.0298  0.4116
 3327SOL    HW221441   2.091   2.086   7.116 -0.5734 -0.2774  0.0115
 3328SOL     OW21442   3.497   3.926   6.387 -0.0603  0.8367  0.0378
 3328SOL    HW121443   3.473   3.862   6.320  0.1482 -1.0118  1.7147
 3328SOL    HW221444   3.527   3.998   6.332 -1.6310 -0.3730 -2.4228
 3329SOL     OW21445   1.724   4.032   6.789  0.3173  0.4199 -0.7076
 3329SOL    HW121446   1.687   4.103   6.843  0.5020 -0.1046  0.1041
 3329SOL    HW221447   1.650   4.011   6.733 -0.3511 -0.2022  0.4069
 3330SOL     OW21448   3.046   1.269  15.730  0.1961  0.4315 -0.2358
 3330SOL    HW121449   2.994   1.331  15.679  0.0562  0.3442 -0.1995
 3330SOL    HW221450   3.090   1.311  15.803  1.4817 -0.2557 -0.6237
 3331SOL     OW21451   0.830   4.163   1.715  0.4390 -0.0523  0.3712
 3331SOL    HW121452   0.816   4.240   1.771  1.5964  1.5438 -1.5505
 3331SOL    HW221453   0.860   4.209   1.637  1.4768 -1.8532 -0.2939
 3332SOL     OW21454   3.797   4.134   7.608 -0.6622 -0.1298  0.1754
 3332SOL    HW121455   3.796   4.110   7.701 -0.4160  0.1993  0.2625
 3332SOL    HW221456   3.743   4.213   7.607 -2.3640 -1.2873  1.7974
 3333SOL     OW21457   3.346   4.601   8.538 -0.1619 -0.1512  0.7356
 3333SOL    HW121458   3.416   4.626   8.478  0.8788 -2.3645  1.0258
 3333SOL    HW221459   3.264   4.603   8.489 -0.2886 -0.8327  0.9237
 3334SOL     OW21460   3.938   4.297   9.433  0.0204  0.1512 -0.1837
 3334SOL    HW121461   4.005   4.234   9.405  0.9722  1.7095 -1.4575
 3334SOL    HW221462   3.915   4.279   9.524 -0.8905  0.1172 -0.4292
 3335SOL     OW21463   0.902   0.597   6.272 -0.6679  0.3858  0.8691
 3335SOL    HW121464   0.870   0.672   6.222 -1.9361  1.3591  3.1759
 3335SOL    HW221465   0.827   0.545   6.300 -1.6444  2.4582  2.0804
 3336SOL     OW21466   2.889   4.521   0.518 -0.3170  0.1443  0.3245
 3336SOL    HW121467   2.942   4.601   0.530 -3.1843  1.9982  0.6992
 3336SOL    HW221468   2.931   4.481   0.442  1.1247  0.2493  1.0614
 3337SOL     OW21469   3.390   4.537  13.600 -0.9293  0.1189 -0.6837
 3337SOL    HW121470   3.405   4.608  13.663 -1.4170  0.1938 -0.6474
 3337SOL    HW221471   3.474   4.492  13.594 -0.1907  1.5375 -0.9942
 3338SOL     OW21472   0.499   4.418   3.955  0.4118 -0.5297 -0.1427
 3338SOL    HW121473   0.465   4.451   3.871 -1.1935  0.4367  0.8753
 3338SOL    HW221474   0.589   4.399   3.931  0.3629 -0.3009 -0.5192
 3339SOL     OW21475   4.210   0.199   6.106 -0.2424 -0.1237 -0.5567
 3339SOL    HW121476   4.269   0.155   6.045  0.5140  1.2375 -0.7997
 3339SOL    HW221477   4.134   0.141   6.098 -3.0715  3.2587  1.7092
 3340SOL     OW21478   1.884   0.162   9.799 -0.6906  0.1780  0.1339
 3340SOL    HW121479   1.858   0.239   9.849 -0.6876  0.0014  0.4072
 3340SOL    HW221480   1.799   0.118   9.804 -1.0242  1.0066  1.6860
 3341SOL     OW21481   1.992   0.910   3.886  0.1096 -0.1138  0.2955
 3341SOL    HW121482   1.928   0.932   3.954  1.3319  0.3757  1.3059
 3341SOL    HW221483   2.046   0.843   3.927  2.2085  2.6883  2.1992
 3342SOL     OW21484   1.633   3.150   1.930 -0.2711  0.2790  0.1299
 3342SOL    HW121485   1.635   3.074   1.990  0.1316  1.2065  1.2988
 3342SOL    HW221486   1.683   3.216   1.978 -0.7324  0.0889  0.8775
 3343SOL     OW21487   0.126   2.378  17.218 -0.4866  0.6082 -0.3667
 3343SOL    HW121488   0.177   2.368  17.138 -3.1700 -1.3008 -1.8519
 3343SOL    HW221489   0.037   2.392  17.186 -0.2164  0.1965 -1.2950
 3344SOL     OW21490   2.972   0.946   6.864 -0.4993 -0.6233 -0.2733
 3344SOL    HW121491   2.992   0.949   6.770 -0.0582  4.5387 -0.0001
 3344SOL    HW221492   2.966   1.041   6.874 -0.2019 -0.3944 -2.1673
 3345SOL     OW21493   2.639   2.113   8.189 -0.6440  0.2098 -0.3350
 3345SOL    HW121494   2.624   2.053   8.262 -0.2752  0.4905 -0.0316
 3345SOL    HW221495   2.611   2.196   8.229  0.2399  0.3118  0.0739
 3346SOL     OW21496   3.090   0.573  11.393  0.4462 -0.2123  0.0075
 3346SOL    HW121497   3.065   0.656  11.353  0.2312  0.4640  1.5528
 3346SOL    HW221498   3.110   0.594  11.484  3.1216 -0.3665 -0.5636
 3347SOL     OW21499   0.467   2.351  12.331 -0.3217 -0.0125  0.2500
 3347SOL    HW121500   0.384   2.372  12.374 -0.4204  1.1171 -0.4954
 3347SOL    HW221501   0.500   2.281  12.387 -0.9131 -0.3778  0.1449
 3348SOL     OW21502   3.675   3.900   0.173 -0.4158 -0.3959  0.3613
 3348SOL    HW121503   3.638   3.836   0.112  0.9532 -0.1657 -0.6959
 3348SOL    HW221504   3.767   3.887   0.151 -0.1535  1.2278  0.5613
 3349SOL     OW21505   2.726   4.083  14.912  0.3971 -0.1005 -0.1999
 3349SOL    HW121506   2.672   4.013  14.948  0.7519 -0.6226 -0.6679
 3349SOL    HW221507   2.656   4.121  14.860  0.8983  0.1014 -0.7375
 3350SOL     OW21508   4.554   0.403   2.122  0.1819  0.4066 -0.5463
 3350SOL    HW121509   4.567   0.487   2.078 -2.0218  0.4258 -1.1329
 3350SOL    HW221510   4.503   0.359   2.054  1.6263  0.5181 -1.7067
 3351SOL     OW21511   4.468   4.199   5.644 -0.4081 -0.2741 -0.4885
 3351SOL    HW121512   4.535   4.132   5.648 -1.9739 -1.7724  0.7017
 3351SOL    HW221513   4.391   4.159   5.685 -1.4532  1.0935 -1.1006
 3352SOL     OW21514   2.150   3.836   4.057  0.4931 -0.0426 -0.1320
 3352SOL    HW121515   2.083   3.885   4.105  0.4086 -0.7694  0.4896
 3352SOL    HW221516   2.098   3.769   4.013  1.5522  0.8863 -2.8197
 3353SOL     OW21517   0.648   1.811   4.586 -0.2553 -0.1401  0.1182
 3353SOL    HW121518   0.625   1.897   4.551 -1.0964 -0.6061 -0.4777
 3353SOL    HW221519   0.584   1.747   4.555  0.1846  0.8715 -2.9672
 3354SOL     OW21520   2.486   2.841   3.159  0.4523  0.6505 -0.1848
 3354SOL    HW121521   2.463   2.752   3.185  1.1940  0.9532  1.5792
 3354SOL    HW221522   2.546   2.864   3.230  0.2530 -1.1931  0.5805
 3355SOL     OW21523   3.844   1.575   5.808 -0.0614  0.5165  0.3698
 3355SOL    HW121524   3.912   1.608   5.749  2.4158 -2.1364  1.7352
 3355SOL    HW221525   3.769   1.630   5.785 -0.1630  0.2126 -0.0258
 3356SOL     OW21526   4.129   1.277   3.368 -0.0547 -0.0310 -0.6100
 3356SOL    HW121527   4.069   1.203   3.368  2.0293 -1.7301 -1.8904
 3356SOL    HW221528   4.112   1.320   3.452 -2.2575 -1.3585 -0.3863
 3357SOL     OW21529   0.596   3.628   1.079  0.2520  0.4780 -0.1059
 3357SOL    HW121530   0.570   3.552   1.131  2.4765  0.0227  0.3576
 3357SOL    HW221531   0.519   3.628   1.022  1.9517 -2.4025 -2.3719
 3358SOL     OW21532   1.243   2.983   3.204 -0.6128 -0.3942  0.0028
 3358SOL    HW121533   1.269   2.931   3.280  0.9652  0.5564  0.1163
 3358SOL    HW221534   1.297   2.943   3.136  0.5430  2.4344 -0.7490
 3359SOL     OW21535   2.489   4.189  12.597 -0.2176 -0.1361 -0.7837
 3359SOL    HW121536   2.474   4.173  12.690 -2.4120 -0.3444 -1.1787
 3359SOL    HW221537   2.400   4.162  12.576 -0.2999 -0.2943 -0.2436
 3360SOL     OW21538   2.608   1.198  12.540 -0.8377  0.2250 -0.3065
 3360SOL    HW121539   2.656   1.155  12.611  0.3588 -1.0979 -1.9231
 3360SOL    HW221540   2.650   1.284  12.541  0.1496 -0.2605 -2.0147
 3361SOL     OW21541   0.780   3.089   7.773 -0.4251 -0.0147  0.0448
 3361SOL    HW121542   0.804   3.174   7.736  1.0801 -0.8997 -1.0459
 3361SOL    HW221543   0.690   3.111   7.794 -0.9321 -0.9927 -1.1082
 3362SOL     OW21544   2.216   2.145   8.077 -0.4512  0.3762  0.1432
 3362SOL    HW121545   2.146   2.165   8.015 -0.9472 -1.2845  0.1601
 3362SOL    HW221546   2.206   2.213   8.144 -0.2074 -0.7935  1.3833
 3363SOL     OW21547   0.835   0.262  11.854  0.5793  0.3361 -0.1200
 3363SOL    HW121548   0.811   0.226  11.768 -0.9711  0.5208  0.2308
 3363SOL    HW221549   0.861   0.352  11.833  0.1896  0.8538  1.6412
 3364SOL     OW21550   1.197   2.465   6.796 -0.1243 -0.5720 -0.2491
 3364SOL    HW121551   1.233   2.378   6.812 -0.4166 -0.5198  0.7014
 3364SOL    HW221552   1.247   2.523   6.854  1.3771 -1.5761 -0.5207
 3365SOL     OW21553   1.908   1.801   6.430 -0.9631  0.3581  0.1312
 3365SOL    HW121554   1.966   1.829   6.358 -0.5246  0.8767  0.6871
 3365SOL    HW221555   1.907   1.886   6.474 -0.9739  0.9497 -0.9915
 3366SOL     OW21556   1.773   4.304  15.911  0.3112 -0.0958 -0.0415
 3366SOL    HW121557   1.792   4.290  15.818  0.4293  0.0586 -0.0398
 3366SOL    HW221558   1.804   4.393  15.926 -1.1468  0.6521 -1.4756
 3367SOL     OW21559   1.472   0.408   6.255 -0.2523 -0.6054 -0.5520
 3367SOL    HW121560   1.441   0.481   6.309 -0.1784  1.1255 -2.8501
 3367SOL    HW221561   1.446   0.434   6.166  0.8008 -0.0289 -0.7001
 3368SOL     OW21562   3.835   4.453  12.219  0.2826  0.1250 -0.3441
 3368SOL    HW121563   3.744   4.483  12.218  0.2051 -0.1284 -1.6321
 3368SOL    HW221564   3.830   4.366  12.179 -0.7203 -0.4054  0.9311
 3369SOL     OW21565   3.170   2.943   3.400  0.9743 -0.0828 -0.0389
 3369SOL    HW121566   3.154   2.867   3.344 -0.1449 -1.5957  2.3427
 3369SOL    HW221567   3.091   2.967   3.449 -0.6306 -3.6063 -0.9189
 3370SOL     OW21568   1.359   2.765   8.396  0.0208  0.0747  0.6962
 3370SOL    HW121569   1.449   2.738   8.378  0.5793  1.3349  1.6682
 3370SOL    HW221570   1.350   2.856   8.370 -2.0275 -0.6951 -1.3516
 3371SOL     OW21571   3.656   3.860  12.286  0.1582 -0.7064 -0.5371
 3371SOL    HW121572   3.615   3.842  12.201 -0.0536 -0.9092 -0.3940
 3371SOL    HW221573   3.638   3.953  12.295 -1.7691 -1.1005 -0.2239
 3372SOL     OW21574   0.358   3.977   6.500  0.0881  0.4908 -0.1719
 3372SOL    HW121575   0.310   3.897   6.479 -2.6627  2.2461 -0.6025
 3372SOL    HW221576   0.303   4.039   6.452  0.1781  0.1606 -0.6932
 3373SOL     OW21577   4.050   3.722   1.965 -0.3189  0.3463  0.0732
 3373SOL    HW121578   4.115   3.765   2.020 -2.4498  1.9458  1.3602
 3373SOL    HW221579   4.097   3.645   1.932  1.6429  1.9878 -1.0231
 3374SOL     OW21580   3.940   2.965   2.386  0.1158 -0.0945  0.4427
 3374SOL    HW121581   4.008   2.916   2.433  1.2154 -0.7348 -1.8305
 3374SOL    HW221582   3.965   3.055   2.409 -1.6539  0.2644  0.9479
 3375SOL     OW21583   1.725   4.122   3.599 -0.2202 -0.1821 -0.5876
 3375SOL    HW121584   1.756   4.210   3.583  2.3494 -0.7120  1.5134
 3375SOL    HW221585   1.632   4.118   3.573  0.2909  0.9297 -2.5867
 3376SOL     OW21586   3.651   1.311   7.867  0.5476 -0.4159  0.5026
 3376SOL    HW121587   3.655   1.228   7.820 -1.7672  0.6685 -1.5549
 3376SOL    HW221588   3.724   1.301   7.929  0.1921 -1.1707  0.7938
 3377SOL     OW21589   4.649   2.226  11.052  0.1227 -0.4642 -0.4387
 3377SOL    HW121590   0.009   2.244  11.015  0.6273 -0.2913  0.8279
 3377SOL    HW221591   4.650   2.286  11.127 -1.6345 -0.7730 -0.1598
 3378SOL     OW21592   0.094   1.752  16.569 -0.7517 -0.2873  0.4468
 3378SOL    HW121593   0.148   1.684  16.529  2.1085  1.4898  1.3136
 3378SOL    HW221594   0.122   1.839  16.540  2.2152 -1.2373  0.4030
 3379SOL     OW21595   2.592   2.823  16.515  0.2222  0.0760  0.5218
 3379SOL    HW121596   2.502   2.791  16.524  0.7205 -1.3799  0.2864
 3379SOL    HW221597   2.586   2.918  16.510 -1.4661  0.0486  1.8535
 3380SOL     OW21598   0.073   1.446   6.105 -0.3386  0.0434 -1.1440
 3380SOL    HW121599   0.126   1.485   6.035 -0.1582  1.2715 -0.3277
 3380SOL    HW221600   4.715   1.487   6.082  0.5664  0.6647 -3.2793
 3381SOL     OW21601   2.028   2.012   4.830  0.3235 -0.1581  0.5585
 3381SOL    HW121602   2.042   1.961   4.750  3.3148  0.7952  0.4762
 3381SOL    HW221603   2.092   2.082   4.818 -1.3053  1.0531 -1.0656
 3382SOL     OW21604   0.382   2.070   3.447 -0.3990  0.4114 -0.6078
 3382SOL    HW121605   0.418   2.156   3.470 -1.4096  1.0377 -1.3238
 3382SOL    HW221606   0.290   2.083   3.469 -0.2279  0.2664  0.1816
 3383SOL     OW21607   3.364   2.829   7.419 -0.0610 -0.3233 -0.5818
 3383SOL    HW121608   3.445   2.783   7.441 -0.3035 -0.1052  0.7510
 3383SOL    HW221609   3.366   2.915   7.460  0.4121 -1.3465  1.5273
 3384SOL     OW21610   2.545   3.165   9.205  0.2248  0.1348  0.5771
 3384SOL    HW121611   2.476   3.123   9.257 -1.7178 -0.7923 -2.7377
 3384SOL    HW221612   2.628   3.137   9.241 -1.2758 -3.1553  1.4573
 3385SOL     OW21613   3.244   4.181  16.745 -0.0380  0.5574  0.1916
 3385SOL    HW121614   3.196   4.228  16.677  0.0000  1.6156  0.8919
 3385SOL    HW221615   3.274   4.105  16.695  2.8193  0.8312  1.4693
 3386SOL     OW21616   0.605   3.914  10.622 -0.2673 -0.4253  0.5950
 3386SOL    HW121617   0.602   3.818  10.625  1.3100 -0.4762  0.6796
 3386SOL    HW221618   0.536   3.933  10.559  1.1360  0.2197 -0.7401
 3387SOL     OW21619   0.531   0.606  12.645 -0.2294  0.0714 -0.2319
 3387SOL    HW121620   0.566   0.519  12.664 -0.4608  0.0460  0.0689
 3387SOL    HW221621   0.548   0.641  12.732  1.3855 -2.2549  0.3937
 3388SOL     OW21622   3.703   4.414   0.968  0.3824 -0.7559 -0.5669
 3388SOL    HW121623   3.739   4.489   0.919  1.5840  0.4868  2.2526
 3388SOL    HW221624   3.775   4.353   0.981  0.2260 -0.9433 -0.5922
 3389SOL     OW21625   2.420   3.625   8.017  0.1525 -0.4456  0.1561
 3389SOL    HW121626   2.496   3.568   8.028  0.4922  0.0024  0.0935
 3389SOL    HW221627   2.450   3.686   7.949 -2.3248 -1.2307 -1.6829
 3390SOL     OW21628   0.898   1.966   1.128  0.1081  0.2094  0.1254
 3390SOL    HW121629   0.943   1.994   1.048  0.3778 -0.2861  0.1043
 3390SOL    HW221630   0.864   1.880   1.102  1.4385  0.0854 -1.1820
 3391SOL     OW21631   0.725   0.333   2.245 -0.4780  0.5207  0.5089
 3391SOL    HW121632   0.792   0.401   2.239 -1.1641  1.1984  0.5677
 3391SOL    HW221633   0.726   0.301   2.154  0.5225 -0.3762  0.8390
 3392SOL     OW21634   1.492   0.376   2.526  0.0828  1.2068 -0.8312
 3392SOL    HW121635   1.441   0.370   2.607  0.6530  0.9403 -0.4894
 3392SOL    HW221636   1.468   0.294   2.484  2.9121  0.4872 -1.0142
 3393SOL     OW21637   1.280   4.416   3.493  0.1640  0.6889  0.0906
 3393SOL    HW121638   1.351   4.356   3.469  0.8583  1.3893  0.3626
 3393SOL    HW221639   1.236   4.375   3.567 -0.6480 -1.4827 -1.6107
 3394SOL     OW21640   0.903   4.184  16.313 -0.1738 -0.0100 -0.5583
 3394SOL    HW121641   0.981   4.222  16.273 -0.8482  0.4653 -1.4006
 3394SOL    HW221642   0.947   4.130  16.380  1.1072 -0.7142 -1.9680
 3395SOL     OW21643   2.749   1.029   8.588 -0.2812 -0.7751 -0.2473
 3395SOL    HW121644   2.830   1.014   8.540  0.8265 -0.3157  1.4561
 3395SOL    HW221645   2.788   1.037   8.676  0.1819  3.4950 -0.8388
 3396SOL     OW21646   0.338   4.010   2.772 -0.2543  0.3904 -0.0324
 3396SOL    HW121647   0.252   3.974   2.748 -0.3880  0.2815  0.6095
 3396SOL    HW221648   0.385   3.981   2.694  0.8845 -2.6127  1.7549
 3397SOL     OW21649   0.310   3.617  15.505 -0.1614 -0.0114 -0.1133
 3397SOL    HW121650   0.217   3.620  15.483 -0.8802  0.5012  2.9578
 3397SOL    HW221651   0.341   3.609  15.415 -0.6412 -1.5578 -0.1319
 3398SOL     OW21652   0.783   0.533   8.246  0.3071 -0.1928  0.0154
 3398SOL    HW121653   0.848   0.486   8.193 -0.8666 -0.8056 -0.8899
 3398SOL    HW221654   0.781   0.610   8.189 -2.0472  0.2266  0.6611
 3399SOL     OW21655   0.457   2.062  14.701 -0.3772 -0.4816  0.5117
 3399SOL    HW121656   0.406   2.011  14.637  0.3349  0.1317 -0.5488
 3399SOL    HW221657   0.415   2.148  14.694  0.5475  0.0934  2.2451
 3400SOL     OW21658   0.586   3.182   5.029 -0.2797  0.3889  0.2654
 3400SOL    HW121659   0.672   3.224   5.027  0.6650 -1.5214 -0.1414
 3400SOL    HW221660   0.607   3.088   5.031 -0.0317  0.3662 -2.3810
 3401SOL     OW21661   4.179   1.339   1.637 -0.1583  0.1131  0.3171
 3401SOL    HW121662   4.214   1.401   1.573  1.8575  1.0917  2.3489
 3401SOL    HW221663   4.254   1.284   1.661  1.9736  1.7157 -2.6757
 3402SOL     OW21664   4.071   1.117   4.853 -0.1606 -0.1749  0.2871
 3402SOL    HW121665   4.137   1.180   4.823 -0.5566  0.6843  1.2337
 3402SOL    HW221666   4.023   1.109   4.770  0.0745  0.1117  0.1218
 3403SOL     OW21667   3.671   2.561   8.618  1.0736 -0.0349  0.4208
 3403SOL    HW121668   3.765   2.575   8.625  1.0715  0.5003 -0.6357
 3403SOL    HW221669   3.650   2.563   8.711  1.5929 -0.3199  0.5445
 3404SOL     OW21670   4.073   3.189   6.888 -0.1944 -0.4972 -0.3956
 3404SOL    HW121671   4.126   3.109   6.881 -1.3987 -1.2910 -0.4507
 3404SOL    HW221672   4.025   3.176   6.969  1.6312  1.5296  1.0043
 3405SOL     OW21673   4.046   1.056   0.227  0.4303 -0.0795  0.0325
 3405SOL    HW121674   4.043   1.127   0.162 -0.9291  0.2921  0.4870
 3405SOL    HW221675   3.974   1.085   0.283 -1.5778 -0.6294 -2.2401
 3406SOL     OW21676   1.223   1.335   2.649  0.3834  0.0747 -0.4798
 3406SOL    HW121677   1.264   1.359   2.566 -1.2295 -1.9322 -1.8563
 3406SOL    HW221678   1.132   1.319   2.622 -0.3409  2.0872  0.7711
 3407SOL     OW21679   0.685   4.109   0.727  0.5654  0.1419 -0.1110
 3407SOL    HW121680   0.711   4.030   0.680 -1.2003 -0.0469 -0.7670
 3407SOL    HW221681   0.742   4.084   0.800 -1.0374 -1.1905  0.6763
 3408SOL     OW21682   3.648   3.483  11.248 -0.2748 -1.2582 -0.2979
 3408SOL    HW121683   3.742   3.464  11.255 -0.5734 -2.2228  1.2396
 3408SOL    HW221684   3.631   3.494  11.342 -0.0615 -0.2732 -0.3751
 3409SOL     OW21685   1.969   2.346   5.483  0.2502 -0.1193 -1.2676
 3409SOL    HW121686   2.014   2.406   5.544 -0.5299  0.2675 -1.0704
 3409SOL    HW221687   2.034   2.344   5.413  0.8254  0.3532 -0.7580
 3410SOL     OW21688   3.693   0.582  11.789 -0.1358 -0.1303  0.1242
 3410SOL    HW121689   3.756   0.541  11.729  0.2783  1.1418 -0.3024
 3410SOL    HW221690   3.702   0.526  11.866  0.8128  2.8909  2.1900
 3411SOL     OW21691   3.733   0.183  12.809 -0.0226  0.4950  0.4756
 3411SOL    HW121692   3.680   0.159  12.885 -0.1979  1.7988  0.7677
 3411SOL    HW221693   3.720   0.112  12.746  0.7900  0.6035  0.1856
 3412SOL     OW21694   2.137   2.014  13.367 -0.5364 -0.0136 -0.2671
 3412SOL    HW121695   2.138   2.014  13.463  1.5035  1.6537 -0.2894
 3412SOL    HW221696   2.097   1.928  13.354 -0.7847  0.4150 -2.4055
 3413SOL     OW21697   0.759   4.621   6.439 -0.9079  0.1681  0.6668
 3413SOL    HW121698   0.712   4.619   6.356 -0.2868  0.8852  0.2950
 3413SOL    HW221699   0.749   4.711   6.471  0.2501  0.7864 -0.7163
 3414SOL     OW21700   4.428   1.328   1.302 -0.0846  0.4472 -0.3352
 3414SOL    HW121701   4.434   1.233   1.291 -1.0061  0.1747  1.5368
 3414SOL    HW221702   4.374   1.355   1.228  1.0030  0.1841 -1.2304
 3415SOL     OW21703   4.450   3.586  15.707 -0.1297 -0.2516  0.2279
 3415SOL    HW121704   4.410   3.605  15.792 -0.2258 -1.3422  0.4351
 3415SOL    HW221705   4.423   3.658  15.651  0.5744 -0.8917 -0.9368
 3416SOL     OW21706   0.065   1.020   3.770 -0.3206 -0.4991 -0.3252
 3416SOL    HW121707   0.003   1.072   3.718  2.0480  0.8550 -1.7852
 3416SOL    HW221708   0.016   0.982   3.843  0.5865 -1.8625 -0.4433
 3417SOL     OW21709   0.945   4.358   6.911 -0.1999 -0.2145  0.2278
 3417SOL    HW121710   0.857   4.333   6.939 -1.2448  2.9466 -0.1825
 3417SOL    HW221711   0.973   4.390   6.997 -1.9198  2.3872 -0.1795
 3418SOL     OW21712   0.301   1.324   2.560 -0.2665 -0.3256 -0.6908
 3418SOL    HW121713   0.220   1.318   2.509 -1.9561  1.5691  1.7672
 3418SOL    HW221714   0.352   1.381   2.503  1.4050 -1.0909  0.0381
 3419SOL     OW21715   4.722   0.258  10.230 -0.3660 -0.0287 -0.1142
 3419SOL    HW121716   4.674   0.176  10.238  1.4615 -1.1054 -0.0758
 3419SOL    HW221717   4.660   0.310  10.179 -0.8402 -0.5073 -0.0244
 3420SOL     OW21718   3.973   0.228  16.901 -0.1926  0.1196  0.4039
 3420SOL    HW121719   3.934   0.230  16.989  0.6168 -2.1314  0.8027
 3420SOL    HW221720   4.052   0.179  16.924 -0.3132 -0.3277 -0.1573
 3421SOL     OW21721   3.284   3.291  17.692  0.2988 -0.4034  0.1709
 3421SOL    HW121722   3.259   3.381   0.011  1.2157  0.0137 -0.4649
 3421SOL    HW221723   3.223   3.248   0.048 -0.1081 -1.2226 -0.8240
 3422SOL     OW21724   1.889   0.305   9.463 -0.3818  0.3218 -0.5161
 3422SOL    HW121725   1.808   0.276   9.506  1.0939 -0.1563  1.8996
 3422SOL    HW221726   1.898   0.376   9.525  0.1035 -1.2676  1.2412
 3423SOL     OW21727   4.147   2.623   3.016  0.1973 -0.1506 -0.0233
 3423SOL    HW121728   4.102   2.705   3.037 -2.6701 -1.7672  0.1422
 3423SOL    HW221729   4.089   2.563   3.062  1.2969 -0.1350  1.3984
 3424SOL     OW21730   1.511   3.644  12.324 -0.2294 -0.6568  0.2769
 3424SOL    HW121731   1.548   3.623  12.409  1.6585  2.3578  0.1710
 3424SOL    HW221732   1.427   3.599  12.337  0.2232 -1.1282  1.5191
 3425SOL     OW21733   1.100   2.048   2.604  0.3744  0.0552  0.2756
 3425SOL    HW121734   1.017   2.027   2.646  0.0933 -1.1914 -0.9341
 3425SOL    HW221735   1.088   2.143   2.600 -2.0672 -0.1553  2.3673
 3426SOL     OW21736   1.494   4.006   2.832  0.6820 -0.6183 -0.1018
 3426SOL    HW121737   1.570   4.059   2.808 -0.0469  0.3965 -0.1242
 3426SOL    HW221738   1.507   3.990   2.926 -1.7997  0.6096  0.4289
 3427SOL     OW21739   1.935   1.735   0.269 -0.3991  0.5711 -0.0335
 3427SOL    HW121740   1.850   1.779   0.271 -0.9870 -0.6352  1.2105
 3427SOL    HW221741   1.923   1.656   0.217 -0.7328  1.4262 -1.2576
 3428SOL     OW21742   1.602   1.173   8.679  0.3720  0.4656  0.3531
 3428SOL    HW121743   1.569   1.166   8.768 -0.0381 -0.5242  0.1228
 3428SOL    HW221744   1.684   1.221   8.691  1.9598 -3.0042  3.5674
 3429SOL     OW21745   2.586   1.044   5.418 -0.1627  0.0611 -0.0374
 3429SOL    HW121746   2.669   1.078   5.452 -0.2878  0.6511 -0.3074
 3429SOL    HW221747   2.567   0.987   5.493 -2.0861  0.3771 -0.2902
 3430SOL     OW21748   3.503   0.690   1.484  0.0916  0.3058 -0.1092
 3430SOL    HW121749   3.566   0.633   1.439 -0.8903 -0.4031 -0.5971
 3430SOL    HW221750   3.422   0.640   1.469  0.3686  0.1396 -1.0754
 3431SOL     OW21751   1.612   2.977   4.660  0.0631  0.3126  0.1632
 3431SOL    HW121752   1.663   2.917   4.715  0.6958  1.1699  0.5100
 3431SOL    HW221753   1.675   3.022   4.604 -1.1377 -0.6135 -1.9262
 3432SOL     OW21754   2.510   1.050   6.949  0.8913  0.2288  0.2333
 3432SOL    HW121755   2.527   1.098   7.029 -2.8162  0.7434  0.7009
 3432SOL    HW221756   2.592   1.002   6.941 -0.3349 -1.7278 -0.6249
 3433SOL     OW21757   1.255   3.745   5.498 -0.0657 -0.2349 -0.5607
 3433SOL    HW121758   1.305   3.825   5.481  1.7313 -0.6589  2.5916
 3433SOL    HW221759   1.162   3.768   5.495  0.3530  1.8400  2.6749
 3434SOL     OW21760   4.001   1.706  17.201  0.2759  0.0319 -0.3284
 3434SOL    HW121761   4.032   1.795  17.187  0.0040 -0.0649 -1.5770
 3434SOL    HW221762   4.039   1.674  17.282  1.0456  0.3568 -0.5622
 3435SOL     OW21763   4.276   4.306   3.828  0.7882  0.4045  0.3390
 3435SOL    HW121764   4.312   4.227   3.870  0.5445  2.4827  4.3899
 3435SOL    HW221765   4.351   4.364   3.813 -0.0287  1.5111  0.5632
 3436SOL     OW21766   2.205   0.904  13.593 -0.7158 -0.8139 -0.3209
 3436SOL    HW121767   2.144   0.977  13.602 -0.6566 -0.8438  0.3697
 3436SOL    HW221768   2.259   0.933  13.520  0.6795  1.0147  1.4643
 3437SOL     OW21769   3.167   1.023   7.732  0.2601 -0.6618  0.3021
 3437SOL    HW121770   3.219   0.958   7.780  0.1224  0.6126  2.1789
 3437SOL    HW221771   3.214   1.036   7.650  2.0567  0.7691  1.5548
 3438SOL     OW21772   3.310   0.222   1.801 -0.3548 -0.1872  0.2146
 3438SOL    HW121773   3.326   0.294   1.739 -2.3300 -1.6425 -1.9742
 3438SOL    HW221774   3.389   0.226   1.856  0.6660 -0.2783 -1.2291
 3439SOL     OW21775   3.167   3.031  10.790  0.2586 -0.0939  0.0123
 3439SOL    HW121776   3.254   3.068  10.779 -0.0194  0.6951  0.5174
 3439SOL    HW221777   3.121   3.113  10.774  0.4391 -0.1383 -0.7157
 3440SOL     OW21778   1.345   2.383   3.993  0.1796  0.0655 -0.4562
 3440SOL    HW121779   1.310   2.464   3.958 -3.4281 -0.3896  2.1683
 3440SOL    HW221780   1.428   2.423   4.021  0.0579  0.6365 -0.9199
 3441SOL     OW21781   0.586   0.970   0.499 -0.4873 -0.4999 -0.3074
 3441SOL    HW121782   0.531   0.996   0.426  0.6613  1.5312 -0.4387
 3441SOL    HW221783   0.597   1.047   0.554 -0.7184 -1.3446  0.9330
 3442SOL     OW21784   4.377   4.439  14.987 -0.1024  0.1872  0.5404
 3442SOL    HW121785   4.386   4.490  14.906  0.7535  0.1075  0.5872
 3442SOL    HW221786   4.313   4.375  14.956  2.9329 -3.1094  1.0428
 3443SOL     OW21787   0.180   2.288   0.390 -0.2343  0.7303 -0.1080
 3443SOL    HW121788   0.148   2.207   0.429  1.8497 -0.1990 -0.3442
 3443SOL    HW221789   0.252   2.317   0.446  1.4239 -0.4251 -1.6525
 3444SOL     OW21790   1.151   1.766   4.654 -0.1896 -0.3495  0.0495
 3444SOL    HW121791   1.070   1.796   4.614  0.3375 -0.1006 -0.8221
 3444SOL    HW221792   1.100   1.718   4.720 -1.2615 -0.7566 -1.0953
 3445SOL     OW21793   3.793   3.214  12.109 -0.5082  0.1452 -0.3223
 3445SOL    HW121794   3.775   3.236  12.017  0.9101  3.2585  0.1289
 3445SOL    HW221795   3.832   3.127  12.102  1.5454  1.0964 -0.8993
 3446SOL     OW21796   1.367   1.649   5.012 -0.0418 -0.9683  0.5252
 3446SOL    HW121797   1.276   1.664   5.035 -0.0121  0.4658 -0.2934
 3446SOL    HW221798   1.403   1.711   5.075  0.6388  0.1731 -0.9904
 3447SOL     OW21799   4.414   1.293   3.808  0.2690  0.2998  0.4080
 3447SOL    HW121800   4.325   1.276   3.839  0.8507 -0.2843  1.7645
 3447SOL    HW221801   4.412   1.386   3.784  1.4825  0.6933  1.8398
 3448SOL     OW21802   1.681   4.523   7.273 -0.0961 -0.5133 -0.0183
 3448SOL    HW121803   1.613   4.460   7.295  0.6080 -1.3823 -0.3105
 3448SOL    HW221804   1.737   4.511   7.350 -0.6509  0.6837  0.5691
 3449SOL     OW21805   1.395   1.889   9.807 -0.0013  0.1359 -0.0170
 3449SOL    HW121806   1.471   1.922   9.855 -0.5985  0.4573  0.6873
 3449SOL    HW221807   1.423   1.930   9.725  0.6014 -0.0596  0.0888
 3450SOL     OW21808   4.510   2.377  10.447  0.1159  0.3537 -0.7166
 3450SOL    HW121809   4.454   2.301  10.464  0.4783  0.0912 -0.6735
 3450SOL    HW221810   4.451   2.448  10.426 -2.6885 -1.8507 -0.2576
 3451SOL     OW21811   0.285   2.353  11.534  0.1080  0.4960 -0.0635
 3451SOL    HW121812   0.300   2.422  11.598  0.9841 -0.8555  1.1904
 3451SOL    HW221813   0.355   2.373  11.471  0.9786 -0.9360  0.4565
 3452SOL     OW21814   4.382   0.136   5.462 -0.3390 -0.4411 -0.1582
 3452SOL    HW121815   4.452   0.133   5.527  0.1283 -1.6488 -0.7215
 3452SOL    HW221816   4.361   0.229   5.469  2.2494 -0.0502  2.5972
 3453SOL     OW21817   1.128   2.223  11.822  0.7305 -0.3791 -0.0927
 3453SOL    HW121818   1.080   2.151  11.781 -1.7742  1.4073 -0.2667
 3453SOL    HW221819   1.218   2.193  11.809  0.6471  0.1369 -1.8783
 3454SOL     OW21820   3.486   0.892   8.695 -0.2469 -0.1678  0.2420
 3454SOL    HW121821   3.462   0.874   8.605  0.6081  0.0982 -0.0419
 3454SOL    HW221822   3.437   0.970   8.721 -1.3833 -0.4072 -1.2369
 3455SOL     OW21823   1.915   1.871  12.242 -0.1422 -0.2036 -0.6406
 3455SOL    HW121824   2.008   1.862  12.224 -0.3314 -3.8069  0.0723
 3455SOL    HW221825   1.897   1.785  12.282  1.6882  0.0878  0.7747
 3456SOL     OW21826   0.438   1.570   9.302  0.7823 -0.1565  0.0794
 3456SOL    HW121827   0.534   1.572   9.297  0.7093  1.7309 -0.4968
 3456SOL    HW221828   0.418   1.608   9.217 -2.3105 -1.7912  0.0675
 3457SOL     OW21829   2.435   3.343  10.038  0.1003 -0.1298 -0.1755
 3457SOL    HW121830   2.345   3.309  10.038  0.1044 -0.1556 -2.2593
 3457SOL    HW221831   2.434   3.407   9.967 -1.4153 -1.1273 -1.0576
 3458SOL     OW21832   3.552   2.688  14.525  0.4722  0.4118 -0.0155
 3458SOL    HW121833   3.516   2.752  14.463  1.8178 -0.2373 -1.4814
 3458SOL    HW221834   3.495   2.725  14.593 -0.4738  1.5997 -1.4463
 3459SOL     OW21835   4.313   3.242   6.205  0.1439  0.3464  0.1755
 3459SOL    HW121836   4.267   3.321   6.180 -1.3756  0.0540  2.0925
 3459SOL    HW221837   4.247   3.173   6.193  2.0767 -1.2135 -1.5626
 3460SOL     OW21838   1.562   1.318   5.594  0.0559  0.2232 -0.3657
 3460SOL    HW121839   1.642   1.315   5.542  1.4711  1.7757  1.7598
 3460SOL    HW221840   1.577   1.399   5.642  0.1908  0.4046 -0.7157
 3461SOL     OW21841   2.129   3.264   1.760 -0.0787 -0.3515 -0.2678
 3461SOL    HW121842   2.118   3.222   1.845 -1.3770  0.0758 -0.2185
 3461SOL    HW221843   2.049   3.314   1.745 -0.1659 -0.4265 -0.0543
 3462SOL     OW21844   0.784   1.454  15.633  0.5053 -0.6073  0.4768
 3462SOL    HW121845   0.857   1.436  15.574  0.1201 -0.3918 -0.0669
 3462SOL    HW221846   0.825   1.485  15.714  2.5689  1.6037 -1.4453
 3463SOL     OW21847   2.919   3.028   7.453 -0.5251  0.4998 -0.1947
 3463SOL    HW121848   2.830   3.015   7.484 -0.9148  2.0832 -0.6691
 3463SOL    HW221849   2.932   3.123   7.459 -1.4040  0.4202  2.5820
 3464SOL     OW21850   1.188   2.305   3.702 -0.4903 -0.2745  0.4922
 3464SOL    HW121851   1.138   2.356   3.766 -0.8034  0.3374 -0.2383
 3464SOL    HW221852   1.120   2.294   3.635  0.6155 -3.9571 -0.0313
 3465SOL     OW21853   3.163   0.630   0.430 -0.4586 -0.0471  0.0534
 3465SOL    HW121854   3.100   0.634   0.358 -0.0166  0.2616 -0.3198
 3465SOL    HW221855   3.124   0.671   0.507  0.1517 -1.6171  1.1942
 3466SOL     OW21856   0.733   2.623   2.831 -0.1240 -0.0304  0.0436
 3466SOL    HW121857   0.786   2.692   2.870  1.1009 -1.3977  0.8015
 3466SOL    HW221858   0.746   2.644   2.738 -0.5159  1.7976  0.3999
 3467SOL     OW21859   3.698   1.779   4.607 -0.0448  0.1848  0.8375
 3467SOL    HW121860   3.641   1.773   4.684 -1.3648 -0.6460 -0.1985
 3467SOL    HW221861   3.734   1.866   4.623  1.2066 -0.1535 -0.1582
 3468SOL     OW21862   4.344   4.409   9.663 -0.4453  0.7408 -0.2662
 3468SOL    HW121863   4.419   4.424   9.720  0.4688 -1.1926 -0.9499
 3468SOL    HW221864   4.292   4.341   9.705 -1.8464  1.2558 -1.1483
 3469SOL     OW21865   3.222   1.683   8.739 -0.0122  0.0241  0.0425
 3469SOL    HW121866   3.205   1.777   8.748  0.4553  0.1596 -0.5044
 3469SOL    HW221867   3.168   1.639   8.805  0.7950 -0.0739  0.6476
 3470SOL     OW21868   2.816   1.241   2.128  0.4999  0.5155  0.3685
 3470SOL    HW121869   2.797   1.315   2.186 -0.5723  0.4666  0.0653
 3470SOL    HW221870   2.840   1.171   2.189  1.4361  0.1994 -0.3560
 3471SOL     OW21871   3.050   3.774   5.406  0.2650 -0.5881 -0.3702
 3471SOL    HW121872   3.067   3.772   5.311 -1.5878 -0.5034 -0.7037
 3471SOL    HW221873   2.976   3.712   5.408 -0.6751  0.5261 -0.5216
 3472SOL     OW21874   1.754   4.397   4.538  0.2066  0.4344  0.0972
 3472SOL    HW121875   1.795   4.481   4.519 -2.3651  1.2342 -1.7804
 3472SOL    HW221876   1.666   4.430   4.558 -0.2530 -1.0991  0.6026
 3473SOL     OW21877   2.916   2.670   0.327 -0.0246 -0.1543 -0.5453
 3473SOL    HW121878   2.942   2.728   0.256 -0.0317  1.1042  0.4704
 3473SOL    HW221879   2.828   2.642   0.299 -0.6616  1.9002 -0.6120
 3474SOL     OW21880   0.797   2.526   2.227 -0.2506 -0.3273 -0.3176
 3474SOL    HW121881   0.822   2.459   2.162  1.7003  1.6864 -1.6217
 3474SOL    HW221882   0.727   2.570   2.179 -0.9577 -1.6546 -0.5201
 3475SOL     OW21883   3.681   2.008   4.060  0.4288  0.0509 -0.2041
 3475SOL    HW121884   3.676   2.102   4.044  0.1740 -0.3673 -2.5920
 3475SOL    HW221885   3.674   2.012   4.155  0.6503 -1.2633 -0.1326
 3476SOL     OW21886   2.567   2.601   2.634  0.5695  0.1186 -0.3876
 3476SOL    HW121887   2.646   2.567   2.593  0.8334  1.3857 -0.9284
 3476SOL    HW221888   2.601   2.644   2.713 -0.8416  0.2758  0.1375
 3477SOL     OW21889   2.715   1.217   6.148  0.0836 -0.9818  0.4298
 3477SOL    HW121890   2.691   1.213   6.240  0.2028  2.7397  0.6214
 3477SOL    HW221891   2.799   1.263   6.147 -0.1698 -0.5374 -2.1580
 3478SOL     OW21892   2.213   2.879   0.608 -0.7381 -0.0463 -0.3728
 3478SOL    HW121893   2.220   2.800   0.555  0.3701  0.9453 -1.7000
 3478SOL    HW221894   2.232   2.944   0.541  0.0401 -0.9350 -1.0011
 3479SOL     OW21895   1.658   0.454   4.260  0.6705  0.4472 -0.2279
 3479SOL    HW121896   1.746   0.470   4.294  0.8553  2.2364 -1.5083
 3479SOL    HW221897   1.672   0.437   4.166 -1.3877 -1.6224 -0.1343
 3480SOL     OW21898   3.839   1.357  14.188 -0.7837  0.5852 -0.0281
 3480SOL    HW121899   3.870   1.428  14.132 -1.1699  0.4466 -0.4147
 3480SOL    HW221900   3.921   1.324  14.225  0.1394  2.1289 -0.7265
 3481SOL     OW21901   4.287   1.443   9.684  0.7581 -0.2520 -0.3587
 3481SOL    HW121902   4.363   1.457   9.741  0.0593 -0.6137  0.6416
 3481SOL    HW221903   4.220   1.497   9.725 -0.5545 -0.6401 -1.9754
 3482SOL     OW21904   3.553   0.968   3.398  0.4251  0.3772  0.4590
 3482SOL    HW121905   3.530   1.028   3.469 -2.0072  2.6252 -2.2149
 3482SOL    HW221906   3.476   0.955   3.342  0.8048 -0.6441  0.1664
 3483SOL     OW21907   0.767   3.891   8.903  0.0343 -0.0406 -0.2716
 3483SOL    HW121908   0.847   3.944   8.906 -1.6452  2.2634  2.6660
 3483SOL    HW221909   0.742   3.930   8.819 -0.5214  1.5019  0.6199
 3484SOL     OW21910   2.569   4.434  10.402 -0.2363 -0.1073  0.6317
 3484SOL    HW121911   2.634   4.421  10.333 -0.8740  0.1733 -0.0234
 3484SOL    HW221912   2.633   4.452  10.471 -0.2472  0.6245  0.4491
 3485SOL     OW21913   0.815   1.828   2.239  0.4893  0.2283 -0.0473
 3485SOL    HW121914   0.788   1.753   2.292  0.0513  2.0508  2.2797
 3485SOL    HW221915   0.739   1.825   2.182 -0.3171  1.8787  0.9790
 3486SOL     OW21916   0.863   3.620   6.513 -0.2101 -0.0925 -0.2621
 3486SOL    HW121917   0.921   3.653   6.444 -1.1664  2.0768 -0.0402
 3486SOL    HW221918   0.868   3.525   6.510  0.3317 -0.0789  0.1887
 3487SOL     OW21919   0.813   4.315   8.754 -0.6119 -0.1967 -0.1377
 3487SOL    HW121920   0.755   4.340   8.682 -0.7630  0.0964  0.0866
 3487SOL    HW221921   0.882   4.381   8.741 -1.2673  0.5079 -0.0282
 3488SOL     OW21922   3.102   3.989   3.420  0.3539 -0.9283  0.7593
 3488SOL    HW121923   3.098   4.079   3.453  0.1013 -0.2021 -1.2915
 3488SOL    HW221924   3.168   3.998   3.352 -0.4517  0.3771  0.1670
 3489SOL     OW21925   3.170   2.911  12.880 -0.1774  0.0677  0.0003
 3489SOL    HW121926   3.177   2.958  12.964 -0.0073 -1.1832  0.6864
 3489SOL    HW221927   3.161   2.826  12.922  1.1344 -0.0769 -0.0249
 3490SOL     OW21928   4.644   1.102   0.982  0.1061  0.0451 -0.5425
 3490SOL    HW121929   4.580   1.107   1.054 -0.4551  1.7730 -1.1830
 3490SOL    HW221930   0.000   1.134   1.019  0.0706 -0.1153 -0.3206
 3491SOL     OW21931   4.504   2.454   2.819  0.0744 -0.5554  0.0750
 3491SOL    HW121932   4.429   2.407   2.856  1.4466 -0.8776  2.4017
 3491SOL    HW221933   4.452   2.506   2.757  2.0618  1.7014  0.3335
 3492SOL     OW21934   0.810   2.098  14.889 -0.2655  0.3009 -0.1854
 3492SOL    HW121935   0.873   2.049  14.942 -0.9466  0.8637  1.1700
 3492SOL    HW221936   0.742   2.122  14.953  0.1265 -0.0248  0.3517
 3493SOL     OW21937   2.683   2.361  12.810 -0.0748  0.5644 -0.1896
 3493SOL    HW121938   2.591   2.389  12.815 -0.0733  0.7030 -0.9570
 3493SOL    HW221939   2.684   2.298  12.882  0.5299  1.1282  0.3021
 3494SOL     OW21940   0.615   2.884   8.489 -0.2964 -0.1231 -0.2784
 3494SOL    HW121941   0.669   2.814   8.526 -0.3048  0.7864  1.4812
 3494SOL    HW221942   0.679   2.923   8.429  0.2046 -0.0783  0.2853
 3495SOL     OW21943   3.020   2.785   0.774 -0.1068  0.3244  0.4351
 3495SOL    HW121944   3.054   2.711   0.724  0.4033 -1.2805  3.1364
 3495SOL    HW221945   3.071   2.793   0.855 -0.8597  0.0647  0.9396
 3496SOL     OW21946   1.357   0.903   5.310  0.1866  0.1742 -0.3842
 3496SOL    HW121947   1.411   0.946   5.244 -1.7751  3.0991 -0.0932
 3496SOL    HW221948   1.367   0.813   5.281  0.6367  0.6880 -1.8056
 3497SOL     OW21949   0.335   4.699   7.596 -0.8219 -0.2901 -0.3906
 3497SOL    HW121950   0.280   4.649   7.656  0.5541  0.1295  1.2436
 3497SOL    HW221951   0.403   4.638   7.566  0.8045  1.7542 -0.8607
 3498SOL     OW21952   3.111   3.889   1.092 -0.2803 -0.5912  0.4072
 3498SOL    HW121953   3.127   3.946   1.168  1.1348 -2.0300  1.1998
 3498SOL    HW221954   3.042   3.838   1.134  0.1885 -1.1618  0.4711
 3499SOL     OW21955   1.094   1.287   6.151 -0.3789 -0.7258  0.2987
 3499SOL    HW121956   1.115   1.232   6.075 -0.3392 -0.1972 -0.0726
 3499SOL    HW221957   1.023   1.237   6.192 -0.3326  0.8859  2.3322
 3500SOL     OW21958   2.812   0.298   1.044  0.3337  1.3214  0.1927
 3500SOL    HW121959   2.728   0.259   1.019 -0.5001  0.2752  4.5662
 3500SOL    HW221960   2.866   0.249   0.982 -0.2430 -1.2023  1.6820
 3501SOL     OW21961   0.215   4.505   2.314  0.3088  0.1826  0.3847
 3501SOL    HW121962   0.253   4.578   2.265  0.8086  0.9897  1.9799
 3501SOL    HW221963   0.150   4.467   2.255  0.8408 -2.1789  1.3170
 3502SOL     OW21964   4.179   0.558   2.694  0.0267  0.6611  0.5241
 3502SOL    HW121965   4.164   0.557   2.600  0.3740 -2.8774  0.5104
 3502SOL    HW221966   4.093   0.568   2.736 -0.1336  0.1916  0.3183
 3503SOL     OW21967   2.419   1.745   0.129 -0.0011  0.2663 -0.0180
 3503SOL    HW121968   2.418   1.696   0.211  0.5795 -0.2463 -0.3215
 3503SOL    HW221969   2.358   1.692   0.077  0.1890  1.0991 -1.0927
 3504SOL     OW21970   3.094   2.517   5.105 -0.1158 -0.8024  0.0251
 3504SOL    HW121971   3.062   2.427   5.097 -3.7168  0.5176 -0.6535
 3504SOL    HW221972   3.023   2.549   5.161  0.1206 -1.7386  0.8464
 3505SOL     OW21973   4.536   0.402  17.454 -0.1380  0.1468 -0.2524
 3505SOL    HW121974   4.580   0.365  17.531 -1.8169  0.3572  0.8076
 3505SOL    HW221975   4.489   0.328  17.415 -0.8771 -0.9105  2.6434
 3506SOL     OW21976   3.606   3.247  11.564  0.0881  0.0011  0.1456
 3506SOL    HW121977   3.602   3.342  11.555  1.9546  0.0775  0.0425
 3506SOL    HW221978   3.607   3.215  11.474  0.3833  0.6780 -0.0875
 3507SOL     OW21979   1.180   0.074   8.245 -0.3469 -0.4973  0.6713
 3507SOL    HW121980   1.144   4.711   8.250  0.9872 -0.9533  2.1422
 3507SOL    HW221981   1.130   0.106   8.319 -0.4214 -1.7418  1.1586
 3508SOL     OW21982   2.038   4.345   5.648  0.8089  0.5350 -0.5897
 3508SOL    HW121983   1.956   4.387   5.674  1.0328 -0.0384  1.0390
 3508SOL    HW221984   2.015   4.252   5.638  1.9794  0.3295 -1.2569
 3509SOL     OW21985   4.492   0.638   8.136 -0.2221 -0.3388 -0.0539
 3509SOL    HW121986   4.397   0.652   8.133  0.1006  1.3802 -2.6071
 3509SOL    HW221987   4.483   0.552   8.177  1.0686 -0.0794  0.7880
 3510SOL     OW21988   4.320   4.231   2.103  0.0462  0.1031 -0.7926
 3510SOL    HW121989   4.409   4.238   2.137 -0.0578  0.1576 -0.5344
 3510SOL    HW221990   4.305   4.320   2.072  0.7342  0.1757 -0.9276
 3511SOL     OW21991   4.331   1.361  14.459 -0.4422 -0.3086  0.4694
 3511SOL    HW121992   4.321   1.451  14.490  0.8041 -0.3852  1.1163
 3511SOL    HW221993   4.362   1.305  14.530  0.5557 -0.1726  0.1425
 3512SOL     OW21994   3.397   1.285   4.630 -0.0368  0.9319  0.1255
 3512SOL    HW121995   3.424   1.215   4.688 -1.4447 -0.7330 -1.2204
 3512SOL    HW221996   3.483   1.303   4.591  0.8832 -1.2989  1.1283
 3513SOL     OW21997   4.311   1.545   8.648  0.0096  0.3898 -0.1097
 3513SOL    HW121998   4.298   1.469   8.705  2.0185 -0.8116 -1.2545
 3513SOL    HW221999   4.223   1.580   8.661 -0.2936 -0.6768  0.7293
 3514SOL     OW22000   2.294   3.459   1.929  0.4449  0.3612  0.2954
 3514SOL    HW122001   2.336   3.517   1.865 -0.0535 -0.8360 -1.1047
 3514SOL    HW222002   2.240   3.404   1.873  0.1046 -0.3963  1.3729
 3515SOL     OW22003   0.307   2.035   3.932  0.0410 -0.0666  0.6590
 3515SOL    HW122004   0.245   2.088   3.983  1.5546  2.7852 -0.4662
 3515SOL    HW222005   0.376   2.023   3.997  0.0217  1.4861  0.9771
 3516SOL     OW22006   4.417   2.388   0.325 -0.7146 -0.0032 -0.2122
 3516SOL    HW122007   4.462   2.347   0.399 -0.5515  2.3341  0.9811
 3516SOL    HW222008   4.396   2.473   0.364 -0.2927 -0.3093  0.6898
 3517SOL     OW22009   1.317   2.500  10.891 -0.0791  0.0648  0.4158
 3517SOL    HW122010   1.337   2.462  10.977 -0.2222  0.5900  0.6827
 3517SOL    HW222011   1.302   2.421  10.840  0.1099  1.8070 -2.3386
 3518SOL     OW22012   0.342   2.428   9.657  0.2235  0.0522 -0.3310
 3518SOL    HW122013   0.356   2.402   9.566 -0.9005 -0.7738 -0.2696
 3518SOL    HW222014   0.254   2.398   9.678  0.5973 -1.0854 -0.3580
 3519SOL     OW22015   4.625   0.544  15.265  0.4185  0.0966  0.1654
 3519SOL    HW122016   4.616   0.450  15.280 -2.4464  0.7951  2.6485
 3519SOL    HW222017   4.706   0.552  15.316 -0.1802  0.1256  1.1044
 3520SOL     OW22018   2.413   4.417  17.005  0.4130 -0.1210  0.8454
 3520SOL    HW122019   2.373   4.504  17.006 -0.0874 -0.3295 -0.3802
 3520SOL    HW222020   2.414   4.408  16.910 -1.1286  0.7720  0.7545
 3521SOL     OW22021   3.888   2.779   8.885  0.3857 -0.1717 -0.0183
 3521SOL    HW122022   3.915   2.871   8.874 -0.1470  0.1504  1.3044
 3521SOL    HW222023   3.809   2.784   8.939  0.5662  1.8185  0.0609
 3522SOL     OW22024   0.034   0.258   3.762  0.2814 -0.1499  0.5453
 3522SOL    HW122025   0.040   0.264   3.857 -1.6694  0.4317  0.6376
 3522SOL    HW222026   0.055   0.348   3.734 -1.8971 -0.8250 -3.2661
 3523SOL     OW22027   1.511   2.195   8.721 -0.0156 -0.4896  0.1689
 3523SOL    HW122028   1.582   2.258   8.732 -1.0699  0.2536  2.5755
 3523SOL    HW222029   1.519   2.193   8.626  2.4011  2.9127  0.2963
 3524SOL     OW22030   0.254   0.204  14.628 -0.4622 -0.4090  0.1559
 3524SOL    HW122031   0.285   0.185  14.540  0.4858  0.0868  0.3807
 3524SOL    HW222032   0.310   0.154  14.687 -0.2994 -1.2022 -0.6880
 3525SOL     OW22033   0.234   0.849   6.587 -0.3805  0.2887 -0.4232
 3525SOL    HW122034   0.175   0.821   6.517 -3.6961  1.5612  1.9126
 3525SOL    HW222035   0.204   0.939   6.596 -2.6239 -0.3665 -1.2658
 3526SOL     OW22036   4.217   1.827   7.547 -0.1277 -0.5445  0.6625
 3526SOL    HW122037   4.283   1.765   7.579 -0.8963 -0.9121  1.5337
 3526SOL    HW222038   4.219   1.896   7.612  1.1349 -1.6558  1.7932
 3527SOL     OW22039   2.829   2.212  15.108  0.5927  0.2649 -0.3583
 3527SOL    HW122040   2.919   2.192  15.135 -0.5855 -1.0478  2.4739
 3527SOL    HW222041   2.847   2.217  15.014  1.4101  0.4609 -0.1899
 3528SOL     OW22042   2.471   3.778   8.929  0.3353 -0.6050 -0.3656
 3528SOL    HW122043   2.407   3.715   8.961 -1.1130  0.3414 -1.4472
 3528SOL    HW222044   2.468   3.852   8.990 -0.9218  0.2417 -1.4688
 3529SOL     OW22045   2.765   3.662   7.227  0.0376 -0.3040  0.2185
 3529SOL    HW122046   2.856   3.633   7.230  0.3773  0.6718 -0.7141
 3529SOL    HW222047   2.732   3.635   7.312 -0.7154 -0.0385  0.0139
 3530SOL     OW22048   3.381   2.648  13.499 -0.0625 -0.1085 -0.1270
 3530SOL    HW122049   3.388   2.710  13.427 -0.0980 -0.2263 -0.2334
 3530SOL    HW222050   3.289   2.620  13.502 -0.7450  2.3244  1.8199
 3531SOL     OW22051   1.044   3.033   6.174  0.1984 -0.6357  0.4288
 3531SOL    HW122052   1.117   3.041   6.113 -0.9711 -0.2306 -0.9337
 3531SOL    HW222053   0.994   3.108   6.141  2.6780  1.1707  0.8296
 3532SOL     OW22054   4.129   2.213   0.586 -0.0728  0.6959 -0.2724
 3532SOL    HW122055   4.223   2.227   0.591  0.3593 -1.4232 -2.2345
 3532SOL    HW222056   4.093   2.295   0.620 -0.4285  0.0884  0.7981
 3533SOL     OW22057   4.112   2.116   4.050 -0.0186 -0.0686  0.1087
 3533SOL    HW122058   4.181   2.130   4.116  0.5886  0.2474 -0.5885
 3533SOL    HW222059   4.050   2.175   4.093  1.1807  0.8732  0.5842
 3534SOL     OW22060   1.592   2.617   5.580 -0.3891  0.8033 -0.0079
 3534SOL    HW122061   1.637   2.618   5.496 -0.3610  1.6938  0.0151
 3534SOL    HW222062   1.564   2.708   5.592 -1.4377  0.7484 -1.9699
 3535SOL     OW22063   1.614   3.765   5.243 -0.5036 -0.2387  0.0018
 3535SOL    HW122064   1.688   3.712   5.274  0.2037  0.9946  0.3910
 3535SOL    HW222065   1.602   3.821   5.319 -2.6061  0.1030 -0.5889
 3536SOL     OW22066   3.042   0.392   8.371  0.5990  0.2863  0.3514
 3536SOL    HW122067   3.117   0.427   8.324  0.6217 -0.0266  0.1544
 3536SOL    HW222068   3.048   0.306   8.329  1.6751  1.5943 -2.1880
 3537SOL     OW22069   1.744   2.622  13.244  1.0405 -0.4679 -0.1332
 3537SOL    HW122070   1.676   2.687  13.264 -0.3165 -1.2814 -2.1273
 3537SOL    HW222071   1.744   2.645  13.151  2.2170 -0.8280 -0.2217
 3538SOL     OW22072   0.124   2.544  11.258  0.0637  0.6902 -0.8575
 3538SOL    HW122073   0.037   2.506  11.244  0.2274  0.6993 -1.8637
 3538SOL    HW222074   0.105   2.579  11.345  0.8878  1.4370 -0.9699
 3539SOL     OW22075   2.630   3.948   3.446 -0.0974  0.2854 -0.0684
 3539SOL    HW122076   2.613   3.880   3.381  0.7963  0.4356 -0.4583
 3539SOL    HW222077   2.622   4.026   3.392 -0.0631 -0.5673 -1.3069
 3540SOL     OW22078   0.102   3.634   3.564 -0.1045  0.4988  0.5373
 3540SOL    HW122079   0.121   3.630   3.658 -1.2052 -1.5441  0.6797
 3540SOL    HW222080   0.101   3.543   3.535 -0.5604  0.8917 -0.6835
 3541SOL     OW22081   2.920   4.557   2.090 -0.4047 -0.3102 -0.0524
 3541SOL    HW122082   2.973   4.567   2.169  3.0896 -2.6165 -2.0895
 3541SOL    HW222083   2.897   4.465   2.095  0.3002 -0.4510  0.7117
 3542SOL     OW22084   2.088   3.601  14.324 -0.2310  0.0291  0.4451
 3542SOL    HW122085   2.180   3.575  14.326 -0.3523 -0.1575  3.8404
 3542SOL    HW222086   2.053   3.536  14.263  3.3906 -2.2463  0.7874
 3543SOL     OW22087   2.336   1.567   7.302 -0.3155 -0.1328 -0.3776
 3543SOL    HW122088   2.417   1.521   7.324  1.6079  1.6038 -4.0101
 3543SOL    HW222089   2.285   1.577   7.383 -2.5563 -2.0383 -1.5583
 3544SOL     OW22090   2.747   0.216  13.669 -0.5216  0.0406  0.1600
 3544SOL    HW122091   2.660   0.223  13.630 -0.3271  1.7801  0.0486
 3544SOL    HW222092   2.739   0.206  13.764 -0.4485  0.8238  0.2528
 3545SOL     OW22093   4.687   2.523  17.396 -0.1173  0.1251  0.8123
 3545SOL    HW122094   4.643   2.585  17.337 -0.9032 -0.5316  0.7141
 3545SOL    HW222095   0.050   2.532  17.362 -0.4368  0.3670  0.0328
 3546SOL     OW22096   2.868   2.266  14.842  0.0551 -0.1534 -0.5490
 3546SOL    HW122097   2.942   2.263  14.780  0.5037 -0.4868  0.0048
 3546SOL    HW222098   2.852   2.360  14.839  0.9255  0.0153  0.1357
 3547SOL     OW22099   0.257   4.451   0.836 -0.1914  0.3091 -0.5337
 3547SOL    HW122100   0.255   4.361   0.804  3.0789  0.8514 -2.2379
 3547SOL    HW222101   0.175   4.456   0.884 -1.0440  0.1680 -1.9657
 3548SOL     OW22102   4.032   2.984   9.725  0.6832 -0.2131 -0.3097
 3548SOL    HW122103   4.059   3.013   9.637 -1.0586  1.9946 -0.1045
 3548SOL    HW222104   4.098   2.932   9.770 -2.4984 -3.0160  1.1018
 3549SOL     OW22105   0.377   4.368   3.594  0.0135 -0.1168  0.1598
 3549SOL    HW122106   0.315   4.295   3.594  0.0199 -0.1232 -3.2942
 3549SOL    HW222107   0.450   4.320   3.631 -1.8480 -1.0561  2.6567
 3550SOL     OW22108   4.521   3.714   5.276  0.0501 -0.0790  0.7304
 3550SOL    HW122109   4.591   3.770   5.243  1.2183 -1.6144  0.6213
 3550SOL    HW222110   4.511   3.667   5.193 -3.1794  2.4028 -0.2903
 3551SOL     OW22111   4.671   0.113   8.472 -0.1272  0.4624  0.0842
 3551SOL    HW122112   4.591   0.156   8.442  1.0922  1.2583 -2.0124
 3551SOL    HW222113   4.630   0.029   8.495  0.2234  0.5007  0.8464
 3552SOL     OW22114   3.210   4.395   2.511 -0.3424 -0.2806 -0.1164
 3552SOL    HW122115   3.153   4.460   2.470 -0.0887  0.0342  0.0397
 3552SOL    HW222116   3.273   4.389   2.439  1.6281 -1.4765  1.7137
 3553SOL     OW22117   2.226   3.126   5.811 -0.2924 -0.1323  0.1174
 3553SOL    HW122118   2.159   3.062   5.834  0.2515 -0.0396  1.9191
 3553SOL    HW222119   2.200   3.150   5.722  1.0881  3.0374  0.5496
 3554SOL     OW22120   3.250   3.444   4.301 -0.0753  0.1465 -0.1236
 3554SOL    HW122121   3.157   3.439   4.282 -0.0694  0.0516 -0.1293
 3554SOL    HW222122   3.263   3.353   4.330  1.7169  0.9337  1.5585
 3555SOL     OW22123   2.458   2.161   0.867  0.3204  0.3854 -0.1393
 3555SOL    HW122124   2.478   2.227   0.933 -1.7400  2.4835 -1.5651
 3555SOL    HW222125   2.498   2.200   0.789 -1.1045  0.8219 -0.6505
 3556SOL     OW22126   3.450   4.490   1.024 -0.0963 -0.4120 -0.4544
 3556SOL    HW122127   3.456   4.464   1.116  1.2964  0.6226 -0.2538
 3556SOL    HW222128   3.535   4.456   0.995  1.1839  1.0496  1.5634
 3557SOL     OW22129   3.526   4.473   4.691 -0.7600  0.0065  0.0781
 3557SOL    HW122130   3.592   4.525   4.738  2.3734 -0.4487 -3.8059
 3557SOL    HW222131   3.562   4.386   4.707  2.1799  1.0515 -0.9402
 3558SOL     OW22132   4.192   1.505  14.939  0.0324 -0.0334 -0.3228
 3558SOL    HW122133   4.235   1.590  14.939  1.3732 -0.6997  1.8372
 3558SOL    HW222134   4.208   1.464  14.854 -3.2391 -0.5864 -0.6912
 3559SOL     OW22135   1.847   3.666  10.359 -0.4308  0.5673  0.0083
 3559SOL    HW122136   1.808   3.615  10.429  1.2359  1.6298  1.7129
 3559SOL    HW222137   1.803   3.749  10.380 -1.3445 -0.0190  0.3876
 3560SOL     OW22138   3.624   2.202  16.973  0.0963  0.1517  0.6577
 3560SOL    HW122139   3.635   2.296  16.959  0.8678  0.3643  2.6736
 3560SOL    HW222140   3.649   2.180  17.063  0.2109  0.7786  0.7801
 3561SOL     OW22141   2.598   4.151   7.572  0.6592 -0.9111 -0.4548
 3561SOL    HW122142   2.557   4.134   7.656  1.3372  0.8024  0.2321
 3561SOL    HW222143   2.610   4.059   7.549 -2.1731 -1.0817 -1.2149
 3562SOL     OW22144   3.900   2.945   7.537 -0.2542 -0.1530  0.4335
 3562SOL    HW122145   3.958   2.972   7.466 -0.6761  1.3250  0.6552
 3562SOL    HW222146   3.934   2.997   7.610  0.9313  0.6941 -0.7201
 3563SOL     OW22147   2.835   4.393   7.188 -0.2049  0.6482 -0.2411
 3563SOL    HW122148   2.884   4.405   7.107  0.3330 -1.2710 -0.1931
 3563SOL    HW222149   2.798   4.476   7.217 -2.2217 -0.6425  0.8979
 3564SOL     OW22150   1.442   2.889   3.049  0.8941  0.3843  0.2606
 3564SOL    HW122151   1.407   2.920   2.965  2.7021  1.5058 -0.0726
 3564SOL    HW222152   1.526   2.933   3.043 -0.3033  2.6171 -0.0010
 3565SOL     OW22153   4.364   4.616   2.446  0.2158 -0.6073 -0.2403
 3565SOL    HW122154   4.307   4.630   2.521  1.2573 -0.2891  0.4985
 3565SOL    HW222155   4.344   4.691   2.390 -3.4212  0.6265  2.6992
 3566SOL     OW22156   0.757   1.417   1.213 -0.0416 -0.2260 -0.2733
 3566SOL    HW122157   0.675   1.429   1.260 -0.7484 -0.8376 -1.3596
 3566SOL    HW222158   0.733   1.334   1.172 -0.6959 -0.5230  0.7301
 3567SOL     OW22159   2.740   1.209   3.780  0.1015  0.2381  0.0258
 3567SOL    HW122160   2.779   1.296   3.773  1.1540 -0.1978  0.5518
 3567SOL    HW222161   2.687   1.230   3.856 -0.9748 -0.1381 -0.6181
 3568SOL     OW22162   4.569   3.362  12.966  0.3033 -0.0167  0.0895
 3568SOL    HW122163   4.500   3.300  12.989 -1.0023  1.8023  1.0629
 3568SOL    HW222164   4.575   3.361  12.871 -2.4013  1.9255 -0.0907
 3569SOL     OW22165   4.372   1.985   0.197 -0.0644 -0.6853  0.2713
 3569SOL    HW122166   4.352   2.036   0.119  1.4664  0.3050  0.5389
 3569SOL    HW222167   4.301   2.014   0.254 -0.5779  2.3103 -1.9285
 3570SOL     OW22168   3.006   4.244   3.379 -0.4152  0.1600  0.2903
 3570SOL    HW122169   2.975   4.309   3.316 -0.2120 -1.9823 -2.0552
 3570SOL    HW222170   3.012   4.293   3.460  2.4321 -0.5787  0.5222
 3571SOL     OW22171   2.957   3.938   5.769 -0.0279  0.1623 -0.1084
 3571SOL    HW122172   2.975   3.844   5.780 -1.6834 -0.1431  0.1187
 3571SOL    HW222173   2.866   3.936   5.739  0.0861  0.6860 -0.4859
 3572SOL     OW22174   3.013   4.248   4.198  0.3855  0.6037  0.0213
 3572SOL    HW122175   2.922   4.272   4.218  0.2221 -0.1027  0.1384
 3572SOL    HW222176   3.010   4.161   4.239 -0.3435  0.8363  0.4562
 3573SOL     OW22177   3.332   0.089   3.569  0.1326 -0.8586 -0.2216
 3573SOL    HW122178   3.334   0.175   3.528 -0.8853 -0.5758  0.3324
 3573SOL    HW222179   3.353   0.036   3.492 -1.2695 -2.3174  0.3919
 3574SOL     OW22180   0.061   0.755  12.508 -0.4547  0.3925 -0.2336
 3574SOL    HW122181   0.157   0.760  12.506 -0.4754  1.3153  1.2491
 3574SOL    HW222182   0.043   0.695  12.581  0.9322 -0.7065 -0.7795
 3575SOL     OW22183   3.467   3.415  16.960 -0.0030  0.1284 -0.0202
 3575SOL    HW122184   3.487   3.446  16.872  2.9299  0.9175  0.9260
 3575SOL    HW222185   3.424   3.491  16.998 -1.4229 -0.0414 -1.3328
 3576SOL     OW22186   2.820   1.969   7.354  0.1222  0.0557  0.4012
 3576SOL    HW122187   2.782   1.931   7.275  0.0264  2.3573 -0.6404
 3576SOL    HW222188   2.766   2.048   7.355 -0.1583 -0.1369  0.7155
 3577SOL     OW22189   3.679   3.139   2.663  0.6162  0.4010 -0.3621
 3577SOL    HW122190   3.620   3.210   2.690  2.9014  1.8657  0.7608
 3577SOL    HW222191   3.711   3.149   2.573  1.2322  1.2073 -0.0491
 3578SOL     OW22192   0.499   4.346   5.564  0.2219 -0.0219  0.0285
 3578SOL    HW122193   0.543   4.430   5.564 -0.6396  0.4323  1.1694
 3578SOL    HW222194   0.502   4.326   5.470 -1.7830  0.2367 -0.0902
 3579SOL     OW22195   1.725   4.722  12.128  0.0675 -0.3381  0.1733
 3579SOL    HW122196   1.805   0.040  12.098 -0.3916  0.7428  0.5203
 3579SOL    HW222197   1.753   4.631  12.122  1.5273  0.1290 -0.3497
 3580SOL     OW22198   4.628   3.027   3.415 -0.0829 -0.8201 -0.4052
 3580SOL    HW122199   4.617   2.970   3.491 -1.8930 -0.8342 -0.6657
 3580SOL    HW222200   4.692   3.086   3.453 -1.8126  1.6890 -1.3778
 3581SOL     OW22201   3.699   2.227   5.553  0.4675  0.0242 -0.3235
 3581SOL    HW122202   3.653   2.237   5.636 -0.5424 -2.5068 -0.5771
 3581SOL    HW222203   3.725   2.317   5.534  0.7278 -0.3428 -1.6970
 3582SOL     OW22204   1.179   1.511  16.445  0.0077 -0.0743 -0.8077
 3582SOL    HW122205   1.155   1.501  16.537 -1.8497 -2.4583 -1.5474
 3582SOL    HW222206   1.105   1.468  16.401  1.4175 -2.1717 -1.1387
 3583SOL     OW22207   2.479   1.374   6.022  0.3626  0.4197 -0.4946
 3583SOL    HW122208   2.559   1.332   6.051  0.0386  0.2542  0.1728
 3583SOL    HW222209   2.512   1.463   6.031 -0.3394  0.7319 -0.9753
 3584SOL     OW22210   4.239   2.781   7.779  0.2008 -0.1953  0.4077
 3584SOL    HW122211   4.212   2.703   7.731 -0.0734  0.6216 -0.7627
 3584SOL    HW222212   4.252   2.740   7.865  2.5645 -0.6071 -0.1584
 3585SOL     OW22213   0.919   2.014   4.254 -0.0004 -0.2876 -0.4172
 3585SOL    HW122214   0.946   2.041   4.166  2.4148  1.6352  0.8661
 3585SOL    HW222215   0.874   2.095   4.278  0.4298 -0.5327  1.2240
 3586SOL     OW22216   4.231   4.341   5.905 -0.4323 -0.4050  0.7498
 3586SOL    HW122217   4.262   4.428   5.880 -1.6083 -0.2131 -0.0626
 3586SOL    HW222218   4.136   4.343   5.891 -0.1519  0.7627 -0.9274
 3587SOL     OW22219   2.474   2.088   4.191  0.2488  0.0301 -0.0213
 3587SOL    HW122220   2.515   2.024   4.133 -1.5783 -0.5762 -0.6596
 3587SOL    HW222221   2.400   2.109   4.134  0.9695  1.4715 -0.4130
 3588SOL     OW22222   4.711   0.869   5.554  0.0264 -0.1449  0.0046
 3588SOL    HW122223   4.625   0.907   5.571  0.3165  0.6812 -0.3858
 3588SOL    HW222224   0.034   0.900   5.631  0.3445 -0.9595  0.1285
 3589SOL     OW22225   2.648   4.200   5.989  0.2745  0.1672  0.1703
 3589SOL    HW122226   2.636   4.222   6.081 -0.2484 -1.1289  0.4175
 3589SOL    HW222227   2.730   4.153   6.000 -0.1843 -0.0983  2.4075
 3590SOL     OW22228   1.699   4.720   9.507  0.2736  0.2616  0.2533
 3590SOL    HW122229   1.707   0.002   9.602  0.6038 -0.3413  0.2740
 3590SOL    HW222230   1.691   0.083   9.471  1.3899 -0.0016 -0.6632
 3591SOL     OW22231   2.015   3.660   8.861  0.0731 -0.4418  0.0750
 3591SOL    HW122232   2.046   3.738   8.906 -1.3011 -0.9122  1.8545
 3591SOL    HW222233   2.097   3.621   8.830  0.6386  0.2473  0.7107
 3592SOL     OW22234   3.092   3.093   4.207 -0.0531  0.2304  0.1483
 3592SOL    HW122235   3.074   3.002   4.227  0.7503  0.3363  1.3711
 3592SOL    HW222236   3.180   3.104   4.243  1.2619  1.4553 -3.4651
 3593SOL     OW22237   1.428   1.755   0.606 -1.0562 -0.2692  0.1835
 3593SOL    HW122238   1.384   1.782   0.526  0.5020  1.6310 -0.0364
 3593SOL    HW222239   1.516   1.784   0.580 -1.3253  0.2206 -0.1678
 3594SOL     OW22240   3.009   0.721   7.714 -0.1939 -0.0598  0.2920
 3594SOL    HW122241   3.094   0.747   7.750 -0.9026  1.9173  0.5012
 3594SOL    HW222242   2.958   0.697   7.791 -1.9940 -1.7006 -1.4109
 3595SOL     OW22243   0.869   3.207   6.662  0.6623  0.0042 -0.5455
 3595SOL    HW122244   0.777   3.226   6.679  0.7531  0.5752 -0.7142
 3595SOL    HW222245   0.869   3.124   6.614  1.5254 -0.7005  0.6350
 3596SOL     OW22246   1.041   4.036   7.741  0.3226  0.0689  0.3010
 3596SOL    HW122247   0.958   4.082   7.752 -0.8722 -1.8567 -0.7362
 3596SOL    HW222248   1.015   3.953   7.780 -0.8197  0.7010  0.8894
 3597SOL     OW22249   0.063   2.918   4.306  0.0099  0.7083  0.8507
 3597SOL    HW122250   0.136   2.866   4.341 -1.3871 -1.2907  0.8168
 3597SOL    HW222251   0.113   2.993   4.274  1.4725  1.4417  4.8808
 3598SOL     OW22252   0.519   1.470   8.343 -0.5808  0.0155  0.3442
 3598SOL    HW122253   0.561   1.555   8.349  2.5918 -1.6156  1.4188
 3598SOL    HW222254   0.429   1.494   8.365 -0.2497  1.7568 -0.2579
 3599SOL     OW22255   4.224   1.709  16.233  0.1441 -0.6494 -0.2110
 3599SOL    HW122256   4.144   1.661  16.253 -0.9898  1.1905 -0.3412
 3599SOL    HW222257   4.262   1.660  16.160 -0.0310  1.8514 -1.9753
 3600SOL     OW22258   1.532   0.804  12.064 -0.1541 -0.3670 -0.3101
 3600SOL    HW122259   1.537   0.889  12.022  1.5291  0.1402  0.9150
 3600SOL    HW222260   1.490   0.822  12.148  3.2860  1.4317  1.0210
 3601SOL     OW22261   4.320   3.269  11.587  0.1727 -0.1608  0.2243
 3601SOL    HW122262   4.351   3.298  11.673 -2.4945  2.1739  0.3935
 3601SOL    HW222263   4.296   3.177  11.595 -0.5302  0.2591  3.0091
 3602SOL     OW22264   3.098   0.338   6.484  0.0345  0.5523 -0.7659
 3602SOL    HW122265   3.091   0.308   6.393 -2.3533 -0.2702 -0.3083
 3602SOL    HW222266   3.065   0.427   6.473  1.2312  1.1400  0.4054
 3603SOL     OW22267   4.549   1.551   6.284 -0.0343  0.4877 -0.2567
 3603SOL    HW122268   4.478   1.603   6.248 -1.2026 -0.0861  1.2355
 3603SOL    HW222269   4.621   1.615   6.279  1.7109 -1.4309  0.1748
 3604SOL     OW22270   0.037   3.544   0.638  0.0314 -0.8091  0.0273
 3604SOL    HW122271   0.021   3.576   0.727 -0.3313 -0.1708 -0.2725
 3604SOL    HW222272   4.684   3.585   0.603  0.4981 -1.3027 -1.5968
 3605SOL     OW22273   4.506   4.557   6.236 -0.2576 -0.3194  0.3608
 3605SOL    HW122274   4.588   4.511   6.252  0.6781  1.8386  1.7103
 3605SOL    HW222275   4.440   4.488   6.244  0.1111 -0.3165  3.5310
 3606SOL     OW22276   3.838   0.433  14.728 -0.3628  0.4394 -0.0326
 3606SOL    HW122277   3.798   0.358  14.684  1.1988  0.1630 -0.9516
 3606SOL    HW222278   3.772   0.496  14.701 -2.2369 -1.8937 -0.9431
 3607SOL     OW22279   1.809   2.964   6.011 -0.2316  0.0188 -0.3547
 3607SOL    HW122280   1.720   2.930   6.006 -0.3944  0.5997 -1.3417
 3607SOL    HW222281   1.795   3.055   5.983 -0.9723  0.1920  0.5498
 3608SOL     OW22282   3.689   3.907   5.803  0.0065 -0.4384 -0.2240
 3608SOL    HW122283   3.595   3.926   5.812 -0.1204 -0.8403 -0.6901
 3608SOL    HW222284   3.727   3.976   5.749  0.0363  0.6386  1.1756
 3609SOL     OW22285   1.296   2.367  16.135  0.0566 -0.0702 -0.3688
 3609SOL    HW122286   1.279   2.458  16.160 -0.1918  0.2485 -1.7179
 3609SOL    HW222287   1.293   2.369  16.039 -0.8409  0.1636 -0.3418
 3610SOL     OW22288   2.687   1.923   7.756  0.1474 -0.1939 -0.5786
 3610SOL    HW122289   2.681   1.983   7.830  0.9530  1.0403 -1.5206
 3610SOL    HW222290   2.604   1.926   7.709  0.4863 -0.9021 -1.2301
 3611SOL     OW22291   0.846   4.684   6.951 -0.1286  0.2275 -0.3897
 3611SOL    HW122292   0.789   4.610   6.931 -0.0276  0.4263 -1.3952
 3611SOL    HW222293   0.910   4.635   7.004 -0.3741 -1.2246 -1.4320
 3612SOL     OW22294   1.690   4.467   2.595  0.1609 -0.4169  0.3742
 3612SOL    HW122295   1.679   4.496   2.686  0.1162  0.4512  0.0929
 3612SOL    HW222296   1.780   4.497   2.579 -0.7654  1.8899 -0.6111
 3613SOL     OW22297   2.621   2.650   4.922  0.7841 -0.3694  0.0936
 3613SOL    HW122298   2.537   2.633   4.967 -0.2519  1.5745 -1.1157
 3613SOL    HW222299   2.629   2.558   4.895  0.8592  0.1055 -1.4579
 3614SOL     OW22300   2.245   0.066   4.512 -0.1006  0.6319 -0.8582
 3614SOL    HW122301   2.250   0.122   4.435  1.0531 -0.0911 -1.2971
 3614SOL    HW222302   2.191   4.724   4.473 -0.0937  1.0032 -1.5120
 3615SOL     OW22303   0.652   0.279   7.447  0.1588 -0.0600 -0.3208
 3615SOL    HW122304   0.604   0.323   7.517 -0.1367  0.0802 -0.6153
 3615SOL    HW222305   0.580   0.260   7.387 -0.4665 -1.0312  0.7402
 3616SOL     OW22306   1.143   4.134   7.168 -0.1896 -0.5490  0.1294
 3616SOL    HW122307   1.097   4.118   7.086  1.0366 -0.0969 -0.6490
 3616SOL    HW222308   1.175   4.044   7.180 -1.1064 -0.8970 -0.0264
 3617SOL     OW22309   3.402   4.449   3.766 -0.0795 -0.5226 -0.1980
 3617SOL    HW122310   3.352   4.473   3.688 -1.0378  0.3571  0.6842
 3617SOL    HW222311   3.428   4.358   3.752  1.3168  0.2415 -2.6375
 3618SOL     OW22312   1.183   2.823   7.826 -0.3057 -0.5758  0.3355
 3618SOL    HW122313   1.184   2.793   7.917 -0.0606 -1.9124 -0.1084
 3618SOL    HW222314   1.137   2.907   7.831 -0.1779 -0.3538 -2.1378
 3619SOL     OW22315   0.881   3.643   6.099 -0.3413  0.0995  0.6701
 3619SOL    HW122316   0.795   3.637   6.140  1.3026 -0.5819  3.9684
 3619SOL    HW222317   0.934   3.633   6.178  0.2330 -1.0123  0.1486
 3620SOL     OW22318   1.062   2.803  14.612  0.3948 -0.1949  0.1773
 3620SOL    HW122319   1.052   2.726  14.556 -3.5321  0.2564  0.2313
 3620SOL    HW222320   1.150   2.833  14.589  0.9744 -0.7232  1.7264
 3621SOL     OW22321   3.699   2.740  11.293 -0.1140  0.3631 -0.1935
 3621SOL    HW122322   3.613   2.715  11.328 -0.0893  0.0415 -0.3674
 3621SOL    HW222323   3.673   2.801  11.224 -0.3511 -1.3958 -1.6324
 3622SOL     OW22324   2.751   1.157  16.308  0.0287  0.2427 -0.0216
 3622SOL    HW122325   2.688   1.089  16.287 -0.7916  1.0183 -0.0758
 3622SOL    HW222326   2.757   1.134  16.401  1.7885 -0.1450 -0.2352
 3623SOL     OW22327   1.926   4.715  14.125 -0.2926 -0.3916 -0.5638
 3623SOL    HW122328   1.838   4.705  14.089 -1.8254  1.2227  2.7453
 3623SOL    HW222329   1.959   4.627  14.107  0.7346  0.1971 -1.5676
 3624SOL     OW22330   3.054   4.645  14.931  0.1889  0.0049 -0.1410
 3624SOL    HW122331   3.131   4.701  14.937  0.9348 -1.0128 -0.4222
 3624SOL    HW222332   3.079   4.585  15.001  0.7760  1.7498  1.1621
 3625SOL     OW22333   0.134   3.086  16.402 -0.6750 -0.0024 -0.1492
 3625SOL    HW122334   0.089   3.008  16.431 -0.9632  0.2681  0.1285
 3625SOL    HW222335   0.218   3.080  16.447 -0.7294  0.4789  0.0217
 3626SOL     OW22336   0.554   2.798   9.999  0.9435  0.3726 -0.1235
 3626SOL    HW122337   0.567   2.714   9.955  1.7625 -1.0957  2.8801
 3626SOL    HW222338   0.564   2.852   9.921  1.4587 -0.9262 -0.9576
 3627SOL     OW22339   3.481   0.053  13.331  0.2468 -0.2471  0.3123
 3627SOL    HW122340   3.453   0.051  13.422  1.8164 -0.1433  0.7978
 3627SOL    HW222341   3.464   4.689  13.304  0.5936 -0.8412  2.0663
 3628SOL     OW22342   2.353   4.133  10.246  0.1342  0.0376 -0.0479
 3628SOL    HW122343   2.413   4.074  10.292 -1.8649 -0.0461  2.3850
 3628SOL    HW222344   2.334   4.198  10.313  1.4977  0.2676  0.1161
 3629SOL     OW22345   1.112   1.687   6.426  0.7032  0.2622 -0.7547
 3629SOL    HW122346   1.104   1.666   6.519  2.9254 -0.0883 -0.6452
 3629SOL    HW222347   1.146   1.602   6.395  1.7244 -0.7648  3.1339
 3630SOL     OW22348   4.235   4.473   4.999 -0.1966  0.2135 -0.0376
 3630SOL    HW122349   4.142   4.470   5.022  0.3216 -1.0593  1.8596
 3630SOL    HW222350   4.276   4.474   5.085 -1.1804  1.9200  0.4282
 3631SOL     OW22351   3.030   3.070  17.068  0.1658  0.4171 -0.0607
 3631SOL    HW122352   2.987   3.150  17.097  1.9325  0.9677  1.0192
 3631SOL    HW222353   3.034   3.089  16.974 -0.2599 -1.9975 -0.5782
 3632SOL     OW22354   2.026   2.340  14.771 -0.0327 -0.3381 -0.1126
 3632SOL    HW122355   1.970   2.382  14.706 -3.7474 -0.5740  2.9464
 3632SOL    HW222356   1.965   2.316  14.841 -1.5194 -1.2955 -1.7744
 3633SOL     OW22357   1.225   2.526   1.967 -0.7527 -0.2771  0.5490
 3633SOL    HW122358   1.257   2.597   2.022 -2.1279 -0.2384  1.3107
 3633SOL    HW222359   1.280   2.453   1.995  0.7519  0.6400 -0.0364
 3634SOL     OW22360   0.207   4.413   4.646 -0.4391  0.1910 -0.0323
 3634SOL    HW122361   0.221   4.321   4.625  1.0599  0.2481  0.7087
 3634SOL    HW222362   0.116   4.414   4.617  0.7163  2.2088 -3.5697
 3635SOL     OW22363   0.243   0.422  13.395  0.0777  0.5126  0.1109
 3635SOL    HW122364   0.300   0.389  13.465 -1.1197 -0.4706  0.6082
 3635SOL    HW222365   0.237   0.518  13.398  0.7788  0.6024 -1.0340
 3636SOL     OW22366   2.471   1.804   8.006 -0.1484 -0.1568 -0.5880
 3636SOL    HW122367   2.407   1.760   7.950  0.0113  1.0753 -1.7358
 3636SOL    HW222368   2.434   1.891   8.022  2.3802  1.3898 -3.2278
 3637SOL     OW22369   2.636   1.561   0.892 -0.3600 -0.4743  0.0540
 3637SOL    HW122370   2.562   1.590   0.839  1.1392  1.7252 -0.8500
 3637SOL    HW222371   2.712   1.567   0.833  1.3498 -0.0266  2.3099
 3638SOL     OW22372   4.410   1.638   3.036 -0.7529 -0.4216 -0.6788
 3638SOL    HW122373   4.357   1.713   3.064  1.1929  0.8290 -0.3607
 3638SOL    HW222374   4.338   1.577   3.022 -0.2082 -1.3091  0.4674
 3639SOL     OW22375   3.624   2.718   2.910  0.0966 -0.3616  0.2678
 3639SOL    HW122376   3.537   2.682   2.927 -0.0183 -0.5111 -0.6812
 3639SOL    HW222377   3.666   2.721   2.996 -0.0201 -0.1959  0.3203
 3640SOL     OW22378   2.356   3.250   6.683 -0.2243  0.2971  0.2278
 3640SOL    HW122379   2.384   3.341   6.684  1.4968 -0.2481  0.8106
 3640SOL    HW222380   2.418   3.211   6.621  1.7972  3.0561  0.5623
 3641SOL     OW22381   3.312   1.785   1.996 -0.3143  0.3119  0.5439
 3641SOL    HW122382   3.286   1.705   1.950 -1.3610  0.3921  1.0132
 3641SOL    HW222383   3.388   1.803   1.940  0.2828 -1.2181  0.8560
 3642SOL     OW22384   3.434   3.783   2.476 -0.6359  0.5114 -0.0034
 3642SOL    HW122385   3.516   3.775   2.524 -1.5467 -0.7454  1.3408
 3642SOL    HW222386   3.422   3.702   2.427 -1.3411 -0.6910  2.1437
 3643SOL     OW22387   1.252   2.143   2.414 -0.1432 -0.2940 -0.0064
 3643SOL    HW122388   1.338   2.166   2.448  1.1730 -1.7252 -2.3132
 3643SOL    HW222389   1.216   2.092   2.487 -1.0903 -0.7437 -0.7749
 3644SOL     OW22390   2.018   1.083   7.671 -0.0945 -0.0230  0.2344
 3644SOL    HW122391   2.098   1.103   7.622 -0.3228  0.0027 -0.1286
 3644SOL    HW222392   2.051   1.048   7.754  0.4698 -1.8491 -0.7854
 3645SOL     OW22393   1.303   0.949   8.289 -0.3515  0.3109  0.0695
 3645SOL    HW122394   1.278   1.042   8.286  0.6383  0.6371  2.0094
 3645SOL    HW222395   1.389   0.953   8.249 -0.3041  0.6190  0.2008
 3646SOL     OW22396   2.571   4.466   6.663  0.3618 -0.2148  0.4173
 3646SOL    HW122397   2.513   4.426   6.727 -0.6582 -1.0158 -1.0054
 3646SOL    HW222398   2.553   4.559   6.657 -0.0899 -0.4425 -1.8367
 3647SOL     OW22399   1.557   1.363   4.749  0.4923 -0.0794  0.2497
 3647SOL    HW122400   1.644   1.329   4.770  0.5611 -0.5401 -0.7564
 3647SOL    HW222401   1.575   1.437   4.692 -1.3810  1.8048  2.1252
 3648SOL     OW22402   2.199   0.344   1.541  0.2696 -0.2212 -0.9836
 3648SOL    HW122403   2.177   0.288   1.467 -0.5327 -0.2153 -0.7497
 3648SOL    HW222404   2.116   0.391   1.554 -0.6608 -2.3981  1.0478
 3649SOL     OW22405   0.092   3.202  11.096 -0.3252  0.4249 -0.6023
 3649SOL    HW122406   0.134   3.139  11.038 -0.4358 -0.6405  0.4878
 3649SOL    HW222407   0.017   3.151  11.128  0.8902 -0.8671  0.1851
 3650SOL     OW22408   3.901   1.561   6.440  0.4154 -0.2470  0.1409
 3650SOL    HW122409   3.914   1.467   6.435  0.3280 -0.2633  0.2133
 3650SOL    HW222410   3.990   1.596   6.437 -0.0389  0.7962 -1.2374
 3651SOL     OW22411   4.571   1.833   3.183 -0.5340  0.0723  0.5013
 3651SOL    HW122412   4.644   1.812   3.241 -0.0857  0.7407  0.1732
 3651SOL    HW222413   4.532   1.750   3.156 -1.0107  0.2649  0.5943
 3652SOL     OW22414   2.341   0.980  16.716  0.0491  0.3311 -0.1537
 3652SOL    HW122415   2.379   0.946  16.797  0.2543  0.1796 -0.3134
 3652SOL    HW222416   2.315   1.065  16.751  0.3412  0.2225  0.3314
 3653SOL     OW22417   3.836   0.404  15.423 -0.4313 -0.9553 -0.0035
 3653SOL    HW122418   3.849   0.322  15.471 -2.2738 -1.0891  0.2854
 3653SOL    HW222419   3.884   0.385  15.343 -3.1685 -1.0691 -1.6239
 3654SOL     OW22420   2.315   0.982   2.342  0.0298 -0.4857 -0.2005
 3654SOL    HW122421   2.373   1.053   2.314 -3.0717  1.7245 -0.9832
 3654SOL    HW222422   2.236   1.031   2.363  0.2892 -0.0333 -0.2718
 3655SOL     OW22423   4.242   3.879   4.451 -0.3590 -0.4748 -0.4238
 3655SOL    HW122424   4.247   3.975   4.452  2.5261 -0.6313  0.0276
 3655SOL    HW222425   4.149   3.864   4.439 -0.5066  0.1440 -0.0364
 3656SOL     OW22426   3.980   3.729  16.895 -0.1148 -0.4621  0.8652
 3656SOL    HW122427   3.966   3.738  16.800 -1.7981 -0.7042  1.0961
 3656SOL    HW222428   3.944   3.815  16.918 -0.2248 -0.6393  1.3586
 3657SOL     OW22429   0.407   1.958   6.231 -0.2468 -0.0275  0.2327
 3657SOL    HW122430   0.478   1.919   6.283 -1.0445 -0.2116  1.1781
 3657SOL    HW222431   0.346   1.886   6.246  0.5432 -1.0017 -1.2931
 3658SOL     OW22432   0.269   3.460   5.819  0.7985 -0.0276  0.4581
 3658SOL    HW122433   0.236   3.463   5.730  4.2352 -2.3205 -0.8604
 3658SOL    HW222434   0.191   3.454   5.875  1.5468  0.8226  1.5963
 3659SOL     OW22435   2.575   3.144  13.397  0.3895 -0.0241 -0.5053
 3659SOL    HW122436   2.488   3.164  13.433 -0.2582  1.8995 -3.1328
 3659SOL    HW222437   2.563   3.158  13.303  3.2330  0.8490 -0.7451
 3660SOL     OW22438   4.117   1.730  16.861 -0.4508  0.6148  0.4895
 3660SOL    HW122439   4.076   1.812  16.833  0.6209  1.6402  1.8593
 3660SOL    HW222440   4.185   1.734  16.794 -0.7214  0.3186  0.1997
 3661SOL     OW22441   4.590   0.609  13.137  0.5039  0.3711 -0.2471
 3661SOL    HW122442   4.515   0.550  13.128  0.2902  0.5374  0.4168
 3661SOL    HW222443   4.550   0.696  13.142  1.0331  0.7128 -1.8340
 3662SOL     OW22444   3.532   1.655  11.790 -0.7615 -0.6921 -0.1315
 3662SOL    HW122445   3.600   1.721  11.778 -0.7502 -0.7666 -0.4691
 3662SOL    HW222446   3.481   1.699  11.858 -1.5320 -1.6108 -0.1284
 3663SOL     OW22447   1.933   0.325   0.005  0.5113 -0.0864  0.0754
 3663SOL    HW122448   1.905   0.234   0.016  0.3665 -0.1160 -0.5192
 3663SOL    HW222449   2.009   0.306  17.654 -0.4284 -0.2084 -1.1463
 3664SOL     OW22450   1.155   0.571   0.515  0.3373 -0.5921  0.4056
 3664SOL    HW122451   1.183   0.547   0.603  0.1638 -1.3678  0.2522
 3664SOL    HW222452   1.061   0.585   0.523  0.6827  1.6509  0.6101
 3665SOL     OW22453   3.546   1.932   1.551 -0.5883  0.3869 -0.1608
 3665SOL    HW122454   3.481   1.961   1.615 -0.9936 -1.2010  0.1387
 3665SOL    HW222455   3.542   1.837   1.554 -0.0346  0.4066  1.1042
 3666SOL     OW22456   1.298   2.727   6.899 -0.2806  0.1426  0.0775
 3666SOL    HW122457   1.386   2.712   6.864 -0.6248  0.8578 -1.1065
 3666SOL    HW222458   1.260   2.801   6.851  1.3020  1.7241  1.2778
 3667SOL     OW22459   1.364   0.629   6.370 -0.2154 -0.5480 -0.4290
 3667SOL    HW122460   1.280   0.587   6.388  0.3663 -0.3237  2.6523
 3667SOL    HW222461   1.342   0.722   6.377  1.6709 -0.0163 -1.7511
 3668SOL     OW22462   1.691   0.486  14.055 -0.7260  0.0689  0.7466
 3668SOL    HW122463   1.713   0.531  14.137 -0.3161 -1.0785  1.2679
 3668SOL    HW222464   1.751   0.411  14.064  0.9617  1.5398  1.8705
 3669SOL     OW22465   1.468   4.170   4.305 -0.7027  0.5767  0.5875
 3669SOL    HW122466   1.505   4.238   4.248 -3.2153  0.4937 -1.1042
 3669SOL    HW222467   1.414   4.228   4.359 -0.0120  3.0344 -1.3418
 3670SOL     OW22468   2.303   2.820   4.748 -0.1070 -0.4580 -0.1992
 3670SOL    HW122469   2.284   2.837   4.840 -1.3708 -0.2917 -0.4913
 3670SOL    HW222470   2.271   2.907   4.725  0.7814 -0.2687 -0.7137
 3671SOL     OW22471   0.725   0.891   9.825 -0.5261  0.1524 -0.1494
 3671SOL    HW122472   0.709   0.894   9.920  3.5119 -0.1657  0.5296
 3671SOL    HW222473   0.712   0.798   9.806 -0.0926  0.5647 -2.4015
 3672SOL     OW22474   1.481   2.632   3.124 -0.3898 -0.0144 -0.3252
 3672SOL    HW122475   1.433   2.602   3.201  0.5937 -0.4316  0.1204
 3672SOL    HW222476   1.451   2.723   3.121 -0.9360 -0.1541  1.0186
 3673SOL     OW22477   0.974   3.555   3.989  0.3182 -0.7406  0.2792
 3673SOL    HW122478   0.938   3.467   4.000 -2.9252  0.8166  2.1531
 3673SOL    HW222479   0.973   3.588   4.079 -0.6180 -1.2130  0.4405
 3674SOL     OW22480   0.162   4.204   5.242  0.2913  0.3210 -0.0390
 3674SOL    HW122481   0.105   4.279   5.223  0.7663  1.0091  1.2473
 3674SOL    HW222482   0.163   4.157   5.158 -1.5092  0.0950  0.0674
 3675SOL     OW22483   1.461   1.912   6.492  0.1015 -0.0389 -0.2160
 3675SOL    HW122484   1.472   1.910   6.587  1.3374  0.3607 -0.3492
 3675SOL    HW222485   1.367   1.908   6.479 -0.2812  0.3034  2.4615
 3676SOL     OW22486   0.383   0.780   0.241  0.1604 -0.0532 -0.1517
 3676SOL    HW122487   0.364   0.873   0.248 -0.6555 -0.2605  0.3371
 3676SOL    HW222488   0.467   0.789   0.195 -0.6363  0.7743 -1.4199
 3677SOL     OW22489   2.735   2.119   3.467 -0.8441 -0.1231 -0.1902
 3677SOL    HW122490   2.703   2.047   3.413 -2.6436 -0.4722  1.3747
 3677SOL    HW222491   2.777   2.168   3.397  0.0015 -0.7148 -0.1015
 3678SOL     OW22492   4.685   3.918  11.134 -0.2142  0.1767 -0.8284
 3678SOL    HW122493   4.655   4.007  11.116  1.3929  1.3313  2.1038
 3678SOL    HW222494   4.725   3.920  11.221  1.0578  1.0058 -1.4363
 3679SOL     OW22495   0.094   2.829   6.557 -0.6853  0.3794  0.1175
 3679SOL    HW122496   0.020   2.768   6.565 -1.3902  1.4347  1.6532
 3679SOL    HW222497   0.084   2.903   6.617 -1.2496  0.4075 -0.0099
 3680SOL     OW22498   2.533   3.940   0.479  0.0764 -0.3891 -0.3905
 3680SOL    HW122499   2.452   3.963   0.433  0.4001  1.3257 -0.1004
 3680SOL    HW222500   2.531   4.004   0.550 -2.9409  1.3514 -2.0233
 3681SOL     OW22501   0.777   2.982   8.264  0.0299 -0.1059  0.1510
 3681SOL    HW122502   0.821   2.916   8.210 -1.0918  0.8727 -1.9794
 3681SOL    HW222503   0.719   3.013   8.194  0.3063  1.2742  0.5451
 3682SOL     OW22504   2.896   0.106  14.412  0.0144 -0.6724 -0.0058
 3682SOL    HW122505   2.962   0.092  14.480  0.9900  0.6731 -0.6692
 3682SOL    HW222506   2.847   0.176  14.455  1.8671  0.5656  0.0955
 3683SOL     OW22507   0.036   3.121  12.782  0.5354 -0.5262 -0.1646
 3683SOL    HW122508   4.679   3.143  12.824  1.9720  0.0881  2.3616
 3683SOL    HW222509   0.039   3.180  12.707 -0.2409  0.7983  0.8670
 3684SOL     OW22510   2.724   0.192   4.630 -0.4384  0.1710  0.2038
 3684SOL    HW122511   2.790   0.196   4.561  1.3780 -0.9456  1.9182
 3684SOL    HW222512   2.777   0.224   4.702 -1.5013 -0.1212  1.1204
 3685SOL     OW22513   1.249   2.216   8.295  0.1238 -0.2410 -0.0667
 3685SOL    HW122514   1.222   2.128   8.269 -1.0893  0.2871 -0.6083
 3685SOL    HW222515   1.260   2.250   8.206 -2.6906  1.1977  0.1276
 3686SOL     OW22516   3.782   4.133  17.525  0.1721 -0.1830  0.4192
 3686SOL    HW122517   3.865   4.112  17.567  0.6751 -0.0835 -0.5314
 3686SOL    HW222518   3.788   4.099  17.436  1.9778  0.8694  0.1382
 3687SOL     OW22519   4.566   4.272   2.216  0.0958 -0.3320 -0.3093
 3687SOL    HW122520   4.569   4.321   2.298 -1.4350  1.0441 -1.0625
 3687SOL    HW222521   4.645   4.308   2.175  1.0544 -1.7055  0.3623
 3688SOL     OW22522   2.120   0.409  14.136  0.4576  0.2635 -0.5680
 3688SOL    HW122523   2.028   0.387  14.116  1.0160 -0.3064 -2.4648
 3688SOL    HW222524   2.122   0.423  14.231 -0.5681  0.9056 -0.6413
 3689SOL     OW22525   4.642   1.201   2.434  0.2478 -0.5920 -0.1509
 3689SOL    HW122526   4.548   1.218   2.423  0.0963 -2.5414 -1.9778
 3689SOL    HW222527   4.668   1.280   2.482 -2.2447  1.0104 -1.4224
 3690SOL     OW22528   1.303   1.435   4.865 -0.4945 -0.0959  0.0085
 3690SOL    HW122529   1.337   1.520   4.891  0.9889 -1.6308  3.1730
 3690SOL    HW222530   1.378   1.404   4.815 -0.9970 -0.1579 -0.7059
 3691SOL     OW22531   0.316   1.032   8.399  0.4112 -0.0105  0.3347
 3691SOL    HW122532   0.258   0.958   8.383 -0.7029  0.4426  2.3251
 3691SOL    HW222533   0.338   1.019   8.491 -2.7086 -1.3668  0.9047
 3692SOL     OW22534   1.319   1.097  16.542 -0.7298 -0.3981  0.8767
 3692SOL    HW122535   1.234   1.111  16.586 -0.6568  1.0762  0.5279
 3692SOL    HW222536   1.336   1.181  16.500  2.2386 -1.6708 -0.4704
 3693SOL     OW22537   0.290   1.660  15.001 -0.0422  0.0071  0.4947
 3693SOL    HW122538   0.253   1.741  14.967  0.3448 -0.1467 -0.2868
 3693SOL    HW222539   0.382   1.684  15.013  0.6076 -1.8485 -0.6861
 3694SOL     OW22540   2.787   2.690   3.137 -0.3999 -0.1560 -0.0895
 3694SOL    HW122541   2.761   2.598   3.135  1.1532 -0.5955  0.3016
 3694SOL    HW222542   2.734   2.741   3.075  0.5708 -1.5578 -2.0562
 3695SOL     OW22543   0.355   2.625  14.302 -0.3666 -0.0330  0.1258
 3695SOL    HW122544   0.372   2.693  14.367 -2.0415  0.6315 -0.1416
 3695SOL    HW222545   0.308   2.554  14.347  2.0458 -0.1614  2.4506
 3696SOL     OW22546   1.974   2.354   7.116  0.4271  0.3492  0.5629
 3696SOL    HW122547   1.905   2.313   7.064  0.9666  0.9414 -0.6198
 3696SOL    HW222548   2.010   2.422   7.059 -0.0178  0.9306  0.9807
 3697SOL     OW22549   0.742   2.584   7.911 -0.5598 -0.3524  0.1075
 3697SOL    HW122550   0.784   2.525   7.849 -0.1548  0.2132 -0.1541
 3697SOL    HW222551   0.762   2.669   7.871  0.0593 -0.2335  0.6660
 3698SOL     OW22552   4.070   2.461   3.755  0.7018 -0.0626 -0.0315
 3698SOL    HW122553   4.052   2.384   3.808 -3.9666  0.7730 -0.3118
 3698SOL    HW222554   4.107   2.528   3.812 -1.7975  0.8802  0.4786
 3699SOL     OW22555   0.945   1.984  16.385 -0.3462 -0.5332 -0.5761
 3699SOL    HW122556   0.859   2.023  16.398  0.1639  0.4585 -0.2162
 3699SOL    HW222557   0.970   2.024  16.302  1.9678  0.1230  0.4329
 3700SOL     OW22558   4.522   1.984   6.895 -0.3390  0.0427  0.0963
 3700SOL    HW122559   4.435   1.949   6.876  0.8049 -2.8468  0.2034
 3700SOL    HW222560   4.520   2.076   6.921 -0.3805 -0.0157  0.2989
 3701SOL     OW22561   3.963   0.348   7.945  0.5658  0.0923 -0.5618
 3701SOL    HW122562   4.058   0.348   7.937  0.6404  0.2904  0.4228
 3701SOL    HW222563   3.934   0.438   7.957  1.1050  0.0826  0.7952
 3702SOL     OW22564   1.730   2.722   3.202 -0.1212 -0.0191 -0.2290
 3702SOL    HW122565   1.652   2.682   3.163 -0.9465  1.6717 -0.3126
 3702SOL    HW222566   1.771   2.768   3.128  0.9650 -0.0437  0.3516
 3703SOL     OW22567   3.501   0.304   4.486  0.1553  0.3821 -0.2327
 3703SOL    HW122568   3.480   0.216   4.453 -1.0571  0.3603  0.5783
 3703SOL    HW222569   3.562   0.330   4.418  1.6720 -1.4076  0.4492
 3704SOL     OW22570   1.200   1.704   7.276  0.1937  0.2070 -0.4194
 3704SOL    HW122571   1.285   1.742   7.252  1.4326 -3.1729 -1.4759
 3704SOL    HW222572   1.170   1.755   7.351  0.5107 -1.3057  0.7407
 3705SOL     OW22573   2.197   3.092   4.718  0.3408 -0.4835 -0.5890
 3705SOL    HW122574   2.210   3.177   4.676 -1.4299 -0.0527 -0.2876
 3705SOL    HW222575   2.139   3.117   4.790  0.7629 -0.4293 -0.2742
 3706SOL     OW22576   1.345   1.907   6.184 -0.0113 -0.3009 -0.3795
 3706SOL    HW122577   1.362   1.998   6.158  0.3589 -0.4247 -0.5710
 3706SOL    HW222578   1.429   1.882   6.221 -0.0062  0.6903  0.2728
 3707SOL     OW22579   1.482   3.633  12.695 -0.0644  0.0610 -0.1603
 3707SOL    HW122580   1.498   3.676  12.779 -0.2172  0.0126 -0.1066
 3707SOL    HW222581   1.500   3.708  12.638  0.2524  0.4042  0.3832
 3708SOL     OW22582   2.870   0.738   0.503  0.0126 -0.1868 -0.0267
 3708SOL    HW122583   2.892   0.718   0.412 -2.2482 -1.8354 -0.2121
 3708SOL    HW222584   2.902   0.828   0.516 -0.3053 -0.5747  3.3529
 3709SOL     OW22585   2.506   1.249   3.500 -0.7283 -0.5454 -0.2981
 3709SOL    HW122586   2.552   1.260   3.583  0.2351  0.5842 -0.9690
 3709SOL    HW222587   2.577   1.237   3.437  0.4852  2.3807  0.4830
 3710SOL     OW22588   1.854   3.946   3.771 -0.1007  0.5087 -0.0833
 3710SOL    HW122589   1.935   3.939   3.722 -0.1037 -0.3757  0.0364
 3710SOL    HW222590   1.820   4.021   3.723 -0.8978  0.1465 -0.0857
 3711SOL     OW22591   1.824   0.467   3.069  0.4755 -0.0784 -0.2746
 3711SOL    HW122592   1.765   0.540   3.055 -0.6044 -0.3186  3.1009
 3711SOL    HW222593   1.868   0.460   2.984  0.2987 -2.3902 -0.1795
 3712SOL     OW22594   2.892   1.419  15.555 -0.2273 -0.0002 -0.0682
 3712SOL    HW122595   2.855   1.504  15.531  0.0393  0.4595  1.1750
 3712SOL    HW222596   2.915   1.371  15.475  1.5725  1.3891 -0.3923
 3713SOL     OW22597   4.378   0.814   2.791 -0.1089  0.0978  0.1062
 3713SOL    HW122598   4.465   0.789   2.759 -0.6486  1.2207 -2.2073
 3713SOL    HW222599   4.330   0.732   2.776  1.1833 -0.3991 -1.4100
 3714SOL     OW22600   0.984   0.197   4.141 -0.0617  0.1910 -0.3215
 3714SOL    HW122601   0.984   0.108   4.176 -1.6368 -0.3998 -1.7993
 3714SOL    HW222602   0.930   0.179   4.064 -0.7941  3.2744 -0.5641
 3715SOL     OW22603   1.333   0.678   5.753 -0.0831 -0.3511  0.0819
 3715SOL    HW122604   1.345   0.753   5.695  1.2033 -0.0921  0.6707
 3715SOL    HW222605   1.322   0.603   5.694  2.3520 -0.5481 -0.1366
 3716SOL     OW22606   4.234   0.904   3.942 -0.2218  0.1291 -0.1845
 3716SOL    HW122607   4.237   0.835   4.007 -0.1936  1.5389  1.3034
 3716SOL    HW222608   4.318   0.886   3.899 -1.0469  0.0936 -1.8151
 3717SOL     OW22609   3.191   2.248  14.962 -0.4756 -0.1437 -0.3707
 3717SOL    HW122610   3.155   2.290  14.884 -0.0073  1.9735  0.5778
 3717SOL    HW222611   3.156   2.159  14.952 -1.0016  0.0094  0.1414
 3718SOL     OW22612   2.951   3.653   4.502  0.0789  0.3176  0.1982
 3718SOL    HW122613   2.960   3.744   4.475 -0.4510  0.1928 -0.4012
 3718SOL    HW222614   2.948   3.671   4.596 -0.1507  1.0157  0.0536
 3719SOL     OW22615   3.740   2.375  17.653 -0.1328 -0.4699 -0.4395
 3719SOL    HW122616   3.721   2.384  17.560  2.9510  0.5015 -0.9668
 3719SOL    HW222617   3.673   2.432  17.691  0.5445  0.0065  0.0283
 3720SOL     OW22618   3.114   1.701   7.731  0.0046  0.2254 -0.2008
 3720SOL    HW122619   3.152   1.760   7.667 -0.6186 -1.4536 -2.1042
 3720SOL    HW222620   3.146   1.615   7.705 -2.2984 -0.8668  0.5576
 3721SOL     OW22621   4.426   0.511   4.467 -0.2510 -0.1426  0.3745
 3721SOL    HW122622   4.368   0.505   4.543  0.0959 -1.9133  0.5098
 3721SOL    HW222623   4.509   0.510   4.516 -0.1272 -1.7510  0.1351
 3722SOL     OW22624   1.085   3.069   7.899  0.4692 -0.8350 -0.3375
 3722SOL    HW122625   1.098   3.142   7.960 -0.1813 -1.9179  1.1238
 3722SOL    HW222626   1.035   3.094   7.822  0.4917 -1.9143 -0.7028
 3723SOL     OW22627   1.177   4.532  17.113 -0.3294 -0.2316 -0.2925
 3723SOL    HW122628   1.100   4.522  17.169  0.4030 -0.9826  0.5910
 3723SOL    HW222629   1.247   4.503  17.171 -1.0581 -0.4869  0.4592
 3724SOL     OW22630   4.172   0.308  17.492 -0.2899 -0.5715 -0.2192
 3724SOL    HW122631   4.171   0.269  17.579  0.0535  0.7573  0.3750
 3724SOL    HW222632   4.194   0.233  17.437  0.8354 -1.3350  1.2861
 3725SOL     OW22633   1.083   3.138   7.138 -0.2383 -0.1774  0.4632
 3725SOL    HW122634   1.107   3.208   7.199  1.6193  0.1616 -0.6857
 3725SOL    HW222635   1.088   3.188   7.057  1.3751 -2.4884 -0.8381
 3726SOL     OW22636   4.378   2.459   7.728  0.4057  0.3601  0.2389
 3726SOL    HW122637   4.470   2.432   7.732  0.5262  0.5265 -1.2239
 3726SOL    HW222638   4.348   2.397   7.795  0.4475 -0.9284 -0.9360
 3727SOL     OW22639   0.804   0.343   6.990  0.3658 -0.1594 -0.5009
 3727SOL    HW122640   0.750   0.292   6.930  1.2960 -0.8183 -0.7932
 3727SOL    HW222641   0.828   0.277   7.055 -1.7004  0.0785  0.5022
 3728SOL     OW22642   2.105   1.346   5.396  0.4556  0.2414  0.5427
 3728SOL    HW122643   2.150   1.306   5.470  0.8084  0.3819  0.4091
 3728SOL    HW222644   2.157   1.426   5.394 -2.8290  2.3379 -0.5307
 3729SOL     OW22645   2.619   2.427   1.985  0.5394 -0.6070  0.2025
 3729SOL    HW122646   2.603   2.485   1.911  0.6400 -1.8288 -0.7702
 3729SOL    HW222647   2.587   2.339   1.966 -0.6273  0.1740 -1.4953
 3730SOL     OW22648   1.295   1.358   2.391 -0.3982  0.0462 -0.7647
 3730SOL    HW122649   1.333   1.311   2.317 -2.7825 -1.3910 -1.0692
 3730SOL    HW222650   1.211   1.369   2.345 -1.2540  0.9489  1.0274
 3731SOL     OW22651   4.477   3.702   2.506 -0.4237 -0.3112  0.5287
 3731SOL    HW122652   4.548   3.652   2.546  0.6559  0.3240 -0.5676
 3731SOL    HW222653   4.514   3.789   2.519 -2.1775  0.5788 -0.3316
 3732SOL     OW22654   1.542   2.484   4.121  0.2433  0.3650  0.5100
 3732SOL    HW122655   1.480   2.456   4.188 -0.7418 -3.1621 -1.8698
 3732SOL    HW222656   1.596   2.549   4.166  1.5934  0.4132 -1.1763
 3733SOL     OW22657   1.115   0.831   4.415 -0.0418  0.2555  0.0364
 3733SOL    HW122658   1.169   0.764   4.373  1.6614  0.5473  1.7913
 3733SOL    HW222659   1.119   0.814   4.509  1.4001  1.9592  0.2919
 3734SOL     OW22660   2.731   2.432   3.089 -0.0472  0.4661  0.8128
 3734SOL    HW122661   2.805   2.391   3.046 -0.4073  0.3133  0.3347
 3734SOL    HW222662   2.660   2.409   3.028 -0.1041  0.1404  0.9975
 3735SOL     OW22663   2.755   1.421  14.362 -0.1605  0.4390  0.1002
 3735SOL    HW122664   2.835   1.383  14.327 -1.0454  0.5908 -2.1308
 3735SOL    HW222665   2.778   1.438  14.453  3.6505  0.6512 -0.9173
 3736SOL     OW22666   0.793   3.970   9.222  0.1129  0.3789 -0.2283
 3736SOL    HW122667   0.824   4.006   9.139  1.5740 -1.6533 -0.5547
 3736SOL    HW222668   0.711   4.017   9.233 -0.3017 -0.1982 -0.8513
 3737SOL     OW22669   1.553   4.711   5.505 -0.1325  0.0907 -0.0307
 3737SOL    HW122670   1.552   0.081   5.510 -0.8811  0.2054 -2.3591
 3737SOL    HW222671   1.614   4.682   5.572 -1.1506 -3.7795 -0.7701
 3738SOL     OW22672   0.924   0.487  15.162  0.3482  0.0317 -0.3502
 3738SOL    HW122673   0.875   0.489  15.080 -0.8851 -1.9698  0.3305
 3738SOL    HW222674   0.967   0.404  15.140  0.5635 -0.4417  1.8566
 3739SOL     OW22675   4.707   4.528   3.479 -0.1556  0.0891 -0.3984
 3739SOL    HW122676   4.698   4.517   3.385 -0.7179  0.0740 -0.3407
 3739SOL    HW222677   0.015   4.617   3.489  1.0299 -0.5384  1.3145
 3740SOL     OW22678   0.140   1.829   5.242  0.2636 -0.8498 -0.7498
 3740SOL    HW122679   0.054   1.787   5.243 -0.5307  0.7779 -1.2641
 3740SOL    HW222680   0.132   1.861   5.152 -1.6815  1.5045  0.2532
 3741SOL     OW22681   2.788   1.515   9.255  0.2187 -0.2861  0.0840
 3741SOL    HW122682   2.866   1.521   9.309  1.6914  0.9705 -2.1911
 3741SOL    HW222683   2.756   1.605   9.252 -1.7209 -1.0257 -1.5833
 3742SOL     OW22684   4.272   4.522   2.080 -0.4241  0.0633  0.5878
 3742SOL    HW122685   4.256   4.616   2.083  0.8241  0.2601  0.7992
 3742SOL    HW222686   4.348   4.528   2.138  1.3689 -1.3819 -1.6047
 3743SOL     OW22687   1.757   4.024   3.306  0.2542  0.4655 -0.0878
 3743SOL    HW122688   1.758   4.048   3.398  2.5455 -1.3893  0.3501
 3743SOL    HW222689   1.828   4.079   3.273  0.5399  0.3790  0.3865
 3744SOL     OW22690   0.491   3.351   1.095 -0.0136 -0.1060 -0.1536
 3744SOL    HW122691   0.503   3.289   1.167  1.8563 -0.5838 -0.8991
 3744SOL    HW222692   0.537   3.308   1.023 -0.5539  0.3707 -0.7874
 3745SOL     OW22693   3.917   2.429   5.559 -0.0340 -0.2153 -0.1171
 3745SOL    HW122694   3.899   2.338   5.539  0.8993 -0.2824 -0.6543
 3745SOL    HW222695   3.983   2.454   5.494 -0.5005  1.5435  0.0688
 3746SOL     OW22696   1.492   4.469   9.834 -0.5820 -0.0871 -0.3362
 3746SOL    HW122697   1.577   4.487   9.874  0.1481 -1.8478 -1.0587
 3746SOL    HW222698   1.464   4.548   9.789 -0.8006 -0.7199 -1.3266
 3747SOL     OW22699   0.675   0.023  14.252 -0.3502 -0.7828  0.6133
 3747SOL    HW122700   0.642   0.075  14.179  2.0995 -0.0864  0.0029
 3747SOL    HW222701   0.613   0.042  14.322 -0.6013 -3.7422  1.1705
 3748SOL     OW22702   0.386   0.806   5.418  0.4841 -0.2422  0.2983
 3748SOL    HW122703   0.481   0.811   5.420  0.4925  0.5310 -1.3902
 3748SOL    HW222704   0.371   0.898   5.439 -0.5191 -0.3138 -0.0830
 3749SOL     OW22705   2.930   3.510   3.215 -0.2467 -0.1525 -0.1415
 3749SOL    HW122706   2.995   3.570   3.250 -0.0506 -0.5104  0.1034
 3749SOL    HW222707   2.925   3.444   3.285  1.1022 -0.1456 -0.0401
 3750SOL     OW22708   4.056   4.342  13.418  0.1511  0.1928  0.1954
 3750SOL    HW122709   4.040   4.257  13.459  1.0072  0.0819  0.3007
 3750SOL    HW222710   4.029   4.316  13.330 -0.2213 -0.5656  0.5355
 3751SOL     OW22711   3.704   3.391   7.642 -0.3422  0.3896 -0.1555
 3751SOL    HW122712   3.707   3.417   7.734  0.3393  0.8005 -0.2927
 3751SOL    HW222713   3.730   3.471   7.595 -0.4385  0.7122  0.3426
 3752SOL     OW22714   0.860   0.978  17.563  0.4876 -0.0034 -0.3636
 3752SOL    HW122715   0.818   1.062  17.581 -1.3605 -1.0762  0.3407
 3752SOL    HW222716   0.928   1.017  17.508  0.2986  1.0028  0.1164
 3753SOL     OW22717   1.225   1.776  14.354  0.5584 -0.3227 -0.5281
 3753SOL    HW122718   1.136   1.743  14.364  0.8573 -0.6507  1.0207
 3753SOL    HW222719   1.214   1.859  14.401  2.6800  0.0215 -0.6202
 3754SOL     OW22720   1.968   1.609   4.787 -0.0816 -0.0750 -0.6924
 3754SOL    HW122721   1.992   1.534   4.843  2.3782  0.5478 -0.8958
 3754SOL    HW222722   1.896   1.641   4.841  1.7042  0.7556  1.1869
 3755SOL     OW22723   1.375   2.142   1.601 -0.0420 -0.2189  0.3122
 3755SOL    HW122724   1.329   2.073   1.554 -1.3215  1.0920 -0.3671
 3755SOL    HW222725   1.451   2.093   1.633 -1.6144 -0.8925  3.0218
 3756SOL     OW22726   0.573   1.319   4.432 -0.1041 -0.4503  0.4487
 3756SOL    HW122727   0.614   1.245   4.387 -1.9749 -0.7820 -0.7408
 3756SOL    HW222728   0.563   1.378   4.357 -0.3139  0.4568  1.1963
 3757SOL     OW22729   1.347   0.643   3.625 -0.1982 -0.5236 -0.6922
 3757SOL    HW122730   1.424   0.591   3.649 -0.5785 -0.5303  0.5000
 3757SOL    HW222731   1.391   0.675   3.546 -1.6061 -2.8246 -2.3990
 3758SOL     OW22732   1.005   4.483   1.289 -0.4278 -0.5141  0.0703
 3758SOL    HW122733   1.003   4.578   1.301  0.5332 -0.4320 -0.3953
 3758SOL    HW222734   1.094   4.482   1.252 -0.0711 -1.8325  0.9668
 3759SOL     OW22735   0.006   0.918  15.044 -0.7754  0.3890 -0.9820
 3759SOL    HW122736   0.059   0.997  15.054 -0.1409  0.1792 -2.6393
 3759SOL    HW222737   0.009   0.921  14.948 -3.6241 -2.7947 -1.1797
 3760SOL     OW22738   2.886   2.306   8.754 -0.3994 -0.3692  0.1159
 3760SOL    HW122739   2.942   2.231   8.776 -0.2676 -0.5016 -0.6834
 3760SOL    HW222740   2.844   2.274   8.674  0.7383  1.2671 -1.1272
 3761SOL     OW22741   0.247   0.360   7.817 -0.3361 -0.2728 -0.0589
 3761SOL    HW122742   0.188   0.285   7.826 -1.7601  0.7712 -0.7560
 3761SOL    HW222743   0.250   0.376   7.912  1.2270  1.4290 -0.4085
 3762SOL     OW22744   0.662   3.419   2.557 -0.3723 -0.0606 -0.3034
 3762SOL    HW122745   0.612   3.467   2.491  1.4486  1.0686 -0.8471
 3762SOL    HW222746   0.687   3.354   2.491 -0.4049  1.9339 -2.2875
 3763SOL     OW22747   1.071   3.504   5.996 -0.3862 -0.2563  0.2694
 3763SOL    HW122748   1.141   3.513   6.061  0.6023  0.8525 -0.9465
 3763SOL    HW222749   1.009   3.568   6.031 -1.7529 -2.0747  1.1690
 3764SOL     OW22750   3.091   3.697   2.572  0.3530  0.3458  0.2697
 3764SOL    HW122751   3.157   3.756   2.609  0.2703  0.3752  0.3725
 3764SOL    HW222752   3.022   3.760   2.549  0.3115  1.0959  2.4162
 3765SOL     OW22753   3.208   2.553   7.655 -0.4381 -0.2745 -0.1191
 3765SOL    HW122754   3.185   2.576   7.745 -0.1408  0.3660 -0.1983
 3765SOL    HW222755   3.245   2.466   7.662 -1.4065 -0.6666  0.1349
 3766SOL     OW22756   4.123   1.557  16.582  0.3255  0.1248  0.0088
 3766SOL    HW122757   4.190   1.625  16.593  0.1516  0.0667  1.4041
 3766SOL    HW222758   4.042   1.605  16.565  0.5803  0.5368 -0.0555
 3767SOL     OW22759   0.186   0.209   7.056  0.6461 -0.0444 -0.6800
 3767SOL    HW122760   0.206   0.254   6.973 -2.1761  1.6118 -0.4680
 3767SOL    HW222761   0.250   0.246   7.117  0.1727  1.0551 -0.8391
 3768SOL     OW22762   0.919   1.732   3.715 -0.5954  0.0734  0.1616
 3768SOL    HW122763   0.896   1.772   3.799 -3.6858 -0.9838 -0.1552
 3768SOL    HW222764   0.995   1.785   3.692 -0.4309 -0.4242 -0.4573
 3769SOL     OW22765   4.285   4.438   7.551 -0.2039  0.5812  0.3078
 3769SOL    HW122766   4.205   4.387   7.564  0.3659 -0.3952 -0.0050
 3769SOL    HW222767   4.347   4.367   7.536 -3.2507 -1.5260 -2.3391
 3770SOL     OW22768   4.666   2.873   7.049  0.8868  0.0984 -0.3353
 3770SOL    HW122769   0.018   2.910   7.091  0.5706 -0.5106  0.7851
 3770SOL    HW222770   4.680   2.779   7.054 -0.7184 -0.1477 -0.7295
 3771SOL     OW22771   2.171   3.482   8.005 -0.1507  0.1508 -0.3392
 3771SOL    HW122772   2.126   3.565   7.990  0.3538  0.4992  0.0685
 3771SOL    HW222773   2.263   3.511   8.002 -0.3489  0.7187 -0.9231
 3772SOL     OW22774   4.138   1.551   1.817  0.0145  0.2000 -0.4693
 3772SOL    HW122775   4.069   1.599   1.771 -1.5839 -0.5702  1.1082
 3772SOL    HW222776   4.162   1.485   1.753  0.7933 -0.5101  0.5525
 3773SOL     OW22777   0.870   3.771  13.955 -0.2611 -0.1466 -0.2772
 3773SOL    HW122778   0.921   3.696  13.985 -2.0709 -1.6365 -0.9369
 3773SOL    HW222779   0.920   3.850  13.979  0.2603 -1.0934  1.7257
 3774SOL     OW22780   1.536   1.638   7.577  0.5308  0.9935 -0.4534
 3774SOL    HW122781   1.558   1.645   7.670  1.9570 -2.9210 -0.4949
 3774SOL    HW222782   1.447   1.603   7.569  0.6942  0.7234 -1.0932
 3775SOL     OW22783   2.364   3.358   2.861  0.6955  0.6680 -0.0211
 3775SOL    HW122784   2.327   3.446   2.851 -2.7212 -0.6697  1.0562
 3775SOL    HW222785   2.404   3.359   2.949  0.4820 -1.5797  0.0966
 3776SOL     OW22786   1.944   3.436   4.931  0.1646 -0.4129  0.1950
 3776SOL    HW122787   1.877   3.496   4.963  0.3771  0.1386 -0.3815
 3776SOL    HW222788   1.890   3.363   4.900  1.5072 -1.7121  0.9177
 3777SOL     OW22789   3.942   3.235   4.327  0.0175  0.4694 -0.6589
 3777SOL    HW122790   3.864   3.290   4.325  0.1918  0.7558  0.4339
 3777SOL    HW222791   4.008   3.295   4.292 -0.5760  1.9637  0.7594
 3778SOL     OW22792   0.407   4.332   9.692  0.0978 -0.9435 -0.1404
 3778SOL    HW122793   0.333   4.271   9.694 -0.9783  0.3777  0.2864
 3778SOL    HW222794   0.454   4.300   9.615  0.9464  0.2821 -0.1272
 3779SOL     OW22795   3.015   4.326   0.861  0.5557 -0.4857 -0.2522
 3779SOL    HW122796   3.079   4.315   0.931  1.4364  0.4330 -0.9089
 3779SOL    HW222797   3.052   4.413   0.844  0.5855 -0.3664  0.4486
 3780SOL     OW22798   4.493   3.647  12.753 -0.0302 -0.4384 -0.3678
 3780SOL    HW122799   4.535   3.565  12.725 -1.5709 -0.8526 -1.5105
 3780SOL    HW222800   4.559   3.715  12.740 -0.2847  0.3185  2.3715
 3781SOL     OW22801   0.397   3.410   4.960  0.1583  0.6833  0.1372
 3781SOL    HW122802   0.406   3.487   5.016  0.0376 -0.5859  1.9042
 3781SOL    HW222803   0.453   3.347   5.005  0.1491 -0.8799 -2.0571
 3782SOL     OW22804   0.259   3.173   2.785  0.0812 -0.3301 -0.0375
 3782SOL    HW122805   0.315   3.102   2.816  0.2193  1.3300  3.4686
 3782SOL    HW222806   0.276   3.162   2.692 -2.1380 -2.8993 -0.1317
 3783SOL     OW22807   4.715   0.262   1.328 -1.0456  0.2283 -0.4016
 3783SOL    HW122808   0.083   0.266   1.348 -1.5559  1.5219  1.7567
 3783SOL    HW222809   4.698   0.356   1.322 -1.9153  0.0956  0.0719
 3784SOL     OW22810   3.059   2.914  15.147  0.2184 -0.5177  0.0038
 3784SOL    HW122811   2.983   2.972  15.151  1.1133  0.5960  0.8695
 3784SOL    HW222812   3.122   2.938  15.215 -0.7710 -1.5963  1.2931
 3785SOL     OW22813   1.500   4.486   6.813 -0.5830  0.0247 -0.5030
 3785SOL    HW122814   1.425   4.449   6.767  0.2473 -0.7252 -1.2692
 3785SOL    HW222815   1.464   4.546   6.878  2.9013  1.7345 -0.1353
 3786SOL     OW22816   1.703   1.926   3.269  0.0204  0.6437 -0.2065
 3786SOL    HW122817   1.734   1.837   3.251 -0.5925 -0.2181  3.1831
 3786SOL    HW222818   1.692   1.920   3.363  2.4668 -4.8666 -0.3110
 3787SOL     OW22819   0.023   3.341   2.749 -0.6761 -0.0225 -0.3813
 3787SOL    HW122820   0.001   3.272   2.811  2.5224 -1.4956 -0.8801
 3787SOL    HW222821   0.109   3.311   2.721 -1.7325 -2.9088 -0.5345
 3788SOL     OW22822   1.754   4.280   4.033 -0.5412 -0.3039  0.0991
 3788SOL    HW122823   1.787   4.193   4.012  0.8517  0.4348 -0.8084
 3788SOL    HW222824   1.815   4.326   3.976 -1.3509 -0.7292 -1.0909
 3789SOL     OW22825   4.528   3.764   8.018 -0.2172 -0.1001 -0.4438
 3789SOL    HW122826   4.543   3.792   7.928  2.2641  0.9595  0.3022
 3789SOL    HW222827   4.572   3.839   8.058 -3.0854  0.7620  1.1169
 3790SOL     OW22828   0.472   0.664  17.359  0.3141  0.2521  0.2993
 3790SOL    HW122829   0.556   0.643  17.319 -0.5064 -0.5719 -0.9989
 3790SOL    HW222830   0.506   0.731  17.417  0.8751  0.0139  0.2378
 3791SOL     OW22831   2.327   0.510  10.944 -0.1024 -0.2552  0.1625
 3791SOL    HW122832   2.371   0.560  11.013 -0.9358 -0.5740  0.9358
 3791SOL    HW222833   2.400   0.499  10.883  1.7093  0.8585  2.1138
 3792SOL     OW22834   0.020   3.929   2.792 -0.1174 -0.0662 -1.2029
 3792SOL    HW122835   0.027   3.987   2.868 -0.4651 -1.6376  0.0105
 3792SOL    HW222836   0.016   3.851   2.846  0.0868  0.0450 -1.0259
 3793SOL     OW22837   4.636   1.459   5.702 -0.2620  0.1148 -0.5297
 3793SOL    HW122838   4.649   1.378   5.652  1.0395 -1.3130  2.1467
 3793SOL    HW222839   4.696   1.517   5.655  2.5137 -2.4591 -0.1361
 3794SOL     OW22840   2.584   1.595   3.901  0.4617 -0.2923 -0.0848
 3794SOL    HW122841   2.673   1.621   3.878 -0.5918 -0.5756 -4.4844
 3794SOL    HW222842   2.601   1.510   3.943 -1.5989 -1.0165 -0.7072
 3795SOL     OW22843   3.599   2.245   6.947  0.3481 -0.0062  0.4543
 3795SOL    HW122844   3.677   2.229   6.892  0.1031  0.1841  0.0504
 3795SOL    HW222845   3.609   2.170   7.006 -1.3246 -0.4745  0.1443
 3796SOL     OW22846   0.138   3.704  16.703  0.9913 -0.0927  0.3790
 3796SOL    HW122847   0.143   3.798  16.722 -2.4110 -0.0537  1.0622
 3796SOL    HW222848   0.109   3.666  16.786 -0.6328  0.5957  0.1449
 3797SOL     OW22849   3.231   0.095  14.489  0.0466  0.4291 -0.1914
 3797SOL    HW122850   3.159   0.158  14.494 -0.2978 -0.1063  1.7678
 3797SOL    HW222851   3.301   0.145  14.533 -0.1444  0.5281  0.0046
 3798SOL     OW22852   0.332   1.983  13.604  0.0407 -0.1567  0.2309
 3798SOL    HW122853   0.293   2.003  13.689  0.3771 -2.1587  0.8583
 3798SOL    HW222854   0.269   1.923  13.564  0.2417 -0.1007 -0.1746
 3799SOL     OW22855   2.163   1.859   4.429  0.1587  0.0900 -0.3993
 3799SOL    HW122856   2.169   1.774   4.384  3.7655 -0.0824  0.3933
 3799SOL    HW222857   2.110   1.826   4.501 -1.0071 -0.3290 -1.4450
 3800SOL     OW22858   2.335   0.834   6.012  0.1674  0.3261 -0.1432
 3800SOL    HW122859   2.417   0.883   6.021 -0.3856  0.9388  1.5436
 3800SOL    HW222860   2.292   0.875   6.087  0.2631  0.0442  0.0652
 3801SOL     OW22861   1.816   2.477   6.808  0.3551  0.3591  0.1214
 3801SOL    HW122862   1.810   2.525   6.725 -0.1632 -0.9078 -0.5705
 3801SOL    HW222863   1.862   2.541   6.862  1.1659 -2.2696  2.4938
 3802SOL     OW22864   1.618   0.082   1.034 -0.4661  0.2550  0.4779
 3802SOL    HW122865   1.558   0.065   0.961 -0.2197  1.4165  0.0075
 3802SOL    HW222866   1.618   4.724   1.079 -0.3908 -1.0486 -1.9920
 3803SOL     OW22867   4.092   0.157   5.031  0.4522  0.2301 -0.5883
 3803SOL    HW122868   4.089   0.065   5.055 -0.5394 -0.4232 -3.2195
 3803SOL    HW222869   4.069   0.157   4.938  0.0296  2.0646 -0.4987
 3804SOL     OW22870   3.806   0.358  12.550 -0.4167 -0.2607  0.5422
 3804SOL    HW122871   3.885   0.304  12.552  0.7238  1.3402 -1.6055
 3804SOL    HW222872   3.796   0.399  12.636  0.8753 -0.1141  0.6210
 3805SOL     OW22873   4.083   1.620   1.295 -0.0932 -0.1986  0.6694
 3805SOL    HW122874   4.003   1.646   1.342 -0.4174  0.2290 -0.1172
 3805SOL    HW222875   4.132   1.702   1.301  2.4428 -1.7791  1.3424
 3806SOL     OW22876   2.567   1.541   3.591  0.3760 -0.1610 -0.1499
 3806SOL    HW122877   2.530   1.586   3.515 -1.2824  0.4488  1.0207
 3806SOL    HW222878   2.490   1.489   3.611  1.8620 -0.9723  3.4577
 3807SOL     OW22879   0.720   4.432   7.055  0.0666 -0.9009 -0.5249
 3807SOL    HW122880   0.673   4.465   7.132  0.2889 -1.5028 -0.1279
 3807SOL    HW222881   0.698   4.339   7.061  0.7337 -0.8972  1.9989
 3808SOL     OW22882   2.661   2.220   7.389 -0.1800  0.1462 -0.4304
 3808SOL    HW122883   2.623   2.235   7.476  0.2718 -0.6656 -0.0979
 3808SOL    HW222884   2.740   2.272   7.399 -1.0341  1.0814  1.4667
 3809SOL     OW22885   4.155   0.837   8.956 -0.3543 -0.3484 -0.1788
 3809SOL    HW122886   4.070   0.850   8.997 -0.3766  0.7440 -0.5747
 3809SOL    HW222887   4.164   0.744   8.976  1.8543 -0.2578 -0.7326
 3810SOL     OW22888   4.089   0.151   4.597  0.8423 -0.3770  0.0725
 3810SOL    HW122889   4.173   0.174   4.557 -0.2267  0.9119 -1.4267
 3810SOL    HW222890   4.028   0.211   4.555  0.9260 -1.0443 -1.0092
 3811SOL     OW22891   4.349   1.108   8.779  0.1506 -0.7604  0.0873
 3811SOL    HW122892   4.332   1.202   8.776 -3.4923 -1.3738  1.0622
 3811SOL    HW222893   4.442   1.101   8.755  0.5024  0.8402  0.9565
 3812SOL     OW22894   4.304   3.262   8.497  0.2971  0.3456 -0.3756
 3812SOL    HW122895   4.297   3.301   8.585 -2.0885 -2.6377  0.7795
 3812SOL    HW222896   4.387   3.298   8.467 -0.0433  0.4730 -1.1664
 3813SOL     OW22897   3.201   4.595   5.083  0.0790 -0.5026 -0.6010
 3813SOL    HW122898   3.221   4.572   4.992  0.9208  0.5993 -0.7013
 3813SOL    HW222899   3.266   4.539   5.126 -1.6614 -0.2998  2.2699
 3814SOL     OW22900   1.405   0.948  13.377 -0.0139 -0.1640  0.0569
 3814SOL    HW122901   1.477   0.898  13.416  0.5249 -0.4773 -1.3331
 3814SOL    HW222902   1.338   0.883  13.358  1.2828 -0.7911 -2.3552
 3815SOL     OW22903   0.444   1.069   5.401  0.0297  0.7700 -0.0202
 3815SOL    HW122904   0.361   1.116   5.413 -1.0384 -0.8956 -0.8732
 3815SOL    HW222905   0.485   1.123   5.333 -2.1378 -0.4223 -2.2655
 3816SOL     OW22906   0.607   3.368   6.272 -0.2688 -0.0523 -0.2450
 3816SOL    HW122907   0.590   3.311   6.198  2.0353 -1.1233  0.0596
 3816SOL    HW222908   0.534   3.338   6.327  1.9363 -3.1428  0.9693
 3817SOL     OW22909   0.958   0.069   2.576 -0.4644 -0.1285  0.0280
 3817SOL    HW122910   0.932   4.706   2.599  0.4201  0.0435  1.7013
 3817SOL    HW222911   0.969   0.070   2.481 -2.7254 -0.7804 -0.2226
 3818SOL     OW22912   1.318   2.026   5.802  0.2104  0.1017 -0.2617
 3818SOL    HW122913   1.309   2.094   5.734  1.6789  0.3450 -0.2049
 3818SOL    HW222914   1.225   2.014   5.821  0.0832  0.0553 -0.9081
 3819SOL     OW22915   2.517   2.857   3.943 -0.3716  0.0147  0.4316
 3819SOL    HW122916   2.608   2.830   3.956  0.2991  1.6610 -0.7631
 3819SOL    HW222917   2.468   2.775   3.939  0.7917 -0.7478  1.8076
 3820SOL     OW22918   1.622   2.413  16.179 -0.2097  0.3285 -0.1246
 3820SOL    HW122919   1.649   2.394  16.268 -2.3975 -0.7506  0.3158
 3820SOL    HW222920   1.528   2.415  16.194  0.1217 -1.7653  2.1993
 3821SOL     OW22921   0.145   3.276  16.216  0.0826  0.0243 -0.2482
 3821SOL    HW122922   0.167   3.364  16.245 -1.3920  0.0615  0.7767
 3821SOL    HW222923   0.149   3.223  16.295  0.9799  1.4120  0.6393
 3822SOL     OW22924   0.815   1.725   6.855 -0.6858  0.2582 -0.1976
 3822SOL    HW122925   0.880   1.795   6.852 -0.6128  0.1979 -0.0231
 3822SOL    HW222926   0.859   1.672   6.921  0.3718  0.3397 -0.8482
 3823SOL     OW22927   4.597   3.585   4.746 -0.4321 -0.2534  0.0141
 3823SOL    HW122928   4.514   3.626   4.769 -1.1835 -0.2596 -2.6720
 3823SOL    HW222929   4.655   3.623   4.813 -1.3433  0.8695  0.1654
 3824SOL     OW22930   3.078   3.458  17.014  0.2959 -0.0885 -0.1288
 3824SOL    HW122931   3.033   3.493  17.091  0.4897 -1.7011  0.7135
 3824SOL    HW222932   3.166   3.493  17.026  0.5870 -0.3975 -1.4508
 3825SOL     OW22933   4.320   2.533   8.413  0.3579  0.1435  0.0339
 3825SOL    HW122934   4.394   2.473   8.426  1.7017  1.5776 -1.0115
 3825SOL    HW222935   4.289   2.555   8.501  0.8156  0.2594  0.1711
 3826SOL     OW22936   4.098   3.647   4.671  0.1196  0.2691  0.4925
 3826SOL    HW122937   4.038   3.573   4.680  0.8416 -0.2646  0.9617
 3826SOL    HW222938   4.044   3.725   4.674 -0.0795  0.3194 -3.5906
 3827SOL     OW22939   2.116   3.361   8.273  0.2489  0.0973  0.0382
 3827SOL    HW122940   2.205   3.342   8.301  0.7013  2.3584  0.0837
 3827SOL    HW222941   2.123   3.375   8.178  2.6299 -0.2796  0.1737
 3828SOL     OW22942   0.982   0.392   4.575  0.0535  0.1127 -0.0424
 3828SOL    HW122943   1.047   0.355   4.515  0.9493 -1.5454  1.9454
 3828SOL    HW222944   0.916   0.409   4.507 -0.3616 -0.3870  0.2285
 3829SOL     OW22945   2.065   1.972   2.172 -0.0209  0.0164 -0.3730
 3829SOL    HW122946   2.011   1.978   2.093 -1.1327 -1.4507  0.2779
 3829SOL    HW222947   2.149   1.988   2.128  0.2484  2.4367  1.0714
 3830SOL     OW22948   3.647   2.069  16.718  0.8265 -0.6273  0.4095
 3830SOL    HW122949   3.556   2.097  16.709  1.1100  0.2989  0.5006
 3830SOL    HW222950   3.654   2.071  16.814  2.9272  0.6034  0.2143
 3831SOL     OW22951   2.446   3.699   0.608 -0.7041  0.3354  0.7831
 3831SOL    HW122952   2.459   3.726   0.699  0.4034  0.5217  0.5782
 3831SOL    HW222953   2.509   3.764   0.576  0.7960 -0.7499  1.4936
 3832SOL     OW22954   1.304   1.421   6.286  0.6026  0.2432  0.0536
 3832SOL    HW122955   1.369   1.389   6.223  1.2445  1.4905  0.0918
 3832SOL    HW222956   1.219   1.417   6.242  0.7819  1.5726 -0.4126
 3833SOL     OW22957   0.027   4.061  16.961 -0.1275  0.7724 -0.2210
 3833SOL    HW122958   0.052   4.036  17.049  0.7004  1.1489 -0.3528
 3833SOL    HW222959   4.669   4.015  16.955  1.3830 -1.7676 -2.0599
 3834SOL     OW22960   3.801   0.213   5.070  0.1373  0.5779  0.1265
 3834SOL    HW122961   3.893   0.223   5.046  0.1773 -0.3963 -0.1366
 3834SOL    HW222962   3.804   0.124   5.106 -0.7788 -0.2369 -1.8442
 3835SOL     OW22963   2.679   3.877   3.945 -0.1971 -0.4001  0.0288
 3835SOL    HW122964   2.597   3.921   3.966  1.3156  2.7687 -0.6585
 3835SOL    HW222965   2.659   3.821   3.870 -0.1021 -0.5313  0.1001
 3836SOL     OW22966   3.581   3.798   7.511  0.1403 -0.3351 -0.0185
 3836SOL    HW122967   3.658   3.852   7.494  0.9923 -0.7756  2.4307
 3836SOL    HW222968   3.519   3.828   7.444 -0.8599  1.3303  1.6398
 3837SOL     OW22969   3.858   0.101   8.152  0.0785  0.3162 -1.1932
 3837SOL    HW122970   3.949   0.108   8.181 -0.7502  2.3958  0.8437
 3837SOL    HW222971   3.861   0.012   8.116 -1.9300  0.2187 -1.1252
 3838SOL     OW22972   1.790   3.606   5.353  0.1186 -0.3499  0.0247
 3838SOL    HW122973   1.721   3.540   5.350 -0.6215  0.4677 -1.3028
 3838SOL    HW222974   1.863   3.548   5.332 -1.8421 -2.2418 -1.5367
 3839SOL     OW22975   1.079   3.052  16.997 -0.1883 -0.2749  0.5630
 3839SOL    HW122976   1.121   2.968  16.980 -1.5613 -1.0124  0.7980
 3839SOL    HW222977   1.136   3.082  17.068 -1.0109  0.2327  0.9989
 3840SOL     OW22978   3.034   3.771   5.124  0.0277 -0.2298  0.2300
 3840SOL    HW122979   3.064   3.747   5.036 -0.2349  3.2928 -0.8038
 3840SOL    HW222980   2.972   3.698   5.136 -1.3642  0.5436 -2.3441
 3841SOL     OW22981   1.923   3.567  13.887 -0.2996  0.1012 -0.1333
 3841SOL    HW122982   1.969   3.644  13.852 -1.4167  1.1505  0.7030
 3841SOL    HW222983   1.833   3.570  13.854 -0.0605 -0.0729 -0.7959
 3842SOL     OW22984   3.657   0.580   1.125  0.2866  0.3285  0.3344
 3842SOL    HW122985   3.739   0.596   1.079 -1.3327  0.5448 -2.4673
 3842SOL    HW222986   3.698   0.541   1.202  0.3819 -0.1905  0.0203
 3843SOL     OW22987   1.907   1.902  10.395 -0.5865 -0.2420  0.3306
 3843SOL    HW122988   1.823   1.864  10.421 -0.1300  0.0942  2.3175
 3843SOL    HW222989   1.944   1.823  10.356 -0.6123 -0.6966  1.2149
 3844SOL     OW22990   1.925   0.150   3.590 -0.1495  0.3853  0.3401
 3844SOL    HW122991   1.848   0.197   3.622  0.1570  0.9120  0.3015
 3844SOL    HW222992   1.962   0.119   3.672 -0.3408  0.4452  0.4493
 3845SOL     OW22993   2.810   4.228   6.442  0.2416  0.1220  0.1863
 3845SOL    HW122994   2.721   4.258   6.424 -0.5918 -2.1238  0.5455
 3845SOL    HW222995   2.870   4.302   6.454  0.4870 -0.1490  0.6530
 3846SOL     OW22996   1.364   3.244  10.399 -0.0359  0.4658 -0.3550
 3846SOL    HW122997   1.398   3.226  10.311  0.1590  2.3477 -0.6510
 3846SOL    HW222998   1.405   3.170  10.445 -1.6371 -0.7572 -0.8853
 3847SOL     OW22999   1.248   1.943   4.435  0.0497  0.3524 -0.1452
 3847SOL    HW123000   1.336   1.925   4.468  0.8153  0.1051 -2.3388
 3847SOL    HW223001   1.201   1.872   4.479  1.7531 -0.3966  0.4285
 3848SOL     OW23002   2.006   3.061  16.312 -0.1931  0.4139 -0.5324
 3848SOL    HW123003   1.941   3.089  16.249 -0.4061  0.0848 -0.4558
 3848SOL    HW223004   1.973   3.098  16.394 -1.1225 -1.7696  0.0618
 3849SOL     OW23005   3.160   1.501   0.637 -0.1629  0.3094 -0.3093
 3849SOL    HW123006   3.247   1.472   0.664 -0.6172 -1.0108 -0.2757
 3849SOL    HW223007   3.184   1.531   0.549 -1.1562 -0.1951 -0.7538
 3850SOL     OW23008   3.674   4.312   1.495  0.7133  0.3206  0.3757
 3850SOL    HW123009   3.585   4.280   1.481  0.7824  0.5023 -0.4637
 3850SOL    HW223010   3.728   4.234   1.482 -1.2941 -0.5877 -2.4725
 3851SOL     OW23011   2.959   1.308   3.217 -0.1117 -0.0840 -0.6303
 3851SOL    HW123012   3.044   1.271   3.194 -0.5194 -1.6002  0.3286
 3851SOL    HW223013   2.951   1.380   3.154  0.4847  2.8592  2.6407
 3852SOL     OW23014   4.505   4.536  17.523 -0.2199 -0.4301 -0.6225
 3852SOL    HW123015   4.587   4.527  17.573 -0.0988 -2.4518 -1.1693
 3852SOL    HW223016   4.469   4.615  17.562  1.4848  0.2027 -0.3152
 3853SOL     OW23017   3.162   3.444  16.187 -0.0144  0.2612  0.0408
 3853SOL    HW123018   3.137   3.353  16.200 -0.0601  0.1390 -0.9683
 3853SOL    HW223019   3.098   3.492  16.240 -0.4834  0.1716 -0.4499
 3854SOL     OW23020   1.947   2.341   2.480 -0.5633 -0.3725  0.1603
 3854SOL    HW123021   2.006   2.407   2.443  0.7267 -0.8752  1.3252
 3854SOL    HW223022   1.894   2.384   2.547 -2.6688 -0.8276 -1.2315
 3855SOL     OW23023   3.361   1.427   5.468 -1.0835  0.0113 -0.4525
 3855SOL    HW123024   3.278   1.430   5.422 -2.5755 -0.4420  2.1802
 3855SOL    HW223025   3.328   1.459   5.552 -0.2149 -1.0817  0.3183
 3856SOL     OW23026   1.803   0.022   4.828  0.1291  0.3394  0.0418
 3856SOL    HW123027   1.709   0.035   4.841  0.2759  0.1171  1.3110
 3856SOL    HW223028   1.815   0.012   4.733 -0.1119  0.9850 -0.0543
 3857SOL     OW23029   2.740   0.055   7.740 -0.6394  0.3898  0.3693
 3857SOL    HW123030   2.675   0.082   7.805 -1.2813  4.3580 -1.9141
 3857SOL    HW223031   2.716   0.119   7.673 -1.4998  1.1327  1.3911
 3858SOL     OW23032   0.835   2.989   6.518  0.8588  0.0226 -0.3850
 3858SOL    HW123033   0.811   2.967   6.428 -0.0469  2.5526 -0.7681
 3858SOL    HW223034   0.762   2.953   6.568 -0.6614  1.9633 -1.2014
 3859SOL     OW23035   0.724   0.766   3.300 -0.3400  0.5132  0.1260
 3859SOL    HW123036   0.685   0.728   3.379 -0.9463  0.6371 -0.1168
 3859SOL    HW223037   0.756   0.694   3.246 -0.7483  0.5103 -0.1036
 3860SOL     OW23038   3.146   2.991   2.908 -0.0815  0.3341  0.3495
 3860SOL    HW123039   3.135   2.900   2.881 -2.7157  0.6388  0.3376
 3860SOL    HW223040   3.181   3.033   2.830 -3.4043  0.6117 -0.9939
 3861SOL     OW23041   0.299   1.773  13.903  0.5315  0.3111  0.0989
 3861SOL    HW123042   0.262   1.860  13.891 -1.2566 -0.6003 -0.9641
 3861SOL    HW223043   0.383   1.802  13.868  0.9185  1.4613  1.9474
 3862SOL     OW23044   2.655   2.041   8.973 -0.1826  0.1255  0.3042
 3862SOL    HW123045   2.704   2.003   9.045 -1.9408 -0.2750  1.2955
 3862SOL    HW223046   2.637   2.128   9.009 -0.2752  1.0832 -2.0371
 3863SOL     OW23047   3.070   2.769   7.820  0.0496  0.1603  0.3020
 3863SOL    HW123048   2.995   2.715   7.794 -0.6843 -0.4904  3.7830
 3863SOL    HW223049   3.020   2.851   7.815 -1.4560 -0.6952  1.2333
 3864SOL     OW23050   2.301   1.089   0.765  0.6665 -0.1587  0.4572
 3864SOL    HW123051   2.363   1.016   0.771  1.3650  0.4450  0.5470
 3864SOL    HW223052   2.351   1.163   0.799 -1.2958 -0.3402  3.7179
 3865SOL     OW23053   2.242   3.684  12.377  0.2712 -0.7068  0.2026
 3865SOL    HW123054   2.326   3.647  12.351 -1.2260 -3.1752 -1.0808
 3865SOL    HW223055   2.254   3.779  12.370 -0.6847 -0.9127 -4.3038
 3866SOL     OW23056   0.346   3.149  13.140 -0.2858 -0.1700 -0.4722
 3866SOL    HW123057   0.401   3.219  13.106 -2.3059  1.8832  0.5000
 3866SOL    HW223058   0.412   3.114  13.200 -2.6657 -2.4218  0.8908
 3867SOL     OW23059   0.502   2.416   6.200 -0.1499 -0.5490 -0.3113
 3867SOL    HW123060   0.431   2.389   6.258 -0.2672  1.7403  0.5822
 3867SOL    HW223061   0.517   2.330   6.160 -0.6821 -1.3511  1.2386
 3868SOL     OW23062   2.021   0.552   7.000 -0.1513  0.4928  0.7360
 3868SOL    HW123063   2.064   0.630   6.965 -0.7228  0.6152  0.3055
 3868SOL    HW223064   2.094   0.492   6.985  0.3219  0.7643  2.0076
 3869SOL     OW23065   2.366   0.640   8.373 -0.3181  0.4551  0.5468
 3869SOL    HW123066   2.325   0.554   8.370  0.8259 -0.0779  0.1709
 3869SOL    HW223067   2.429   0.621   8.443  0.7584  2.3331  0.1031
 3870SOL     OW23068   0.987   0.039   1.262  0.0831  0.1165 -0.7197
 3870SOL    HW123069   0.892   0.028   1.259  0.2824 -1.6419 -0.4069
 3870SOL    HW223070   0.996   0.135   1.264 -1.7549  0.2668  0.4782
 3871SOL     OW23071   1.381   4.683   9.661  0.0191  0.2449 -0.1331
 3871SOL    HW123072   1.374   4.722   9.748  0.7553 -0.1498  0.1029
 3871SOL    HW223073   1.419   0.026   9.607  2.7216 -1.9520 -0.9868
 3872SOL     OW23074   2.068   0.112   3.892  0.3652 -0.0914 -0.1316
 3872SOL    HW123075   2.109   0.191   3.857 -0.2404  0.7664  1.1036
 3872SOL    HW223076   2.133   0.094   3.959 -0.0691  0.8921  0.5411
 3873SOL     OW23077   1.484   1.102   5.765  0.3888 -0.2767 -0.1689
 3873SOL    HW123078   1.514   1.171   5.706 -0.6018 -0.6612 -1.1293
 3873SOL    HW223079   1.425   1.058   5.703 -1.4922 -0.6204  1.8527
 3874SOL     OW23080   4.023   0.907  17.080 -0.4730 -0.3679  0.5800
 3874SOL    HW123081   4.094   0.925  17.018 -0.3033  1.7408  1.3908
 3874SOL    HW223082   4.059   0.920  17.168 -0.4640  3.6765 -0.0103
 3875SOL     OW23083   3.825   3.006   3.617 -0.4130 -0.0738  0.3356
 3875SOL    HW123084   3.898   2.950   3.645 -1.5451 -1.4902  0.4223
 3875SOL    HW223085   3.751   2.946   3.610  0.7851 -1.6016  0.6650
 3876SOL     OW23086   2.130   0.558   3.600 -0.0573  0.2663  0.0507
 3876SOL    HW123087   2.044   0.531   3.566  0.0724 -0.3558  0.2249
 3876SOL    HW223088   2.189   0.566   3.525  0.0192 -2.3547 -0.1559
 3877SOL     OW23089   0.896   4.294   1.444 -0.5304  0.6324  0.0228
 3877SOL    HW123090   0.873   4.224   1.382  0.9582  1.8633 -1.9088
 3877SOL    HW223091   0.936   4.354   1.382 -1.6209 -0.4227 -1.7253
 3878SOL     OW23092   1.273   2.964   3.941  0.6211  0.1637  0.6852
 3878SOL    HW123093   1.347   2.995   3.889  0.8291  0.2918  1.0512
 3878SOL    HW223094   1.232   2.909   3.875 -0.7732  1.5124  0.4336
 3879SOL     OW23095   2.947   4.622  14.670  0.0198 -0.0824 -0.7023
 3879SOL    HW123096   3.019   4.580  14.622  1.1985 -0.3441  1.3093
 3879SOL    HW223097   2.988   4.609  14.756 -1.1658 -0.1904 -0.1636
 3880SOL     OW23098   2.944   2.130   1.922 -0.2345  0.0802  0.3257
 3880SOL    HW123099   3.026   2.101   1.962  0.5085  0.1814 -1.1457
 3880SOL    HW223100   2.893   2.048   1.929 -0.9057  0.3610 -1.2044
 3881SOL     OW23101   4.609   2.261   0.503 -0.4402 -0.6161  0.3480
 3881SOL    HW123102   4.681   2.278   0.441 -0.2983 -1.4903  0.2765
 3881SOL    HW223103   4.644   2.178   0.535  1.6056 -1.3287 -3.6402
 3882SOL     OW23104   0.076   2.666   5.165 -0.2732 -0.2514  0.2968
 3882SOL    HW123105   4.712   2.648   5.191 -0.3157  0.3173  0.5655
 3882SOL    HW223106   0.123   2.583   5.174 -1.7732 -0.9596  1.6213
 3883SOL     OW23107   4.238   0.844   4.866 -0.5082  0.3763  0.2842
 3883SOL    HW123108   4.302   0.908   4.897  0.0715  0.2624 -0.6604
 3883SOL    HW223109   4.161   0.872   4.914 -0.3322  1.2470  0.0610
 3884SOL     OW23110   3.220   0.685  15.645 -0.0546 -0.0915  0.4054
 3884SOL    HW123111   3.297   0.733  15.615 -0.6541  0.9598  0.5353
 3884SOL    HW223112   3.171   0.754  15.690  2.1068  0.3873  2.0134
 3885SOL     OW23113   2.279   1.946   8.487  0.3893 -0.0036 -0.3458
 3885SOL    HW123114   2.240   1.997   8.558  1.5346  2.8585 -1.7491
 3885SOL    HW223115   2.269   1.852   8.501 -0.3883 -0.0632 -1.2854
 3886SOL     OW23116   1.726   3.603  10.627  0.0276  0.9907  0.5876
 3886SOL    HW123117   1.747   3.690  10.662 -1.1603  1.8118 -0.6995
 3886SOL    HW223118   1.655   3.565  10.679 -0.2343  0.9035  0.1676
 3887SOL     OW23119   0.912   1.988   6.856  0.0269 -0.2497 -0.3548
 3887SOL    HW123120   0.844   2.046   6.887 -0.2184 -0.6829 -0.0841
 3887SOL    HW223121   0.962   2.030   6.785 -0.8982 -0.2777 -1.0146
 3888SOL     OW23122   0.847   1.455   3.984 -0.8514 -0.4087  0.4869
 3888SOL    HW123123   0.915   1.392   4.007 -2.9465 -3.4364 -1.5868
 3888SOL    HW223124   0.898   1.536   3.988 -1.1898 -0.1156 -1.0301
 3889SOL     OW23125   3.189   4.649  13.438 -0.1818 -0.1070  0.1302
 3889SOL    HW123126   3.254   4.595  13.484  0.6465 -2.1755 -3.4070
 3889SOL    HW223127   3.109   4.596  13.432  0.0234 -0.6285  2.1743
 3890SOL     OW23128   3.381   1.236   1.419  0.0180 -0.3063  0.2127
 3890SOL    HW123129   3.344   1.237   1.331 -3.0950  2.6492  1.5228
 3890SOL    HW223130   3.391   1.143   1.440 -1.0886 -0.5039 -0.1220
 3891SOL     OW23131   0.034   1.026   4.893 -0.1263  0.0223  0.1106
 3891SOL    HW123132   0.130   1.017   4.899  0.0742  0.4244 -2.7573
 3891SOL    HW223133   0.011   0.949   4.842  2.0247  1.5173 -3.1190
 3892SOL     OW23134   4.327   0.703   6.820  0.9722  0.4533 -0.0245
 3892SOL    HW123135   4.408   0.653   6.830  1.7730  1.6667 -0.5198
 3892SOL    HW223136   4.335   0.731   6.729 -0.6622  0.2580 -0.2301
 3893SOL     OW23137   0.324   4.382   8.765 -0.2118 -0.5821 -0.2229
 3893SOL    HW123138   0.355   4.467   8.796 -0.7547 -0.4474 -0.0604
 3893SOL    HW223139   0.373   4.326   8.825  1.3716  0.6617 -0.3396
 3894SOL     OW23140   2.127   0.921   4.534  0.7014 -0.4605  0.0364
 3894SOL    HW123141   2.082   1.003   4.555  1.9960 -0.0409  1.1624
 3894SOL    HW223142   2.186   0.952   4.466 -0.9238 -1.4155 -1.8091
 3895SOL     OW23143   0.065   2.428   1.687 -0.2559  0.3034  0.9173
 3895SOL    HW123144   0.118   2.416   1.767  2.0560 -0.4919 -0.7287
 3895SOL    HW223145   0.114   2.499   1.647 -0.4471  1.3636  2.5760
 3896SOL     OW23146   1.609   1.432  16.580 -0.4904  0.5116 -0.7543
 3896SOL    HW123147   1.699   1.460  16.565 -0.3033 -1.0658 -2.5745
 3896SOL    HW223148   1.565   1.497  16.635 -0.9523  1.2300 -1.9823
 3897SOL     OW23149   0.256   1.928   0.666 -0.3373 -0.1158 -0.1795
 3897SOL    HW123150   0.351   1.929   0.667 -0.3312 -1.2010 -0.0839
 3897SOL    HW223151   0.236   1.856   0.726 -1.7180 -1.1667 -1.8826
 3898SOL     OW23152   3.068   0.235   9.423 -0.0611 -0.2532 -0.3669
 3898SOL    HW123153   3.039   0.287   9.497  0.8767 -0.5070  0.1824
 3898SOL    HW223154   3.139   0.182   9.460 -0.2954 -0.2292  0.1152
 3899SOL     OW23155   4.390   3.642  13.021  0.4166 -0.0121 -0.0272
 3899SOL    HW123156   4.316   3.580  13.017  1.5166 -1.0610 -3.9561
 3899SOL    HW223157   4.445   3.619  12.947  0.4155  2.0994 -0.6628
 3900SOL     OW23158   3.851   1.928   0.061  0.0350 -0.5716 -0.0079
 3900SOL    HW123159   3.895   1.855   0.017  2.2695  0.5255  0.4267
 3900SOL    HW223160   3.884   2.001   0.009 -1.0116 -0.1075 -0.0320
 3901SOL     OW23161   4.275   3.226  11.172  0.3781  0.3983  0.2349
 3901SOL    HW123162   4.353   3.213  11.119  0.2127  3.8176 -0.7915
 3901SOL    HW223163   4.211   3.185  11.114  0.3356  0.1767  0.4373
 3902SOL     OW23164   0.616   4.102   5.663  0.1345  0.2333 -0.3098
 3902SOL    HW123165   0.695   4.111   5.609  0.8201  2.1952  1.0620
 3902SOL    HW223166   0.582   4.190   5.648 -0.3224  0.2302  0.7030
 3903SOL     OW23167   3.510   3.630   9.039 -0.0005 -0.4291 -0.2549
 3903SOL    HW123168   3.545   3.718   9.025 -0.8041 -0.0100  0.3522
 3903SOL    HW223169   3.555   3.571   8.979  1.1798  0.3423 -0.1286
 3904SOL     OW23170   3.869   3.663  15.762  0.0943 -0.2162  0.0604
 3904SOL    HW123171   3.926   3.692  15.833  0.9180 -1.0517 -0.2621
 3904SOL    HW223172   3.929   3.621  15.700 -1.1814 -0.4320 -1.0416
 3905SOL     OW23173   0.979   4.441   9.158 -0.2920  0.2936  0.4803
 3905SOL    HW123174   1.058   4.398   9.126 -0.8065 -0.0508 -0.3272
 3905SOL    HW223175   1.002   4.444   9.251 -1.3183  1.2587  0.7013
 3906SOL     OW23176   1.224   2.349   5.151 -0.4972 -0.7576 -0.3144
 3906SOL    HW123177   1.290   2.382   5.212 -0.7208  0.4064 -0.7051
 3906SOL    HW223178   1.142   2.360   5.199 -0.2721  3.5249 -0.9427
 3907SOL     OW23179   1.585   2.626  15.666  0.5160  0.7201 -0.5694
 3907SOL    HW123180   1.555   2.638  15.576 -0.9207  0.3530 -0.1488
 3907SOL    HW223181   1.503   2.648  15.712  0.6165  1.2420 -0.6410
 3908SOL     OW23182   2.056   2.393  13.141  0.4385  0.2495 -0.2489
 3908SOL    HW123183   2.135   2.427  13.099  2.2050  0.4790  3.2079
 3908SOL    HW223184   2.016   2.349  13.067 -0.2715  1.6111 -0.6682
 3909SOL     OW23185   0.448   1.215   3.626 -0.2536  0.0043  0.8959
 3909SOL    HW123186   0.448   1.292   3.569  2.4360 -0.1250  0.7046
 3909SOL    HW223187   0.529   1.172   3.598 -0.0668  2.2891 -2.0569
 3910SOL     OW23188   0.535   3.285   6.725 -0.3372 -0.0505  0.7776
 3910SOL    HW123189   0.584   3.365   6.744  3.3934 -2.2682  0.4537
 3910SOL    HW223190   0.485   3.291   6.643  1.8153 -0.1607 -0.5525
 3911SOL     OW23191   3.808   1.456   4.101 -0.0823 -0.4554  0.2995
 3911SOL    HW123192   3.774   1.532   4.148 -1.0017 -1.1690  0.7685
 3911SOL    HW223193   3.870   1.513   4.055 -1.0670 -0.5852 -1.1582
 3912SOL     OW23194   0.208   0.428  16.509  0.1675 -0.0783 -0.0851
 3912SOL    HW123195   0.297   0.462  16.522  0.3824  0.1371 -2.2628
 3912SOL    HW223196   0.179   0.505  16.460  4.2545  1.4057 -0.1646
 3913SOL     OW23197   3.234   3.447   8.472  0.0305  0.1019 -0.7259
 3913SOL    HW123198   3.274   3.488   8.548  1.6731 -0.1417 -1.4416
 3913SOL    HW223199   3.159   3.404   8.512 -0.6134  2.8940  0.9743
 3914SOL     OW23200   3.615   1.946   5.197  0.1311  0.2173 -0.0306
 3914SOL    HW123201   3.573   1.863   5.174 -1.7616  0.7061  1.6107
 3914SOL    HW223202   3.676   1.959   5.125  0.2310  1.6371  0.3055
 3915SOL     OW23203   1.674   4.542   2.857  0.2008 -0.0427 -0.9112
 3915SOL    HW123204   1.681   4.626   2.901  1.2014 -0.2910 -0.6043
 3915SOL    HW223205   1.683   4.476   2.926  0.3834 -0.1323 -1.0209
 3916SOL     OW23206   3.246   1.666  10.448  0.0521  0.5022  0.0454
 3916SOL    HW123207   3.157   1.680  10.479  0.5500  3.4438  0.1978
 3916SOL    HW223208   3.240   1.677  10.353  0.1290 -0.9425 -0.1241
 3917SOL     OW23209   3.670   3.569   1.731  0.0264 -0.0542 -0.2103
 3917SOL    HW123210   3.736   3.584   1.800  0.0893 -3.4041  0.4524
 3917SOL    HW223211   3.599   3.543   1.790  0.9616  0.4902  1.1684
 3918SOL     OW23212   3.550   1.711   5.100 -0.2682  0.0483 -0.0529
 3918SOL    HW123213   3.571   1.645   5.167  3.0514  2.4905  1.3051
 3918SOL    HW223214   3.585   1.674   5.019 -1.0737  0.4788 -0.5927
 3919SOL     OW23215   0.470   1.094   1.629  0.0330 -0.0851  0.4507
 3919SOL    HW123216   0.473   1.035   1.704  0.1827 -0.0918  0.4388
 3919SOL    HW223217   0.475   1.179   1.674 -1.6032  0.3888 -0.2601
 3920SOL     OW23218   4.179   3.795   5.359 -0.0330  0.4245  0.0135
 3920SOL    HW123219   4.160   3.706   5.387 -3.1849  0.3754 -2.2684
 3920SOL    HW223220   4.241   3.778   5.288  0.8519 -1.1843  1.1767
 3921SOL     OW23221   4.012   1.047   2.679  0.2196 -0.0954  0.3905
 3921SOL    HW123222   4.039   1.016   2.593 -1.0519  1.0230 -0.3995
 3921SOL    HW223223   3.936   0.993   2.702  1.7357 -3.4582 -2.5626
 3922SOL     OW23224   1.921   2.510   4.410 -0.0613  0.3477  0.3761
 3922SOL    HW123225   1.907   2.471   4.496 -1.5399 -0.9673 -0.4377
 3922SOL    HW223226   1.919   2.603   4.431  2.6341  0.9256 -1.9487
 3923SOL     OW23227   4.457   0.239   6.540  0.3415 -0.2664  0.5994
 3923SOL    HW123228   4.379   0.213   6.590 -1.3572  0.5674 -1.5925
 3923SOL    HW223229   4.441   0.176   6.470 -1.3888  0.0230  0.7121
 3924SOL     OW23230   3.377   0.722   3.670 -0.5620 -0.3964  0.6918
 3924SOL    HW123231   3.330   0.752   3.749 -0.6107  0.7970  0.2013
 3924SOL    HW223232   3.462   0.745   3.706 -0.6911  2.0694 -0.5779
 3925SOL     OW23233   3.335   2.410  11.462  0.2314  0.0216 -0.2534
 3925SOL    HW123234   3.276   2.353  11.414  0.9390 -0.2362 -0.8291
 3925SOL    HW223235   3.417   2.362  11.447  0.7982  1.0293 -0.3939
 3926SOL     OW23236   0.591   1.179   6.152  0.0901  0.5491 -0.1262
 3926SOL    HW123237   0.543   1.129   6.086  1.3324 -2.1833  1.0645
 3926SOL    HW223238   0.524   1.213   6.211  2.1868  2.1913  1.3296
 3927SOL     OW23239   1.184   2.386   5.820  0.4473  0.5666 -0.1790
 3927SOL    HW123240   1.108   2.443   5.809  0.6825  1.1847  1.5041
 3927SOL    HW223241   1.200   2.375   5.913 -1.3206 -2.4797 -0.2391
 3928SOL     OW23242   1.411   4.371  15.244  0.0033  0.1895 -0.2410
 3928SOL    HW123243   1.441   4.284  15.217 -1.8260 -1.0471  1.6644
 3928SOL    HW223244   1.332   4.375  15.191 -1.2006 -2.1519  1.3561
 3929SOL     OW23245   1.816   0.027   1.880  0.0115  0.3006  0.3963
 3929SOL    HW123246   1.854   0.096   1.934  1.0394 -0.8271  1.1248
 3929SOL    HW223247   1.812   4.690   1.952  0.8821  0.8761  0.9454
 3930SOL     OW23248   0.182   1.270   4.554  0.0843  0.7321  0.3103
 3930SOL    HW123249   0.265   1.248   4.597  0.3733  1.5935  0.1975
 3930SOL    HW223250   0.197   1.241   4.464 -4.5728  1.4147 -0.6922
 3931SOL     OW23251   0.976   2.140   9.031 -0.3274 -0.2009  0.0324
 3931SOL    HW123252   0.929   2.173   9.107  1.4437 -1.4257  1.6831
 3931SOL    HW223253   0.970   2.211   8.968 -0.0695  1.7011  2.1621
 3932SOL     OW23254   0.835   0.333   4.957 -0.3100  0.1701 -0.1095
 3932SOL    HW123255   0.775   0.369   4.891  2.0084  1.8228 -1.3492
 3932SOL    HW223256   0.782   0.349   5.035  2.8370 -0.9497  2.2428
 3933SOL     OW23257   2.852   3.242   9.083  0.6912 -0.4915  0.2455
 3933SOL    HW123258   2.820   3.154   9.062 -0.6865 -0.4125  1.9921
 3933SOL    HW223259   2.912   3.220   9.154  1.6993  1.9078  0.1288
 3934SOL     OW23260   1.351   0.304   8.227  0.2215  0.2874 -0.1195
 3934SOL    HW123261   1.299   0.225   8.211  1.0833 -0.3384  0.1130
 3934SOL    HW223262   1.280   0.367   8.233 -1.3067 -1.4403 -0.1863
 3935SOL     OW23263   1.353   1.295   1.925  0.1515  0.0045  0.1977
 3935SOL    HW123264   1.349   1.321   2.017  0.6369 -1.5803  0.6615
 3935SOL    HW223265   1.282   1.232   1.911 -0.6644  0.9876 -0.0987
 3936SOL     OW23266   2.249   2.863  12.664  0.2133 -0.0973  0.0949
 3936SOL    HW123267   2.162   2.901  12.671 -0.3591 -1.0131 -2.3158
 3936SOL    HW223268   2.234   2.770  12.645  1.2062 -0.4508  0.9751
 3937SOL     OW23269   2.769   2.017  14.795 -0.1000 -0.0808  0.2931
 3937SOL    HW123270   2.730   2.101  14.772  1.5137  0.6414  0.2417
 3937SOL    HW223271   2.842   2.052  14.846  0.5932  0.7560 -1.2711
 3938SOL     OW23272   3.115   1.868  17.213 -0.2124  0.5539 -0.7340
 3938SOL    HW123273   3.109   1.857  17.308  0.9315 -1.4918 -0.9020
 3938SOL    HW223274   3.080   1.781  17.192 -1.4076  1.2063 -1.4527
 3939SOL     OW23275   3.120   1.356   2.229 -0.4855 -0.3279  0.2725
 3939SOL    HW123276   3.084   1.445   2.235  0.4152  0.0638 -0.1031
 3939SOL    HW223277   3.214   1.375   2.220 -0.4706  0.8629  2.9977
 3940SOL     OW23278   0.156   4.201   7.045  0.2038  0.2099 -0.4541
 3940SOL    HW123279   0.156   4.277   6.987  2.9015  1.1195  0.7658
 3940SOL    HW223280   0.225   4.220   7.108 -0.1356  0.0853 -0.0466
 3941SOL     OW23281   1.194   4.391  13.983 -0.0246  0.1983  0.3015
 3941SOL    HW123282   1.290   4.396  13.985 -0.0590  0.4807  1.1702
 3941SOL    HW223283   1.180   4.437  14.065 -1.1678  0.4346 -0.0250
 3942SOL     OW23284   0.774   0.004   3.255  0.4232 -0.5663 -0.1005
 3942SOL    HW123285   0.698   0.005   3.314 -1.2042  0.0322 -2.1980
 3942SOL    HW223286   0.736   0.007   3.167  0.3191 -0.5995 -0.0578
 3943SOL     OW23287   1.258   3.697   3.497  0.6004  0.4494  0.1062
 3943SOL    HW123288   1.353   3.699   3.507  0.8297  1.2055 -2.2038
 3943SOL    HW223289   1.250   3.695   3.402  2.3670 -2.5053  0.0288
 3944SOL     OW23290   1.477   1.030  11.935 -0.1494 -0.2159  0.1249
 3944SOL    HW123291   1.572   1.039  11.929 -0.0712 -0.6281  0.7433
 3944SOL    HW223292   1.446   1.097  11.874  0.6551 -0.7247 -0.8266
 3945SOL     OW23293   2.563   3.054   4.659 -0.0939 -0.0054 -0.0572
 3945SOL    HW123294   2.482   3.059   4.711 -0.0861 -2.5937  0.2422
 3945SOL    HW223295   2.602   2.971   4.687  2.4205  1.1035 -0.3292
 3946SOL     OW23296   4.091   1.170   8.154  0.3967  0.5061 -0.2521
 3946SOL    HW123297   4.136   1.223   8.088  2.3715  1.4318  1.8513
 3946SOL    HW223298   4.161   1.108   8.174  0.7232  0.9476 -0.0308
 3947SOL     OW23299   0.519   3.208   3.112 -0.1073 -0.2732 -0.2291
 3947SOL    HW123300   0.555   3.128   3.074  0.7603  0.2657 -0.5515
 3947SOL    HW223301   0.579   3.219   3.186 -0.5055 -0.9476  0.1915
 3948SOL     OW23302   1.821   0.915   6.425  0.5392  0.1457 -0.2353
 3948SOL    HW123303   1.866   0.831   6.428  0.4352  0.0909 -0.2471
 3948SOL    HW223304   1.732   0.892   6.401  0.3825  0.5610 -0.0676
 3949SOL     OW23305   0.435   0.303   2.229  0.1896 -0.0052  0.3938
 3949SOL    HW123306   0.521   0.329   2.263  0.4455  0.9481 -1.0063
 3949SOL    HW223307   0.443   0.216   2.191 -0.9896  0.5283 -1.0309
 3950SOL     OW23308   3.789   1.196   9.485 -0.1640 -0.1621 -0.2472
 3950SOL    HW123309   3.869   1.226   9.443  0.1608  0.4766  0.8048
 3950SOL    HW223310   3.803   1.219   9.577 -0.1537 -0.6288 -0.1349
 3951SOL     OW23311   1.423   4.466   8.141  0.1802  0.0491  0.1979
 3951SOL    HW123312   1.389   4.383   8.106 -2.5252  1.6594 -1.0013
 3951SOL    HW223313   1.435   4.449   8.234 -0.1646  0.8213  0.3824
 3952SOL     OW23314   1.373   4.512  16.493  0.8419  0.1731 -0.6760
 3952SOL    HW123315   1.429   4.564  16.435 -0.2415  2.0799 -0.0076
 3952SOL    HW223316   1.415   4.428  16.474  0.4684 -0.3142  0.7065
 3953SOL     OW23317   3.022   1.981  11.072  0.2414 -0.2599 -0.3115
 3953SOL    HW123318   3.102   2.018  11.035 -1.5953  4.2172  0.2096
 3953SOL    HW223319   3.060   1.939  11.149  0.8345 -0.7139 -0.8589
 3954SOL     OW23320   0.263   0.839   9.575 -0.3893 -0.1593  0.0199
 3954SOL    HW123321   0.214   0.800   9.648  1.1369  0.0135  1.1452
 3954SOL    HW223322   0.351   0.852   9.612 -0.4205 -0.9860  0.3817
 3955SOL     OW23323   3.868   3.042  17.170  0.1634 -0.1251  0.7186
 3955SOL    HW123324   3.819   3.024  17.089  0.0621 -1.8995  1.1790
 3955SOL    HW223325   3.805   3.026  17.241 -1.1617 -1.6132 -0.7973
 3956SOL     OW23326   3.118   1.298  15.138 -0.9383 -0.3796  0.2689
 3956SOL    HW123327   3.177   1.225  15.159 -1.9775 -1.8990 -2.1341
 3956SOL    HW223328   3.189   1.350  15.100  0.0365 -2.4600 -0.8007
 3957SOL     OW23329   4.254   0.388   6.319 -0.5109 -0.1860 -0.3014
 3957SOL    HW123330   4.283   0.469   6.277  1.2301  0.2239  1.7176
 3957SOL    HW223331   4.228   0.338   6.241  1.5338 -2.1213  0.2517
 3958SOL     OW23332   4.244   4.362   0.499 -0.4020 -0.2215  0.5592
 3958SOL    HW123333   4.285   4.381   0.583 -0.3032 -1.5661  0.8107
 3958SOL    HW223334   4.221   4.269   0.497  0.5288 -0.4297 -0.4494
 3959SOL     OW23335   3.128   3.255   7.018 -0.2575 -0.0553  0.1230
 3959SOL    HW123336   3.081   3.195   6.961 -0.4563 -0.8653  1.1529
 3959SOL    HW223337   3.157   3.201   7.091  1.0160  0.6245  0.1229
 3960SOL     OW23338   3.436   0.097  16.540  0.9241  0.8589  0.0759
 3960SOL    HW123339   3.503   0.140  16.486  1.7590 -1.2532 -0.5934
 3960SOL    HW223340   3.474   0.010  16.558 -0.5955  0.2692  0.4306
 3961SOL     OW23341   3.992   1.717   1.674 -0.3235 -0.8284  0.0960
 3961SOL    HW123342   3.964   1.677   1.591 -2.4086  3.0680 -1.0702
 3961SOL    HW223343   4.031   1.796   1.638 -0.6828 -0.4222  0.6074
 3962SOL     OW23344   0.051   0.867  14.768 -0.1180 -0.1987  0.1052
 3962SOL    HW123345   4.705   0.824  14.720 -0.0489 -1.2620  0.9457
 3962SOL    HW223346   0.126   0.837  14.717  0.2463  0.8503  0.0343
 3963SOL     OW23347   2.096   3.356  17.145  0.0756 -0.0466 -0.3564
 3963SOL    HW123348   2.085   3.400  17.229  1.4661 -0.7814  0.1994
 3963SOL    HW223349   2.085   3.267  17.180 -0.4131  0.2204  0.1530
 3964SOL     OW23350   0.348   3.138   5.186  0.1642  0.1261 -0.2203
 3964SOL    HW123351   0.291   3.127   5.110 -0.2708 -1.3434  0.3286
 3964SOL    HW223352   0.424   3.160   5.133 -0.6813 -1.3345 -2.0242
 3965SOL     OW23353   4.588   0.708  14.639  0.0817 -0.2169  0.1269
 3965SOL    HW123354   4.632   0.624  14.623  1.0859  0.3913 -0.3239
 3965SOL    HW223355   4.518   0.692  14.576 -1.0580  0.2210  1.2920
 3966SOL     OW23356   0.777   0.484   1.053 -0.4076 -0.5639  0.0663
 3966SOL    HW123357   0.736   0.403   1.024 -3.4966  0.3798  1.8344
 3966SOL    HW223358   0.784   0.463   1.146 -1.2980 -0.2964  0.1881
 3967SOL     OW23359   3.279   2.813   4.233  0.1748 -0.2145 -0.1495
 3967SOL    HW123360   3.322   2.767   4.161  0.5341  0.3995 -0.3214
 3967SOL    HW223361   3.333   2.809   4.312  3.0107  0.7839 -2.0873
 3968SOL     OW23362   0.908   1.185   1.377 -0.0584  0.0803 -0.1097
 3968SOL    HW123363   0.830   1.228   1.410  0.2829 -0.1856  1.0301
 3968SOL    HW223364   0.873   1.176   1.288 -1.2139 -1.1265  0.4765
 3969SOL     OW23365   3.941   0.004  16.676  0.4156  0.8205 -0.3921
 3969SOL    HW123366   4.004   4.682  16.731 -1.4181 -0.5968  0.4625
 3969SOL    HW223367   3.981   4.707  16.592 -0.4096 -0.2989 -0.4707
 3970SOL     OW23368   2.010   1.628   2.542  0.0549 -0.4437 -0.0839
 3970SOL    HW123369   2.033   1.667   2.458  1.0069  0.0014  0.3813
 3970SOL    HW223370   1.917   1.649   2.546  0.4802  1.2720  1.0329
 3971SOL     OW23371   3.979   0.083   6.081  0.5171 -0.2627 -0.4123
 3971SOL    HW123372   3.938   0.111   5.999  0.4365  0.1901 -0.2124
 3971SOL    HW223373   3.943   4.720   6.073 -0.6529  0.1745  0.0485
 3972SOL     OW23374   1.662   0.136  17.179  0.0786  0.1817 -0.4731
 3972SOL    HW123375   1.728   0.189  17.135  1.7412 -0.5775  1.0811
 3972SOL    HW223376   1.710   0.053  17.180  1.2897  0.8930  0.6087
 3973SOL     OW23377   1.182   2.786   3.719  0.5873 -0.0835  0.0358
 3973SOL    HW123378   1.162   2.877   3.695  2.2736  0.4489  0.6264
 3973SOL    HW223379   1.130   2.745   3.650  1.5200 -1.3798  0.1191
 3974SOL     OW23380   3.692   3.676   4.486 -0.1201  0.2836 -0.0101
 3974SOL    HW123381   3.698   3.580   4.489  0.0650  0.2461 -1.5527
 3974SOL    HW223382   3.730   3.709   4.567  0.8850  0.4791 -0.5631
 3975SOL     OW23383   3.234   3.142  16.780  0.0654  0.3871  0.2969
 3975SOL    HW123384   3.280   3.073  16.829  0.3057  1.0184  0.9539
 3975SOL    HW223385   3.308   3.185  16.739  0.5840 -0.1831  0.6311
 3976SOL     OW23386   0.922   3.263   6.046 -0.9724 -0.2344 -0.0247
 3976SOL    HW123387   0.865   3.288   5.973 -0.1276  0.8737 -0.2988
 3976SOL    HW223388   0.978   3.340   6.043 -1.6734  0.2085 -2.2818
 3977SOL     OW23389   1.918   1.213  12.231  0.2560  0.3998 -0.2230
 3977SOL    HW123390   1.922   1.189  12.323  1.2010 -1.0630 -0.6533
 3977SOL    HW223391   2.006   1.235  12.200  0.8158  0.2196  1.2756
 3978SOL     OW23392   1.224   0.349   7.227 -0.1177  0.1214 -0.2925
 3978SOL    HW123393   1.234   0.414   7.297 -1.7326  0.8195 -0.7077
 3978SOL    HW223394   1.199   0.283   7.292  0.2583  0.5330  0.2803
 3979SOL     OW23395   0.642   4.454   2.865  0.4311  0.0917 -0.9018
 3979SOL    HW123396   0.577   4.455   2.795  0.2627 -2.1042 -0.7751
 3979SOL    HW223397   0.617   4.373   2.910  0.9061 -1.2488 -3.0878
 3980SOL     OW23398   3.332   3.034   0.919  0.2997 -0.2003  0.1691
 3980SOL    HW123399   3.276   3.031   0.842  4.0448  0.5842 -2.5900
 3980SOL    HW223400   3.329   2.943   0.947  0.2935 -0.3303 -0.2579
 3981SOL     OW23401   3.956   0.405   2.271  0.1564  0.0516 -0.7584
 3981SOL    HW123402   3.892   0.338   2.296 -0.1906  0.4436 -0.6133
 3981SOL    HW223403   4.017   0.354   2.217  0.8327  0.5046 -0.4110
 3982SOL     OW23404   1.739   1.075  12.084 -0.1286 -0.0476 -0.2881
 3982SOL    HW123405   1.672   1.098  12.149  1.2683 -0.7856  1.4063
 3982SOL    HW223406   1.818   1.120  12.114  0.4973 -0.0673 -1.9333
 3983SOL     OW23407   0.240   2.093  17.672  0.0854  0.0156  0.1199
 3983SOL    HW123408   0.193   2.124  17.594 -1.1530 -2.4872 -0.1429
 3983SOL    HW223409   0.293   2.027  17.627  0.5227 -0.7280  1.7450
 3984SOL     OW23410   1.370   1.058   7.930  0.4282 -0.7261  0.1112
 3984SOL    HW123411   1.462   1.077   7.946 -0.1275  0.4531  1.8594
 3984SOL    HW223412   1.358   0.965   7.951  0.8133 -0.8873 -0.3924
 3985SOL     OW23413   1.951   4.019   8.314 -0.1761 -0.1262 -0.1800
 3985SOL    HW123414   2.031   3.971   8.292  0.1888  0.0391  0.7825
 3985SOL    HW223415   1.951   4.009   8.410 -0.6375 -2.9465 -0.4632
 3986SOL     OW23416   2.847   3.866   1.893  0.0088 -0.0828  0.3926
 3986SOL    HW123417   2.783   3.884   1.963  1.3569  0.0302  1.5897
 3986SOL    HW223418   2.913   3.927   1.926  0.1404 -0.0132 -0.0079
 3987SOL     OW23419   2.720   2.543  14.295  0.2458  0.8348 -0.2169
 3987SOL    HW123420   2.665   2.470  14.323  1.0017  0.2267 -0.3178
 3987SOL    HW223421   2.722   2.536  14.199  1.6589  0.1472 -0.1495
 3988SOL     OW23422   4.678   3.835  12.673 -0.4487  0.3174 -0.1053
 3988SOL    HW123423   4.711   3.912  12.719 -1.7677  1.0228 -0.3388
 3988SOL    HW223424   0.033   3.785  12.678 -0.3382  0.4186 -0.8518
 3989SOL     OW23425   2.953   2.587   6.780  0.8653  0.7318 -0.5935
 3989SOL    HW123426   3.042   2.577   6.814  0.4971  0.6772  0.3568
 3989SOL    HW223427   2.971   2.668   6.733  1.3186  0.4133 -0.9833
 3990SOL     OW23428   4.305   2.609   6.152 -0.5164  0.1300 -0.0363
 3990SOL    HW123429   4.271   2.696   6.175  0.3427  0.7520 -1.1261
 3990SOL    HW223430   4.393   2.597   6.188 -1.5431 -1.9212  1.8290
 3991SOL     OW23431   1.763   2.246   3.376 -0.1346 -0.3465  0.0533
 3991SOL    HW123432   1.702   2.175   3.354 -0.7150  0.5907 -1.3778
 3991SOL    HW223433   1.711   2.285   3.446 -2.1370  0.7821 -2.0584
 3992SOL     OW23434   4.085   1.246  15.234  0.2780  0.1508 -0.6959
 3992SOL    HW123435   4.172   1.214  15.258  0.5600  1.4611 -0.0103
 3992SOL    HW223436   4.083   1.311  15.305 -0.7942  1.1556 -1.6531
 3993SOL     OW23437   1.951   0.684   1.490  0.1258 -0.3755  0.5411
 3993SOL    HW123438   1.950   0.593   1.520  1.5015 -0.4043  0.5126
 3993SOL    HW223439   1.857   0.688   1.472  0.4410  0.0481 -1.0254
 3994SOL     OW23440   2.631   0.250   9.364  0.1188 -0.1984  0.6637
 3994SOL    HW123441   2.716   0.278   9.330 -0.4026 -1.2871 -1.5207
 3994SOL    HW223442   2.658   0.259   9.455  0.9904 -1.5313  0.5407
 3995SOL     OW23443   2.292   2.609   9.478 -0.0990  0.5319  0.2253
 3995SOL    HW123444   2.350   2.540   9.448  1.5676  1.6753  0.8237
 3995SOL    HW223445   2.240   2.560   9.541  2.2462 -1.6308  0.4532
 3996SOL     OW23446   0.090   0.111   9.121 -0.8791 -0.5086 -0.2459
 3996SOL    HW123447   0.132   0.143   9.041 -0.6334  2.0425  0.8843
 3996SOL    HW223448   0.012   0.167   9.121 -0.2505  0.4034  1.4778
 3997SOL     OW23449   0.955   3.067   2.858  0.4746 -0.2337  0.1125
 3997SOL    HW123450   0.893   3.126   2.901  0.5860  0.0637 -0.1341
 3997SOL    HW223451   0.953   3.102   2.769 -4.9774 -2.4105 -0.5685
 3998SOL     OW23452   2.341   0.080   4.906  0.3467  0.7824  0.4468
 3998SOL    HW123453   2.427   0.093   4.866  1.2861 -3.1198  1.1771
 3998SOL    HW223454   2.280   0.117   4.842  0.4802  0.0532 -0.1010
 3999SOL     OW23455   1.853   1.025   4.804 -0.0174  0.7529 -0.0926
 3999SOL    HW123456   1.891   1.000   4.888 -0.5155 -2.1072 -0.7408
 3999SOL    HW223457   1.761   1.001   4.819  0.7870 -0.3701  3.0066
 4000SOL     OW23458   3.481   2.884   2.567 -0.0897  0.1987  0.3242
 4000SOL    HW123459   3.450   2.800   2.600  0.2876  0.7301  2.0400
 4000SOL    HW223460   3.568   2.895   2.606 -0.0569 -3.5299  1.2670
 4001SOL     OW23461   3.310   0.946   4.487 -0.3871  0.2531 -0.7149
 4001SOL    HW123462   3.243   0.991   4.539  0.4870 -0.8759  1.4045
 4001SOL    HW223463   3.267   0.861   4.477  0.5509 -0.2084 -0.7750
 4002SOL     OW23464   4.005   3.089   5.840  0.4128 -0.2239 -0.3377
 4002SOL    HW123465   3.953   3.014   5.869  0.1260  0.7886  1.7294
 4002SOL    HW223466   4.062   3.038   5.782 -1.1404  0.1536 -2.2096
 4003SOL     OW23467   1.826   3.034   9.355  0.6221 -0.0334  0.3245
 4003SOL    HW123468   1.766   3.018   9.282 -1.0919  1.3765  1.4086
 4003SOL    HW223469   1.882   3.104   9.322  0.6653 -0.3766 -0.3243
 4004SOL     OW23470   0.731   1.169   1.093 -0.0040  0.5388 -0.8543
 4004SOL    HW123471   0.785   1.111   1.039 -0.5481  0.2002 -1.0326
 4004SOL    HW223472   0.665   1.107   1.124 -0.5649  0.5694 -1.9908
 4005SOL     OW23473   0.478   4.555   4.893 -0.1827  0.2963 -0.0573
 4005SOL    HW123474   0.555   4.508   4.925 -0.2470 -0.0663 -0.4336
 4005SOL    HW223475   0.486   4.545   4.799  1.7638 -0.1899  0.1667
 4006SOL     OW23476   4.253   3.644  16.780  0.4664 -0.0278  0.6383
 4006SOL    HW123477   4.183   3.701  16.747  0.5985  0.5807  1.4214
 4006SOL    HW223478   4.209   3.562  16.805  0.2492 -0.3606 -0.8587
 4007SOL     OW23479   0.427   3.655   5.176  0.4872  0.1611 -0.1350
 4007SOL    HW123480   0.346   3.608   5.194  0.6209 -0.1226 -0.2751
 4007SOL    HW223481   0.411   3.735   5.226  0.0073  0.8235 -1.3430
 4008SOL     OW23482   3.804   1.952   3.061 -0.3075  0.3871 -0.0185
 4008SOL    HW123483   3.748   1.876   3.078 -0.5919  0.6418  0.1917
 4008SOL    HW223484   3.776   2.017   3.126  0.0906  0.3752  0.1613
 4009SOL     OW23485   3.074   4.002   8.877  0.4655 -0.1515  0.1406
 4009SOL    HW123486   3.156   4.043   8.905  0.3041  0.5313 -0.3941
 4009SOL    HW223487   3.102   3.914   8.852 -1.2085 -0.7931  0.4937
 4010SOL     OW23488   0.384   2.104   4.647  0.1029 -0.1562  0.0314
 4010SOL    HW123489   0.472   2.105   4.607  0.2953  0.5536  0.4673
 4010SOL    HW223490   0.349   2.027   4.603 -1.5472  0.7361 -0.2090
 4011SOL     OW23491   1.676   2.793   1.604  0.3950 -0.0995 -0.0157
 4011SOL    HW123492   1.686   2.762   1.515  3.3988  0.3482  0.1578
 4011SOL    HW223493   1.662   2.888   1.598 -1.7644 -0.4818 -0.8968
 4012SOL     OW23494   0.345   3.135  10.092  0.6536 -0.2098 -0.4989
 4012SOL    HW123495   0.409   3.073  10.127  0.3103 -0.2401  0.0817
 4012SOL    HW223496   0.399   3.170  10.022  0.1521  1.6822  0.0576
 4013SOL     OW23497   4.631   1.811  14.922 -0.4050  0.0141  0.2332
 4013SOL    HW123498   4.664   1.730  14.962  0.4924  0.2512 -0.0234
 4013SOL    HW223499   4.624   1.783  14.830  1.1798  2.4373 -0.6354
 4014SOL     OW23500   3.889   0.994   3.042  0.4512  0.3361  0.2316
 4014SOL    HW123501   3.827   0.929   3.077  0.8291  0.3315  0.8954
 4014SOL    HW223502   3.963   0.988   3.102  0.6477 -1.7561 -0.2270
 4015SOL     OW23503   0.242   2.073  12.283  0.5430 -0.3730  0.1343
 4015SOL    HW123504   0.163   2.124  12.267  0.0411 -1.2064 -0.0647
 4015SOL    HW223505   0.254   2.090  12.377 -1.1576  0.2050  0.2619
 4016SOL     OW23506   2.215   2.906  13.654  0.1696 -0.6870  0.1216
 4016SOL    HW123507   2.260   2.903  13.569 -0.1051 -0.4670 -0.0310
 4016SOL    HW223508   2.163   2.826  13.642 -0.4927 -0.2585  0.1911
 4017SOL     OW23509   2.331   3.886   7.298  0.1020 -0.1064 -0.2286
 4017SOL    HW123510   2.365   3.854   7.382  1.0134  0.0397 -0.5371
 4017SOL    HW223511   2.312   3.977   7.322  2.2452  0.4316 -0.5336
 4018SOL     OW23512   3.404   1.495   4.871  0.2181  0.1224 -0.9070
 4018SOL    HW123513   3.414   1.412   4.825  0.0349 -1.1716  1.3882
 4018SOL    HW223514   3.347   1.462   4.940 -0.2831  0.4729 -1.1569
 4019SOL     OW23515   0.671   2.050   7.547  0.3762  0.0313 -0.2250
 4019SOL    HW123516   0.608   2.040   7.618 -1.3546  0.3204 -1.7259
 4019SOL    HW223517   0.628   2.003   7.476  1.8696 -2.6974  0.7037
 4020SOL     OW23518   2.284   0.031   3.587 -0.0280 -0.1392  0.0555
 4020SOL    HW123519   2.227   4.680   3.584 -1.1588  0.7878 -2.7509
 4020SOL    HW223520   2.335   0.026   3.668  2.4371  1.7744 -1.3779
 4021SOL     OW23521   1.926   3.486   2.700 -0.1947 -0.0592  0.3288
 4021SOL    HW123522   1.964   3.555   2.646  1.3773 -1.9679 -1.0019
 4021SOL    HW223523   1.991   3.419   2.679 -0.4408  0.4806 -2.1128
 4022SOL     OW23524   0.348   2.295   0.140  0.4143 -0.0151 -0.0139
 4022SOL    HW123525   0.319   2.230   0.076  0.7820 -0.2313  0.0411
 4022SOL    HW223526   0.287   2.266   0.208  2.4237  1.2495  2.3248
 4023SOL     OW23527   0.214   0.452   1.344  0.1201  0.6219  0.3931
 4023SOL    HW123528   0.143   0.484   1.400 -1.6297 -0.2466 -1.2727
 4023SOL    HW223529   0.255   0.532   1.312 -0.3606  1.0770  0.9243
 4024SOL     OW23530   3.473   2.998   7.181 -0.0098  0.1527  0.0134
 4024SOL    HW123531   3.558   3.011   7.223 -0.7223  2.2995  0.8130
 4024SOL    HW223532   3.447   2.909   7.206 -0.7478  0.3587 -0.0158
 4025SOL     OW23533   1.510   3.356   4.880 -0.0294  0.2355 -0.4415
 4025SOL    HW123534   1.604   3.339   4.875 -0.4115 -2.3157  0.9989
 4025SOL    HW223535   1.504   3.439   4.832  1.4048  0.1853 -0.7059
 4026SOL     OW23536   4.507   4.207   8.487 -0.6818 -0.5192 -0.4294
 4026SOL    HW123537   4.602   4.198   8.474 -0.6017  2.7156 -2.0253
 4026SOL    HW223538   4.483   4.116   8.506 -0.0071 -0.6976 -0.4254
 4027SOL     OW23539   0.076   2.241   9.476 -0.5118  0.0489 -0.1021
 4027SOL    HW123540   0.065   2.223   9.383 -0.6561  0.3930 -0.1502
 4027SOL    HW223541   0.010   2.309   9.492 -0.0002  0.3983  0.5071
 4028SOL     OW23542   2.079   3.398  12.074  0.2628 -0.0462 -0.4038
 4028SOL    HW123543   2.053   3.489  12.087  0.5067  0.1139 -1.0826
 4028SOL    HW223544   2.033   3.345  12.140  0.4170  0.5036  0.1465
 4029SOL     OW23545   0.987   0.107   3.013  0.4638 -0.1228 -0.4213
 4029SOL    HW123546   0.931   0.071   2.945 -1.6803  0.1203  1.2049
 4029SOL    HW223547   0.986   0.199   2.988 -0.1536 -0.1631 -0.5593
 4030SOL     OW23548   2.743   4.012   2.132  0.0839  0.8665 -0.7305
 4030SOL    HW123549   2.665   4.032   2.080 -0.2794 -0.0686 -0.5453
 4030SOL    HW223550   2.696   3.988   2.211 -2.5815 -1.5244 -3.0613
 4031SOL     OW23551   4.059   3.872   5.598 -0.5075  0.4281 -0.3911
 4031SOL    HW123552   4.128   3.810   5.619  0.0577  0.9711 -0.6443
 4031SOL    HW223553   4.083   3.868   5.505 -1.9936  1.3132 -0.8135
 4032SOL     OW23554   0.095   0.359   6.726  0.3550  0.7114 -0.0260
 4032SOL    HW123555   0.011   0.386   6.689  0.7828  1.0243 -0.7690
 4032SOL    HW223556   0.142   0.441   6.743  2.0528 -0.4194  0.7819
 4033SOL     OW23557   3.029   1.976   6.741  0.2031 -0.2151  0.0645
 4033SOL    HW123558   2.997   2.055   6.783  0.5286 -0.7510  1.2996
 4033SOL    HW223559   3.049   1.929   6.821 -1.9023 -0.2205  0.5798
 4034SOL     OW23560   4.598   2.309   6.604  0.0018 -0.1564  0.1432
 4034SOL    HW123561   4.658   2.235   6.600 -1.8247 -1.7031  1.2796
 4034SOL    HW223562   4.574   2.310   6.512  0.4505 -1.9285  0.0002
 4035SOL     OW23563   1.937   0.478  14.693  0.0230  0.3458 -0.3609
 4035SOL    HW123564   1.959   0.516  14.778  1.7044  1.0899 -1.1330
 4035SOL    HW223565   1.846   0.451  14.708  0.2479  0.1665  0.6485
 4036SOL     OW23566   2.592   0.437  11.685  0.0687 -0.5720 -0.9870
 4036SOL    HW123567   2.645   0.420  11.607  1.9414 -3.2423  0.8472
 4036SOL    HW223568   2.631   0.379  11.751  0.7595 -0.2368 -1.1009
 4037SOL     OW23569   2.236   4.492   1.822  0.8161  0.1597  0.1529
 4037SOL    HW123570   2.286   4.554   1.876  1.0465  0.8553 -0.8709
 4037SOL    HW223571   2.178   4.553   1.777  0.0795 -1.0769 -0.5632
 4038SOL     OW23572   2.935   4.306   2.963 -0.2350 -0.2775  0.4856
 4038SOL    HW123573   2.981   4.232   2.923 -0.3989  0.2629 -0.7071
 4038SOL    HW223574   2.843   4.284   2.946 -0.7640  2.5028 -0.2417
 4039SOL     OW23575   4.396   1.077   1.205 -0.0816 -0.6285 -0.1881
 4039SOL    HW123576   4.330   1.018   1.242  0.0290 -0.5302  0.1743
 4039SOL    HW223577   4.365   1.078   1.115 -1.6363 -0.3634  0.3443
 4040SOL     OW23578   0.131   2.270   2.917  0.1584  0.4338  0.5979
 4040SOL    HW123579   0.052   2.222   2.891  2.1184 -2.0069 -0.8920
 4040SOL    HW223580   0.191   2.199   2.938 -1.8194 -1.3271  0.3515
 4041SOL     OW23581   3.355   2.898   3.094  0.2685  0.0075  0.0892
 4041SOL    HW123582   3.356   2.805   3.074  2.3328  0.2783 -1.0079
 4041SOL    HW223583   3.285   2.934   3.040 -0.9010 -0.4712  1.2914
 4042SOL     OW23584   1.668   2.939  11.539 -0.3214 -0.1397  0.2578
 4042SOL    HW123585   1.690   2.974  11.453 -0.6149 -1.3504 -0.3110
 4042SOL    HW223586   1.750   2.941  11.589 -1.3510  1.2657  1.9084
 4043SOL     OW23587   3.348   1.763  11.950 -0.9429 -0.2531 -0.1467
 4043SOL    HW123588   3.303   1.846  11.965 -3.1235 -1.4789  0.0503
 4043SOL    HW223589   3.287   1.698  11.984  1.0808 -1.9966  0.1824
 4044SOL     OW23590   1.362   3.580   7.162 -0.3376  1.1524  0.4545
 4044SOL    HW123591   1.345   3.595   7.069  1.8369 -3.5917 -0.7041
 4044SOL    HW223592   1.370   3.485   7.166 -0.2786  1.0815 -1.3926
 4045SOL     OW23593   2.195   1.364   6.341  0.0284 -0.4239  0.4554
 4045SOL    HW123594   2.183   1.278   6.381  1.9386 -0.7047  0.4461
 4045SOL    HW223595   2.129   1.418   6.385  0.9125  1.2041 -0.2020
 4046SOL     OW23596   2.243   1.833   3.211 -0.1535  0.5533 -0.1710
 4046SOL    HW123597   2.174   1.840   3.145 -1.4828  0.4756  1.2144
 4046SOL    HW223598   2.233   1.754   3.265  1.6084  0.8522  0.5711
 4047SOL     OW23599   2.331   1.819   6.138  0.1414 -0.6432 -1.1075
 4047SOL    HW123600   2.258   1.767   6.170 -0.7414  1.3089  0.0356
 4047SOL    HW223601   2.385   1.808   6.216 -1.9091 -1.1812  0.2332
 4048SOL     OW23602   1.218   0.708   3.235 -0.3656  0.1044 -0.0886
 4048SOL    HW123603   1.175   0.670   3.312 -0.9238 -2.0678 -1.5122
 4048SOL    HW223604   1.162   0.682   3.163 -0.1027  1.6550 -0.8672
 4049SOL     OW23605   3.808   3.610   1.956 -0.1361 -0.0964 -0.3445
 4049SOL    HW123606   3.892   3.652   1.973 -1.1510  2.1028 -0.8019
 4049SOL    HW223607   3.782   3.579   2.043 -0.6316 -2.1213 -1.2135
 4050SOL     OW23608   3.094   2.420   0.246 -0.3071  0.3084  0.4798
 4050SOL    HW123609   3.010   2.450   0.282  0.4219 -0.7857  3.1220
 4050SOL    HW223610   3.107   2.331   0.279  0.1960  0.3336  0.3478
 4051SOL     OW23611   3.510   0.483  14.844  0.7864 -0.0965  0.6095
 4051SOL    HW123612   3.479   0.407  14.795 -0.7556 -0.0063  1.4525
 4051SOL    HW223613   3.554   0.528  14.772  1.3451  0.7362  1.4780
 4052SOL     OW23614   4.551   4.247   2.618 -0.3229 -0.3975 -0.4616
 4052SOL    HW123615   4.593   4.285   2.541 -1.0860  0.1323 -0.6096
 4052SOL    HW223616   4.464   4.283   2.603 -0.1828 -1.0285 -2.8221
 4053SOL     OW23617   3.794   0.964   5.990  0.2282  0.2647 -0.4803
 4053SOL    HW123618   3.858   1.032   5.970 -0.6486  0.8530 -1.2628
 4053SOL    HW223619   3.727   1.011   6.040  1.2086  0.2228  0.8868
 4054SOL     OW23620   1.157   0.156   9.194 -0.5272  0.6641 -0.2678
 4054SOL    HW123621   1.091   0.164   9.125 -0.6838 -2.0605 -0.4346
 4054SOL    HW223622   1.235   0.125   9.149 -0.8335 -0.6539  0.1157
 4055SOL     OW23623   1.489   2.378   6.873  0.3898  0.3618 -0.0014
 4055SOL    HW123624   1.496   2.358   6.779 -1.2099  1.5438 -0.3658
 4055SOL    HW223625   1.542   2.457   6.868 -2.1591  2.2050  2.0259
 4056SOL     OW23626   4.661   3.005   7.344 -0.2606  0.1360  0.0309
 4056SOL    HW123627   4.711   3.022   7.423  0.0490 -1.1081  0.1006
 4056SOL    HW223628   4.615   2.922   7.362 -1.1885  0.6385  0.0058
 4057SOL     OW23629   1.495   2.339   6.603 -0.1432  0.3145  0.2597
 4057SOL    HW123630   1.499   2.383   6.518 -2.1716  0.0910  0.0455
 4057SOL    HW223631   1.437   2.265   6.581  1.8112 -0.6941 -1.4465
 4058SOL     OW23632   4.380   2.818   4.369  0.2402 -0.5059 -0.3735
 4058SOL    HW123633   4.390   2.735   4.414 -0.3387 -0.1104  0.4651
 4058SOL    HW223634   4.426   2.883   4.422 -1.3709 -0.1326  0.5367
 4059SOL     OW23635   4.578   0.788   6.676 -0.2381 -0.5052 -0.0255
 4059SOL    HW123636   4.643   0.739   6.625 -0.2312 -1.3093  0.7656
 4059SOL    HW223637   4.575   0.868   6.623  2.5892  1.1946  2.4197
 4060SOL     OW23638   1.667   1.742   9.005 -0.2822  0.4578 -0.0918
 4060SOL    HW123639   1.740   1.684   8.984 -0.2268  0.8542 -1.0040
 4060SOL    HW223640   1.663   1.796   8.926 -0.2980 -1.5156 -1.4407
 4061SOL     OW23641   2.205   4.114   2.176  0.0772 -0.1264 -0.7388
 4061SOL    HW123642   2.130   4.058   2.195  0.2037 -0.0395  0.0248
 4061SOL    HW223643   2.261   4.049   2.134 -1.7476 -1.2267 -1.4654
 4062SOL     OW23644   4.645   2.394   7.714 -0.0723  0.2422 -0.1109
 4062SOL    HW123645   4.684   2.448   7.645  2.0127 -3.0506 -1.5318
 4062SOL    HW223646   4.687   2.412   7.799  0.5850 -0.7095 -0.2312
 4063SOL     OW23647   1.634   1.190   9.127 -0.5777 -0.1323 -0.0671
 4063SOL    HW123648   1.679   1.254   9.072 -0.9979  0.3673  0.1700
 4063SOL    HW223649   1.605   1.240   9.204  1.1772  0.9242 -0.0844
 4064SOL     OW23650   1.957   3.635   9.499  0.6281  0.3215  0.0829
 4064SOL    HW123651   1.949   3.730   9.509  3.4186  0.4864  0.7716
 4064SOL    HW223652   2.010   3.633   9.419  0.6700  1.5404  0.0754
 4065SOL     OW23653   0.893   2.967  15.565 -0.2266  0.1107  0.6994
 4065SOL    HW123654   0.897   3.036  15.632 -0.1101 -0.4058  1.2303
 4065SOL    HW223655   0.846   2.894  15.606  0.3216 -0.7411 -0.1988
 4066SOL     OW23656   2.277   2.908   6.752 -0.6719  0.6745  0.0512
 4066SOL    HW123657   2.279   2.986   6.807 -0.7471  1.4390 -1.0258
 4066SOL    HW223658   2.186   2.917   6.723 -0.9834  0.6258  1.0081
 4067SOL     OW23659   3.893   3.444   4.612  0.3363 -0.5575  0.1236
 4067SOL    HW123660   3.927   3.367   4.658  1.5751  1.0927  1.9717
 4067SOL    HW223661   3.819   3.404   4.567 -0.6549  0.8004  0.5492
 4068SOL     OW23662   1.015   0.679   4.631 -0.7108  0.2954  0.1286
 4068SOL    HW123663   0.934   0.667   4.582 -1.1501  0.6563  0.7635
 4068SOL    HW223664   1.057   0.593   4.623  0.1465  0.6719  0.4865
 4069SOL     OW23665   1.016   3.474   5.456 -0.2603  0.0147 -0.3157
 4069SOL    HW123666   1.049   3.390   5.488 -0.4941  1.0199  2.5786
 4069SOL    HW223667   0.967   3.502   5.534 -0.6269 -3.7353  0.8215
 4070SOL     OW23668   1.073   3.135   9.931  0.2857  0.2813 -0.8592
 4070SOL    HW123669   1.035   3.113  10.016  2.2595 -0.0917 -0.0672
 4070SOL    HW223670   1.122   3.055   9.913 -1.2934 -0.5327 -1.4975
 4071SOL     OW23671   1.087   0.663   2.987 -0.1019 -0.3318  0.1727
 4071SOL    HW123672   1.114   0.655   2.896  0.3540  0.2324  0.2581
 4071SOL    HW223673   1.102   0.574   3.019 -1.8910 -0.3057  1.0917
 4072SOL     OW23674   4.410   4.086   5.111  0.5128 -0.3353  0.5848
 4072SOL    HW123675   4.389   4.076   5.204 -0.0924 -5.4111 -0.1259
 4072SOL    HW223676   4.501   4.115   5.098 -0.0093  1.8867  1.8629
 4073SOL     OW23677   4.619   1.530   7.757 -0.3067 -0.4344  0.1170
 4073SOL    HW123678   4.681   1.467   7.720 -1.8815 -1.9901  0.1414
 4073SOL    HW223679   4.667   1.547   7.838 -0.6835  1.0019  0.0389
 4074SOL     OW23680   0.102   3.915   7.017  0.2029 -0.8453  0.7550
 4074SOL    HW123681   0.176   3.892   6.961 -0.2412 -1.4364  0.4135
 4074SOL    HW223682   0.121   4.009   7.020 -0.4262 -0.5808 -3.4300
 4075SOL     OW23683   2.070   2.828   7.951 -0.0390 -0.0675 -0.4399
 4075SOL    HW123684   2.005   2.870   8.008 -1.4421 -3.3118  0.3380
 4075SOL    HW223685   2.110   2.770   8.015 -0.4534  2.0299  1.7416
 4076SOL     OW23686   0.789   2.948   9.230  0.1433  0.0225 -0.5484
 4076SOL    HW123687   0.781   2.945   9.135  1.1996  1.4321 -0.6796
 4076SOL    HW223688   0.778   3.041   9.249 -0.2049  0.1420 -1.3526
 4077SOL     OW23689   3.823   2.686   5.638  0.5901  0.3938 -0.1087
 4077SOL    HW123690   3.837   2.600   5.598 -1.4321  1.7800 -3.7687
 4077SOL    HW223691   3.771   2.734   5.574  0.0505 -0.2311 -0.1507
 4078SOL     OW23692   2.990   2.699   2.237 -0.1723 -0.0599  0.4968
 4078SOL    HW123693   3.002   2.608   2.209 -2.1493  0.1302 -0.9494
 4078SOL    HW223694   3.039   2.747   2.171  0.0419  0.6645  1.1878
 4079SOL     OW23695   1.754   3.541   3.705  0.4680 -0.8521  0.2896
 4079SOL    HW123696   1.759   3.464   3.647 -0.2596 -1.0119  0.4280
 4079SOL    HW223697   1.837   3.583   3.686 -0.6049  0.0828 -2.3398
 4080SOL     OW23698   0.720   3.926  13.404 -0.2704  0.0598  0.2198
 4080SOL    HW123699   0.762   4.007  13.373 -1.2830  0.5077  0.0249
 4080SOL    HW223700   0.755   3.913  13.492 -2.7537 -0.9952  1.0398
 4081SOL     OW23701   3.617   4.641  12.259  0.1050  0.3028  0.1023
 4081SOL    HW123702   3.532   4.680  12.280  0.8695  1.6433  0.6764
 4081SOL    HW223703   3.680   4.698  12.302 -0.9028 -0.3240  2.4370
 4082SOL     OW23704   1.816   3.759   9.091 -0.4546  0.0627  0.1001
 4082SOL    HW123705   1.898   3.769   9.044 -1.1681 -0.3338 -1.2306
 4082SOL    HW223706   1.814   3.663   9.098  0.4843  0.1603  1.8129
 4083SOL     OW23707   2.986   0.233   7.978  0.7170  0.2396 -0.5418
 4083SOL    HW123708   2.925   0.302   7.954 -0.9853 -1.4366 -1.0325
 4083SOL    HW223709   3.056   0.247   7.914  0.3922  0.4193 -0.8582
 4084SOL     OW23710   0.943   4.099  17.525  0.3541 -1.3649 -0.1038
 4084SOL    HW123711   0.960   4.007  17.544 -0.0736 -1.1758  1.1717
 4084SOL    HW223712   0.890   4.100  17.445 -2.5950  1.1700  1.8872
 4085SOL     OW23713   3.966   1.250   9.877 -0.0289  0.2147 -0.1498
 4085SOL    HW123714   4.061   1.235   9.880 -0.1350 -0.8552 -1.9166
 4085SOL    HW223715   3.938   1.298   9.954 -1.0876 -2.7497  1.3194
 4086SOL     OW23716   3.436   3.820   0.965  0.6920  0.6202  0.3559
 4086SOL    HW123717   3.452   3.791   1.055  0.4086  0.6070  0.4007
 4086SOL    HW223718   3.523   3.842   0.931  0.8111 -1.8269 -0.8633
 4087SOL     OW23719   4.137   0.897   5.942 -0.0870 -0.4814  0.0825
 4087SOL    HW123720   4.048   0.929   5.929  0.1155 -0.0262 -0.1837
 4087SOL    HW223721   4.161   0.938   6.025 -0.1106  1.4082 -0.8375
 4088SOL     OW23722   0.783   1.902   7.136 -0.1327 -0.0525 -0.2329
 4088SOL    HW123723   0.822   1.836   7.193  1.9450  0.1325 -1.4347
 4088SOL    HW223724   0.863   1.917   7.084 -0.3260  0.3861 -0.4086
 4089SOL     OW23725   1.063   0.391   2.093 -0.3126 -1.0361  0.3848
 4089SOL    HW123726   1.033   0.412   2.182  0.6926 -0.0714  0.4905
 4089SOL    HW223727   1.074   0.480   2.058 -0.8193 -1.5906 -1.1767
 4090SOL     OW23728   0.861   4.285   7.999 -0.1927  0.1143  0.2133
 4090SOL    HW123729   0.831   4.270   7.910 -0.4078 -1.3782  0.5393
 4090SOL    HW223730   0.920   4.356   7.974 -0.3918  0.1313 -0.2093
 4091SOL     OW23731   1.759   3.296   2.146 -0.0439 -0.5726 -0.3918
 4091SOL    HW123732   1.710   3.371   2.179 -0.1987 -0.9878  0.3159
 4091SOL    HW223733   1.804   3.266   2.226  2.4885  0.3347 -1.4703
 4092SOL     OW23734   3.935   0.381   6.116 -0.1198 -0.2475 -0.2114
 4092SOL    HW123735   4.004   0.315   6.123 -0.5072 -0.7364 -1.0161
 4092SOL    HW223736   3.888   0.361   6.197  2.4523  2.9941  2.0484
 4093SOL     OW23737   2.435   0.675  11.123  0.0246  0.4698 -0.4246
 4093SOL    HW123738   2.466   0.606  11.182  0.1816 -0.1239 -1.2004
 4093SOL    HW223739   2.518   0.719  11.105  0.5319 -0.2249  0.1987
 4094SOL     OW23740   2.007   0.197   4.918 -0.4921  0.4779 -0.2075
 4094SOL    HW123741   2.068   0.184   4.846 -1.7662  4.6291 -2.0343
 4094SOL    HW223742   1.933   0.141   4.894  0.5587 -1.2718  0.6270
 4095SOL     OW23743   2.096   3.605  14.615  0.1640  0.4346 -0.1967
 4095SOL    HW123744   2.187   3.576  14.609  0.2044  0.4459  0.4078
 4095SOL    HW223745   2.077   3.630  14.524  2.2882  0.9444 -0.4895
 4096SOL     OW23746   0.968   2.093   3.980  0.3000  0.0043  0.7883
 4096SOL    HW123747   0.971   2.087   3.884  1.5793 -2.1221  0.9741
 4096SOL    HW223748   0.908   2.166   3.997 -0.3889 -0.8052  1.8236
 4097SOL     OW23749   4.160   1.896   9.907  0.2083 -0.6171 -0.9003
 4097SOL    HW123750   4.224   1.919   9.975  0.3829 -1.1701 -0.8701
 4097SOL    HW223751   4.080   1.926   9.951  1.2090  0.8358 -0.0765
 4098SOL     OW23752   1.624   3.457   7.590 -0.0071  0.3093 -0.3550
 4098SOL    HW123753   1.703   3.444   7.537  0.5635  1.6772  0.1486
 4098SOL    HW223754   1.656   3.408   7.666 -0.9031  0.6269  0.2298
 4099SOL     OW23755   3.902   1.499  14.566  0.6704 -0.2692 -0.1705
 4099SOL    HW123756   3.880   1.415  14.524  0.2299  0.1032 -0.6847
 4099SOL    HW223757   3.978   1.521  14.511  1.3310 -1.2019  0.3673
 4100SOL     OW23758   2.302   3.286   1.007 -0.7476  0.2695 -0.1917
 4100SOL    HW123759   2.377   3.346   1.001 -3.2943  3.5921  1.5310
 4100SOL    HW223760   2.228   3.343   0.985 -0.5208  0.9711  0.8715
 4101SOL     OW23761   1.822   4.312   7.778 -0.4540  0.0175  0.6020
 4101SOL    HW123762   1.799   4.376   7.845  2.2559 -0.5185  2.0528
 4101SOL    HW223763   1.742   4.260   7.779 -0.0513 -0.6880 -2.0239
 4102SOL     OW23764   2.302   1.494   3.683 -0.0587  0.5049 -0.6444
 4102SOL    HW123765   2.311   1.461   3.772  1.0604  2.7934  0.1091
 4102SOL    HW223766   2.252   1.424   3.642 -0.5631  0.5951 -0.1809
 4103SOL     OW23767   1.260   3.262   9.497  0.5052  0.0102 -0.0243
 4103SOL    HW123768   1.290   3.347   9.528 -0.9150  1.2615 -2.0566
 4103SOL    HW223769   1.169   3.283   9.481 -0.1525 -1.8008  1.2724
 4104SOL     OW23770   1.968   2.546   7.313  0.3852 -0.0630  0.9268
 4104SOL    HW123771   1.997   2.468   7.267  2.6214  0.6711  1.1298
 4104SOL    HW223772   1.874   2.526   7.320  0.4896  0.0390  2.5257
 4105SOL     OW23773   2.849   0.231   1.384 -0.2107 -0.4291  0.0561
 4105SOL    HW123774   2.787   0.251   1.314  0.7929 -0.2114 -0.7651
 4105SOL    HW223775   2.825   0.138   1.395  0.6712 -0.5732  0.7345
 4106SOL     OW23776   0.137   0.277   4.005  0.5862  0.3681  0.0908
 4106SOL    HW123777   0.177   0.268   4.091 -0.8728  2.6292  0.9849
 4106SOL    HW223778   0.209   0.324   3.961 -0.4367  1.2722 -0.6130
 4107SOL     OW23779   3.026   0.907   7.385 -0.4444 -0.0705  0.2346
 4107SOL    HW123780   3.030   0.821   7.343  1.2286  1.3643 -2.5638
 4107SOL    HW223781   3.122   0.914   7.390 -0.4018 -0.2319 -0.3630
 4108SOL     OW23782   2.466   2.107   0.277 -0.1696  0.0625 -0.0951
 4108SOL    HW123783   2.413   2.047   0.329 -0.5737  0.9049  0.4725
 4108SOL    HW223784   2.401   2.130   0.210  0.8821 -2.2615 -1.9212
 4109SOL     OW23785   0.934   2.283   6.047  0.0031  1.0126  0.5819
 4109SOL    HW123786   0.966   2.359   5.997  1.6986 -1.7030 -2.4111
 4109SOL    HW223787   0.942   2.319   6.136 -2.5192  2.3379  0.2684
 4110SOL     OW23788   0.454   0.033  12.898  0.4914  0.8373 -0.6017
 4110SOL    HW123789   0.549   0.049  12.904  1.4918 -5.2072 -0.1131
 4110SOL    HW223790   0.462   0.018  12.804 -0.1397 -2.2607 -0.1506
 4111SOL     OW23791   3.403   3.932   5.824  0.0041 -0.0100 -0.1526
 4111SOL    HW123792   3.358   3.874   5.886 -1.2998  0.5865 -0.5397
 4111SOL    HW223793   3.350   3.902   5.750  1.8184 -1.4663 -0.8876
 4112SOL     OW23794   4.407   1.814   8.306  0.6629  0.2725  0.3001
 4112SOL    HW123795   4.328   1.786   8.259  0.1849  2.8603 -0.4226
 4112SOL    HW223796   4.446   1.730   8.330 -0.5523 -0.2168  0.6127
 4113SOL     OW23797   1.979   3.616   6.085 -0.4265 -0.0131  0.8085
 4113SOL    HW123798   2.038   3.603   6.159 -0.7681 -0.6803  0.9604
 4113SOL    HW223799   2.031   3.671   6.026  2.2610 -0.5212  2.7025
 4114SOL     OW23800   0.411   0.357  13.657 -0.0796 -0.3844 -0.1902
 4114SOL    HW123801   0.500   0.392  13.655  0.2490 -1.1860  0.1426
 4114SOL    HW223802   0.381   0.385  13.743  0.9678  0.1318  0.0056
 4115SOL     OW23803   3.987   1.688   2.905  0.1142 -0.2894  0.1003
 4115SOL    HW123804   3.965   1.620   2.969 -1.2329  0.6598  0.6380
 4115SOL    HW223805   4.044   1.637   2.847  1.6285  2.0464 -0.4675
 4116SOL     OW23806   3.131   4.349   7.580  0.0483  0.0814 -0.0822
 4116SOL    HW123807   3.162   4.394   7.502 -0.5194  1.8947  0.7458
 4116SOL    HW223808   3.197   4.280   7.585 -0.8476 -0.8337 -0.7284
 4117SOL     OW23809   2.165   3.853   1.960  0.4517 -0.0008  0.2370
 4117SOL    HW123810   2.249   3.888   1.987  0.1228  0.3688  0.7859
 4117SOL    HW223811   2.160   3.862   1.865 -0.7719  1.3084  0.4332
 4118SOL     OW23812   2.227   1.367  12.706 -0.0776 -0.2578 -0.4323
 4118SOL    HW123813   2.176   1.309  12.763  0.1157  0.1007  0.1012
 4118SOL    HW223814   2.296   1.307  12.676 -0.1632 -0.8884  0.6481
 4119SOL     OW23815   0.637   3.118   7.376  0.7494  0.4540 -0.0938
 4119SOL    HW123816   0.632   3.155   7.288 -2.2936 -0.8549 -0.4644
 4119SOL    HW223817   0.560   3.061   7.375  1.0618  0.0183  2.3351
 4120SOL     OW23818   1.375   2.485   1.217  0.1440 -0.0060 -0.6091
 4120SOL    HW123819   1.291   2.516   1.251  1.2240  2.8626 -0.5939
 4120SOL    HW223820   1.403   2.428   1.289 -1.7333  1.5436  1.3586
 4121SOL     OW23821   4.432   1.348   9.947 -0.2032 -0.3685  0.2994
 4121SOL    HW123822   4.493   1.274   9.943  1.2024  0.7671  0.6109
 4121SOL    HW223823   4.347   1.307   9.935 -1.0109  2.2672 -3.0240
 4122SOL     OW23824   0.031   3.582  12.980  0.1918 -0.3405  0.1961
 4122SOL    HW123825   4.690   3.522  13.012  0.7176 -1.0663 -0.0633
 4122SOL    HW223826   0.021   3.661  13.032  0.3699  0.6016 -1.1942
 4123SOL     OW23827   2.425   3.886   3.603  0.3829 -0.0391 -0.2235
 4123SOL    HW123828   2.495   3.905   3.540  1.7160  1.2846  1.6289
 4123SOL    HW223829   2.467   3.814   3.649  0.2907 -0.2519 -0.4760
 4124SOL     OW23830   2.894   4.608   7.460 -0.2639  0.3291 -0.5350
 4124SOL    HW123831   2.863   4.518   7.474  0.9783 -0.0855 -0.3606
 4124SOL    HW223832   2.919   4.625   7.551  1.0522  0.6901 -0.9607
 4125SOL     OW23833   4.237   1.577   3.734  0.5418  0.4765  0.2761
 4125SOL    HW123834   4.328   1.604   3.724  0.2454  1.1339 -0.7331
 4125SOL    HW223835   4.206   1.646   3.792 -0.7116  0.4699 -0.3698
 4126SOL     OW23836   3.488   1.313   5.798 -0.1961  0.5759 -0.1976
 4126SOL    HW123837   3.410   1.259   5.799 -0.4184  0.8994  0.1636
 4126SOL    HW223838   3.501   1.352   5.712 -4.8479  0.4785 -0.9506
 4127SOL     OW23839   0.833   4.046   1.348 -0.3172 -0.3171  0.0141
 4127SOL    HW123840   0.901   3.994   1.391  0.2182  1.0415  0.8395
 4127SOL    HW223841   0.793   3.978   1.295 -0.8137 -0.3171  0.3888
 4128SOL     OW23842   3.993   1.904   5.222 -0.4458  0.0317 -0.0484
 4128SOL    HW123843   4.075   1.856   5.229 -1.4847 -2.0059 -1.8975
 4128SOL    HW223844   4.011   1.973   5.286 -0.1553 -0.6765  0.6309
 4129SOL     OW23845   0.571   4.007   7.595 -0.4971  0.1157  0.7183
 4129SOL    HW123846   0.504   4.065   7.559  0.4709 -0.1559 -1.5493
 4129SOL    HW223847   0.516   3.988   7.671 -0.3461  0.2653  0.8658
 4130SOL     OW23848   1.449   1.133   5.200  0.1739 -0.1853 -0.0316
 4130SOL    HW123849   1.417   1.158   5.286 -2.3489  0.2896 -1.0969
 4130SOL    HW223850   1.461   1.218   5.158  1.6870 -0.3014  0.1712
 4131SOL     OW23851   3.233   3.409   4.952  0.2663 -0.4552  0.5074
 4131SOL    HW123852   3.171   3.351   4.907  0.0823  0.4509 -0.4053
 4131SOL    HW223853   3.186   3.490   4.934  0.3973 -0.0880  1.8114
 4132SOL     OW23854   0.534   1.616   4.065 -0.1163 -0.2589  0.1056
 4132SOL    HW123855   0.611   1.659   4.027 -0.9876  0.8964 -0.3368
 4132SOL    HW223856   0.477   1.634   3.990  1.6575  1.6119 -0.7914
 4133SOL     OW23857   4.048   3.251   2.471  0.0420  0.4826  0.7067
 4133SOL    HW123858   4.111   3.246   2.543  1.1398 -1.5182 -0.3959
 4133SOL    HW223859   4.020   3.343   2.473  0.0259  0.4792  0.6075
 4134SOL     OW23860   3.749   1.614  14.999 -0.0022  0.3525  0.6659
 4134SOL    HW123861   3.718   1.673  14.930  0.9963  1.2489  0.9884
 4134SOL    HW223862   3.821   1.564  14.959 -0.1158  0.2390  0.6031
 4135SOL     OW23863   4.359   3.706   4.001 -0.0823 -0.3333 -0.1833
 4135SOL    HW123864   4.396   3.624   3.968 -1.1083 -1.4704  1.5017
 4135SOL    HW223865   4.278   3.686   4.047 -0.1396  0.0922 -0.0974
 4136SOL     OW23866   3.765   1.262   2.991 -0.0031 -0.1967 -0.2492
 4136SOL    HW123867   3.712   1.248   2.913  1.1187 -1.6430 -0.7595
 4136SOL    HW223868   3.823   1.186   2.995  1.2302  0.8251  1.1510
 4137SOL     OW23869   1.625   4.478   9.012 -0.7129  0.4983  0.4596
 4137SOL    HW123870   1.720   4.492   9.018 -1.0474  2.3595  1.3331
 4137SOL    HW223871   1.628   4.383   8.999  0.1358  0.4453  1.0482
 4138SOL     OW23872   4.144   0.858   7.485  0.1060  0.0720  0.1004
 4138SOL    HW123873   4.223   0.813   7.455 -0.1987 -0.2692 -0.1834
 4138SOL    HW223874   4.151   0.940   7.435  0.1816 -0.7355 -1.2169
 4139SOL     OW23875   1.819   4.234  11.764  0.4674  0.0820 -0.0006
 4139SOL    HW123876   1.863   4.312  11.799  1.5185 -0.4530 -0.1140
 4139SOL    HW223877   1.754   4.226  11.833  0.3373 -0.1048 -0.1437
 4140SOL     OW23878   2.443   1.084  12.754 -0.2984  0.0773  0.9726
 4140SOL    HW123879   2.459   1.167  12.799  0.4325  0.6627 -0.3634
 4140SOL    HW223880   2.529   1.044  12.767 -0.8013 -1.5448 -0.6874
 4141SOL     OW23881   4.081   3.154   3.658  0.4007  0.3722 -0.1509
 4141SOL    HW123882   4.035   3.230   3.625 -1.1481  1.1411  3.8022
 4141SOL    HW223883   4.006   3.094   3.654  1.0688 -0.6383  1.9266
 4142SOL     OW23884   1.242   0.770  16.764 -0.0469  0.0007  0.8238
 4142SOL    HW123885   1.227   0.699  16.827 -0.4548 -1.6686 -1.1659
 4142SOL    HW223886   1.337   0.779  16.762 -0.0377 -0.6107 -1.2614
 4143SOL     OW23887   2.981   0.773  15.847 -0.1544  0.2734  0.1365
 4143SOL    HW123888   3.068   0.812  15.841  0.0230 -0.5716 -3.0999
 4143SOL    HW223889   2.941   0.805  15.766 -0.6065  0.0810  0.2852
 4144SOL     OW23890   2.718   1.002   3.603 -0.4752 -0.0425  0.6148
 4144SOL    HW123891   2.725   1.067   3.674  0.5825  0.4648  0.0483
 4144SOL    HW223892   2.737   1.052   3.524 -0.5885 -0.1781  0.5036
 4145SOL     OW23893   2.087   1.220  17.010 -0.5395 -0.2390  0.7119
 4145SOL    HW123894   2.118   1.212  17.100 -0.8992  0.9224  0.9349
 4145SOL    HW223895   1.996   1.192  17.022 -0.4233 -0.9347  0.0043
 4146SOL     OW23896   4.489   4.084  13.040 -0.0295  0.1223  0.7234
 4146SOL    HW123897   4.411   4.030  13.053  0.7546 -0.8573  1.2779
 4146SOL    HW223898   4.504   4.126  13.124 -0.7452  0.7064  0.5620
 4147SOL     OW23899   4.119   3.359   2.121  0.0332  0.1858  0.0661
 4147SOL    HW123900   4.024   3.369   2.125 -0.2791 -2.1045 -1.3384
 4147SOL    HW223901   4.138   3.413   2.044  1.4219  2.1969  1.8164
 4148SOL     OW23902   1.500   3.000   7.184 -0.0217 -0.1501 -0.0223
 4148SOL    HW123903   1.543   3.036   7.106 -1.5642 -0.2235 -0.8955
 4148SOL    HW223904   1.540   3.049   7.255  3.9321 -1.5131 -1.2948
 4149SOL     OW23905   1.128   2.763   8.985 -0.0586  0.5790  0.1358
 4149SOL    HW123906   1.122   2.689   8.924  0.1876  0.4501  0.2693
 4149SOL    HW223907   1.164   2.712   9.058 -0.0431 -0.2036 -0.4242
 4150SOL     OW23908   2.947   0.373   7.517  0.3381 -0.0850 -0.2809
 4150SOL    HW123909   2.933   0.371   7.612 -1.5679 -0.6340 -0.5716
 4150SOL    HW223910   3.031   0.418   7.521 -1.2474  2.5731  2.6023
 4151SOL     OW23911   2.793   4.120   3.899 -0.2028  0.1109 -0.2351
 4151SOL    HW123912   2.820   4.092   3.811 -2.0410 -2.4306  0.0016
 4151SOL    HW223913   2.740   4.045   3.926 -0.5634  0.1736 -0.7784
 4152SOL     OW23914   0.992   1.049   3.959 -0.2228  1.0271 -0.0197
 4152SOL    HW123915   1.012   1.121   4.018  2.0246  0.2348  0.2075
 4152SOL    HW223916   1.081   1.020   3.936 -1.2403 -1.2285 -1.1539
 4153SOL     OW23917   4.164   2.663   2.296  0.3012 -0.1322  0.2910
 4153SOL    HW123918   4.255   2.647   2.319  1.1199 -0.7459 -3.3768
 4153SOL    HW223919   4.137   2.695   2.382 -1.6672 -2.7938  0.6516
 4154SOL     OW23920   2.147   0.016   2.419  0.2043  0.5051 -0.4224
 4154SOL    HW123921   2.052   0.005   2.415  0.2170  1.4778 -3.2339
 4154SOL    HW223922   2.173   4.665   2.470  2.0602  0.2261 -1.7554
 4155SOL     OW23923   0.430   1.308   1.799  0.7476 -0.4860  0.6866
 4155SOL    HW123924   0.335   1.326   1.804  0.3819 -2.8262  1.8576
 4155SOL    HW223925   0.445   1.287   1.891 -0.1476  1.3389  1.2669
 4156SOL     OW23926   3.045   0.404   2.363  0.3934  0.1853 -0.0821
 4156SOL    HW123927   2.998   0.366   2.437 -1.5028 -0.1056 -1.4416
 4156SOL    HW223928   2.972   0.441   2.313 -0.0546 -2.0360 -1.0691
 4157SOL     OW23929   2.592   2.076   5.958 -0.8641  0.4663 -0.2615
 4157SOL    HW123930   2.519   2.086   6.019 -0.7270  1.8005 -0.3213
 4157SOL    HW223931   2.666   2.091   6.017  0.0173  0.4136 -1.3659
 4158SOL     OW23932   2.739   0.915   1.813  0.1603  0.0209  0.2371
 4158SOL    HW123933   2.803   0.985   1.820  0.9734 -0.8449  1.6073
 4158SOL    HW223934   2.668   0.967   1.849 -0.2849  1.6714 -3.0522
 4159SOL     OW23935   4.014   2.309   2.812 -0.5335 -0.7271 -0.3248
 4159SOL    HW123936   3.974   2.373   2.752  2.2854  0.9685 -0.4003
 4159SOL    HW223937   3.941   2.278   2.866  0.0761 -2.6192 -0.5786
 4160SOL     OW23938   4.547   0.527  15.703  0.7609 -0.5083  0.4774
 4160SOL    HW123939   4.583   0.612  15.727  1.2253 -0.4729 -0.3356
 4160SOL    HW223940   4.629   0.484  15.681  1.9389  2.1904 -0.3965
 4161SOL     OW23941   3.213   3.902   4.512 -0.3899  0.3595  0.0176
 4161SOL    HW123942   3.245   3.892   4.423 -1.2691  0.2158 -0.2898
 4161SOL    HW223943   3.123   3.927   4.488 -0.2297  1.7947  0.9083
 4162SOL     OW23944   4.327   0.271   9.485  0.1987 -0.2561  0.4978
 4162SOL    HW123945   4.363   0.187   9.458 -0.4290  0.0268 -1.2167
 4162SOL    HW223946   4.336   0.268   9.581  1.0719  2.6204  0.5135
 4163SOL     OW23947   1.183   3.578  17.063  0.7205 -0.2758  0.2430
 4163SOL    HW123948   1.167   3.483  17.072 -0.1473 -0.0488  1.1293
 4163SOL    HW223949   1.243   3.567  16.990  3.0922  0.6604  2.0547
 4164SOL     OW23950   2.012   2.606   6.558  0.8315 -0.0175  0.2811
 4164SOL    HW123951   2.027   2.677   6.619 -4.1460 -0.6035  2.1815
 4164SOL    HW223952   2.082   2.629   6.497  1.1666 -1.2609  0.1890
 4165SOL     OW23953   1.479   2.162   5.224 -0.7454  0.1876  0.0567
 4165SOL    HW123954   1.401   2.140   5.276 -0.1069 -1.2379  0.4142
 4165SOL    HW223955   1.446   2.166   5.134 -1.1253 -1.1268  0.1325
 4166SOL     OW23956   4.561   2.241   6.974  0.2683  0.1092 -0.3186
 4166SOL    HW123957   4.641   2.274   6.932  0.5539  1.3045  1.1689
 4166SOL    HW223958   4.587   2.255   7.065  0.0378  0.6169 -0.3290
 4167SOL     OW23959   0.331   1.465   8.720 -0.2843 -0.3238  0.0411
 4167SOL    HW123960   0.413   1.428   8.753 -0.7829  0.5259  2.2393
 4167SOL    HW223961   0.363   1.555   8.723  1.2328 -0.9253  1.7666
 4168SOL     OW23962   4.316   0.916   4.321  0.0188 -0.2893 -0.1819
 4168SOL    HW123963   4.226   0.902   4.291 -0.1562 -1.0774  0.7128
 4168SOL    HW223964   4.298   0.898   4.413 -0.8727 -1.5120 -0.5941
 4169SOL     OW23965   4.062   1.672   5.579 -0.4375  0.3346 -0.3937
 4169SOL    HW123966   3.987   1.731   5.570  0.0248  1.0151  0.2378
 4169SOL    HW223967   4.087   1.655   5.488 -0.5500 -0.3293 -0.3034
 4170SOL     OW23968   3.092   1.161   2.845 -0.5338  0.2779 -0.3654
 4170SOL    HW123969   3.132   1.207   2.771  1.1741  0.3381  0.5710
 4170SOL    HW223970   3.000   1.152   2.822 -0.1111 -1.1889 -1.4723
 4171SOL     OW23971   1.478   4.191   3.424 -0.0636 -0.4388  0.3407
 4171SOL    HW123972   1.437   4.148   3.350 -1.7447  0.1457  0.9309
 4171SOL    HW223973   1.464   4.122   3.489  1.3149 -2.6071 -1.6854
 4172SOL     OW23974   2.737   2.550   1.192  0.4909 -0.4944 -0.4167
 4172SOL    HW123975   2.779   2.513   1.115  1.1884 -1.8098  0.6130
 4172SOL    HW223976   2.788   2.519   1.266 -0.8124  0.4439  0.8836
 4173SOL     OW23977   3.219   3.351   7.397  0.0719 -0.6476  0.5649
 4173SOL    HW123978   3.290   3.324   7.455  0.0285 -0.3998  0.7347
 4173SOL    HW223979   3.228   3.294   7.321  0.2104  1.4068 -0.9618
 4174SOL     OW23980   1.772   1.530   0.121  0.1753 -0.5971 -0.1887
 4174SOL    HW123981   1.809   1.443   0.138 -1.4258 -1.6296 -1.8803
 4174SOL    HW223982   1.726   1.552   0.202 -0.4500  1.4751 -1.1051
 4175SOL     OW23983   1.041   2.957   6.906 -0.2773 -0.4128  0.3528
 4175SOL    HW123984   1.080   2.984   6.989 -0.2015  0.9271 -0.1006
 4175SOL    HW223985   0.964   2.909   6.934  1.0859 -1.3109  2.5093
 4176SOL     OW23986   2.811   4.435   6.877  0.7641  0.6215  0.8679
 4176SOL    HW123987   2.771   4.521   6.873 -0.3123  0.1010  0.4926
 4176SOL    HW223988   2.735   4.378   6.890  0.2279  1.1241 -0.0989
 4177SOL     OW23989   1.128   4.386   2.795 -0.5510 -0.2425 -0.1118
 4177SOL    HW123990   1.059   4.339   2.843 -1.2923 -0.2218 -1.1685
 4177SOL    HW223991   1.090   4.415   2.713  0.7353 -0.8186 -0.9116
 4178SOL     OW23992   0.036   4.604   2.502  0.5854 -0.5065  0.1788
 4178SOL    HW123993   0.041   4.634   2.593 -0.9488  0.0107  0.0980
 4178SOL    HW223994   0.126   4.577   2.483  0.5222 -0.2274 -0.5396
 4179SOL     OW23995   0.687   0.253   0.986  0.0769  0.5516  0.8167
 4179SOL    HW123996   0.731   0.169   0.970 -3.0048 -0.5957 -1.5874
 4179SOL    HW223997   0.597   0.224   0.969 -0.0404  1.3228  0.1553
 4180SOL     OW23998   1.677   0.859  16.192  0.4753 -0.2183  0.4427
 4180SOL    HW123999   1.749   0.922  16.184  2.0998 -1.9204  1.6432
 4180SOL    HW224000   1.602   0.917  16.203 -0.1822 -1.2613  1.4212
 4181SOL     OW24001   4.243   1.786   1.941  0.5028  0.4204 -0.4370
 4181SOL    HW124002   4.314   1.766   2.002 -0.9327 -2.0807  0.4199
 4181SOL    HW224003   4.226   1.707   1.890 -2.0646  1.0459 -0.5195
 4182SOL     OW24004   2.138   4.528   3.585 -0.4300 -0.3830  0.0378
 4182SOL    HW124005   2.057   4.535   3.536 -0.4833 -1.1457  0.0223
 4182SOL    HW224006   2.116   4.487   3.669 -0.9555  1.4717  0.8007
 4183SOL     OW24007   0.692   4.386   9.190  0.2021 -0.1181  0.4282
 4183SOL    HW124008   0.774   4.435   9.201 -0.0240  0.3827 -0.0935
 4183SOL    HW224009   0.666   4.380   9.282 -0.1910 -0.1209  0.3178
 4184SOL     OW24010   1.707   1.428  12.229 -0.1778 -0.1083  0.0599
 4184SOL    HW124011   1.789   1.380  12.219  1.3601  2.0600  2.2153
 4184SOL    HW224012   1.636   1.371  12.201  0.0730 -0.6821  0.5727
 4185SOL     OW24013   4.660   0.769   5.958  0.2802  0.4232 -0.0030
 4185SOL    HW124014   4.596   0.749   5.890 -1.8064 -0.6666  2.2700
 4185SOL    HW224015   4.715   0.828   5.907  0.6962 -1.1560 -1.3868
 4186SOL     OW24016   1.329   3.706   5.802  0.0340  0.1234  0.5175
 4186SOL    HW124017   1.391   3.779   5.798 -2.9878  2.5962 -1.2245
 4186SOL    HW224018   1.278   3.716   5.721  2.6569 -1.9082 -1.3552
 4187SOL     OW24019   3.994   4.489   3.546 -0.4831  0.0201  0.3019
 4187SOL    HW124020   4.038   4.432   3.483  1.2915  1.5598  0.1300
 4187SOL    HW224021   3.993   4.575   3.503 -0.2378  1.1548  2.5765
 4188SOL     OW24022   0.392   3.328  12.609 -0.5529 -0.1901  0.5528
 4188SOL    HW124023   0.428   3.242  12.587 -0.3463 -0.3089  1.3611
 4188SOL    HW224024   0.446   3.391  12.561 -1.1531  1.2820  1.8013
 4189SOL     OW24025   1.350   3.425   5.465  0.0131  0.3104  0.0438
 4189SOL    HW124026   1.400   3.379   5.532 -1.6362  0.4882  1.4200
 4189SOL    HW224027   1.319   3.507   5.506 -0.7800 -1.8603  3.8255
 4190SOL     OW24028   1.489   1.559   5.330 -0.2679 -0.1305  0.0896
 4190SOL    HW124029   1.421   1.620   5.357  0.5570  0.9097 -0.2108
 4190SOL    HW224030   1.441   1.480   5.355 -1.1013  0.0723 -0.8892
 4191SOL     OW24031   3.229   1.855   3.071  0.0107 -0.0877  0.3403
 4191SOL    HW124032   3.280   1.889   3.144  3.1303 -1.1102 -1.3487
 4191SOL    HW224033   3.298   1.801   3.032 -0.3631  0.7066 -1.4400
 4192SOL     OW24034   3.068   0.597   6.706  0.0196  0.0881  0.0466
 4192SOL    HW124035   3.151   0.574   6.665  0.9154  0.1478  1.8437
 4192SOL    HW224036   3.088   0.680   6.750 -0.9850 -0.4321  1.4742
 4193SOL     OW24037   0.228   1.624   2.462 -0.1461  0.1644  0.0583
 4193SOL    HW124038   0.206   1.685   2.391 -0.1902 -0.4022 -0.4262
 4193SOL    HW224039   0.292   1.577   2.408  1.8972  2.5595  0.4188
 4194SOL     OW24040   4.601   0.946  10.785 -0.0935 -0.2322  0.0879
 4194SOL    HW124041   4.530   1.010  10.794  0.2869  0.4463 -1.6523
 4194SOL    HW224042   4.663   0.998  10.733 -0.9430  0.7771  0.0730
 4195SOL     OW24043   1.146   0.434   7.514  0.5592  0.0137 -0.5333
 4195SOL    HW124044   1.221   0.374   7.513  1.0925  0.6820 -0.6425
 4195SOL    HW224045   1.069   0.377   7.505 -1.3774  2.3783  0.8718
 4196SOL     OW24046   1.284   4.226   9.293 -0.1587 -0.2667 -0.2852
 4196SOL    HW124047   1.233   4.270   9.361  1.6395  0.7529  0.3885
 4196SOL    HW224048   1.293   4.138   9.330  1.8378 -0.1169 -0.4156
 4197SOL     OW24049   1.039   4.694   5.732  0.1526  0.0992  0.3508
 4197SOL    HW124050   1.068   4.615   5.778  3.5256  2.1695  1.8600
 4197SOL    HW224051   1.034   0.019   5.813 -4.4602  0.2015 -0.0188
 4198SOL     OW24052   1.278   1.014   2.473  0.1714 -0.3624 -1.0452
 4198SOL    HW124053   1.239   0.969   2.548  0.1173  1.0023 -0.2592
 4198SOL    HW224054   1.226   1.094   2.473  1.9701  0.7990 -0.9240
 4199SOL     OW24055   1.699   3.899  11.978  0.0350  0.0731  0.2188
 4199SOL    HW124056   1.660   3.815  12.005 -0.9967  0.2855 -0.6104
 4199SOL    HW224057   1.670   3.902  11.887 -2.6003 -0.6921  1.0219
 4200SOL     OW24058   1.656   2.522   0.217  0.5568 -0.1449 -0.3516
 4200SOL    HW124059   1.620   2.434   0.224 -0.2472  0.2299  0.2097
 4200SOL    HW224060   1.608   2.570   0.285 -3.3153 -0.6116 -2.7432
 4201SOL     OW24061   0.666   3.510   2.792 -0.7526 -0.6141 -0.3613
 4201SOL    HW124062   0.733   3.577   2.780 -3.2168  2.1557  1.4160
 4201SOL    HW224063   0.655   3.483   2.701  0.4746  1.4915 -1.1420
 4202SOL     OW24064   0.684   2.916   4.912  0.3525 -0.1527 -0.2567
 4202SOL    HW124065   0.644   2.854   4.850 -0.1774  0.6365 -0.7031
 4202SOL    HW224066   0.665   2.871   4.994  0.8179  0.6569  0.2917
 4203SOL     OW24067   0.453   4.285  11.807 -0.1450 -0.4954  0.4511
 4203SOL    HW124068   0.415   4.201  11.834  0.0428 -0.5754  0.4633
 4203SOL    HW224069   0.450   4.334  11.889  2.8942  0.5765 -0.1078
 4204SOL     OW24070   4.093   0.547   8.968 -0.3085 -0.0730 -0.0563
 4204SOL    HW124071   4.022   0.527   8.906 -0.6455  1.9983 -0.3414
 4204SOL    HW224072   4.144   0.468   8.953  1.6600  1.3677 -1.0465
 4205SOL     OW24073   2.467   0.961  10.930  0.4801 -0.7842  0.6887
 4205SOL    HW124074   2.516   0.885  10.899 -1.3025 -1.3864 -0.6466
 4205SOL    HW224075   2.511   1.030  10.879  0.8239 -0.4321  1.4625
 4206SOL     OW24076   3.098   2.513   3.901  0.1862  0.4063 -0.0099
 4206SOL    HW124077   3.125   2.423   3.924 -1.8890 -0.0690  0.5805
 4206SOL    HW224078   3.077   2.489   3.811  1.5796  0.4363 -0.3483
 4207SOL     OW24079   4.409   3.939   3.605  0.3631  0.0019 -0.1889
 4207SOL    HW124080   4.481   3.981   3.652 -0.0105  1.1578 -0.6276
 4207SOL    HW224081   4.431   3.848   3.626 -0.1889 -0.8453 -3.2218
 4208SOL     OW24082   0.436   3.267   6.458 -0.6613  0.2462  0.3961
 4208SOL    HW124083   0.447   3.188   6.405  0.4449 -0.1225  1.1911
 4208SOL    HW224084   0.347   3.294   6.432 -1.1403  0.4074  2.2389
 4209SOL     OW24085   3.164   4.648   5.841  0.0316  0.2971 -0.5143
 4209SOL    HW124086   3.112   4.688   5.911  1.1611 -1.2704  1.2464
 4209SOL    HW224087   3.149   4.557   5.868 -0.1224  0.4420 -0.0979
 4210SOL     OW24088   4.681   4.724  11.823 -0.6539 -0.0536 -0.0930
 4210SOL    HW124089   4.652   0.089  11.808 -1.2903 -0.2208  0.1274
 4210SOL    HW224090   0.027   0.018  11.884 -0.4831  0.4840 -0.4654
 4211SOL     OW24091   4.443   4.459   5.534 -0.2615 -0.1107 -0.3938
 4211SOL    HW124092   4.462   4.375   5.577  2.1911  1.9657  2.5379
 4211SOL    HW224093   4.511   4.506   5.583 -1.7600 -0.1495  1.7145
 4212SOL     OW24094   4.568   3.980  14.542 -0.9125 -0.2198 -0.4967
 4212SOL    HW124095   4.568   4.065  14.497 -0.8172 -0.7284 -1.4562
 4212SOL    HW224096   4.652   3.946  14.513  0.2405  2.3035 -0.0916
 4213SOL     OW24097   3.852   1.261  10.425  0.7002  0.0772 -0.3266
 4213SOL    HW124098   3.900   1.340  10.398  0.1722  1.0170  1.4997
 4213SOL    HW224099   3.866   1.210  10.345  0.8028  0.1523 -0.3555
 4214SOL     OW24100   0.825   0.567  12.993 -0.5326 -0.5378  0.0451
 4214SOL    HW124101   0.897   0.539  12.936  2.7057  2.3514  2.7116
 4214SOL    HW224102   0.752   0.559  12.932 -2.4511  1.5276  2.0547
 4215SOL     OW24103   1.196   2.541   9.645 -0.4377 -0.0216  0.0106
 4215SOL    HW124104   1.138   2.544   9.721 -0.0579  2.0335  0.2154
 4215SOL    HW224105   1.201   2.446   9.637 -0.5710 -0.0464  0.2233
 4216SOL     OW24106   2.338   0.481  13.534  0.1488  0.1241 -0.2879
 4216SOL    HW124107   2.311   0.542  13.603  2.1735  0.2259  0.4187
 4216SOL    HW224108   2.325   0.540  13.459 -1.4698  1.8326  1.3331
 4217SOL     OW24109   3.786   0.209   1.231 -0.1583  0.0285 -0.0562
 4217SOL    HW124110   3.813   0.221   1.322  0.5224  2.0044 -0.5063
 4217SOL    HW224111   3.698   0.244   1.245 -0.3168 -0.9612  1.3950
 4218SOL     OW24112   4.218   3.237   7.677 -0.1533 -0.0271 -0.4485
 4218SOL    HW124113   4.235   3.162   7.620  1.6201 -0.0548  0.1324
 4218SOL    HW224114   4.292   3.241   7.738 -0.1301 -0.2355 -0.4630
 4219SOL     OW24115   0.946   3.186  16.804  0.2414 -0.4081  0.2433
 4219SOL    HW124116   0.853   3.186  16.824  0.4987 -0.3180  1.4609
 4219SOL    HW224117   0.996   3.178  16.886  1.4288 -0.5562 -0.4820
 4220SOL     OW24118   3.960   4.458   4.800  0.0861  0.0097 -0.0976
 4220SOL    HW124119   3.996   4.531   4.851 -0.4678  0.5435 -0.4723
 4220SOL    HW224120   3.877   4.451   4.848  1.0245 -0.9779  1.3970
 4221SOL     OW24121   1.375   2.324   2.768 -0.1034 -0.0970  0.2773
 4221SOL    HW124122   1.406   2.236   2.750  0.2324  0.1910 -0.5337
 4221SOL    HW224123   1.388   2.334   2.863  0.0032 -0.2348  0.2768
 4222SOL     OW24124   2.407   0.389   9.217  0.1695 -0.0268 -0.4810
 4222SOL    HW124125   2.338   0.383   9.283  1.3104 -3.5864  0.4170
 4222SOL    HW224126   2.477   0.336   9.256  1.2810  1.4013 -0.5119
 4223SOL     OW24127   1.998   4.383  12.927 -0.1595  0.0391 -0.2514
 4223SOL    HW124128   2.005   4.290  12.946  4.4292  0.0093 -2.1886
 4223SOL    HW224129   2.044   4.379  12.843  0.6332  0.1435  0.1797
 4224SOL     OW24130   1.501   0.815   8.041 -0.0107 -0.2858  0.6049
 4224SOL    HW124131   1.542   0.859   8.115 -0.9135  0.9979  0.3447
 4224SOL    HW224132   1.444   0.759   8.094  0.5120 -0.0897  1.3740
 4225SOL     OW24133   1.598   4.189   6.174 -0.2261 -0.1293 -0.0285
 4225SOL    HW124134   1.585   4.094   6.178  0.9463 -0.2168  1.6898
 4225SOL    HW224135   1.654   4.207   6.250 -0.3377  2.5076 -0.5573
 4226SOL     OW24136   4.157   1.347  14.704  0.1194  0.4979  0.1363
 4226SOL    HW124137   4.090   1.313  14.763 -0.8919 -0.6393 -1.6580
 4226SOL    HW224138   4.130   1.302  14.624  2.8578  0.4768 -0.7764
 4227SOL     OW24139   3.811   0.864  10.686  0.3612  0.2275  0.3702
 4227SOL    HW124140   3.858   0.947  10.687  0.6630  0.0578  0.0601
 4227SOL    HW224141   3.800   0.848  10.592  0.6650 -1.2158  0.5873
 4228SOL     OW24142   4.394   1.013   9.042 -0.5005 -0.0023  0.2511
 4228SOL    HW124143   4.378   1.037   8.951  0.0004 -2.6180 -0.5217
 4228SOL    HW224144   4.474   1.062   9.057 -0.3814 -1.0256  2.9663
 4229SOL     OW24145   0.677   2.316   1.957 -0.4344  0.2560 -0.6507
 4229SOL    HW124146   0.623   2.395   1.964 -1.6471 -0.7788  1.6427
 4229SOL    HW224147   0.765   2.354   1.964  0.2231 -1.3420 -0.2899
 4230SOL     OW24148   1.624   2.222  14.714 -0.8778 -0.0847 -0.4093
 4230SOL    HW124149   1.579   2.303  14.737  2.0593  1.0631  1.3777
 4230SOL    HW224150   1.695   2.215  14.778 -0.6460 -2.3772 -0.9298
 4231SOL     OW24151   1.284   1.567   2.183  0.0716 -0.4192 -0.1013
 4231SOL    HW124152   1.278   1.605   2.271  1.9195  1.9804 -1.0015
 4231SOL    HW224153   1.360   1.511   2.195 -0.1097 -0.6815 -0.1969
 4232SOL     OW24154   1.815   3.351  10.408  0.0578  0.0415 -0.2063
 4232SOL    HW124155   1.910   3.342  10.404 -0.0994 -0.8539 -2.0799
 4232SOL    HW224156   1.790   3.347  10.500 -1.2314  0.5970 -0.5286
 4233SOL     OW24157   3.301   0.626  16.824  0.1607  0.0827 -0.3965
 4233SOL    HW124158   3.310   0.600  16.732 -1.7123  1.4019 -0.9498
 4233SOL    HW224159   3.219   0.674  16.816 -1.6726 -3.2108 -1.3204
 4234SOL     OW24160   4.475   1.023  16.376 -0.0187  0.1803 -0.0442
 4234SOL    HW124161   4.440   1.109  16.353 -2.0497 -1.2608 -2.4548
 4234SOL    HW224162   4.460   1.022  16.470 -2.1321  0.5715 -0.3873
 4235SOL     OW24163   4.558   0.430  12.368  0.3430  0.0019  0.6303
 4235SOL    HW124164   4.563   0.450  12.462  1.7155  0.2349  0.4938
 4235SOL    HW224165   4.467   0.401  12.360  0.4394  0.1095 -0.8232
 4236SOL     OW24166   0.875   4.144   3.738 -0.0801 -0.7758  0.2214
 4236SOL    HW124167   0.874   4.048   3.740  2.2800 -0.8080 -0.0476
 4236SOL    HW224168   0.888   4.161   3.832  1.4091  1.4753 -0.3987
 4237SOL     OW24169   1.947   1.180  13.760  0.8990 -0.3239  0.0211
 4237SOL    HW124170   1.938   1.153  13.669 -2.0814  1.2849 -0.1555
 4237SOL    HW224171   2.041   1.171  13.775  0.6429 -1.5762  0.8783
 4238SOL     OW24172   1.401   3.716  11.545 -0.4900 -0.2948  0.2007
 4238SOL    HW124173   1.329   3.656  11.526  0.5512 -0.7466 -2.3069
 4238SOL    HW224174   1.385   3.756  11.630 -2.2696 -1.0831  0.2369
 4239SOL     OW24175   4.494   3.782   4.388 -0.1401  0.3184  0.4611
 4239SOL    HW124176   4.403   3.794   4.416 -0.5939 -2.3830  0.1115
 4239SOL    HW224177   4.506   3.838   4.311  0.7232  1.3880  1.3685
 4240SOL     OW24178   4.128   1.157  13.990 -0.2102  0.1846  0.1932
 4240SOL    HW124179   4.158   1.086  13.933  1.3748  0.1837  1.0510
 4240SOL    HW224180   4.041   1.174  13.954 -0.6245 -0.3527  0.9554
 4241SOL     OW24181   2.365   3.284  16.474  0.2043  0.0566 -0.4873
 4241SOL    HW124182   2.288   3.294  16.531 -0.0968  0.6318 -0.9961
 4241SOL    HW224183   2.338   3.327  16.393 -0.1247 -0.2510 -0.5410
 4242SOL     OW24184   1.113   2.105   3.228  0.1447  0.3665  0.1576
 4242SOL    HW124185   1.117   2.186   3.177  0.7979 -0.4846 -1.1706
 4242SOL    HW224186   1.176   2.043   3.192 -0.1987 -0.2170  0.5656
 4243SOL     OW24187   1.465   2.545   3.693 -0.3062 -0.3841 -0.1973
 4243SOL    HW124188   1.534   2.601   3.729 -0.0099 -0.8688 -0.0066
 4243SOL    HW224189   1.395   2.573   3.752  0.5639  1.5496 -0.0767
 4244SOL     OW24190   3.934   4.615   2.306  0.7337 -0.3608 -0.3715
 4244SOL    HW124191   3.978   4.554   2.246  3.0436  0.0320  0.9230
 4244SOL    HW224192   3.950   4.567   2.387  0.6735 -0.3686 -0.3647
 4245SOL     OW24193   1.021   2.027  11.685 -0.0412 -0.4878 -0.0746
 4245SOL    HW124194   0.988   1.973  11.614  0.2170 -0.7040 -0.0313
 4245SOL    HW224195   0.986   1.979  11.760  0.5468  0.8765  1.1049
 4246SOL     OW24196   0.173   3.477   5.564 -0.3780  0.6515  0.4719
 4246SOL    HW124197   0.251   3.514   5.523 -0.2787  0.7265  0.7332
 4246SOL    HW224198   0.192   3.386   5.539  2.6295  1.6363 -0.8259
 4247SOL     OW24199   0.860   3.094   9.730  0.1477  0.2635  0.5192
 4247SOL    HW124200   0.837   3.182   9.699 -1.2003 -0.6643 -1.1061
 4247SOL    HW224201   0.910   3.114   9.809  0.1789  0.7689  0.3694
 4248SOL     OW24202   3.906   0.815  14.239 -0.2824  0.0358 -0.2823
 4248SOL    HW124203   3.893   0.743  14.300  0.6852  1.6332  1.8035
 4248SOL    HW224204   3.817   0.824  14.204 -0.5114 -1.2523 -0.0274
 4249SOL     OW24205   2.111   4.137   4.609 -0.0153 -0.1813 -0.5323
 4249SOL    HW124206   2.128   4.147   4.703  0.0505  1.9006 -0.7643
 4249SOL    HW224207   2.015   4.135   4.608  0.0822 -3.4917 -2.2597
 4250SOL     OW24208   3.976   1.102  17.509 -0.6113 -0.5649  0.0853
 4250SOL    HW124209   3.985   1.148  17.592 -1.5291  2.5421 -1.5325
 4250SOL    HW224210   3.920   1.030  17.537 -0.2520 -1.2003 -0.8522
 4251SOL     OW24211   4.165   2.730   0.855 -0.6257  0.0336  0.1844
 4251SOL    HW124212   4.193   2.790   0.786 -1.0649  0.8899  0.7684
 4251SOL    HW224213   4.136   2.659   0.797  1.1711  0.7135 -1.5545
 4252SOL     OW24214   0.716   4.712  12.999 -0.1891  0.1308 -0.0281
 4252SOL    HW124215   0.771   4.633  13.005 -0.9329 -0.4216 -0.4507
 4252SOL    HW224216   0.655   4.688  13.070 -0.9029  0.1935 -0.6261
 4253SOL     OW24217   0.578   4.469  14.308  0.3059  0.7108  0.3403
 4253SOL    HW124218   0.498   4.518  14.325 -1.1324 -0.7293 -2.2309
 4253SOL    HW224219   0.635   4.522  14.363 -0.2792  3.7316 -2.0004
 4254SOL     OW24220   3.511   2.871   8.553  0.0747 -0.5936  0.0075
 4254SOL    HW124221   3.470   2.791   8.587 -3.0899  0.3550 -1.6732
 4254SOL    HW224222   3.603   2.854   8.576  0.8664  1.1898 -1.8777
 4255SOL     OW24223   1.427   3.839   8.249  0.0323 -0.1848 -0.2334
 4255SOL    HW124224   1.344   3.884   8.232 -0.3789 -1.0827 -0.6391
 4255SOL    HW224225   1.419   3.790   8.331  0.8718 -0.5560 -0.3784
 4256SOL     OW24226   1.751   0.741   5.179 -0.6427 -0.0605  0.4661
 4256SOL    HW124227   1.704   0.822   5.201 -1.3368 -0.1653 -0.6398
 4256SOL    HW224228   1.840   0.775   5.187 -0.0941 -1.3137 -0.4009
 4257SOL     OW24229   3.807   2.205   4.391 -0.8681 -0.1362 -0.2023
 4257SOL    HW124230   3.818   2.299   4.404  0.4214 -0.2368 -0.5772
 4257SOL    HW224231   3.758   2.188   4.471  0.2607 -0.3168  0.4538
 4258SOL     OW24232   4.418   2.857   6.640 -0.0491  0.5545  0.2766
 4258SOL    HW124233   4.500   2.858   6.689  1.0952 -1.1361 -1.6135
 4258SOL    HW224234   4.397   2.764   6.652 -0.1589  0.4984 -0.3264
 4259SOL     OW24235   2.542   3.003   2.622 -0.5332 -0.4914  0.0148
 4259SOL    HW124236   2.549   3.082   2.677 -1.9356  1.7370 -3.0546
 4259SOL    HW224237   2.544   3.056   2.543  1.1176 -2.2470 -1.1007
 4260SOL     OW24238   2.784   0.548   1.122 -0.0148 -0.4637  0.5362
 4260SOL    HW124239   2.769   0.463   1.081  2.7418 -0.1358 -1.1205
 4260SOL    HW224240   2.839   0.521   1.196  3.5195  1.0197 -1.5202
 4261SOL     OW24241   2.992   0.176  14.698 -0.4349 -0.6670 -0.3788
 4261SOL    HW124242   2.922   0.236  14.673 -0.5008 -0.2421  0.8016
 4261SOL    HW224243   2.942   0.100  14.726 -1.4448  0.6921  1.5597
 4262SOL     OW24244   2.320   1.969   7.350  0.2227 -0.2107  0.5465
 4262SOL    HW124245   2.326   1.988   7.256  0.4737 -1.2626  0.3423
 4262SOL    HW224246   2.239   1.919   7.355 -0.3073  0.5210 -0.6760
 4263SOL     OW24247   4.091   0.034   8.272 -0.4319  0.8353 -0.2819
 4263SOL    HW124248   4.132   4.677   8.246  0.2371  1.4963 -1.3469
 4263SOL    HW224249   4.137   0.043   8.356 -0.5236 -2.8267  0.1627
 4264SOL     OW24250   1.221   2.631   8.589 -0.2624  0.3493 -0.1915
 4264SOL    HW124251   1.176   2.710   8.617 -1.9185 -0.0932 -1.5733
 4264SOL    HW224252   1.277   2.674   8.524 -1.5325 -0.4358 -1.8303
 4265SOL     OW24253   3.118   1.367   2.629 -0.0709 -0.7876  0.0550
 4265SOL    HW124254   3.198   1.416   2.648 -2.0501  1.9524  1.3717
 4265SOL    HW224255   3.051   1.429   2.658  0.0647  0.0658 -1.4830
 4266SOL     OW24256   0.317   4.141   3.223  1.1509  0.3576  0.0932
 4266SOL    HW124257   0.386   4.164   3.286 -0.9178  0.7546  2.1918
 4266SOL    HW224258   0.344   4.052   3.203  3.2413  1.3649 -1.5606
 4267SOL     OW24259   4.452   4.265   0.028  0.2478 -0.3134 -0.2535
 4267SOL    HW124260   4.513   4.239   0.097  0.7847 -0.0344 -0.6210
 4267SOL    HW224261   4.436   4.357   0.050 -0.5250 -0.7104  0.8294
 4268SOL     OW24262   3.185   4.318   4.542  0.1113 -0.7556 -0.1368
 4268SOL    HW124263   3.171   4.242   4.599 -3.4084  0.2187  0.2868
 4268SOL    HW224264   3.266   4.292   4.499  0.7233  1.4165 -0.2637
 4269SOL     OW24265   3.098   0.821   1.969 -0.3780  0.6718 -0.2704
 4269SOL    HW124266   3.108   0.907   2.010 -0.7060  0.5253  0.1322
 4269SOL    HW224267   3.005   0.807   1.990 -0.0285 -2.1581 -0.6386
 4270SOL     OW24268   1.328   3.231   3.102 -0.1615 -0.0280  0.2027
 4270SOL    HW124269   1.330   3.141   3.135  2.6622 -0.4001 -0.9621
 4270SOL    HW224270   1.401   3.265   3.154 -1.2153  0.8555  1.1092
 4271SOL     OW24271   0.016   2.554  13.360 -0.4303  0.0900  0.1524
 4271SOL    HW124272   4.722   2.523  13.272 -1.0394  0.5089  0.1450
 4271SOL    HW224273   4.663   2.541  13.412 -0.3353  0.0338  0.2848
 4272SOL     OW24274   3.176   4.096   4.704  0.1822  0.5096  0.3244
 4272SOL    HW124275   3.170   4.020   4.646  2.5155 -0.6052  1.5278
 4272SOL    HW224276   3.259   4.078   4.747  0.6515 -0.1373 -0.8586
 4273SOL     OW24277   3.679   2.199   7.267  0.5576  0.4823 -0.3059
 4273SOL    HW124278   3.755   2.222   7.321  0.6141  2.1525 -1.1000
 4273SOL    HW224279   3.717   2.151   7.194 -1.6296  0.3008 -1.3035
 4274SOL     OW24280   2.494   2.678   8.657 -0.1801 -0.1345  0.2169
 4274SOL    HW124281   2.421   2.685   8.596 -0.4850 -1.6093  0.4047
 4274SOL    HW224282   2.444   2.706   8.733 -2.5011 -0.1587 -1.3250
 4275SOL     OW24283   3.686   0.012  16.125  0.0348  0.2295  0.2632
 4275SOL    HW124284   3.704   4.718  16.217 -1.9493 -0.3949  0.5120
 4275SOL    HW224285   3.642   0.096  16.137  2.0165  1.3839 -0.5230
 4276SOL     OW24286   0.853   0.324   1.701 -0.6614  0.4160  0.0998
 4276SOL    HW124287   0.892   0.241   1.673 -0.7189  0.2720  0.4550
 4276SOL    HW224288   0.916   0.386   1.664  1.4284 -1.4108  0.6120
 4277SOL     OW24289   4.365   1.255  14.214  0.3978  0.1279  0.2503
 4277SOL    HW124290   4.396   1.169  14.243  2.4775  0.0506 -2.1279
 4277SOL    HW224291   4.378   1.303  14.295  0.9879  2.2193 -1.0828
 4278SOL     OW24292   2.533   3.479  16.561  0.4327  0.1199  0.2907
 4278SOL    HW124293   2.467   3.545  16.537  0.6771  0.9772  1.9232
 4278SOL    HW224294   2.490   3.397  16.536 -2.3800  2.1009 -1.4025
 4279SOL     OW24295   2.666   0.606   6.026  0.3802 -0.2994 -0.0305
 4279SOL    HW124296   2.677   0.694   6.064 -0.2821 -1.2732  2.4284
 4279SOL    HW224297   2.572   0.591   6.040  0.6176 -1.9513 -0.2386
 4280SOL     OW24298   0.884   4.007  15.717  0.3267  0.1058 -0.2117
 4280SOL    HW124299   0.849   4.031  15.632 -0.0513  1.5337  0.3430
 4280SOL    HW224300   0.915   3.917  15.703  0.2147 -0.0971  0.8308
 4281SOL     OW24301   1.152   4.173  11.207  0.1319 -0.0130  0.5485
 4281SOL    HW124302   1.097   4.251  11.215 -0.7948 -0.6311  0.2380
 4281SOL    HW224303   1.230   4.207  11.163  1.2870 -3.7215 -0.2871
 4282SOL     OW24304   0.607   4.237   2.658 -0.0874  0.1122  0.1586
 4282SOL    HW124305   0.627   4.296   2.585  1.3641  0.2233  0.6514
 4282SOL    HW224306   0.642   4.154   2.625 -1.4379 -0.5089  0.2760
 4283SOL     OW24307   0.196   0.067   5.554  0.3380 -0.0931  0.1121
 4283SOL    HW124308   0.149   0.150   5.562  0.6530  0.0220  0.7557
 4283SOL    HW224309   0.203   0.049   5.647 -0.1206 -0.0594  0.1522
 4284SOL     OW24310   2.902   0.574   3.146  0.6023  0.0396 -0.6705
 4284SOL    HW124311   2.835   0.525   3.194  0.8651  0.8876  0.5664
 4284SOL    HW224312   2.976   0.517   3.124 -0.4140 -1.9524  1.1081
 4285SOL     OW24313   1.288   4.445   7.081 -0.0613 -0.4184  0.4988
 4285SOL    HW124314   1.326   4.530   7.061 -0.9841 -0.3085 -0.7319
 4285SOL    HW224315   1.271   4.411   6.994  2.0783  2.0534 -0.8803
 4286SOL     OW24316   3.976   1.543  16.201 -0.0395  0.1988  0.5841
 4286SOL    HW124317   3.952   1.456  16.170 -0.1014 -0.1725  1.6488
 4286SOL    HW224318   3.938   1.548  16.289 -0.5742  2.0445  0.2508
 4287SOL     OW24319   2.019   4.462   5.187 -0.0300 -0.1978  0.2711
 4287SOL    HW124320   1.981   4.491   5.104 -0.7170  0.3061  0.7666
 4287SOL    HW224321   1.966   4.385   5.209 -1.8554  0.9053 -0.2932
 4288SOL     OW24322   2.921   3.500   1.364 -0.4850 -0.2234  0.4311
 4288SOL    HW124323   3.011   3.478   1.340 -0.0483  0.4404  1.4369
 4288SOL    HW224324   2.869   3.420   1.355 -1.1300  0.2893 -0.3962
 4289SOL     OW24325   0.249   1.171  11.847  0.0370  0.0462 -0.1079
 4289SOL    HW124326   0.209   1.257  11.830 -0.0689  0.4576  2.2332
 4289SOL    HW224327   0.177   1.121  11.886  0.1832 -1.0868 -1.2843
 4290SOL     OW24328   0.066   0.613   2.438 -0.8369  0.0460  0.6576
 4290SOL    HW124329   0.093   0.565   2.360  0.7944  2.1660 -0.0915
 4290SOL    HW224330   4.698   0.619   2.420 -0.7744  3.0920  1.3061
 4291SOL     OW24331   3.193   1.884   4.701  0.4728  0.5096 -0.3651
 4291SOL    HW124332   3.139   1.961   4.685 -1.3490 -0.5921  0.4326
 4291SOL    HW224333   3.122   1.829   4.733  0.7283  0.6061  0.3815
 4292SOL     OW24334   4.013   4.221   3.739 -0.0079 -0.2694  1.0276
 4292SOL    HW124335   3.977   4.308   3.722 -1.9967 -1.4728 -0.9174
 4292SOL    HW224336   4.097   4.242   3.779  0.1142  2.2526 -0.5529
 4293SOL     OW24337   2.257   3.031   3.420 -0.0321  0.5456  0.3507
 4293SOL    HW124338   2.307   3.112   3.405  0.3209  0.4719  1.1353
 4293SOL    HW224339   2.220   3.028   3.331  0.4368  0.9138  0.1422
 4294SOL     OW24340   3.335   2.891  16.838 -0.0426  0.0853  0.6004
 4294SOL    HW124341   3.382   2.826  16.786 -0.1549  0.0472  0.5469
 4294SOL    HW224342   3.388   2.903  16.917  1.1928 -0.3126 -0.1727
 4295SOL     OW24343   3.780   0.659  15.298  0.0642 -0.0490  0.7548
 4295SOL    HW124344   3.690   0.626  15.296  0.2778 -0.6088  0.6000
 4295SOL    HW224345   3.821   0.594  15.356  0.0424 -0.9934 -0.2949
 4296SOL     OW24346   0.703   0.630   3.942  0.0386  0.9153 -0.3835
 4296SOL    HW124347   0.793   0.649   3.966  0.2980 -1.7165  0.7633
 4296SOL    HW224348   0.678   0.707   3.892  1.9394  2.4814  1.1055
 4297SOL     OW24349   1.668   1.656   6.324  0.6431  0.1552  0.3526
 4297SOL    HW124350   1.728   1.688   6.392  1.1647 -2.1869  0.9906
 4297SOL    HW224351   1.601   1.617   6.380 -2.2789  2.5715 -1.4791
 4298SOL     OW24352   1.909   2.022   7.542  0.2577 -0.3399  0.0683
 4298SOL    HW124353   1.846   2.047   7.475  0.6124  0.3450 -0.0119
 4298SOL    HW224354   1.982   2.085   7.542  1.8088 -2.1158  0.0465
 4299SOL     OW24355   3.413   0.370   4.746 -0.2251 -0.2622 -0.0819
 4299SOL    HW124356   3.478   0.323   4.799  0.1141 -1.2915 -1.4225
 4299SOL    HW224357   3.446   0.352   4.658  1.2169  2.0067  0.0177
 4300SOL     OW24358   1.711   0.610   0.530 -1.1557  0.6048 -0.4704
 4300SOL    HW124359   1.802   0.613   0.501 -0.5715 -0.5683  1.2069
 4300SOL    HW224360   1.663   0.614   0.448  0.0806  0.8761 -1.1745
 4301SOL     OW24361   1.236   0.238  11.828  0.1935  0.3167 -0.2884
 4301SOL    HW124362   1.205   0.217  11.916  0.2933 -0.1405 -0.3618
 4301SOL    HW224363   1.176   0.309  11.805  0.7821  1.8276  2.7672
 4302SOL     OW24364   0.217   0.061  13.729 -0.6484 -0.2262  0.2943
 4302SOL    HW124365   0.152   4.724  13.761  0.7595 -0.9766  1.7422
 4302SOL    HW224366   0.219   0.140  13.784  1.3681 -0.6123  0.7898
 4303SOL     OW24367   1.652   2.925   4.068 -0.2250  0.1091 -0.8115
 4303SOL    HW124368   1.711   2.992   4.102  0.8230 -1.5026  0.5405
 4303SOL    HW224369   1.653   2.859   4.138 -1.9157  1.0271  0.0765
 4304SOL     OW24370   1.486   3.161   6.477 -0.5856  0.3045 -0.2287
 4304SOL    HW124371   1.399   3.158   6.439 -1.0810  0.3989  0.8964
 4304SOL    HW224372   1.544   3.147   6.402 -0.0328  1.8398 -0.0905
 4305SOL     OW24373   2.456   2.065   2.902 -0.1771 -0.1050 -0.3336
 4305SOL    HW124374   2.370   2.025   2.916  0.4875 -1.1147  0.8059
 4305SOL    HW224375   2.427   2.132   2.839 -2.2396  0.0040  0.7462
 4306SOL     OW24376   1.969   0.024  14.739  0.5326  0.0291 -0.3753
 4306SOL    HW124377   2.001   4.660  14.744 -0.7630 -0.4374 -0.5204
 4306SOL    HW224378   2.023   0.062  14.669 -0.3722  0.0536 -1.0550
 4307SOL     OW24379   0.577   2.118   0.904  0.5601  0.2064  0.6702
 4307SOL    HW124380   0.651   2.122   0.843 -0.0652 -1.8601 -0.2248
 4307SOL    HW224381   0.588   2.195   0.960 -0.5310  0.5215  0.4597
 4308SOL     OW24382   3.647   3.354  15.607  0.2509  0.5983  0.2620
 4308SOL    HW124383   3.559   3.333  15.637  0.9917 -0.9312  1.3575
 4308SOL    HW224384   3.624   3.436  15.564 -0.6924  1.2825  2.1027
 4309SOL     OW24385   2.007   0.871   2.396  0.1446  0.0538  0.4306
 4309SOL    HW124386   1.951   0.802   2.430 -0.7945  1.4093  1.6091
 4309SOL    HW224387   2.048   0.828   2.321 -1.1370 -0.7053  0.1692
 4310SOL     OW24388   2.625   4.597  13.927 -0.5965 -0.6975  0.4100
 4310SOL    HW124389   2.578   4.560  14.002 -0.0020  0.4319  1.3423
 4310SOL    HW224390   2.630   4.525  13.864 -1.5685  1.0654 -1.6935
 4311SOL     OW24391   3.026   1.080   1.207 -0.5831 -0.7028  0.0846
 4311SOL    HW124392   3.084   1.119   1.141 -1.5457  0.8107  0.1393
 4311SOL    HW224393   3.017   1.150   1.272  0.6907 -2.0904  1.7681
 4312SOL     OW24394   3.013   3.286  16.654  0.5691 -0.0127  0.1365
 4312SOL    HW124395   3.094   3.240  16.673  0.4333 -0.1116  0.4695
 4312SOL    HW224396   2.970   3.277  16.739 -0.9823  0.2919 -0.6006
 4313SOL     OW24397   2.415   3.032  12.792 -0.1675 -0.5645 -0.0801
 4313SOL    HW124398   2.419   3.042  12.887 -2.1126  0.9529 -0.1722
 4313SOL    HW224399   2.329   2.993  12.778 -0.3106 -1.5766  3.7666
 4314SOL     OW24400   1.958   0.439   1.631 -0.2538  0.1492  0.0366
 4314SOL    HW124401   1.928   0.485   1.709 -0.4449  1.0098 -0.5448
 4314SOL    HW224402   1.905   0.360   1.630  1.7811 -1.2189 -1.2774
 4315SOL     OW24403   4.720   0.563  10.201 -0.3887 -0.4524 -0.8560
 4315SOL    HW124404   0.041   0.479  10.204 -1.2223 -0.9238 -0.9119
 4315SOL    HW224405   4.668   0.561  10.121 -0.3584 -1.8108 -0.8578
 4316SOL     OW24406   2.539   2.354   7.176 -0.1416 -0.2038 -0.0801
 4316SOL    HW124407   2.579   2.441   7.167 -1.2001  0.3163  0.1807
 4316SOL    HW224408   2.603   2.309   7.230 -0.2014 -0.0079  0.1539
 4317SOL     OW24409   0.693   2.610   6.172  0.0526 -0.1370  0.0831
 4317SOL    HW124410   0.618   2.559   6.205  0.9952 -1.8817 -0.4490
 4317SOL    HW224411   0.763   2.562   6.215  1.4280 -1.5932 -3.7890
 4318SOL     OW24412   3.298   2.224   0.922 -1.0985 -0.2072  0.8893
 4318SOL    HW124413   3.373   2.168   0.943 -0.1412  0.8178  0.2447
 4318SOL    HW224414   3.230   2.157   0.916 -2.0216  0.7131  1.1198
 4319SOL     OW24415   3.428   3.355   5.123 -0.1116  0.0848  0.3182
 4319SOL    HW124416   3.374   3.363   5.044 -2.3710  1.5138  1.9928
 4319SOL    HW224417   3.404   3.267   5.153 -0.4474  0.9824  2.6820
 4320SOL     OW24418   4.244   1.093   7.394  0.1031 -0.0011  0.5473
 4320SOL    HW124419   4.218   1.076   7.303  0.8265 -3.9624  1.0502
 4320SOL    HW224420   4.228   1.187   7.394  1.1930  0.1851 -0.0604
 4321SOL     OW24421   0.512   4.067   8.462  0.0023 -0.3153  0.2620
 4321SOL    HW124422   0.539   4.050   8.372  1.1718 -0.2486  0.6004
 4321SOL    HW224423   0.543   3.983   8.497 -0.1926 -0.2047  0.6921
 4322SOL     OW24424   1.821   0.051   5.160  0.3991  0.0560  0.0109
 4322SOL    HW124425   1.790   0.014   5.077  0.0925  1.1187 -0.3445
 4322SOL    HW224426   1.786   0.140   5.165  0.0311 -0.1823  1.6927
 4323SOL     OW24427   3.999   1.116  10.623 -0.1744 -0.2907 -0.6547
 4323SOL    HW124428   3.987   1.135  10.530  2.1584 -0.0139 -0.9061
 4323SOL    HW224429   3.939   1.184  10.655  0.3159 -0.6118  0.9808
 4324SOL     OW24430   1.747   3.705   3.038  0.1514  0.4606 -0.1786
 4324SOL    HW124431   1.745   3.661   2.953 -0.5731  1.2102 -0.5479
 4324SOL    HW224432   1.838   3.735   3.042  0.8220 -1.1322 -4.5488
 4325SOL     OW24433   3.888   1.111   3.532  0.3922  0.1205 -0.1118
 4325SOL    HW124434   3.965   1.119   3.588 -0.1442 -0.8191  0.7658
 4325SOL    HW224435   3.824   1.152   3.591 -0.8853 -0.4520 -1.1047
 4326SOL     OW24436   0.494   0.284   0.572 -0.4502 -0.3362  0.1013
 4326SOL    HW124437   0.547   0.227   0.628 -1.6106 -1.4174  0.1143
 4326SOL    HW224438   0.422   0.319   0.625 -0.5400 -0.2253 -0.0941
 4327SOL     OW24439   1.996   3.456   6.894  0.0700 -0.4893 -0.0626
 4327SOL    HW124440   2.014   3.461   6.800 -0.4053  2.4393  0.0284
 4327SOL    HW224441   2.013   3.362   6.901  0.5894 -0.2381  2.2168
 4328SOL     OW24442   4.230   0.918   9.627 -0.1521 -0.3364 -0.1301
 4328SOL    HW124443   4.204   1.007   9.606  1.3976  0.6179  1.9405
 4328SOL    HW224444   4.217   0.888   9.537  0.9225 -0.4314 -0.2622
 4329SOL     OW24445   0.465   1.888  12.628 -0.6636  0.4586  0.0137
 4329SOL    HW124446   0.514   1.831  12.687 -1.1813  1.1966  1.1439
 4329SOL    HW224447   0.374   1.862  12.640 -0.7589  0.9588  0.3522
 4330SOL     OW24448   1.128   0.469   2.436 -0.6576  0.1455 -0.2421
 4330SOL    HW124449   1.213   0.477   2.394 -0.3146 -0.2506  0.3948
 4330SOL    HW224450   1.112   0.379   2.465 -1.6719  0.7563  1.1315
 4331SOL     OW24451   1.414   3.360   1.899 -0.4919  0.0776 -0.0076
 4331SOL    HW124452   1.468   3.282   1.910 -0.0875  0.1946 -1.2507
 4331SOL    HW224453   1.358   3.336   1.826 -0.2380 -0.3820 -0.0454
 4332SOL     OW24454   3.270   2.399  10.575  0.0222  0.5658 -0.5018
 4332SOL    HW124455   3.253   2.468  10.640 -0.8794 -1.6219  1.6061
 4332SOL    HW224456   3.274   2.463  10.505 -0.0927  0.4286 -0.6328
 4333SOL     OW24457   2.446   0.309   6.518  0.4657  0.5012  0.2067
 4333SOL    HW124458   2.485   0.334   6.601 -0.0574 -0.0408  0.6123
 4333SOL    HW224459   2.358   0.346   6.531  0.8139  1.3803  0.0246
 4334SOL     OW24460   0.092   1.641   5.590  0.4716  0.0315  0.2125
 4334SOL    HW124461   0.144   1.560   5.586  0.8479  0.3651 -2.0250
 4334SOL    HW224462   0.161   1.703   5.614  0.9866 -1.0719  1.5360
 4335SOL     OW24463   1.919   3.258   4.323  0.2037  0.0910 -0.3704
 4335SOL    HW124464   1.953   3.340   4.360  0.2731  0.5661 -1.4786
 4335SOL    HW224465   1.998   3.229   4.278  0.9464  0.5607  0.6379
 4336SOL     OW24466   3.763   2.081   2.841  0.1410 -0.0323  0.0689
 4336SOL    HW124467   3.781   2.032   2.921  2.8706  0.3456 -0.3072
 4336SOL    HW224468   3.752   2.165   2.886 -1.1978 -1.1494  1.8520
 4337SOL     OW24469   4.169   1.636   5.835 -0.1183 -0.1855 -0.0099
 4337SOL    HW124470   4.124   1.637   5.750 -1.2739  0.2956  0.6076
 4337SOL    HW224471   4.141   1.719   5.874  0.6704 -0.3300  0.8632
 4338SOL     OW24472   1.883   0.571   3.858  0.3520  0.2267 -0.5075
 4338SOL    HW124473   1.948   0.501   3.855  1.0268  0.6987  2.5924
 4338SOL    HW224474   1.939   0.647   3.843  1.3426 -0.4197 -0.0968
 4339SOL     OW24475   4.580   2.525   3.801  0.0080 -0.9635  0.2271
 4339SOL    HW124476   4.573   2.584   3.726 -0.3269  1.0157  1.8214
 4339SOL    HW224477   4.601   2.438   3.766  1.8950 -1.4715  2.6376
 4340SOL     OW24478   2.498   1.433  11.192  0.0975  0.1089  0.1988
 4340SOL    HW124479   2.588   1.433  11.225  0.1263  0.8485  0.1214
 4340SOL    HW224480   2.485   1.339  11.208 -0.8708  0.4570  1.4982
 4341SOL     OW24481   3.311   0.318   2.349  0.1539  0.2784  0.1670
 4341SOL    HW124482   3.339   0.399   2.390  1.0021 -0.0519  0.2343
 4341SOL    HW224483   3.216   0.325   2.364  0.5570  1.0267  2.3641
 4342SOL     OW24484   4.603   0.339   5.402  0.5638 -0.5406 -0.1340
 4342SOL    HW124485   4.598   0.274   5.332  0.3091 -0.2060 -0.4242
 4342SOL    HW224486   4.548   0.407   5.363 -2.4319 -4.8829 -3.5083
 4343SOL     OW24487   4.229   1.818   5.242 -0.4167 -0.0793  0.5631
 4343SOL    HW124488   4.304   1.877   5.251 -1.5082  1.3289  0.2833
 4343SOL    HW224489   4.259   1.736   5.282 -1.7185 -2.0291 -2.4059
 4344SOL     OW24490   3.524   2.936  11.973 -0.0569 -0.0678  0.4283
 4344SOL    HW124491   3.578   2.997  12.023 -0.3329 -0.2414  0.9362
 4344SOL    HW224492   3.560   2.852  11.998 -1.2292 -0.9075 -0.6940
 4345SOL     OW24493   4.606   2.359   0.067  0.2304  0.0313 -0.3148
 4345SOL    HW124494   4.681   2.396   0.114 -0.5232  0.5406  0.4859
 4345SOL    HW224495   4.542   2.374   0.137 -1.4074 -1.3835 -1.4967
 4346SOL     OW24496   3.627   3.748   2.653  0.0103  0.4824 -0.4860
 4346SOL    HW124497   3.692   3.715   2.715 -2.6733 -0.7743  1.6631
 4346SOL    HW224498   3.686   3.773   2.583  1.2257 -1.7440 -0.2506
 4347SOL     OW24499   1.962   1.199   5.196  0.3678 -0.2506 -0.1223
 4347SOL    HW124500   2.012   1.235   5.270  1.4798 -0.5333 -0.7382
 4347SOL    HW224501   1.882   1.251   5.203 -1.2122 -2.8078  0.6481
 4348SOL     OW24502   1.549   3.457   8.650 -0.2744 -0.6458 -0.4416
 4348SOL    HW124503   1.566   3.390   8.584 -2.3444 -1.8769  0.2424
 4348SOL    HW224504   1.626   3.465   8.706 -0.9686  0.4042  0.3552
 4349SOL     OW24505   2.341   0.798  10.140 -0.5462  0.4077  0.9512
 4349SOL    HW124506   2.387   0.882  10.138 -1.9662  1.1461 -0.0418
 4349SOL    HW224507   2.386   0.760  10.065 -1.5783  0.1589  0.4671
 4350SOL     OW24508   3.732   1.671   7.083  0.5935 -0.0512  0.5456
 4350SOL    HW124509   3.743   1.669   7.178  1.5756  3.1222  0.4775
 4350SOL    HW224510   3.660   1.730   7.061 -0.3377 -1.9904 -1.6329
 4351SOL     OW24511   4.679   4.493   6.627 -0.5591  0.4360 -0.0583
 4351SOL    HW124512   4.691   4.495   6.532  0.1721 -1.1549 -0.0132
 4351SOL    HW224513   0.024   4.432   6.649 -0.7458  0.6661  1.1457
 4352SOL     OW24514   1.429   0.305   8.881  0.4270 -0.2612 -0.3410
 4352SOL    HW124515   1.375   0.345   8.949  1.3646  0.6418 -0.1148
 4352SOL    HW224516   1.516   0.296   8.920 -0.8863 -2.2814  2.1278
 4353SOL     OW24517   1.084   1.905   7.453  0.1488  0.6708  0.1510
 4353SOL    HW124518   0.992   1.919   7.477 -0.2853 -2.1838  0.2199
 4353SOL    HW224519   1.124   1.949   7.527 -2.1278  1.2983  1.0004
 4354SOL     OW24520   1.734   1.854   1.467  0.7848  0.1252  0.0228
 4354SOL    HW124521   1.739   1.902   1.550  0.7367  0.3788 -0.1228
 4354SOL    HW224522   1.662   1.900   1.426 -0.5313 -2.3857 -0.4995
 4355SOL     OW24523   1.430   2.091  17.236  0.2166 -0.1739 -0.1741
 4355SOL    HW124524   1.381   2.140  17.169  1.2810 -1.2958 -1.7761
 4355SOL    HW224525   1.415   2.149  17.310  3.0589  0.3508 -0.0403
 4356SOL     OW24526   2.111   4.010   2.697  0.2881  0.1807 -0.2193
 4356SOL    HW124527   2.128   4.050   2.611 -4.5233 -1.3556 -1.8833
 4356SOL    HW224528   2.016   4.002   2.701  0.2267  0.3975 -1.2142
 4357SOL     OW24529   1.415   1.865  15.921 -0.1619 -0.7304 -0.1997
 4357SOL    HW124530   1.477   1.796  15.900  0.3456 -0.7974  1.5283
 4357SOL    HW224531   1.376   1.887  15.836 -1.0653 -0.1261  0.3698
 4358SOL     OW24532   2.749   3.278   1.275  0.1574 -0.0399 -0.3361
 4358SOL    HW124533   2.796   3.218   1.333  0.4249  1.2048  0.7260
 4358SOL    HW224534   2.714   3.209   1.218 -0.2727 -0.0411 -0.0723
 4359SOL     OW24535   1.800   0.470   6.851  0.3641  0.0369 -0.0240
 4359SOL    HW124536   1.878   0.483   6.905  2.0238  1.3860 -2.7140
 4359SOL    HW224537   1.813   0.548   6.797  1.0653 -0.5703 -0.7364
 4360SOL     OW24538   0.206   0.596   7.495 -0.1714  0.0964 -0.5748
 4360SOL    HW124539   0.233   0.599   7.587 -1.4876  1.6338 -0.2523
 4360SOL    HW224540   0.114   0.622   7.500 -0.1799 -0.3037  1.2994
 4361SOL     OW24541   3.003   2.090   3.672 -0.2321 -0.1363 -0.0960
 4361SOL    HW124542   2.915   2.055   3.686  0.2110 -1.4149 -0.4431
 4361SOL    HW224543   3.038   2.050   3.592  0.2174  0.7334 -0.3345
 4362SOL     OW24544   1.922   0.210   1.289 -0.2414  0.5279  0.1019
 4362SOL    HW124545   2.015   0.200   1.305 -0.0810 -0.0061 -1.1473
 4362SOL    HW224546   1.886   0.172   1.369 -3.7771  1.1337 -1.1722
 4363SOL     OW24547   3.673   1.583   7.403 -0.4282  0.0494  0.0953
 4363SOL    HW124548   3.614   1.651   7.369 -0.6221  0.8927  2.1164
 4363SOL    HW224549   3.618   1.563   7.479 -1.9181 -1.8184 -1.4791
 4364SOL     OW24550   4.288   3.008   8.388 -0.4267  0.2227  0.1484
 4364SOL    HW124551   4.322   2.960   8.463 -3.6592 -0.6206  1.0534
 4364SOL    HW224552   4.286   3.094   8.430 -1.9333  0.4390 -0.3857
 4365SOL     OW24553   1.503   3.656  12.053  0.2412  0.4433  0.1462
 4365SOL    HW124554   1.505   3.668  12.148  0.5208  0.8263  0.0931
 4365SOL    HW224555   1.413   3.686  12.041  0.3590  1.5497  2.0263
 4366SOL     OW24556   4.580   2.989   4.464  0.7294 -0.6607  0.1510
 4366SOL    HW124557   4.666   2.973   4.426  1.2441 -0.2773  1.1559
 4366SOL    HW224558   4.577   3.081   4.439 -2.2448 -0.9173 -0.4000
 4367SOL     OW24559   2.461   2.245  10.804 -0.2673  0.0748 -0.1925
 4367SOL    HW124560   2.457   2.248  10.708 -0.4827 -0.1442 -0.1936
 4367SOL    HW224561   2.546   2.283  10.825 -0.7364  0.6892  0.5821
 4368SOL     OW24562   2.713   1.390   1.361  0.1196  0.5376 -0.3178
 4368SOL    HW124563   2.654   1.316   1.364  0.8761  0.0292  1.8295
 4368SOL    HW224564   2.691   1.423   1.274  1.5031  0.0504 -0.8560
 4369SOL     OW24565   4.685   4.644   7.916  0.0926 -0.4406 -0.0457
 4369SOL    HW124566   4.612   4.630   7.977  1.0034 -0.2221  1.1091
 4369SOL    HW224567   4.631   4.633   7.838  0.8661  0.1256 -0.6582
 4370SOL     OW24568   2.859   2.655   3.873  0.9739  0.3130 -0.2171
 4370SOL    HW124569   2.948   2.622   3.859  0.1637 -1.8527 -0.1212
 4370SOL    HW224570   2.808   2.574   3.872 -0.5769  1.2713  1.6698
 4371SOL     OW24571   0.038   1.136   7.532 -0.0702  0.2847  0.4755
 4371SOL    HW124572   0.096   1.100   7.465  0.4166 -2.2831  2.3209
 4371SOL    HW224573   4.685   1.160   7.483 -0.1390 -0.4825  0.2204
 4372SOL     OW24574   0.246   3.370   4.159  0.3476  0.3568  0.1169
 4372SOL    HW124575   0.177   3.363   4.226 -0.5957  0.5904 -0.8354
 4372SOL    HW224576   0.191   3.401   4.087 -0.0808  0.9125  0.6774
 4373SOL     OW24577   3.081   1.826   2.656  0.2405  0.1857  0.5027
 4373SOL    HW124578   3.074   1.864   2.568 -0.8441  0.6046  0.7768
 4373SOL    HW224579   3.117   1.893   2.714  0.2876 -0.2604  0.9897
 4374SOL     OW24580   1.690   4.581   6.638  0.3334 -0.3949  0.2326
 4374SOL    HW124581   1.618   4.568   6.576  0.6821 -0.3227 -0.1900
 4374SOL    HW224582   1.653   4.525   6.707 -0.9050 -0.3539 -0.3929
 4375SOL     OW24583   2.849   3.949   6.515 -0.7002  0.3271 -0.6324
 4375SOL    HW124584   2.933   3.939   6.471 -1.3006  2.0418 -2.2083
 4375SOL    HW224585   2.837   4.042   6.496  0.4267  0.6952  0.4772
 4376SOL     OW24586   1.072   0.698   7.519  0.1682  0.6063  0.1061
 4376SOL    HW124587   1.102   0.611   7.545 -1.1672  0.0750 -0.1386
 4376SOL    HW224588   1.104   0.704   7.430 -0.9525  1.0091 -0.2724
 4377SOL     OW24589   2.852   2.236  17.583  0.7182 -0.3691 -0.1473
 4377SOL    HW124590   2.757   2.241  17.574  0.7560 -0.2720 -0.4937
 4377SOL    HW224591   2.876   2.327  17.598  1.1652 -0.3952 -0.7384
 4378SOL     OW24592   1.938   3.986  11.666 -0.0824 -0.0336 -0.1743
 4378SOL    HW124593   1.859   3.932  11.675 -0.3007  0.5239  1.2695
 4378SOL    HW224594   1.906   4.076  11.671 -3.4144 -1.0894 -2.3444
 4379SOL     OW24595   3.850   2.011  14.550  0.0273 -0.4595  0.2379
 4379SOL    HW124596   3.848   1.937  14.610  0.0133 -0.2070  0.5452
 4379SOL    HW224597   3.945   2.024  14.540 -0.3060  0.0997 -2.3028
 4380SOL     OW24598   1.323   4.001   4.133  0.1576 -0.3286 -0.4749
 4380SOL    HW124599   1.283   4.084   4.108  0.2474  0.1238  0.8784
 4380SOL    HW224600   1.357   4.032   4.217  0.4079 -4.9641  1.1525
 4381SOL     OW24601   3.643   4.317  15.627  0.2350  0.4148 -0.2818
 4381SOL    HW124602   3.683   4.403  15.613  2.1550 -0.2385  1.3552
 4381SOL    HW224603   3.696   4.286  15.700  1.4649  0.4409 -1.1629
 4382SOL     OW24604   0.906   0.615  16.909 -0.3185 -0.0038  0.4801
 4382SOL    HW124605   0.937   0.628  16.819 -1.8020 -0.6229 -0.1411
 4382SOL    HW224606   0.825   0.567  16.886  0.6019 -1.7465  0.8516
 4383SOL     OW24607   2.412   3.455   5.498 -0.0132  0.0834 -0.7157
 4383SOL    HW124608   2.434   3.373   5.454  1.0466  0.8206 -1.5515
 4383SOL    HW224609   2.328   3.420   5.528  1.4094 -0.7563  2.3195
 4384SOL     OW24610   3.845   1.576   8.045 -0.7367 -0.4944  0.2581
 4384SOL    HW124611   3.909   1.580   8.115 -1.5663 -1.1771  1.0511
 4384SOL    HW224612   3.777   1.640   8.067  0.5526  0.1395  2.3551
 4385SOL     OW24613   2.515   1.777   4.634 -0.3329 -0.0033 -0.4013
 4385SOL    HW124614   2.503   1.682   4.637 -1.0919  0.1087  0.3510
 4385SOL    HW224615   2.472   1.803   4.552 -0.5766 -0.4432 -0.4126
 4386SOL     OW24616   4.625   3.886   3.200  0.5482  0.1490  0.5582
 4386SOL    HW124617   4.675   3.939   3.261  1.3603  1.9897 -1.7079
 4386SOL    HW224618   4.639   3.798   3.234  0.4188 -0.3738 -0.7359
 4387SOL     OW24619   3.062   2.441  11.674  0.9320 -0.6736 -0.0460
 4387SOL    HW124620   3.013   2.524  11.669 -1.7371 -2.1722  1.5439
 4387SOL    HW224621   3.147   2.466  11.636  1.1425 -0.8584  0.3062
 4388SOL     OW24622   3.844   1.621   3.300 -0.0586 -0.1666 -0.1687
 4388SOL    HW124623   3.836   1.714   3.277 -0.3356  0.1927  1.3617
 4388SOL    HW224624   3.826   1.569   3.222 -0.1731 -1.6535  0.8459
 4389SOL     OW24625   0.856   3.330   0.223  0.1488  0.1492 -0.5791
 4389SOL    HW124626   0.926   3.356   0.164  0.4536  1.1707  0.2401
 4389SOL    HW224627   0.806   3.261   0.179 -2.0749  0.7278  1.0591
 4390SOL     OW24628   4.196   0.581  13.208 -0.0529 -0.2135 -0.3498
 4390SOL    HW124629   4.261   0.540  13.151  0.9720  1.3644 -0.3395
 4390SOL    HW224630   4.197   0.508  13.270  1.4668  1.4235  1.5964
 4391SOL     OW24631   1.960   2.249  13.352 -0.3635  0.3502 -0.0363
 4391SOL    HW124632   2.014   2.172  13.371 -1.7278 -0.4620  0.6002
 4391SOL    HW224633   2.025   2.301  13.306 -0.1734 -1.2248 -1.5421
 4392SOL     OW24634   0.082   3.447   6.016 -0.2187  0.1765  0.3310
 4392SOL    HW124635   0.024   3.371   6.025 -2.0152  1.3539 -1.4140
 4392SOL    HW224636   0.015   3.514   6.026  0.0313  0.0855  2.6621
 4393SOL     OW24637   1.399   3.866   9.141 -0.0458  0.1869 -0.4116
 4393SOL    HW124638   1.398   3.791   9.201 -0.3077  0.3632 -0.1954
 4393SOL    HW224639   1.308   3.893   9.126 -0.2258 -0.3947 -0.3786
 4394SOL     OW24640   2.892   0.712   4.795  0.5745  0.1485 -0.2204
 4394SOL    HW124641   2.877   0.617   4.798  1.5186 -0.0118 -0.6045
 4394SOL    HW224642   2.963   0.722   4.858 -0.5918  0.3623  1.0748
 4395SOL     OW24643   4.018   0.847   4.270 -0.6485 -0.1601  0.1576
 4395SOL    HW124644   3.951   0.914   4.283 -0.9821 -0.4461 -0.0944
 4395SOL    HW224645   3.978   0.811   4.191  2.7796 -1.7207 -0.8680
 4396SOL     OW24646   0.540   3.229   1.372 -0.1544  0.2105  0.4348
 4396SOL    HW124647   0.627   3.264   1.354  0.3339 -1.5784 -0.7635
 4396SOL    HW224648   0.537   3.220   1.467  1.8718  0.2580  0.5057
 4397SOL     OW24649   0.885   1.695  16.473 -0.0682 -0.3513  0.0781
 4397SOL    HW124650   0.928   1.770  16.431 -0.2572 -1.0830 -1.4337
 4397SOL    HW224651   0.921   1.704  16.561  0.0240 -0.6135  0.0692
 4398SOL     OW24652   4.559   1.946   6.347 -0.2304  0.4525 -0.4862
 4398SOL    HW124653   4.625   1.896   6.298  1.1547  1.3794  0.3993
 4398SOL    HW224654   4.543   1.875   6.409  1.8829 -0.8308 -1.4125
 4399SOL     OW24655   4.672   0.244  13.717  0.2841  0.2647  0.2282
 4399SOL    HW124656   4.587   0.277  13.687  0.4044  1.6779  1.4221
 4399SOL    HW224657   4.702   0.209  13.633 -0.2119 -1.6104  0.8376
 4400SOL     OW24658   3.739   0.083   3.588  0.4795 -0.2462 -0.5398
 4400SOL    HW124659   3.712   4.723   3.622 -2.5440  0.2821 -1.5767
 4400SOL    HW224660   3.820   0.054   3.547  0.8387 -0.1383  0.1007
 4401SOL     OW24661   1.594   3.234   6.725 -0.3632 -0.0323  0.0508
 4401SOL    HW124662   1.544   3.282   6.791  0.2873 -1.7392  1.7819
 4401SOL    HW224663   1.536   3.249   6.650 -0.1489  0.0488 -0.1014
 4402SOL     OW24664   4.149   1.443  10.077  0.1284  0.2590 -0.1789
 4402SOL    HW124665   4.054   1.442  10.062  0.1438 -3.5394 -0.1457
 4402SOL    HW224666   4.173   1.486   9.996 -0.6307  3.7756  1.4491
 4403SOL     OW24667   1.614   3.428   1.667  0.3090  0.5507 -0.4841
 4403SOL    HW124668   1.544   3.427   1.732  0.4480  0.6368 -0.3301
 4403SOL    HW224669   1.643   3.520   1.660 -2.0523  1.4093  1.1182
 4404SOL     OW24670   1.685   0.804   0.820 -0.9784  0.0819  0.1719
 4404SOL    HW124671   1.650   0.749   0.750 -1.3627  0.7993 -0.1979
 4404SOL    HW224672   1.644   0.888   0.800  1.4561  1.2695  0.1602
 4405SOL     OW24673   0.941   3.292  14.658  0.0164 -0.0491 -0.2639
 4405SOL    HW124674   0.908   3.276  14.747 -1.4359  0.1111 -0.7698
 4405SOL    HW224675   0.948   3.200  14.634 -1.6607  0.2596 -1.9166
 4406SOL     OW24676   4.295   0.748   2.079 -0.2919 -0.1497 -0.4563
 4406SOL    HW124677   4.316   0.686   2.148 -3.4237  0.5536  1.1313
 4406SOL    HW224678   4.222   0.697   2.044  0.7802 -2.5505  0.8550
 4407SOL     OW24679   4.009   2.204   7.907  0.7343  0.1232  0.3586
 4407SOL    HW124680   3.914   2.213   7.914  0.6728  0.4811 -0.8830
 4407SOL    HW224681   4.031   2.289   7.946  0.9200  0.9593 -1.5682
 4408SOL     OW24682   0.473   4.713   6.664  0.3195 -0.4992  0.5498
 4408SOL    HW124683   0.418   0.064   6.651 -0.7591 -1.4576 -0.5635
 4408SOL    HW224684   0.558   0.011   6.628 -0.1150 -0.1472 -0.2521
 4409SOL     OW24685   3.239   2.977  16.196  0.1485 -0.3192  0.0376
 4409SOL    HW124686   3.238   3.026  16.278 -0.4721  1.4973 -1.0604
 4409SOL    HW224687   3.297   2.902  16.209 -1.5379 -1.0129  3.5006
 4410SOL     OW24688   4.159   2.558   5.786 -0.5348  0.0723 -0.6488
 4410SOL    HW124689   4.148   2.566   5.691 -1.0020 -0.7767 -0.6695
 4410SOL    HW224690   4.212   2.634   5.807  1.8896 -2.3592  1.9190
 4411SOL     OW24691   0.629   1.230   0.798  0.5343  0.2450  0.1463
 4411SOL    HW124692   0.692   1.292   0.761  0.4820 -0.0717 -0.4771
 4411SOL    HW224693   0.681   1.211   0.876  0.8013 -2.1706 -0.6100
 4412SOL     OW24694   0.128   4.287   4.318  0.2612 -0.7622  0.9815
 4412SOL    HW124695   0.130   4.192   4.327  1.5453 -1.0350 -1.9864
 4412SOL    HW224696   0.094   4.315   4.403  1.2478 -0.1552  1.1716
 4413SOL     OW24697   1.704   4.506   7.947 -0.2390  0.0742 -0.2155
 4413SOL    HW124698   1.748   4.554   8.017 -0.3927 -0.9939  0.6148
 4413SOL    HW224699   1.656   4.439   7.997  0.1354  0.0147  0.0699
 4414SOL     OW24700   2.106   0.121   8.032  0.0291 -0.3745  0.2170
 4414SOL    HW124701   2.163   0.169   8.092  0.8419  0.3095 -1.1237
 4414SOL    HW224702   2.102   0.192   7.968 -1.1641 -0.2282  0.4424
 4415SOL     OW24703   1.421   4.092  12.097 -0.8233  0.4036 -0.0021
 4415SOL    HW124704   1.468   4.053  12.170  0.0231  0.3319 -0.5833
 4415SOL    HW224705   1.335   4.048  12.098  0.3274 -1.8021  1.8016
 4416SOL     OW24706   2.062   0.516   8.532 -0.0731  0.0620 -0.4283
 4416SOL    HW124707   2.032   0.498   8.621 -1.9544 -0.2219 -1.1099
 4416SOL    HW224708   2.020   0.450   8.477 -1.2245 -0.9157  1.6191
 4417SOL     OW24709   4.179   2.205   5.566  0.0797  0.2383  0.3688
 4417SOL    HW124710   4.268   2.233   5.588 -0.3703  0.7875  1.4905
 4417SOL    HW224711   4.172   2.248   5.481  1.3779  1.1039  0.6913
 4418SOL     OW24712   3.756   1.300   5.802 -0.2919 -0.3584 -0.4485
 4418SOL    HW124713   3.776   1.393   5.796 -2.9383  0.1367 -1.8376
 4418SOL    HW224714   3.661   1.306   5.814 -0.0540 -0.8376  1.6701
 4419SOL     OW24715   2.455   3.982   5.698  0.0352 -0.2702  0.5213
 4419SOL    HW124716   2.456   3.897   5.742 -1.7553  0.7639  2.5265
 4419SOL    HW224717   2.406   3.958   5.619  0.5665 -1.8582  0.6715
 4420SOL     OW24718   0.790   1.949  11.893  0.0759 -0.1046  0.2101
 4420SOL    HW124719   0.815   1.937  11.801 -3.2827  1.4162 -0.8998
 4420SOL    HW224720   0.784   1.855  11.911 -2.8263 -0.3528 -2.0334
 4421SOL     OW24721   3.030   0.946   5.951 -0.0368  0.0986 -0.3683
 4421SOL    HW124722   3.055   0.873   6.007 -0.7185 -0.4366 -0.7765
 4421SOL    HW224723   3.000   1.006   6.019 -0.1424  0.9535 -1.1726
 4422SOL     OW24724   4.156   4.096   0.457 -0.1073 -0.4047 -0.4982
 4422SOL    HW124725   4.218   4.025   0.442 -1.8100 -1.7236 -1.2911
 4422SOL    HW224726   4.105   4.099   0.376 -1.1121  0.5365  0.1641
 4423SOL     OW24727   0.073   3.423   3.950  0.1811 -0.1408  0.6107
 4423SOL    HW124728   4.722   3.379   3.985  0.0065  1.6547  2.5022
 4423SOL    HW224729   0.068   3.376   3.867  1.3301 -0.0491  0.4881
 4424SOL     OW24730   2.998   2.350   3.660  0.8447  0.0893  0.4567
 4424SOL    HW124731   2.909   2.345   3.625  0.0843 -0.8499  2.4862
 4424SOL    HW224732   3.018   2.256   3.654  0.6546 -0.0832  2.4456
 4425SOL     OW24733   2.988   0.941   1.545 -0.7394  0.2277 -0.1183
 4425SOL    HW124734   2.923   0.870   1.544  0.5332 -0.9446  0.4245
 4425SOL    HW224735   3.049   0.897   1.486  0.3671  1.3221  0.2193
 4426SOL     OW24736   1.607   4.191  13.347 -0.1987 -0.0800  0.1180
 4426SOL    HW124737   1.600   4.257  13.278  3.8072 -0.8918 -1.0366
 4426SOL    HW224738   1.564   4.114  13.310  1.3171 -0.9615  0.2265
 4427SOL     OW24739   3.375   1.753   8.043 -0.2581  0.4400  0.1776
 4427SOL    HW124740   3.328   1.831   8.014 -0.2754  0.6280  0.7108
 4427SOL    HW224741   3.316   1.707   8.103 -0.9201 -1.4698 -1.9265
 4428SOL     OW24742   3.241   3.544   3.156 -0.0253 -0.0396  0.3473
 4428SOL    HW124743   3.205   3.600   3.225 -1.0650 -1.9163  1.3249
 4428SOL    HW224744   3.332   3.526   3.179  0.0964  1.0754  0.7449
 4429SOL     OW24745   2.874   0.065   5.253 -0.2100  0.0393  0.1159
 4429SOL    HW124746   2.859   0.141   5.196  0.7966  1.0361  1.1823
 4429SOL    HW224747   2.823   0.093   5.328  1.2985  0.0455  1.1397
 4430SOL     OW24748   4.473   2.331   8.140 -0.0556  0.1722  0.6027
 4430SOL    HW124749   4.527   2.382   8.200 -0.2961  0.5344  0.5113
 4430SOL    HW224750   4.539   2.273   8.102 -0.3719  0.4523 -0.3884
 4431SOL     OW24751   1.728   1.945  15.199 -0.7221 -0.1487 -0.2043
 4431SOL    HW124752   1.697   2.015  15.142  2.0570  0.6497 -0.7528
 4431SOL    HW224753   1.698   1.871  15.147 -0.3603 -0.4591  0.0331
 4432SOL     OW24754   1.172   1.777   1.000  0.1319  0.1627  0.3062
 4432SOL    HW124755   1.198   1.818   1.082  0.8941 -0.4372  0.3716
 4432SOL    HW224756   1.133   1.696   1.035  0.3144 -0.7659 -1.6130
 4433SOL     OW24757   2.860   0.718   1.631  0.3045  0.6597  0.5474
 4433SOL    HW124758   2.915   0.650   1.671 -1.3502 -0.1299  1.4907
 4433SOL    HW224759   2.818   0.761   1.705  1.8752  0.6982  1.4099
 4434SOL     OW24760   0.738   2.224   7.294 -0.4238 -0.2320  0.5087
 4434SOL    HW124761   0.744   2.170   7.373  1.5920  1.9147  1.8067
 4434SOL    HW224762   0.807   2.288   7.307  1.6688 -2.5136  0.7424
 4435SOL     OW24763   2.001   1.138   6.357 -0.2560  0.1306  0.4987
 4435SOL    HW124764   1.949   1.059   6.373 -2.1949  1.3027 -0.1249
 4435SOL    HW224765   2.081   1.122   6.408  0.9705  1.3436 -1.0226
 4436SOL     OW24766   4.372   1.754   0.339  0.8059 -0.1283  0.5115
 4436SOL    HW124767   4.384   1.828   0.280 -0.2127  0.2757  0.8200
 4436SOL    HW224768   4.461   1.718   0.344  0.4909 -0.5755  2.9698
 4437SOL     OW24769   0.454   4.439   7.905  0.0127  0.1661  0.3162
 4437SOL    HW124770   0.451   4.464   7.997  1.5384  0.8478  0.1725
 4437SOL    HW224771   0.399   4.505   7.862 -0.1111 -0.6925 -0.8454
 4438SOL     OW24772   2.109   2.692   8.180 -0.3974 -0.2521  0.4328
 4438SOL    HW124773   2.076   2.728   8.262  2.1672  1.2758  0.7993
 4438SOL    HW224774   2.036   2.638   8.151 -1.6469  0.9700  1.2925
 4439SOL     OW24775   3.184   0.499   7.523 -0.2209  0.8504 -0.1061
 4439SOL    HW124776   3.170   0.578   7.575  1.7450 -0.1932  2.0131
 4439SOL    HW224777   3.171   0.536   7.436  0.3511  2.2231  0.4067
 4440SOL     OW24778   3.867   1.811   9.926  0.2045  0.1194 -0.1604
 4440SOL    HW124779   3.859   1.721   9.896  0.3289  0.0780 -0.0704
 4440SOL    HW224780   3.796   1.816   9.991  1.1283  0.5977  0.8148
 4441SOL     OW24781   3.442   0.091   7.106 -0.4129 -0.1320 -0.3943
 4441SOL    HW124782   3.436   0.072   7.012 -0.2286  0.8422 -0.5946
 4441SOL    HW224783   3.527   0.133   7.111 -1.4608  1.5698  3.3574
 4442SOL     OW24784   2.166   4.704   9.052  0.4209  0.1937 -0.2205
 4442SOL    HW124785   2.258   4.698   9.026  0.1220 -2.2897 -0.6877
 4442SOL    HW224786   2.164   4.660   9.136 -0.6486  0.3492 -0.1703
 4443SOL     OW24787   0.562   3.859   6.352  0.2331 -0.3821 -0.1753
 4443SOL    HW124788   0.484   3.897   6.392  1.1319  0.2193  0.9917
 4443SOL    HW224789   0.540   3.878   6.261  0.0820 -0.1467 -0.0886
 4444SOL     OW24790   3.366   2.243   8.288 -0.2140  0.0485  0.1464
 4444SOL    HW124791   3.458   2.217   8.286 -0.1623  0.3436 -1.3313
 4444SOL    HW224792   3.340   2.202   8.370 -1.5925  1.3148  0.3557
 4445SOL     OW24793   1.118   1.172  12.862 -0.9904 -0.2361  0.0241
 4445SOL    HW124794   1.125   1.247  12.920  2.3261  1.5692 -2.6868
 4445SOL    HW224795   1.186   1.189  12.797 -2.2566  3.1473 -0.4147
 4446SOL     OW24796   1.925   1.387   3.827  0.3432  0.0826 -0.2647
 4446SOL    HW124797   1.928   1.293   3.845 -1.2969  0.0176 -0.3970
 4446SOL    HW224798   1.916   1.426   3.913 -0.6695  1.3822 -0.9548
 4447SOL     OW24799   4.644   2.280   3.693  0.5469  0.5655  0.0364
 4447SOL    HW124800   4.629   2.195   3.733  0.0360  1.4311  1.6643
 4447SOL    HW224801   4.569   2.284   3.634  1.7718 -0.2144 -1.6090
 4448SOL     OW24802   1.501   4.620  13.105 -0.4384  0.0020 -0.1893
 4448SOL    HW124803   1.487   4.701  13.155 -0.1635  0.0138 -0.1271
 4448SOL    HW224804   1.585   4.648  13.067  0.1599  0.5939  1.5415
 4449SOL     OW24805   1.528   1.241  15.901  0.5614  0.1188 -0.1612
 4449SOL    HW124806   1.480   1.211  15.979 -1.6671 -0.7966 -1.8895
 4449SOL    HW224807   1.619   1.213  15.901 -0.5447 -3.6126  3.4116
 4450SOL     OW24808   0.807   3.070   5.613 -0.3181  0.2820  0.3377
 4450SOL    HW124809   0.723   3.056   5.569  0.8282 -0.5652 -1.5643
 4450SOL    HW224810   0.816   2.982   5.650 -1.3080 -0.7311 -1.8449
 4451SOL     OW24811   4.218   1.694  13.489 -0.4508 -0.1250  0.5220
 4451SOL    HW124812   4.158   1.624  13.516  0.4942 -0.5197  1.6412
 4451SOL    HW224813   4.228   1.693  13.394 -1.0613 -0.0342  0.4574
 4452SOL     OW24814   4.680   2.164   4.176  0.2417  0.5866 -0.1677
 4452SOL    HW124815   4.628   2.215   4.238 -2.1636  0.4957 -2.1016
 4452SOL    HW224816   4.668   2.078   4.217  0.5442  1.3752  1.5599
 4453SOL     OW24817   2.537   1.440   1.137  1.1333 -0.0918 -0.0769
 4453SOL    HW124818   2.579   1.468   1.056  0.1385 -1.9683 -1.2307
 4453SOL    HW224819   2.442   1.443   1.126  0.9633 -3.1629  0.4082
 4454SOL     OW24820   2.035   3.463   6.602 -0.1986  0.4651 -0.5394
 4454SOL    HW124821   2.129   3.475   6.589  0.2189 -1.7346  0.5389
 4454SOL    HW224822   1.998   3.546   6.572 -0.0501  0.0806 -1.8157
 4455SOL     OW24823   3.093   0.411  13.384 -0.3280  0.1220 -0.0099
 4455SOL    HW124824   3.138   0.326  13.388 -0.1148  0.2191 -0.3674
 4455SOL    HW224825   3.163   0.470  13.412  0.0248  0.5517 -1.7920
 4456SOL     OW24826   2.382   4.169   5.880  0.0965 -0.1123  0.3752
 4456SOL    HW124827   2.460   4.197   5.929 -1.3891 -1.3876  3.4658
 4456SOL    HW224828   2.419   4.126   5.803  1.5959 -2.3528  2.3465
 4457SOL     OW24829   0.722   2.119  17.614 -0.5179 -0.0481 -0.4596
 4457SOL    HW124830   0.749   2.070  17.692 -3.3952 -2.6778 -1.1301
 4457SOL    HW224831   0.779   2.194  17.597 -0.7044  0.6899  2.1278
 4458SOL     OW24832   0.386   2.396   2.173  0.4073  0.9012  0.5688
 4458SOL    HW124833   0.442   2.398   2.251 -0.8497 -0.6297  1.5265
 4458SOL    HW224834   0.440   2.445   2.111  2.4832 -2.0454  0.0759
 4459SOL     OW24835   3.430   0.554   2.401  0.5337  0.3749  0.0471
 4459SOL    HW124836   3.401   0.557   2.310 -1.1716 -0.2650  0.5710
 4459SOL    HW224837   3.472   0.640   2.407 -1.5916  1.3577  0.6275
 4460SOL     OW24838   4.414   3.833   6.687  0.5911  0.3231 -0.3167
 4460SOL    HW124839   4.346   3.836   6.755  1.6955  3.1082  0.6851
 4460SOL    HW224840   4.473   3.767   6.724  0.9638  0.0293 -1.4255
 4461SOL     OW24841   2.240   4.708   5.418  0.2000 -0.1191 -0.2840
 4461SOL    HW124842   2.238   4.714   5.322  2.8423 -0.0460 -0.3316
 4461SOL    HW224843   2.315   0.038   5.437  1.2114 -1.6012  0.0672
 4462SOL     OW24844   4.109   4.273   7.110  0.0452  0.1237  0.2142
 4462SOL    HW124845   4.134   4.241   7.023 -1.6575  1.0285 -0.6231
 4462SOL    HW224846   4.189   4.318   7.136 -0.2003 -0.7098  2.4006
 4463SOL     OW24847   3.705   1.397  16.276  0.0724 -0.3258  0.4834
 4463SOL    HW124848   3.616   1.389  16.312  0.6260 -2.8455  1.2504
 4463SOL    HW224849   3.693   1.475  16.221  0.2481  1.9873  3.7167
 4464SOL     OW24850   3.463   0.225  14.597 -0.0789 -0.2759 -0.0949
 4464SOL    HW124851   3.534   0.207  14.659  2.5084  1.7367 -2.4307
 4464SOL    HW224852   3.514   0.284  14.542 -0.8353 -0.0783 -0.5859
 4465SOL     OW24853   4.296   3.648  15.948 -0.0191  0.0833  0.6065
 4465SOL    HW124854   4.358   3.602  16.005  0.0223  1.3085  1.5497
 4465SOL    HW224855   4.333   3.734  15.967 -1.4419  1.1116 -1.3447
 4466SOL     OW24856   3.109   2.925  16.717  0.1909 -0.4462 -0.1858
 4466SOL    HW124857   3.174   2.881  16.771  0.0494 -0.6616 -0.1903
 4466SOL    HW224858   3.147   3.013  16.713 -0.2780 -0.2114  0.5401
 4467SOL     OW24859   1.816   2.494  10.142 -0.3789 -0.8294 -0.1948
 4467SOL    HW124860   1.784   2.416  10.186 -1.0425 -2.4794 -3.5773
 4467SOL    HW224861   1.873   2.535  10.207 -3.7007  2.8704  0.4106
 4468SOL     OW24862   1.783   3.018   6.702 -0.8569  0.1558 -0.0489
 4468SOL    HW124863   1.793   2.984   6.614  0.7321  0.3132  0.0849
 4468SOL    HW224864   1.752   3.107   6.685 -2.1232 -0.2986 -0.1248
 4469SOL     OW24865   3.379   0.941   4.117 -0.2687 -0.1603  0.5056
 4469SOL    HW124866   3.367   0.854   4.078  0.1375 -0.1034  0.2652
 4469SOL    HW224867   3.426   0.924   4.199  0.5501 -0.4311 -0.0205
 4470SOL     OW24868   3.133   3.170   2.064 -0.5764  0.0331  0.0064
 4470SOL    HW124869   3.156   3.190   2.155  0.0233  1.3202 -0.4304
 4470SOL    HW224870   3.070   3.238   2.041  0.1371 -0.0087 -2.0685
 4471SOL     OW24871   2.463   1.905   7.605 -0.5855 -0.2030 -0.3440
 4471SOL    HW124872   2.502   1.828   7.562 -0.1441  1.1960 -2.4701
 4471SOL    HW224873   2.380   1.916   7.559 -1.8085 -1.8801  1.4299
 4472SOL     OW24874   1.756   1.075   3.343  0.1375  0.0838 -0.2969
 4472SOL    HW124875   1.726   1.139   3.408  1.5099  1.2925 -0.8571
 4472SOL    HW224876   1.842   1.055   3.380  0.6748 -1.4775 -2.3925
 4473SOL     OW24877   2.685   3.569   2.748 -0.2654 -0.0678  0.2565
 4473SOL    HW124878   2.761   3.541   2.800 -0.8959  0.3331  1.4079
 4473SOL    HW224879   2.700   3.517   2.670 -0.8753  0.4248 -0.1860
 4474SOL     OW24880   0.017   2.485   7.455 -0.0484  0.2877 -0.1378
 4474SOL    HW124881   0.111   2.500   7.442 -0.0107 -0.8753 -1.1865
 4474SOL    HW224882   0.010   2.390   7.447 -0.5359  0.3879 -0.9190
 4475SOL     OW24883   3.395   0.895  17.074 -0.3988  0.0263 -0.2936
 4475SOL    HW124884   3.419   0.977  17.031 -0.0629 -1.0485 -2.1675
 4475SOL    HW224885   3.435   0.829  17.017 -0.6270  0.4212 -0.9086
 4476SOL     OW24886   0.583   2.870   6.651 -0.1086  0.1548  0.1581
 4476SOL    HW124887   0.600   2.781   6.684 -0.5975  0.2621  0.7046
 4476SOL    HW224888   0.526   2.841   6.579 -1.1591  1.1798  0.5832
 4477SOL     OW24889   4.575   0.853   4.235  0.0865  0.5618 -0.6708
 4477SOL    HW124890   4.492   0.878   4.275  0.7690 -1.6172  2.0582
 4477SOL    HW224891   4.578   0.759   4.248 -0.2049  0.8020  1.0951
 4478SOL     OW24892   1.807   0.912  13.369  0.3719 -0.1707  0.0007
 4478SOL    HW124893   1.723   0.873  13.393  0.2420  0.2026  0.1518
 4478SOL    HW224894   1.803   0.992  13.422  1.6769  0.8531 -1.4736
 4479SOL     OW24895   2.403   0.191   3.396 -0.2829  0.1238 -0.4432
 4479SOL    HW124896   2.406   0.099   3.422  2.1742  0.0061 -1.1188
 4479SOL    HW224897   2.402   0.240   3.479 -0.6627  3.4764 -2.4413
 4480SOL     OW24898   0.945   3.905   1.683 -0.0213  0.4925  0.4238
 4480SOL    HW124899   0.999   3.922   1.606  1.3039 -1.1285  1.0130
 4480SOL    HW224900   0.898   3.988   1.691  0.0311  0.3407  2.3043
 4481SOL     OW24901   0.873   1.285   4.350  0.3327  0.3502  0.2857
 4481SOL    HW124902   0.813   1.226   4.306  3.0081 -2.0736 -0.1239
 4481SOL    HW224903   0.880   1.248   4.438  0.9396 -0.1903  0.0089
 4482SOL     OW24904   1.540   2.508   2.523  0.1859  0.0789  0.6010
 4482SOL    HW124905   1.578   2.553   2.598  1.2521  0.2749 -0.0449
 4482SOL    HW224906   1.454   2.485   2.558  1.1161 -0.4646  2.5286
 4483SOL     OW24907   4.390   1.533  17.531 -0.5131 -0.2473  0.2940
 4483SOL    HW124908   4.313   1.567  17.485  0.2813 -0.7068 -1.3795
 4483SOL    HW224909   4.411   1.603  17.592 -0.8108 -0.8677  1.1027
 4484SOL     OW24910   4.487   2.553   4.424 -0.1451 -0.9142  0.1654
 4484SOL    HW124911   4.573   2.583   4.452 -1.0125  2.8726 -1.1856
 4484SOL    HW224912   4.509   2.491   4.355 -1.1019 -0.7284 -0.3156
 4485SOL     OW24913   0.093   2.791  17.132  0.3247 -0.6029 -0.6428
 4485SOL    HW124914   0.141   2.740  17.197  2.0194  0.7419 -0.8431
 4485SOL    HW224915   0.080   2.877  17.172  0.1927 -1.7964  1.9033
 4486SOL     OW24916   3.135   2.514   6.485 -0.4544 -0.3532  0.4610
 4486SOL    HW124917   3.134   2.422   6.513  1.7150 -0.2433  0.9000
 4486SOL    HW224918   3.185   2.552   6.557 -1.4058  0.5026  0.6650
 4487SOL     OW24919   0.566   1.908   7.310  0.2649  0.2612  0.7443
 4487SOL    HW124920   0.653   1.908   7.271 -0.1875  1.3885 -0.2414
 4487SOL    HW224921   0.519   1.838   7.264 -0.1667  0.6361  0.6105
 4488SOL     OW24922   0.475   2.146  12.527  0.1064  0.2436 -0.0308
 4488SOL    HW124923   0.460   2.055  12.551  2.9040 -0.7481 -2.1714
 4488SOL    HW224924   0.436   2.194  12.601  0.1746 -0.6782  0.6002
 4489SOL     OW24925   1.279   1.968   3.549 -0.2460 -0.2647  0.3717
 4489SOL    HW124926   1.191   1.987   3.517 -0.1101 -0.7722 -0.2880
 4489SOL    HW224927   1.318   2.054   3.533 -1.1219  0.1226  0.3254
 4490SOL     OW24928   0.661   4.087  16.199 -0.2101  0.1033 -0.4872
 4490SOL    HW124929   0.735   4.144  16.222  1.4773 -2.8083  1.2582
 4490SOL    HW224930   0.691   4.033  16.127 -1.3895  0.5480 -1.3177
 4491SOL     OW24931   1.374   3.005   8.241 -0.5076  0.7993 -0.4811
 4491SOL    HW124932   1.371   3.090   8.286 -0.3699  0.0928  0.8553
 4491SOL    HW224933   1.375   3.029   8.148  0.8108 -0.0564 -0.6843
 4492SOL     OW24934   1.773   3.046  12.494 -0.5012  0.4298 -0.1386
 4492SOL    HW124935   1.815   3.120  12.451 -0.0162  1.0733  1.4348
 4492SOL    HW224936   1.696   3.036  12.438 -1.2491 -2.0272  1.3006
 4493SOL     OW24937   0.473   3.513   8.124 -0.0150 -0.3278  0.6393
 4493SOL    HW124938   0.468   3.457   8.201  1.5858 -1.3671  0.0030
 4493SOL    HW224939   0.516   3.466   8.052 -0.7703  3.0173 -2.0104
 4494SOL     OW24940   3.322   1.699  15.918  0.9824 -0.0491 -0.4352
 4494SOL    HW124941   3.372   1.781  15.922  2.2995 -0.8306 -1.3462
 4494SOL    HW224942   3.233   1.723  15.890 -0.5355 -0.7073  3.8789
 4495SOL     OW24943   3.327   0.793   3.234  0.6368 -1.1019 -0.1355
 4495SOL    HW124944   3.286   0.874   3.265  2.4448 -0.9994  1.9368
 4495SOL    HW224945   3.352   0.752   3.316 -0.1156 -1.0084  0.1417
 4496SOL     OW24946   4.651   1.734   0.278  0.0432  0.2463 -0.0549
 4496SOL    HW124947   4.624   1.817   0.240  0.5629  0.9312  1.0706
 4496SOL    HW224948   4.698   1.702   0.200  0.4726 -0.1748  0.3708
 4497SOL     OW24949   0.031   3.414  15.678  0.1263 -0.7332 -0.3957
 4497SOL    HW124950   4.714   3.477  15.620 -1.0359 -1.0379  0.1181
 4497SOL    HW224951   0.069   3.478  15.738  0.4721  0.4204 -1.8448
 4498SOL     OW24952   1.395   2.753  10.931  0.2381  0.2230 -0.7606
 4498SOL    HW124953   1.367   2.662  10.939 -1.8552  1.2056  3.4911
 4498SOL    HW224954   1.320   2.795  10.890 -1.1395 -0.9225  0.5720
 4499SOL     OW24955   1.441   0.562  13.991  0.1809  0.2652  0.0873
 4499SOL    HW124956   1.439   0.589  14.082  1.3701  2.3425 -0.4959
 4499SOL    HW224957   1.534   0.542  13.979  0.3496  0.6829  0.7545
 4500SOL     OW24958   4.231   4.718  14.680 -0.1052 -0.4858  0.0394
 4500SOL    HW124959   4.281   0.073  14.670 -0.3923 -0.5233 -1.5619
 4500SOL    HW224960   4.287   4.664  14.735  1.0468  1.4081  0.7142
 4501SOL     OW24961   3.647   0.276   8.231 -0.6838  0.0275  0.2263
 4501SOL    HW124962   3.668   0.234   8.313 -0.1237  2.3138  1.2647
 4501SOL    HW224963   3.723   0.249   8.180  0.5476  0.1395  2.0101
 4502SOL     OW24964   0.799   4.693   0.965  0.2846  0.0597 -0.0749
 4502SOL    HW124965   0.882   4.647   0.975  0.5889  0.2360 -1.7499
 4502SOL    HW224966   0.771   4.672   1.054  2.0774  0.4109  0.5571
 4503SOL     OW24967   2.039   1.861   7.321  0.5757 -0.2660 -0.6087
 4503SOL    HW124968   1.973   1.793   7.335  2.3322 -1.4755  1.8504
 4503SOL    HW224969   2.028   1.921   7.395 -3.0031 -0.1425 -1.2453
 4504SOL     OW24970   2.531   0.645  14.735  0.5936 -0.0509  0.3195
 4504SOL    HW124971   2.450   0.606  14.768  1.0622 -0.5740  0.8476
 4504SOL    HW224972   2.515   0.634  14.641  1.3452 -0.8148  0.2892
 4505SOL     OW24973   3.256   3.889   2.658  0.3456 -0.0099 -0.4363
 4505SOL    HW124974   3.335   3.844   2.629  1.6217  2.1176 -0.3060
 4505SOL    HW224975   3.268   3.972   2.612  0.9282  0.6015  0.8154
 4506SOL     OW24976   0.142   0.147   0.343 -0.3742 -0.2684 -0.1118
 4506SOL    HW124977   0.216   0.142   0.403 -0.9281 -1.1704  0.4985
 4506SOL    HW224978   0.163   0.077   0.281  1.5448  0.3978 -0.2089
 4507SOL     OW24979   1.533   0.781   6.078  0.1727  0.7261  0.0344
 4507SOL    HW124980   1.587   0.784   5.999  0.0027  1.4682 -0.0505
 4507SOL    HW224981   1.476   0.854   6.053  0.3122  1.2170  1.1446
 4508SOL     OW24982   2.579   1.145   2.463  0.2085  1.0465 -0.1930
 4508SOL    HW124983   2.495   1.120   2.501  1.2112  1.3107  2.2281
 4508SOL    HW224984   2.624   1.183   2.539  3.0432 -1.3627 -0.6965
 4509SOL     OW24985   4.659   0.702   7.478  0.2520 -0.2374  0.3619
 4509SOL    HW124986   4.624   0.775   7.529 -0.7016 -2.1413  2.4532
 4509SOL    HW224987   4.625   0.724   7.392  2.7948 -0.8560 -0.7947
 4510SOL     OW24988   2.721   1.142  17.320 -0.1533  0.0973 -0.1449
 4510SOL    HW124989   2.725   1.047  17.321  1.0632  0.1555  0.7104
 4510SOL    HW224990   2.811   1.163  17.295  0.4277 -0.5105  1.3879
 4511SOL     OW24991   1.724   1.341   3.038 -0.0135  0.4798  0.7611
 4511SOL    HW124992   1.766   1.258   3.062  1.3074  1.3129  1.3418
 4511SOL    HW224993   1.680   1.322   2.955  1.0656  1.7397 -0.1019
 4512SOL     OW24994   3.353   2.994   5.901 -0.2363  0.2904  0.3397
 4512SOL    HW124995   3.436   3.022   5.939 -0.2662  1.5749 -0.5416
 4512SOL    HW224996   3.323   3.074   5.857  0.0797  0.6579  0.7959
 4513SOL     OW24997   1.860   0.029   0.370 -0.5372  0.3363 -0.2144
 4513SOL    HW124998   1.907   0.031   0.287  1.6969  1.2844  1.0588
 4513SOL    HW224999   1.823   0.118   0.370  2.1446  1.4485  0.0283
 4514SOL     OW25000   2.230   3.511   8.641 -0.0203 -0.2787 -0.3358
 4514SOL    HW125001   2.186   3.461   8.710  0.7627  2.6298  2.2670
 4514SOL    HW225002   2.220   3.449   8.569 -2.1739  2.5509 -2.4893
 4515SOL     OW25003   2.077   3.737   2.893  0.1866 -0.5673  0.0291
 4515SOL    HW125004   2.066   3.832   2.891 -1.2710 -0.7374 -0.1238
 4515SOL    HW225005   2.094   3.722   2.800 -0.8327  0.5097 -0.3360
 4516SOL     OW25006   1.718   2.006   2.628  0.0979  0.0075 -0.9267
 4516SOL    HW125007   1.653   2.072   2.651  2.2211  1.5226  0.7839
 4516SOL    HW225008   1.759   2.049   2.553 -0.5492 -0.8812 -1.7913
 4517SOL     OW25009   3.055   2.871  10.441 -0.0617  0.3261  0.1571
 4517SOL    HW125010   3.146   2.892  10.463 -0.3195 -0.4358  1.9874
 4517SOL    HW225011   3.008   2.937  10.491 -0.3299  0.4950 -0.3233
 4518SOL     OW25012   2.586   2.257  14.715 -0.3613  0.5105  0.6478
 4518SOL    HW125013   2.541   2.335  14.747 -0.5853  2.0897 -3.4969
 4518SOL    HW225014   2.526   2.185  14.731  0.3313 -0.2178 -0.0684
 4519SOL     OW25015   0.042   0.290   2.239  0.0881 -0.4338 -0.9559
 4519SOL    HW125016   0.109   0.355   2.219  1.7533 -1.5840  0.9055
 4519SOL    HW225017   4.689   0.339   2.216 -0.0655  1.4698  3.5844
 4520SOL     OW25018   1.205   4.208  10.314  0.5558 -0.1735 -0.0687
 4520SOL    HW125019   1.172   4.298  10.322  2.3553  0.5115 -0.2673
 4520SOL    HW225020   1.241   4.185  10.400 -0.9454  0.7672  0.8075
 4521SOL     OW25021   0.833   4.111   4.456 -0.2728  0.1137 -0.1505
 4521SOL    HW125022   0.912   4.094   4.508 -0.1615 -1.2747 -0.7718
 4521SOL    HW225023   0.815   4.205   4.459 -0.0683  0.1937 -1.5472
 4522SOL     OW25024   1.218   2.998   6.391 -0.3617  0.2969  0.1215
 4522SOL    HW125025   1.161   2.996   6.315  1.2514 -0.8013 -1.0411
 4522SOL    HW225026   1.285   2.937   6.362  0.4801  2.0454 -1.6652
 4523SOL     OW25027   3.436   2.661  11.405  0.1043 -0.0489 -0.0235
 4523SOL    HW125028   3.384   2.581  11.415  2.1151 -1.1374  1.6471
 4523SOL    HW225029   3.362   2.720  11.393 -0.8838 -1.6472 -1.9213
 4524SOL     OW25030   3.349   4.178   3.027  1.1719  0.2787 -0.3821
 4524SOL    HW125031   3.428   4.231   3.013  2.4597 -0.6239  3.3239
 4524SOL    HW225032   3.305   4.190   2.943 -0.3368  1.9534  0.6619
 4525SOL     OW25033   0.216   0.911   6.201  0.4632 -0.0610 -0.4415
 4525SOL    HW125034   0.287   0.891   6.262  0.8335 -1.6222 -1.3746
 4525SOL    HW225035   0.266   0.877   6.127 -2.0637 -1.2327 -1.6196
 4526SOL     OW25036   0.898   0.766  10.234 -0.0354  0.1017  0.3790
 4526SOL    HW125037   0.835   0.790  10.167 -1.4142  1.7551  2.2603
 4526SOL    HW225038   0.838   0.764  10.309  0.0105 -1.2593  0.3738
 4527SOL     OW25039   3.458   3.865   8.770 -0.2599  0.0999  0.0709
 4527SOL    HW125040   3.441   3.959   8.780 -1.5797  0.0911 -2.1618
 4527SOL    HW225041   3.374   3.830   8.800  1.0981 -0.8271  2.8551
 4528SOL     OW25042   1.210   2.072   7.716 -0.3344  0.5251 -0.4290
 4528SOL    HW125043   1.191   2.044   7.805 -0.1317  0.7723 -0.3093
 4528SOL    HW225044   1.305   2.085   7.718 -0.3386  0.3540  0.5158
 4529SOL     OW25045   0.596   3.266   8.194 -0.8906 -0.7401  0.1819
 4529SOL    HW125046   0.615   3.233   8.282  2.4203 -1.6649 -0.8757
 4529SOL    HW225047   0.686   3.273   8.163 -1.1788 -3.3583 -1.2624
 4530SOL     OW25048   3.472   0.128   7.910 -0.0607  0.2963  0.2236
 4530SOL    HW125049   3.548   0.162   7.862 -0.2640  1.6762  0.8885
 4530SOL    HW225050   3.460   0.043   7.867  0.5757 -0.4029  1.4422
 4531SOL     OW25051   3.709   3.148   3.400  0.0465 -0.2552  0.6293
 4531SOL    HW125052   3.765   3.132   3.476  1.5392 -0.7432 -0.5635
 4531SOL    HW225053   3.736   3.075   3.345 -0.9814  0.5909 -1.0145
 4532SOL     OW25054   3.156   1.228   7.497  0.4208 -0.1842 -0.2355
 4532SOL    HW125055   3.138   1.292   7.428  0.8072 -0.9715 -1.0762
 4532SOL    HW225056   3.247   1.243   7.522 -0.4216  1.5223  1.7727
 4533SOL     OW25057   0.622   4.006   8.222 -0.1975  0.3806 -0.4185
 4533SOL    HW125058   0.604   4.046   8.137  0.9604 -0.1969 -0.9487
 4533SOL    HW225059   0.587   3.918   8.209  2.1057 -0.8677  1.7028
 4534SOL     OW25060   3.535   3.429  11.920 -0.1264 -0.3684 -0.1253
 4534SOL    HW125061   3.600   3.361  11.902 -2.1043 -2.2359 -0.1399
 4534SOL    HW225062   3.456   3.379  11.937  1.0988 -1.7082  1.5202
 4535SOL     OW25063   4.344   1.263   2.405 -0.1226  0.4450 -0.2880
 4535SOL    HW125064   4.356   1.257   2.311 -0.6652  0.6987 -0.3776
 4535SOL    HW225065   4.315   1.354   2.420  1.1471  0.9848 -1.1922
 4536SOL     OW25066   0.223   3.667   4.422 -0.3251  0.1507 -0.4657
 4536SOL    HW125067   0.131   3.641   4.431 -0.3462  1.0644  1.9039
 4536SOL    HW225068   0.217   3.720   4.343  0.6769  0.0984 -0.5787
 4537SOL     OW25069   1.879   1.944   1.205 -0.6848 -0.4040  0.0812
 4537SOL    HW125070   1.836   1.966   1.288  1.7040 -2.0187  1.7429
 4537SOL    HW225071   1.802   1.923   1.152 -0.8667 -2.2313  1.0613
 4538SOL     OW25072   2.061   2.651   9.665 -0.4925 -0.3634 -0.5289
 4538SOL    HW125073   2.097   2.717   9.725  1.8401 -0.5843 -1.6838
 4538SOL    HW225074   2.043   2.700   9.584 -2.3171  0.5828  0.4423
 4539SOL     OW25075   0.830   2.539   4.133  0.1752  0.8042  0.1009
 4539SOL    HW125076   0.879   2.506   4.209 -1.3506  1.2528  1.2803
 4539SOL    HW225077   0.785   2.612   4.175 -1.8780 -0.9827  1.0296
 4540SOL     OW25078   3.499   0.407   1.962 -0.3053  0.2299 -0.1421
 4540SOL    HW125079   3.516   0.461   1.884 -2.7264 -0.6597 -1.2852
 4540SOL    HW225080   3.560   0.335   1.947  0.7361  0.7529  1.5097
 4541SOL     OW25081   3.914   4.226   9.717 -0.4733  0.0373  0.0096
 4541SOL    HW125082   3.930   4.212   9.811  1.8326 -0.0336 -0.3820
 4541SOL    HW225083   3.850   4.158   9.700 -0.8452 -0.1407  2.1539
 4542SOL     OW25084   4.523   1.135   6.886  0.4612  0.1259  0.1874
 4542SOL    HW125085   4.465   1.188   6.831  1.1466 -0.7876 -1.3939
 4542SOL    HW225086   4.545   1.068   6.822  3.3280 -1.3397  2.7111
 4543SOL     OW25087   2.124   3.916  11.493 -0.1885  0.6767  0.4678
 4543SOL    HW125088   2.172   3.993  11.460  2.5258 -2.8975 -4.0316
 4543SOL    HW225089   2.058   3.950  11.553 -1.3114  1.4918 -1.2334
 4544SOL     OW25090   0.553   1.779   4.279 -0.1536 -0.0154 -0.2139
 4544SOL    HW125091   0.547   1.704   4.220  2.9090 -0.2558 -0.2240
 4544SOL    HW225092   0.648   1.767   4.286  0.2118  2.7425 -0.5060
 4545SOL     OW25093   3.463   2.894  17.112  0.2845 -0.4672 -0.4074
 4545SOL    HW125094   3.443   2.929  17.199  1.0009  1.8279 -1.1638
 4545SOL    HW225095   3.505   2.971  17.073 -0.9675 -0.1876 -1.2182
 4546SOL     OW25096   0.988   1.312   3.690 -0.0219  0.4878  0.7849
 4546SOL    HW125097   0.957   1.250   3.623  1.6463 -1.2143  1.5996
 4546SOL    HW225098   0.913   1.330   3.746  1.8635 -0.0982  3.4947
 4547SOL     OW25099   3.743   4.446   4.199 -0.0599 -0.3742  0.4660
 4547SOL    HW125100   3.831   4.413   4.177 -0.2301 -0.4848 -0.0516
 4547SOL    HW225101   3.764   4.537   4.218  0.9446 -0.7676  1.2859
 4548SOL     OW25102   4.513   2.870   6.395  0.1667 -0.8583  0.0286
 4548SOL    HW125103   4.487   2.858   6.486 -0.9472 -0.9166 -0.3030
 4548SOL    HW225104   4.527   2.964   6.390  0.0225 -1.0318 -3.7047
 4549SOL     OW25105   3.921   2.294  16.864 -0.0987  0.3633  0.4240
 4549SOL    HW125106   3.902   2.202  16.880 -2.5792  1.0259  1.4269
 4549SOL    HW225107   3.832   2.328  16.881 -0.5497 -0.0299 -1.2081
 4550SOL     OW25108   2.751   1.849   4.765 -0.4207 -0.0172 -0.8846
 4550SOL    HW125109   2.664   1.857   4.726 -0.9932 -1.2185  0.1429
 4550SOL    HW225110   2.725   1.845   4.857  0.4694 -0.4654 -0.6565
 4551SOL     OW25111   3.830   1.499   6.078 -0.4520 -0.1206  0.2236
 4551SOL    HW125112   3.762   1.512   6.012 -0.4343  1.2548  0.4584
 4551SOL    HW225113   3.886   1.573   6.054 -1.6569  1.6718  2.7985
 4552SOL     OW25114   1.056   3.853   5.797  0.3509 -0.4713 -0.5567
 4552SOL    HW125115   1.147   3.873   5.821  0.1126 -1.1884  0.9597
 4552SOL    HW225116   1.037   3.935   5.752  0.7030  0.5707  1.2011
 4553SOL     OW25117   2.781   0.577   4.169  0.1612  0.4084 -0.4276
 4553SOL    HW125118   2.824   0.502   4.209 -0.8490  0.2381  0.3378
 4553SOL    HW225119   2.745   0.538   4.090 -0.1670  0.4469 -0.2985
 4554SOL     OW25120   1.107   0.442   4.030 -0.3670 -0.2964 -0.2224
 4554SOL    HW125121   1.068   0.529   4.023  0.9063  0.4902  2.4268
 4554SOL    HW225122   1.032   0.384   4.047  0.6977 -0.8286  2.6094
 4555SOL     OW25123   1.882   4.075  14.948  0.0956 -0.6269 -0.0008
 4555SOL    HW125124   1.956   4.046  14.895  0.2053 -0.4544  0.0559
 4555SOL    HW225125   1.860   4.149  14.891  2.2764  2.0716  2.6703
 4556SOL     OW25126   4.084   1.992   4.736 -0.2302 -0.5285  0.3584
 4556SOL    HW125127   4.106   1.981   4.828  1.4579 -0.7718 -0.0666
 4556SOL    HW225128   4.114   2.082   4.726  1.3988 -1.1143 -0.2163
 4557SOL     OW25129   0.202   3.547   3.068 -0.0375  0.1389  0.3402
 4557SOL    HW125130   0.251   3.568   3.147  1.1115  1.4953 -0.7345
 4557SOL    HW225131   0.254   3.479   3.025 -0.1907  0.1726  0.0975
 4558SOL     OW25132   1.046   3.792   2.245  0.1296  0.4031 -0.0571
 4558SOL    HW125133   1.039   3.851   2.170  0.7969  0.6584  0.0783
 4558SOL    HW225134   1.138   3.765   2.242  0.3780  0.8547  3.5727
 4559SOL     OW25135   4.417   0.518   5.267 -0.3689 -0.3279 -0.1336
 4559SOL    HW125136   4.354   0.452   5.237 -0.6693 -0.0620 -0.0796
 4559SOL    HW225137   4.451   0.548   5.183 -0.3238 -1.1742 -0.4207
 4560SOL     OW25138   2.913   1.917   8.701 -0.5186  0.2070  0.1258
 4560SOL    HW125139   2.881   1.830   8.677  0.4592 -0.9842  3.0928
 4560SOL    HW225140   2.912   1.899   8.796 -4.8850  0.8991  0.1923
 4561SOL     OW25141   4.652   3.185   4.959 -0.3335 -0.3332  0.6317
 4561SOL    HW125142   0.004   3.223   4.918 -1.8862  1.3343 -0.7784
 4561SOL    HW225143   4.643   3.120   4.889 -0.7982  0.4097 -0.0120
 4562SOL     OW25144   0.717   3.867   1.176  0.2087  0.0089  1.1878
 4562SOL    HW125145   0.678   3.780   1.181  1.5377 -0.6959 -0.6527
 4562SOL    HW225146   0.699   3.897   1.086  1.1105 -0.7172  0.7683
 4563SOL     OW25147   3.915   1.954   0.325 -0.2680 -0.2624  0.0192
 4563SOL    HW125148   3.919   1.863   0.353 -0.3213  0.2858  1.8643
 4563SOL    HW225149   3.896   1.943   0.232 -0.7304 -3.1740  0.4610
 4564SOL     OW25150   4.564   4.445   2.408 -0.5996 -0.0753 -0.1626
 4564SOL    HW125151   4.491   4.504   2.394 -1.4673 -1.3062 -0.8598
 4564SOL    HW225152   4.622   4.509   2.448 -0.2630 -0.9500  0.7755
 4565SOL     OW25153   1.344   2.538   3.359  0.0201 -0.0307  0.1389
 4565SOL    HW125154   1.395   2.477   3.411  0.2161  0.2284  0.2492
 4565SOL    HW225155   1.254   2.507   3.370  0.2332 -0.2446  1.2495
 4566SOL     OW25156   1.271   4.257   2.253 -0.0076  0.3968 -0.1103
 4566SOL    HW125157   1.321   4.334   2.224 -0.1724 -0.0866 -1.6378
 4566SOL    HW225158   1.178   4.282   2.252 -0.5459 -1.4770  3.5461
 4567SOL     OW25159   3.751   0.865  11.811  0.2296 -0.4063  0.1747
 4567SOL    HW125160   3.697   0.785  11.816  2.4856 -1.8087  2.2078
 4567SOL    HW225161   3.735   0.898  11.900  2.9497 -1.6607  1.1432
 4568SOL     OW25162   4.697   0.365  13.463 -0.5124  0.0062 -0.0868
 4568SOL    HW125163   0.039   0.328  13.406 -0.4554 -1.0522  0.6708
 4568SOL    HW225164   0.022   0.435  13.505  1.1523 -0.1572 -1.8294
 4569SOL     OW25165   1.186   1.570   9.802  0.0412  0.1891 -0.1790
 4569SOL    HW125166   1.238   1.611   9.872  0.2340 -0.6897  0.1978
 4569SOL    HW225167   1.145   1.651   9.771  2.0951  1.2914 -0.0807
 4570SOL     OW25168   3.213   4.174   0.600 -0.1030  0.2062 -0.7983
 4570SOL    HW125169   3.298   4.200   0.565  0.8522 -2.4883 -0.4970
 4570SOL    HW225170   3.220   4.191   0.694  1.0876  2.3464 -1.2834
 4571SOL     OW25171   1.993   2.446   5.052  0.6707 -0.3437 -0.0334
 4571SOL    HW125172   2.060   2.484   4.995  1.2902  0.1387  1.0152
 4571SOL    HW225173   2.046   2.428   5.130 -0.3786 -1.4487  0.4181
 4572SOL     OW25174   3.345   3.264   3.008 -0.1240  1.0402 -0.0790
 4572SOL    HW125175   3.308   3.219   2.932 -0.2543 -0.1821  0.7201
 4572SOL    HW225176   3.274   3.328   3.018 -0.8634  0.5358 -1.9975
 4573SOL     OW25177   0.078   3.939   3.980 -0.0886  0.8227 -0.1986
 4573SOL    HW125178   0.123   4.016   4.013 -0.2039  1.6553 -1.9598
 4573SOL    HW225179   4.719   3.974   3.952 -0.7108 -1.1157 -0.7403
 4574SOL     OW25180   3.790   4.200   5.400  0.0517 -0.1502 -0.4826
 4574SOL    HW125181   3.820   4.226   5.487 -0.9493  0.0277 -0.1891
 4574SOL    HW225182   3.697   4.222   5.391 -0.0076 -0.5376 -0.8269
 4575SOL     OW25183   1.248   4.559   8.876 -0.7635  0.2107 -0.3770
 4575SOL    HW125184   1.221   4.646   8.845 -1.9067 -0.0686 -0.1359
 4575SOL    HW225185   1.214   4.542   8.964 -0.5860  0.5364 -0.2456
 4576SOL     OW25186   0.323   0.583   7.237  0.0515  0.3203 -0.7180
 4576SOL    HW125187   0.269   0.596   7.315 -1.1321  0.4111 -1.5589
 4576SOL    HW225188   0.379   0.660   7.237 -0.8714  0.9990 -1.3321
 4577SOL     OW25189   0.872   2.559   4.552 -0.1693 -0.0883 -0.1179
 4577SOL    HW125190   0.947   2.592   4.602  0.6611 -2.4787  0.1836
 4577SOL    HW225191   0.903   2.518   4.471  0.6070  0.4352 -0.0920
 4578SOL     OW25192   2.760   1.180   9.769 -0.1125 -0.1139  0.1446
 4578SOL    HW125193   2.671   1.156   9.743  1.0618 -3.3129 -1.0434
 4578SOL    HW225194   2.778   1.120   9.841  1.4678  1.3594  0.9773
 4579SOL     OW25195   3.858   3.458   5.792 -0.0691  0.0147  0.2003
 4579SOL    HW125196   3.814   3.478   5.874  0.4449  0.2073  0.4300
 4579SOL    HW225197   3.900   3.543   5.779 -0.6712  0.5379  1.7559
 4580SOL     OW25198   3.549   0.475   6.888  0.6350 -0.3542 -0.0285
 4580SOL    HW125199   3.600   0.453   6.810 -0.8880 -1.8312 -0.5816
 4580SOL    HW225200   3.621   0.500   6.947  0.3649  1.3126 -0.4083
 4581SOL     OW25201   4.703   2.232   8.045 -0.5708  0.3616  0.0677
 4581SOL    HW125202   0.072   2.234   8.032 -0.4548  1.1118  1.0575
 4581SOL    HW225203   4.687   2.141   8.068 -1.6166  0.3812 -0.5622
 4582SOL     OW25204   3.783   3.397   8.520 -0.3335 -0.1541  0.2557
 4582SOL    HW125205   3.821   3.377   8.434  2.6324 -0.6884  1.6984
 4582SOL    HW225206   3.792   3.315   8.570  1.0505 -0.3060 -0.2273
 4583SOL     OW25207   2.040   2.784   4.102 -0.9468 -0.0557  0.2232
 4583SOL    HW125208   2.106   2.843   4.067  0.1118 -0.1255  2.1141
 4583SOL    HW225209   2.057   2.780   4.196  0.7088  1.3798 -0.0243
 4584SOL     OW25210   4.311   4.405  17.385  0.0506  0.2294 -0.3619
 4584SOL    HW125211   4.350   4.320  17.369  1.3753  0.4796  1.5367
 4584SOL    HW225212   4.383   4.441  17.437  0.3251 -0.7111 -0.0895
 4585SOL     OW25213   2.716   2.029   2.754 -0.0052  0.1561  0.4169
 4585SOL    HW125214   2.654   2.014   2.825 -0.0641 -1.6003 -0.0015
 4585SOL    HW225215   2.688   1.972   2.683 -0.3237  1.2016 -0.2862
 4586SOL     OW25216   2.532   2.360   4.888  0.0469  0.9642  0.3317
 4586SOL    HW125217   2.543   2.343   4.794  0.9305  0.9802  0.4296
 4586SOL    HW225218   2.439   2.376   4.903 -0.1472 -0.7166  0.9610
 4587SOL     OW25219   2.872   0.260   3.885  0.9596  0.3314  0.5037
 4587SOL    HW125220   2.899   0.171   3.909 -0.9466  0.1582  1.9766
 4587SOL    HW225221   2.832   0.251   3.799  0.6719  0.6679  0.6050
 4588SOL     OW25222   4.208   4.011  10.511  0.1809 -0.4215 -0.0179
 4588SOL    HW125223   4.212   4.078  10.579 -0.9373 -1.4434  1.0705
 4588SOL    HW225224   4.234   4.066  10.438  0.6835 -2.6590 -1.5454
 4589SOL     OW25225   0.111   3.573   1.594 -0.1678 -0.1374 -0.2672
 4589SOL    HW125226   0.047   3.503   1.609 -0.7953  0.7433  1.1462
 4589SOL    HW225227   0.060   3.635   1.541 -0.8565 -1.2364 -0.9018
 4590SOL     OW25228   0.127   1.893   6.052 -0.1410  0.9747  0.3194
 4590SOL    HW125229   0.070   1.933   5.987  1.2924  0.6701 -1.1483
 4590SOL    HW225230   0.209   1.900   6.002 -0.4907  1.1143 -0.2306
 4591SOL     OW25231   0.038   0.051   3.550 -0.1150 -0.5252  0.4364
 4591SOL    HW125232   0.066   0.117   3.487 -1.1386 -1.7271 -1.2379
 4591SOL    HW225233   0.033   0.103   3.631  0.6122  2.6979 -1.6116
 4592SOL     OW25234   1.112   0.569  10.389  1.1137  0.0278 -0.1598
 4592SOL    HW125235   1.137   0.569  10.481  0.2049 -1.0175  0.0846
 4592SOL    HW225236   1.168   0.498  10.357  1.4047  0.6481 -1.0472
 4593SOL     OW25237   0.936   0.399   9.624 -0.0499 -0.9294 -0.2661
 4593SOL    HW125238   0.997   0.360   9.562 -1.6610 -2.1560 -1.0617
 4593SOL    HW225239   0.956   0.339   9.695 -0.9698 -0.5128  0.3561
 4594SOL     OW25240   1.517   0.937   3.109 -0.4597  0.0724 -0.2333
 4594SOL    HW125241   1.481   0.916   3.195  1.5286 -2.7956 -0.0691
 4594SOL    HW225242   1.439   0.928   3.054 -0.5525  0.6222 -0.1877
 4595SOL     OW25243   4.461   1.969   5.242  0.8610  0.5326  0.0354
 4595SOL    HW125244   4.476   2.023   5.164  0.9394 -1.0202 -1.0255
 4595SOL    HW225245   4.492   2.026   5.313 -1.0225  1.9692 -0.2993
 4596SOL     OW25246   0.404   1.486  17.373 -0.6239  0.0543 -0.2405
 4596SOL    HW125247   0.350   1.525  17.441 -0.4567 -0.6568  0.3032
 4596SOL    HW225248   0.460   1.562  17.361 -2.4458  1.3983 -0.1335
 4597SOL     OW25249   3.160   0.208   7.405 -0.0828 -1.2199  0.2275
 4597SOL    HW125250   3.219   0.265   7.356 -0.4503  0.7303  2.0659
 4597SOL    HW225251   3.078   0.258   7.410 -0.4609 -1.8603  0.4283
 4598SOL     OW25252   2.458   0.400  14.591  0.3934 -0.1703  0.0625
 4598SOL    HW125253   2.365   0.398  14.569  0.0232  1.2390  1.5896
 4598SOL    HW225254   2.473   0.325  14.649  0.0245 -1.0729 -1.0083
 4599SOL     OW25255   0.627   2.444   0.670 -0.6002 -0.0901  0.4276
 4599SOL    HW125256   0.626   2.449   0.766 -5.6322 -0.8126  0.4298
 4599SOL    HW225257   0.652   2.353   0.659  1.1067  0.4474 -0.1146
 4600SOL     OW25258   3.433   4.432   5.665 -0.0471 -0.6499 -0.2530
 4600SOL    HW125259   3.459   4.383   5.588 -1.1246 -0.2356 -0.8839
 4600SOL    HW225260   3.373   4.498   5.629  1.2801  0.4783 -0.3800
 4601SOL     OW25261   3.173   0.712   4.459  0.1564 -0.3364 -0.0847
 4601SOL    HW125262   3.186   0.682   4.369 -1.1942 -1.1559 -0.0088
 4601SOL    HW225263   3.078   0.709   4.461  0.1942 -1.9698 -0.7885
 4602SOL     OW25264   0.810   0.368   8.665  0.1776 -0.0369  0.0554
 4602SOL    HW125265   0.727   0.322   8.651  0.0696  0.4994 -1.0813
 4602SOL    HW225266   0.820   0.337   8.755  0.6111 -1.2772 -0.4243
 4603SOL     OW25267   2.285   0.834  12.791  0.4226 -0.1483  0.3560
 4603SOL    HW125268   2.299   0.743  12.819  1.2381  0.3611  1.5904
 4603SOL    HW225269   2.286   0.882  12.874  0.4535  0.9117 -0.2526
 4604SOL     OW25270   3.693   0.470  15.071  0.1164  0.3407 -0.5325
 4604SOL    HW125271   3.651   0.493  14.989  1.2565 -1.7383 -1.6863
 4604SOL    HW225272   3.647   0.531  15.130  0.0177 -0.1683 -0.0824
 4605SOL     OW25273   0.561   3.512   9.957  0.3952  0.0582  0.4475
 4605SOL    HW125274   0.631   3.516   9.892 -0.2754 -4.9028 -0.6258
 4605SOL    HW225275   0.552   3.419   9.977  0.3909  0.2862  1.5051
 4606SOL     OW25276   0.380   2.790   6.465  0.1206 -0.0821 -0.3039
 4606SOL    HW125277   0.310   2.824   6.522 -0.5842 -1.0264 -0.6084
 4606SOL    HW225278   0.399   2.701   6.494  2.0676 -0.1843 -1.9489
 4607SOL     OW25279   4.098   1.502   7.188 -0.0378 -0.2497 -0.0874
 4607SOL    HW125280   4.034   1.552   7.138  0.7404  0.4782 -0.3407
 4607SOL    HW225281   4.181   1.550   7.182 -0.3300  0.2602 -0.0369
 4608SOL     OW25282   0.360   3.109   8.130 -0.4303 -0.5711 -0.3315
 4608SOL    HW125283   0.321   3.154   8.055  1.4955  1.5829 -0.0414
 4608SOL    HW225284   0.435   3.162   8.158  0.5438 -1.3666 -1.4356
 4609SOL     OW25285   3.464   2.030   8.132 -0.0334 -0.0300 -0.4518
 4609SOL    HW125286   3.558   2.014   8.131 -0.3894 -2.0779 -0.5265
 4609SOL    HW225287   3.425   1.982   8.205 -0.7040 -1.0679 -1.5025
 4610SOL     OW25288   3.619   2.155  11.653 -0.5926 -0.3120 -0.0250
 4610SOL    HW125289   3.700   2.118  11.617  0.1427  0.7072  0.5637
 4610SOL    HW225290   3.586   2.190  11.570  0.2547  0.6714  0.0391
 4611SOL     OW25291   1.526   0.750  16.798  0.5196 -0.4383  0.2141
 4611SOL    HW125292   1.579   0.823  16.767  0.4637 -0.3524  0.3203
 4611SOL    HW225293   1.593   0.683  16.816 -0.8573 -1.8507  0.0538
 4612SOL     OW25294   1.156   2.782   7.159  0.0776 -0.2443  0.5284
 4612SOL    HW125295   1.200   2.781   7.074  0.4011  1.0966  0.6743
 4612SOL    HW225296   1.128   2.692   7.172  1.6885 -0.6353  1.2951
 4613SOL     OW25297   0.571   1.951  17.482 -0.2552 -0.3627  0.1429
 4613SOL    HW125298   0.602   1.976  17.569  0.4773  0.5012 -0.3748
 4613SOL    HW225299   0.566   2.035  17.437 -1.1041 -0.7077 -0.4152
 4614SOL     OW25300   3.427   2.344   0.438 -0.3584  0.0659 -0.3747
 4614SOL    HW125301   3.496   2.334   0.503 -0.2893  1.7952 -0.1928
 4614SOL    HW225302   3.467   2.302   0.362  1.5214  0.9487  0.1219
 4615SOL     OW25303   3.752   2.530  14.618 -0.4132  0.4382  0.3958
 4615SOL    HW125304   3.671   2.577  14.599  0.4077  1.2123 -1.2101
 4615SOL    HW225305   3.739   2.437  14.596  1.4144  0.2662  0.0326
 4616SOL     OW25306   1.718   1.415   7.061  0.2673  0.2915  0.1294
 4616SOL    HW125307   1.804   1.416   7.021  0.4581  0.0856  0.5311
 4616SOL    HW225308   1.707   1.507   7.082 -1.0701 -0.0941  1.1709
 4617SOL     OW25309   4.540   4.027   2.307 -0.1542  0.2330 -0.2564
 4617SOL    HW125310   4.636   4.031   2.307 -0.1162 -0.6772  1.1448
 4617SOL    HW225311   4.520   4.110   2.265 -0.6486  0.8122  1.1225
 4618SOL     OW25312   0.633   2.397   0.980  0.6055 -0.4687  0.3896
 4618SOL    HW125313   0.666   2.375   1.068 -2.3674 -0.9372  1.3717
 4618SOL    HW225314   0.575   2.471   0.998 -0.5901 -1.2010 -0.4972
 4619SOL     OW25315   2.761   2.565   7.614 -0.1363 -0.0739 -0.7435
 4619SOL    HW125316   2.810   2.491   7.650  0.9830  0.7381 -0.6101
 4619SOL    HW225317   2.765   2.628   7.686  1.5196 -0.6341 -0.3532
 4620SOL     OW25318   4.380   3.266   2.113 -0.5723 -0.7238 -0.2014
 4620SOL    HW125319   4.457   3.323   2.110 -2.2494  1.6475  1.7472
 4620SOL    HW225320   4.307   3.326   2.099  0.3076  0.0906 -1.2928
 4621SOL     OW25321   1.673   3.924   8.835  0.1557  0.4235  0.8010
 4621SOL    HW125322   1.701   3.897   8.922 -0.7959  1.7084  1.4992
 4621SOL    HW225323   1.580   3.907   8.849  0.5730 -2.2543  0.3627
 4622SOL     OW25324   1.973   4.077  15.534 -0.3941  0.1481  0.0950
 4622SOL    HW125325   2.036   4.146  15.555 -0.0493  0.9636 -3.4872
 4622SOL    HW225326   2.027   4.008  15.495 -0.9989  0.0127 -0.5100
 4623SOL     OW25327   3.509   4.096   2.140 -0.4629 -0.8934  0.2243
 4623SOL    HW125328   3.536   4.024   2.083  0.5267 -0.0566 -0.3645
 4623SOL    HW225329   3.550   4.080   2.225 -1.7940  1.8207  1.3658
 4624SOL     OW25330   2.979   1.470  10.187  0.1522 -0.1225 -0.3631
 4624SOL    HW125331   3.037   1.513  10.249  0.7191 -0.7307 -0.4757
 4624SOL    HW225332   2.970   1.384  10.228  0.4745  0.7494  1.5383
 4625SOL     OW25333   3.997   0.623  16.897  0.3118  0.2268 -0.4626
 4625SOL    HW125334   4.009   0.540  16.851 -0.3212 -1.7348  2.9142
 4625SOL    HW225335   4.062   0.682  16.859  1.9674 -0.2263  1.6929
 4626SOL     OW25336   0.404   4.484  13.519  0.1436  0.3677  0.5613
 4626SOL    HW125337   0.309   4.473  13.530  0.0360  0.6801 -0.1103
 4626SOL    HW225338   0.411   4.496  13.425 -1.6538  0.0927  0.3963
 4627SOL     OW25339   1.286   0.877  12.558 -0.3841 -0.4226 -0.4006
 4627SOL    HW125340   1.234   0.807  12.597 -1.5969  0.6152 -0.1720
 4627SOL    HW225341   1.336   0.834  12.488  1.4028 -1.3943  1.4728
 4628SOL     OW25342   2.067   0.974   8.241 -0.0222  0.1710  0.3418
 4628SOL    HW125343   2.113   1.059   8.238 -1.1503  0.6522 -2.8808
 4628SOL    HW225344   2.125   0.917   8.292 -0.9643  1.8690  3.3582
 4629SOL     OW25345   3.740   2.909  12.199  0.1105  0.3282  0.0737
 4629SOL    HW125346   3.719   2.815  12.195  1.4032  0.0776 -0.6722
 4629SOL    HW225347   3.779   2.932  12.283  2.9925  2.0126 -1.7493
 4630SOL     OW25348   0.385   2.334   4.504  0.0115  0.2268  0.3319
 4630SOL    HW125349   0.459   2.377   4.548 -0.8078  1.1708  0.7902
 4630SOL    HW225350   0.381   2.250   4.550 -1.6978 -0.6677 -1.4771
 4631SOL     OW25351   1.389   1.729   8.042 -0.4136  0.4709  0.0109
 4631SOL    HW125352   1.454   1.735   7.971 -2.2692  1.5770 -1.5747
 4631SOL    HW225353   1.372   1.635   8.050  0.5040  0.3277  0.3378
 4632SOL     OW25354   3.385   4.184   6.967  0.1426 -0.2490  0.2513
 4632SOL    HW125355   3.428   4.191   6.882  1.8723  0.2149  1.1487
 4632SOL    HW225356   3.440   4.132   7.025 -3.4678 -2.7795  1.3827
 4633SOL     OW25357   2.658   3.231   5.367 -0.2932 -0.1021  0.7085
 4633SOL    HW125358   2.695   3.267   5.286  0.2864 -0.5196  0.7860
 4633SOL    HW225359   2.659   3.136   5.352  1.1326 -0.5181  3.4371
 4634SOL     OW25360   3.981   1.186   5.937  0.4443 -0.0858 -0.4199
 4634SOL    HW125361   3.911   1.245   5.910  1.1270  1.0338  0.2023
 4634SOL    HW225362   4.018   1.233   6.012 -1.8946 -1.6249  1.6706
 4635SOL     OW25363   4.724   0.167   6.419 -0.1741 -0.2862  0.2739
 4635SOL    HW125364   4.723   0.090   6.363  0.6909 -0.3908  0.3904
 4635SOL    HW225365   4.635   0.190   6.446 -0.0041  0.7356 -0.0202
 4636SOL     OW25366   3.658   0.171   6.141 -0.3655  0.2144  0.2238
 4636SOL    HW125367   3.671   0.261   6.171  0.7953  0.1892 -0.2291
 4636SOL    HW225368   3.746   0.133   6.149 -0.8588 -1.2917 -1.4411
 4637SOL     OW25369   3.838   2.461   4.470 -0.9366 -0.0072  0.8953
 4637SOL    HW125370   3.803   2.550   4.473 -0.0642  0.3337  0.8367
 4637SOL    HW225371   3.923   2.492   4.501 -0.5359 -1.2936  1.0748
 4638SOL     OW25372   2.526   4.338  17.223 -0.2514  0.4287  0.4004
 4638SOL    HW125373   2.474   4.375  17.152  0.0641  0.4979  0.2078
 4638SOL    HW225374   2.514   4.396  17.298  1.2383  1.5453 -0.2305
 4639SOL     OW25375   3.912   4.715  15.972 -0.4466  0.2137  0.1033
 4639SOL    HW125376   3.831   4.721  16.023  1.1593  0.6824  2.6083
 4639SOL    HW225377   3.875   4.690  15.888 -0.9559  1.8641 -0.1741
 4640SOL     OW25378   2.992   4.354   8.815  0.1156  0.8214  0.2591
 4640SOL    HW125379   2.926   4.369   8.883 -0.2116  1.3545 -0.1736
 4640SOL    HW225380   2.995   4.259   8.809 -1.9821  0.7921 -0.4464
 4641SOL     OW25381   0.674   3.507   6.764 -0.7834 -0.1494 -0.7041
 4641SOL    HW125382   0.649   3.560   6.689 -2.6733  1.8711  1.3720
 4641SOL    HW225383   0.767   3.527   6.761 -0.5371 -0.7521  2.4827
 4642SOL     OW25384   3.139   1.463   7.299 -0.4375  0.1573 -0.3985
 4642SOL    HW125385   3.072   1.528   7.276  0.9045  1.6306 -0.0757
 4642SOL    HW225386   3.213   1.522   7.313  1.8274 -2.4498 -1.5609
 4643SOL     OW25387   2.084   0.529  10.695 -0.0035 -0.2123 -0.1556
 4643SOL    HW125388   2.050   0.613  10.724  1.3387  0.8226 -1.6250
 4643SOL    HW225389   2.163   0.553  10.647  0.5808  1.4056  1.6337
 4644SOL     OW25390   3.737   1.834  11.711 -0.2455 -0.2306 -0.1876
 4644SOL    HW125391   3.827   1.826  11.743  0.5798  3.1948 -1.5923
 4644SOL    HW225392   3.739   1.912  11.655 -1.3146  0.0542  0.1714
 4645SOL     OW25393   3.503   4.301   7.306 -0.1693  0.0093 -0.7141
 4645SOL    HW125394   3.597   4.312   7.297  0.0893 -1.3349  0.2767
 4645SOL    HW225395   3.476   4.378   7.257 -1.1454  1.0971  1.5364
 4646SOL     OW25396   2.531   4.039   2.971  0.0817  0.0448 -0.2969
 4646SOL    HW125397   2.579   3.958   2.951 -0.8643 -0.3867 -0.7997
 4646SOL    HW225398   2.453   4.026   2.918  0.2869 -0.4754 -0.4797
 4647SOL     OW25399   0.569   1.103  13.382  0.1019  0.2060  0.3663
 4647SOL    HW125400   0.524   1.172  13.334 -0.1773 -0.8017 -0.8306
 4647SOL    HW225401   0.597   1.052  13.306 -1.3388 -1.0015  0.6397
 4648SOL     OW25402   0.644   1.258   2.514  0.5947 -0.9742  0.0811
 4648SOL    HW125403   0.646   1.337   2.569 -0.4350 -0.6459 -0.3473
 4648SOL    HW225404   0.599   1.292   2.437 -0.2943 -3.2242 -0.3780
 4649SOL     OW25405   2.075   2.742   3.685 -0.6061  0.5576 -0.4089
 4649SOL    HW125406   2.144   2.802   3.658  0.3504 -0.1313  0.5076
 4649SOL    HW225407   2.038   2.761   3.598 -1.4962  1.3856  0.1587
 4650SOL     OW25408   1.606   3.985   5.013  0.1121  0.2991  0.5426
 4650SOL    HW125409   1.604   4.079   5.029 -0.0039  0.2155  1.0103
 4650SOL    HW225410   1.587   3.941   5.096  1.3792  0.0383  0.7075
 4651SOL     OW25411   3.046   3.200   4.544  0.5368  0.3130 -0.0246
 4651SOL    HW125412   3.014   3.114   4.515  0.8577  0.2850 -0.2960
 4651SOL    HW225413   3.132   3.168   4.570 -0.9212 -1.9145  2.0100
 4652SOL     OW25414   2.279   4.108   1.571  0.0167  0.3661 -0.6604
 4652SOL    HW125415   2.268   4.192   1.527 -2.1413 -0.3936 -1.5702
 4652SOL    HW225416   2.264   4.043   1.503 -2.6022 -0.6718  0.8951
 4653SOL     OW25417   0.399   0.293  12.754  0.0670 -0.5225  0.0907
 4653SOL    HW125418   0.492   0.317  12.755 -0.7678  2.6808  1.5599
 4653SOL    HW225419   0.384   0.209  12.712 -1.3330  0.7953 -2.0349
 4654SOL     OW25420   3.333   3.723   8.342 -0.3247 -0.3761 -0.0490
 4654SOL    HW125421   3.402   3.788   8.339  0.0143 -0.6910  0.9379
 4654SOL    HW225422   3.306   3.723   8.434  0.7214  2.4026  0.2450
 4655SOL     OW25423   1.126   3.312   8.070 -0.1882 -0.7563 -0.1416
 4655SOL    HW125424   1.156   3.401   8.051  0.3405 -0.9255 -0.0998
 4655SOL    HW225425   1.210   3.266   8.062 -0.0501  0.0623 -3.1600
 4656SOL     OW25426   3.566   2.013  14.469 -0.3659 -0.1257 -0.5402
 4656SOL    HW125427   3.652   1.994  14.430 -0.0455  0.1317  0.0429
 4656SOL    HW225428   3.516   2.029  14.389 -0.5661  0.2612 -0.3327
 4657SOL     OW25429   3.321   0.781   7.778  0.9229 -0.0326 -0.0604
 4657SOL    HW125430   3.308   0.689   7.802  1.4174 -0.0273  0.2177
 4657SOL    HW225431   3.388   0.808   7.839  1.5660 -0.7684 -0.4313
 4658SOL     OW25432   1.705   2.090   7.874 -0.1275  0.2853  0.2844
 4658SOL    HW125433   1.661   2.114   7.793  0.8767  0.8563 -0.0856
 4658SOL    HW225434   1.743   2.175   7.895 -1.5861  0.9581  0.2078
 4659SOL     OW25435   3.484   4.086   2.464 -0.1443 -0.7017  0.1133
 4659SOL    HW125436   3.551   4.050   2.522  0.6523  2.3444  1.0894
 4659SOL    HW225437   3.436   4.006   2.442 -1.9696  0.3336  0.3344
 4660SOL     OW25438   3.362   4.432   5.233  0.4645  0.5668 -0.0139
 4660SOL    HW125439   3.338   4.340   5.245 -2.9127  1.2218 -1.8917
 4660SOL    HW225440   3.308   4.482   5.294 -2.1881 -1.4707 -0.6904
 4661SOL     OW25441   3.373   1.454  16.076 -0.0914  0.0344 -0.6653
 4661SOL    HW125442   3.291   1.412  16.101  0.0097  0.4225  0.3068
 4661SOL    HW225443   3.345   1.522  16.014  0.8142  1.0264  0.0287
 4662SOL     OW25444   4.439   1.639   1.738 -0.9444 -0.3289 -0.0562
 4662SOL    HW125445   4.380   1.590   1.680 -0.8986 -1.3330  0.7513
 4662SOL    HW225446   4.421   1.730   1.715  1.4129  0.0510 -0.4755
 4663SOL     OW25447   4.291   1.628   0.692  0.1065 -0.1777  0.3655
 4663SOL    HW125448   4.306   1.550   0.639 -1.3247  0.3646 -0.8404
 4663SOL    HW225449   4.295   1.704   0.634  0.6806  1.0541  2.0189
 4664SOL     OW25450   0.741   3.399   8.733 -0.1129  0.4462  0.1358
 4664SOL    HW125451   0.751   3.492   8.713  2.0019 -0.0165 -0.9961
 4664SOL    HW225452   0.828   3.360   8.719 -0.3888  0.2197 -0.9439
 4665SOL     OW25453   4.655   0.036   2.307  0.3828  0.2511 -0.3743
 4665SOL    HW125454   0.005   0.087   2.277  0.3501  1.7549  2.0831
 4665SOL    HW225455   4.686   4.702   2.375  0.0257 -1.3243 -1.5984
 4666SOL     OW25456   2.453   2.624   4.622 -0.7953 -0.1538 -0.0490
 4666SOL    HW125457   2.384   2.614   4.557  0.1617 -0.5083 -0.9992
 4666SOL    HW225458   2.397   2.684   4.671 -0.6732  1.5406 -2.0209
 4667SOL     OW25459   2.527   3.038   8.592 -0.4801  0.1036 -0.4154
 4667SOL    HW125460   2.497   2.976   8.658 -0.8732  1.2804  0.5037
 4667SOL    HW225461   2.458   3.105   8.591 -0.2239  0.3637 -0.6953
 4668SOL     OW25462   4.378   3.278   7.228 -0.1859 -0.9724 -0.3484
 4668SOL    HW125463   4.369   3.198   7.279  1.2640 -2.0023 -1.6984
 4668SOL    HW225464   4.357   3.256   7.137  0.7303 -0.5461 -0.6696
 4669SOL     OW25465   3.373   1.223   7.816  0.1051  0.5763  0.1853
 4669SOL    HW125466   3.288   1.186   7.794  0.3260  0.3695 -0.3310
 4669SOL    HW225467   3.408   1.248   7.730 -2.1315 -0.3322 -0.9966
 4670SOL     OW25468   4.368   4.459   5.248  0.2644  0.1162 -0.3853
 4670SOL    HW125469   4.322   4.485   5.328 -0.7826  1.3265 -1.3687
 4670SOL    HW225470   4.450   4.436   5.290 -0.1224  0.6245  0.6651
 4671SOL     OW25471   1.568   0.207   3.403 -0.2451 -0.0414 -0.1539
 4671SOL    HW125472   1.650   0.232   3.361  0.6423 -2.8808 -0.1360
 4671SOL    HW225473   1.518   0.272   3.353  0.3077  0.4657 -0.0452
 4672SOL     OW25474   2.537   3.774   7.842  0.4531 -0.4465 -0.0039
 4672SOL    HW125475   2.587   3.832   7.899 -0.8770  1.1693 -0.4774
 4672SOL    HW225476   2.550   3.811   7.755 -0.5736  3.0541  1.3535
 4673SOL     OW25477   1.789   2.377   7.894  0.7456  0.2614 -0.0212
 4673SOL    HW125478   1.700   2.410   7.882  0.4576 -0.6276 -0.3256
 4673SOL    HW225479   1.846   2.448   7.864  0.7287  0.5654  0.6566
 4674SOL     OW25480   3.696   2.460   3.177  0.1706  0.2291  0.3076
 4674SOL    HW125481   3.634   2.532   3.180 -1.4139 -1.1817  1.7143
 4674SOL    HW225482   3.645   2.413   3.243 -0.2710  2.8802  1.8365
 4675SOL     OW25483   1.200   4.205   9.036 -0.7795  0.7200  0.2362
 4675SOL    HW125484   1.213   4.226   9.128 -2.3629  1.6938  0.2457
 4675SOL    HW225485   1.284   4.160   9.034 -1.4638 -0.5733  0.7870
 4676SOL     OW25486   2.017   0.809   7.904  0.6101 -0.0840  0.2433
 4676SOL    HW125487   1.953   0.867   7.946  0.6241 -0.0046  0.1553
 4676SOL    HW225488   1.962   0.737   7.874  0.7879 -0.6340  1.2294
 4677SOL     OW25489   0.759   2.689   2.574 -0.0929 -1.3470  0.5311
 4677SOL    HW125490   0.778   2.775   2.534  0.5438 -2.1803 -0.9880
 4677SOL    HW225491   0.835   2.645   2.535  1.4159  1.4753  0.3047
 4678SOL     OW25492   1.577   2.184   5.721  0.1395  0.0932  0.1570
 4678SOL    HW125493   1.666   2.161   5.694  0.0810  1.7302 -1.3971
 4678SOL    HW225494   1.604   2.235   5.798 -0.3883  0.9529 -0.2332
 4679SOL     OW25495   3.501   4.658  15.871  0.4518  0.1241  0.0702
 4679SOL    HW125496   3.580   4.681  15.822  0.4756 -0.2573 -0.0719
 4679SOL    HW225497   3.525   4.702  15.952  0.8296 -0.3177  0.1932
 4680SOL     OW25498   1.204   3.653  16.667  0.2888  0.1840 -0.2578
 4680SOL    HW125499   1.141   3.589  16.699 -1.5533  1.2212 -1.8075
 4680SOL    HW225500   1.145   3.728  16.678 -0.2501 -0.4532  1.1769
 4681SOL     OW25501   0.131   2.086   5.644 -0.3794  0.6306  0.1217
 4681SOL    HW125502   0.194   2.063   5.576 -0.1857 -1.3434  0.9871
 4681SOL    HW225503   0.186   2.110   5.718  0.3939 -1.3398  0.1825
 4682SOL     OW25504   2.501   1.776   3.160  0.2164 -0.7927 -0.1394
 4682SOL    HW125505   2.524   1.764   3.068  1.0935 -1.0785  0.1233
 4682SOL    HW225506   2.407   1.799   3.161  0.6977  1.1380  1.2739
 4683SOL     OW25507   3.829   3.312   7.387  0.1824  0.6774 -0.1614
 4683SOL    HW125508   3.756   3.370   7.368 -0.4102 -0.1304 -0.3205
 4683SOL    HW225509   3.809   3.299   7.480  0.7807 -0.3471 -0.1752
 4684SOL     OW25510   1.867   4.116   1.012 -0.1430 -1.2511  0.2807
 4684SOL    HW125511   1.925   4.174   0.964 -2.0274 -0.1825 -0.6922
 4684SOL    HW225512   1.902   4.118   1.102 -1.5283  1.2846  0.7561
 4685SOL     OW25513   3.322   2.641   3.027  0.2632  0.3759  0.0308
 4685SOL    HW125514   3.266   2.631   2.950  0.8176  2.7569 -0.6678
 4685SOL    HW225515   3.288   2.572   3.084 -0.8149  1.1965  0.3723
 4686SOL     OW25516   1.341   2.619  11.594 -0.0532 -0.3249 -0.2213
 4686SOL    HW125517   1.318   2.646  11.505  1.1145 -2.2848 -1.1123
 4686SOL    HW225518   1.269   2.565  11.627  0.2024 -0.5383 -0.0093
 4687SOL     OW25519   4.179   3.469   6.126 -0.6081 -0.5796  1.3076
 4687SOL    HW125520   4.237   3.544   6.140 -1.2432  0.0778  0.4061
 4687SOL    HW225521   4.098   3.509   6.157  0.2234  1.4023  0.9361
 4688SOL     OW25522   2.335   2.677   5.675  0.4832 -0.1221  0.6908
 4688SOL    HW125523   2.425   2.646   5.677  1.0377  1.4236 -0.3244
 4688SOL    HW225524   2.317   2.693   5.768 -0.7292  0.8619  0.2788
 4689SOL     OW25525   0.559   2.859  13.741  0.3230 -0.0799  0.1176
 4689SOL    HW125526   0.540   2.823  13.654 -0.8895  1.4458 -0.2375
 4689SOL    HW225527   0.474   2.853  13.784  0.0261 -1.3464 -0.6240
 4690SOL     OW25528   3.750   2.249   7.976  0.0246  0.2765 -0.6867
 4690SOL    HW125529   3.748   2.277   8.067  3.2021 -2.0035  0.0704
 4690SOL    HW225530   3.666   2.282   7.945  0.1564  0.4098 -0.9003
 4691SOL     OW25531   2.966   3.656   6.128 -0.5387  0.0728  0.1020
 4691SOL    HW125532   2.895   3.642   6.066  0.5382 -1.1675 -0.8620
 4691SOL    HW225533   2.914   3.711   6.186  0.5385  0.3739  0.7957
 4692SOL     OW25534   1.038   1.088   9.973 -0.4315 -0.4135  0.2636
 4692SOL    HW125535   1.071   1.169   9.933  0.3179 -1.2095 -0.7363
 4692SOL    HW225536   1.122   1.053  10.003 -0.5221 -0.5410  0.3692
 4693SOL     OW25537   4.011   4.291   8.162  0.9827 -0.4141  0.0159
 4693SOL    HW125538   3.946   4.261   8.226 -0.2631 -0.2725 -1.1939
 4693SOL    HW225539   4.005   4.219   8.099 -1.9844 -0.2279  0.1004
 4694SOL     OW25540   1.028   2.969  11.911 -0.8604  0.2628  0.5530
 4694SOL    HW125541   1.108   2.920  11.894 -1.6051 -0.6533 -0.2799
 4694SOL    HW225542   0.977   2.950  11.832 -2.8964  5.1951  0.6986
 4695SOL     OW25543   0.075   1.113  16.890 -0.0764 -0.1997  0.7699
 4695SOL    HW125544   0.088   1.019  16.894 -0.2321 -0.2712 -0.3279
 4695SOL    HW225545   4.726   1.114  16.831  0.8078  2.5289 -0.2963
 4696SOL     OW25546   3.657   0.947   8.325 -0.2106 -0.4786 -0.0541
 4696SOL    HW125547   3.634   1.033   8.290  1.6787  0.0822  0.1182
 4696SOL    HW225548   3.752   0.950   8.334 -0.0584 -0.9114 -1.4688
 4697SOL     OW25549   4.620   0.370  10.001 -0.8689 -0.2015  0.2941
 4697SOL    HW125550   4.670   0.320   9.936 -1.5209 -0.7969  0.2475
 4697SOL    HW225551   4.590   0.444   9.948  0.9261 -1.1516 -2.0465
 4698SOL     OW25552   1.843   3.423   5.645  0.4451  0.3416 -0.0677
 4698SOL    HW125553   1.804   3.508   5.625  0.0182 -0.2129 -1.6346
 4698SOL    HW225554   1.838   3.378   5.560  0.0640  0.5902 -0.1761
 4699SOL     OW25555   0.471   0.043   7.300 -0.0401 -0.3855 -0.2428
 4699SOL    HW125556   0.403   4.713   7.262 -0.2783 -1.2730  1.4943
 4699SOL    HW225557   0.449   0.136   7.295  1.0706 -0.2545 -2.9440
 4700SOL     OW25558   0.085   0.657   3.839  0.4790 -0.0297  0.2737
 4700SOL    HW125559   0.072   0.587   3.776  0.9589 -0.7968  1.0253
 4700SOL    HW225560   0.180   0.653   3.827  0.5925 -2.1873  1.9959
 4701SOL     OW25561   0.075   1.838   2.733  0.5435 -0.1371 -0.2197
 4701SOL    HW125562   4.721   1.829   2.785  0.8814  1.0692  0.5179
 4701SOL    HW225563   0.049   1.906   2.670  0.4061 -0.2644 -0.2990
 4702SOL     OW25564   1.333   1.664  10.019  0.5432  0.1638  0.1844
 4702SOL    HW125565   1.394   1.617  10.077  0.5694 -0.9747 -0.7472
 4702SOL    HW225566   1.386   1.687   9.943  1.9895  0.6385  1.3281
 4703SOL     OW25567   1.485   1.326   0.926 -0.2014  0.1524 -0.1942
 4703SOL    HW125568   1.425   1.399   0.941  1.1214  1.1597  0.1944
 4703SOL    HW225569   1.562   1.362   0.971 -0.9418  1.1044  0.3105
 4704SOL     OW25570   2.253   1.066   7.304 -0.0716  0.3168 -0.5066
 4704SOL    HW125571   2.196   1.109   7.368 -0.3750  2.3500 -2.1316
 4704SOL    HW225572   2.242   1.128   7.232  0.2818  1.9541  0.8448
 4705SOL     OW25573   3.949   1.535  14.847 -0.6859  0.1287  0.7145
 4705SOL    HW125574   3.955   1.516  14.754 -0.7800 -0.9213  0.9255
 4705SOL    HW225575   4.043   1.532  14.861 -0.4383  1.1024 -0.7476
 4706SOL     OW25576   1.051   1.842  11.459 -0.3246 -0.0699 -0.0058
 4706SOL    HW125577   1.037   1.935  11.441 -1.7774 -0.2721  0.0931
 4706SOL    HW225578   1.056   1.805  11.371  1.6253  1.3742 -0.4954
 4707SOL     OW25579   1.221   4.338   7.356  0.3929 -0.3355  0.2518
 4707SOL    HW125580   1.210   4.316   7.263  0.7286 -0.1024  0.1555
 4707SOL    HW225581   1.206   4.253   7.396  0.0292 -0.7854 -0.8253
 4708SOL     OW25582   4.571   1.734  16.514 -0.0298 -0.1692 -0.2408
 4708SOL    HW125583   4.560   1.660  16.455  0.1065 -1.5250  1.4251
 4708SOL    HW225584   4.665   1.737  16.533  0.0880 -1.5592 -0.6458
 4709SOL     OW25585   0.668   1.944   8.026  0.6410  0.0863  0.3600
 4709SOL    HW125586   0.583   1.985   8.045  0.6661  0.9841 -1.4127
 4709SOL    HW225587   0.718   1.967   8.104 -1.6939  1.4389  1.4540
 4710SOL     OW25588   2.717   2.049  13.262 -0.4426  0.0771  0.6726
 4710SOL    HW125589   2.651   2.066  13.329  0.1226  4.2577  0.1618
 4710SOL    HW225590   2.684   1.969  13.220  1.1674  0.1401 -0.7164
 4711SOL     OW25591   4.126   1.036   9.178  0.5032  0.3094  0.4039
 4711SOL    HW125592   4.192   1.026   9.109  0.0834  1.2989 -0.1482
 4711SOL    HW225593   4.050   1.002   9.132  1.1002  0.1187 -0.4414
 4712SOL     OW25594   3.258   3.199   2.750  0.1183  0.5450  0.8406
 4712SOL    HW125595   3.239   3.284   2.709  0.0021  1.0112  1.8356
 4712SOL    HW225596   3.270   3.139   2.677 -0.7679  0.9126  0.3937
 4713SOL     OW25597   0.300   0.177  14.347  0.7043 -0.6527 -0.1872
 4713SOL    HW125598   0.321   0.208  14.259 -0.9249  0.8163 -0.0543
 4713SOL    HW225599   0.249   0.253  14.376  1.0639 -0.3531 -0.3297
 4714SOL     OW25600   0.271   2.573   6.601  0.6108 -0.1025 -0.3292
 4714SOL    HW125601   0.257   2.516   6.677 -1.0277 -0.4191 -0.8798
 4714SOL    HW225602   0.224   2.527   6.532  0.2445  0.7123 -0.6169
 4715SOL     OW25603   1.081   4.116   8.479 -0.2698  0.2128  0.5486
 4715SOL    HW125604   1.106   4.198   8.435  0.8540 -0.8468 -0.7835
 4715SOL    HW225605   0.986   4.122   8.487 -0.2969  0.3831  0.0969
 4716SOL     OW25606   0.068   1.389  11.302  0.7116  0.3171 -0.3498
 4716SOL    HW125607   0.147   1.434  11.332  1.4830 -0.2750 -1.5107
 4716SOL    HW225608   0.003   1.459  11.301  1.2322  0.8134  0.4373
 4717SOL     OW25609   3.522   0.490   8.097  0.2255  0.0832 -0.2004
 4717SOL    HW125610   3.570   0.570   8.118 -2.3266  1.1996  1.3180
 4717SOL    HW225611   3.576   0.424   8.141  0.5986  0.9741  0.6731
 4718SOL     OW25612   0.368   2.201   6.956 -0.1946 -0.2252  0.5922
 4718SOL    HW125613   0.318   2.119   6.962 -1.1716  0.2307 -1.1657
 4718SOL    HW225614   0.445   2.182   7.009  0.8035  1.2245 -0.3363
 4719SOL     OW25615   2.875   1.484   1.948  0.0811 -0.3717  0.2439
 4719SOL    HW125616   2.808   1.473   1.881 -0.1839  1.7739  0.1464
 4719SOL    HW225617   2.877   1.398   1.990  2.4805 -0.8831 -0.9256
 4720SOL     OW25618   3.064   4.297   7.829 -0.1809  0.1392 -0.2013
 4720SOL    HW125619   3.028   4.373   7.875 -0.4444  0.1672 -0.4534
 4720SOL    HW225620   3.107   4.340   7.755 -1.3813 -0.6939 -1.3921
 4721SOL     OW25621   0.649   0.688   3.578 -0.3592 -0.2149 -0.6524
 4721SOL    HW125622   0.718   0.639   3.622  0.8548  1.9839 -0.1321
 4721SOL    HW225623   0.660   0.778   3.608 -0.1687 -1.4202  2.9614
 4722SOL     OW25624   2.678   2.304   9.066 -0.6779  0.3775  0.3121
 4722SOL    HW125625   2.673   2.382   9.010  1.5963  0.3255  0.0032
 4722SOL    HW225626   2.702   2.341   9.151 -1.2165 -1.7073  1.3588
 4723SOL     OW25627   3.231   2.220   1.966  0.2149 -0.1393  0.9102
 4723SOL    HW125628   3.326   2.221   1.958  0.1719  1.6729  0.6536
 4723SOL    HW225629   3.229   2.156   2.038 -1.3447  0.0573  1.0479
 4724SOL     OW25630   4.631   3.997  16.092  0.6869  0.3901 -0.0338
 4724SOL    HW125631   4.695   4.055  16.051  0.5011 -0.1086 -1.0353
 4724SOL    HW225632   4.629   4.038  16.178 -0.3315 -0.0568  0.1515
 4725SOL     OW25633   3.495   3.540   8.039 -1.0843 -0.1377  0.0020
 4725SOL    HW125634   3.402   3.555   8.024 -0.9567  0.8552  0.1639
 4725SOL    HW225635   3.504   3.547   8.135  3.1051  0.1347 -0.3962
 4726SOL     OW25636   2.244   4.477   5.538 -0.1594 -0.5478 -0.4717
 4726SOL    HW125637   2.239   4.545   5.471  0.2291 -0.9924 -0.9520
 4726SOL    HW225638   2.154   4.447   5.554 -0.4850  0.0754 -1.1386
 4727SOL     OW25639   3.055   1.168   3.808  0.1896 -0.0582  0.1479
 4727SOL    HW125640   3.070   1.123   3.891 -0.7162  1.0458  0.9044
 4727SOL    HW225641   2.966   1.190   3.835 -0.2510 -0.8257 -0.6570
 4728SOL     OW25642   2.095   0.879  12.499  0.1691 -0.1697 -0.5820
 4728SOL    HW125643   2.023   0.851  12.556 -0.4144  0.6061 -0.9352
 4728SOL    HW225644   2.052   0.899  12.415  0.3398 -1.8008 -1.0497
 4729SOL     OW25645   0.320   0.216  16.666 -0.0196  0.1477  0.0495
 4729SOL    HW125646   0.230   0.247  16.658  0.0184 -0.3153 -1.9778
 4729SOL    HW225647   0.312   0.122  16.652  2.3221  0.0760 -0.7685
 4730SOL     OW25648   3.831   2.940  11.517 -0.2411  0.4992 -0.4399
 4730SOL    HW125649   3.904   2.883  11.494  0.3074  1.8662 -2.0710
 4730SOL    HW225650   3.801   2.899  11.598 -0.8889  1.3954 -0.2169
 4731SOL     OW25651   2.328   4.566  10.271 -0.1310  0.1324 -0.6356
 4731SOL    HW125652   2.409   4.538  10.313 -0.7060  0.3084  0.6099
 4731SOL    HW225653   2.298   4.485  10.229 -1.7198 -0.6154  1.9338
 4732SOL     OW25654   3.338   1.343   6.666  0.8563 -0.2580 -0.1406
 4732SOL    HW125655   3.328   1.313   6.756 -1.1960  0.6583 -0.0481
 4732SOL    HW225656   3.426   1.311   6.648  0.8583 -1.3669  1.8596
 4733SOL     OW25657   1.000   3.315   8.640 -0.3941 -0.1146  0.2379
 4733SOL    HW125658   1.054   3.385   8.603  1.5850 -2.3163 -1.0520
 4733SOL    HW225659   1.024   3.248   8.576 -1.8998 -2.7571  2.4185
 4734SOL     OW25660   2.576   4.393  13.746  0.0597  1.0407  0.6207
 4734SOL    HW125661   2.614   4.327  13.804  1.4133  0.8726 -0.4520
 4734SOL    HW225662   2.493   4.392  13.794  1.1066 -1.8006  2.3531
 4735SOL     OW25663   0.044   2.750  14.793 -0.0621  0.1412  0.5538
 4735SOL    HW125664   4.676   2.767  14.799 -0.7208 -2.7205 -1.1631
 4735SOL    HW225665   0.064   2.841  14.812 -2.1859 -0.0757  3.6647
 4736SOL     OW25666   2.113   1.731   8.062  0.0488  0.2994 -0.0432
 4736SOL    HW125667   2.158   1.788   8.124 -1.1281  2.1338 -0.8756
 4736SOL    HW225668   2.141   1.770   7.979 -0.8808  2.1183  0.5110
 4737SOL     OW25669   1.288   1.406   4.176  0.3921  0.3570 -0.0125
 4737SOL    HW125670   1.368   1.391   4.126  1.1804 -1.8857  1.9230
 4737SOL    HW225671   1.311   1.357   4.255  0.2372  1.1255  0.5138
 4738SOL     OW25672   3.558   2.401   9.874 -0.6481  0.2401 -0.5521
 4738SOL    HW125673   3.593   2.317   9.904 -0.7753  0.5308  0.4263
 4738SOL    HW225674   3.643   2.446   9.872  0.7953 -2.5855 -2.2251
 4739SOL     OW25675   0.998   2.753  14.256 -0.0627  0.1297 -0.4723
 4739SOL    HW125676   0.908   2.774  14.232  0.5733 -0.2433 -3.2161
 4739SOL    HW225677   1.054   2.803  14.197  0.2493 -0.7917 -0.9612
 4740SOL     OW25678   0.263   0.941   7.662 -0.6212 -0.3646  0.0175
 4740SOL    HW125679   0.231   0.958   7.573  0.4936 -1.1434 -0.5278
 4740SOL    HW225680   0.269   0.846   7.660 -0.0195 -0.3449  0.8407
 4741SOL     OW25681   4.488   1.044   7.146  0.0909 -0.2531 -0.5578
 4741SOL    HW125682   4.394   1.030   7.134 -0.1648  0.7400  0.2202
 4741SOL    HW225683   4.518   1.060   7.056 -1.3346  0.1209 -0.9708
 4742SOL     OW25684   1.427   3.647   8.938  0.1651 -0.2999  0.6336
 4742SOL    HW125685   1.344   3.602   8.921  0.6741 -0.6473 -0.9326
 4742SOL    HW225686   1.402   3.720   8.995  2.0273 -0.6882  1.9451
 4743SOL     OW25687   0.598   0.921   3.113  0.1906 -0.2549  0.2909
 4743SOL    HW125688   0.515   0.937   3.159  0.6598 -0.8892  1.3468
 4743SOL    HW225689   0.646   0.875   3.182  2.2400  0.9331 -0.3513
 4744SOL     OW25690   0.022   1.857   4.604  0.3123 -0.5855 -0.4805
 4744SOL    HW125691   0.072   1.853   4.522  0.7366 -2.8193 -0.0993
 4744SOL    HW225692   4.660   1.854   4.567  0.0108 -1.2745  0.2924
 4745SOL     OW25693   1.968   1.620   8.444 -0.0263 -0.6824 -0.5400
 4745SOL    HW125694   2.039   1.598   8.504  0.0586  2.8463  0.6737
 4745SOL    HW225695   1.973   1.714   8.429 -0.5599 -0.6434 -0.4884
 4746SOL     OW25696   3.174   3.793   5.968  0.3136  0.2667  0.3302
 4746SOL    HW125697   3.118   3.756   6.036  0.4204  1.4763  1.0820
 4746SOL    HW225698   3.128   3.751   5.895  3.1744 -2.2092 -0.0064
 4747SOL     OW25699   0.254   1.541   8.444 -0.1341  0.6270  0.1056
 4747SOL    HW125700   0.291   1.538   8.533 -0.3424  2.4446  0.2413
 4747SOL    HW225701   0.190   1.611   8.450 -1.1151 -0.4060  1.9875
 4748SOL     OW25702   2.614   1.896   2.530 -0.4098  0.0053 -0.4515
 4748SOL    HW125703   2.539   1.931   2.482  0.1949 -0.5961 -1.8092
 4748SOL    HW225704   2.563   1.877   2.609 -1.1386  0.6882 -0.7500
 4749SOL     OW25705   2.716   0.886  17.356 -0.1328 -0.3947 -0.1115
 4749SOL    HW125706   2.680   0.813  17.306 -0.3325  0.1089 -0.7031
 4749SOL    HW225707   2.786   0.844  17.406 -1.7905 -1.7804  1.0763
 4750SOL     OW25708   1.242   3.945   2.046  0.5841 -0.0170 -0.4580
 4750SOL    HW125709   1.248   4.022   2.102  1.6929  0.5325 -1.3355
 4750SOL    HW225710   1.286   3.883   2.103 -1.3673  1.9950  3.2211
 4751SOL     OW25711   2.188   4.314   3.770 -0.1332  0.2072  0.7329
 4751SOL    HW125712   2.205   4.246   3.835  0.7361 -0.7036 -0.4404
 4751SOL    HW225713   2.218   4.277   3.686 -1.5008  0.4301  0.1466
 4752SOL     OW25714   0.541   3.340  13.010  0.1960  0.8108  0.0539
 4752SOL    HW125715   0.602   3.376  12.945  1.2021 -0.6351  0.1916
 4752SOL    HW225716   0.469   3.402  12.999 -0.1034  0.6040  0.9249
 4753SOL     OW25717   1.771   0.018   7.115 -0.4420 -0.4691 -0.3980
 4753SOL    HW125718   1.858   0.032   7.153 -1.0135  0.1834  0.6698
 4753SOL    HW225719   1.751   4.665   7.166  1.9529 -1.1576 -0.5070
 4754SOL     OW25720   2.059   1.356   4.276 -0.1385 -0.2220 -0.1234
 4754SOL    HW125721   2.153   1.370   4.287  0.3056 -2.1676 -1.3516
 4754SOL    HW225722   2.014   1.422   4.329 -1.1672  0.7243 -2.1939
 4755SOL     OW25723   3.238   1.414   8.381 -0.4900 -0.3823 -0.3085
 4755SOL    HW125724   3.164   1.357   8.404 -1.1775 -0.4480 -2.6507
 4755SOL    HW225725   3.313   1.361   8.405  2.6353  4.3650  0.4944
 4756SOL     OW25726   0.843   2.072   2.694  0.1248 -0.0114 -0.4061
 4756SOL    HW125727   0.824   2.096   2.784  1.4620  0.9492 -0.3775
 4756SOL    HW225728   0.760   2.101   2.655 -0.4231 -1.0739 -0.0095
 4757SOL     OW25729   0.180   1.398   6.356 -0.1631  0.2555 -0.2594
 4757SOL    HW125730   0.092   1.395   6.393 -0.2395  1.6028 -0.3495
 4757SOL    HW225731   0.152   1.436   6.273  0.2771  0.3415 -0.3696
 4758SOL     OW25732   0.169   4.534   0.314 -0.4255  0.3375  0.2045
 4758SOL    HW125733   0.258   4.562   0.337 -0.3005 -0.7859  1.0620
 4758SOL    HW225734   0.180   4.500   0.225  0.1454 -1.3803  0.9327
 4759SOL     OW25735   0.946   3.002   8.988 -0.0469 -0.1228 -0.1238
 4759SOL    HW125736   0.978   3.085   8.952 -0.2053 -0.0944 -0.2010
 4759SOL    HW225737   1.021   2.955   9.025  0.3925  1.7405  1.3375
 4760SOL     OW25738   2.264   1.288  13.719 -0.1044 -0.3203 -0.0919
 4760SOL    HW125739   2.283   1.233  13.796  1.6688 -0.4795 -0.6541
 4760SOL    HW225740   2.226   1.232  13.652 -0.9953 -2.8804  2.5370
 4761SOL     OW25741   0.819   2.320   6.760  0.3514 -0.0278 -0.3731
 4761SOL    HW125742   0.768   2.295   6.837 -1.5235  0.7367 -1.3763
 4761SOL    HW225743   0.853   2.404   6.793  0.5713  0.0560 -0.8171
 4762SOL     OW25744   1.703   4.489   0.409  0.0303  0.4632  0.4779
 4762SOL    HW125745   1.779   4.528   0.451  0.9526 -1.4707  0.5845
 4762SOL    HW225746   1.691   4.558   0.344  0.1437 -0.0587 -0.0933
 4763SOL     OW25747   4.342   4.577   9.453 -0.2241  0.7589  0.7750
 4763SOL    HW125748   4.252   4.546   9.439  0.4295 -0.1067 -1.3434
 4763SOL    HW225749   4.374   4.522   9.525  0.3517  0.0702 -0.0177
 4764SOL     OW25750   1.177   1.296   9.881 -0.4230  0.5910 -0.3832
 4764SOL    HW125751   1.226   1.263   9.806 -3.0422  0.8607 -2.2187
 4764SOL    HW225752   1.168   1.387   9.853 -1.3058  0.7067  0.2832
 4765SOL     OW25753   4.054   3.247   6.529 -0.9467 -0.4300 -0.1179
 4765SOL    HW125754   3.964   3.216   6.526 -1.6713  1.6305  0.2713
 4765SOL    HW225755   4.094   3.169   6.568  0.5659 -0.1262 -1.0651
 4766SOL     OW25756   2.171   3.077   5.482 -0.3515  0.0762  0.1634
 4766SOL    HW125757   2.264   3.094   5.501  0.1930 -1.9611 -0.6172
 4766SOL    HW225758   2.167   3.109   5.392 -0.8547 -0.7512 -0.1076
 4767SOL     OW25759   0.761   4.710  11.272  0.5699  0.0818  0.0565
 4767SOL    HW125760   0.800   4.682  11.355 -1.0860  1.9994  1.4643
 4767SOL    HW225761   0.824   0.039  11.226 -0.9104  1.3961 -0.4175
 4768SOL     OW25762   2.228   4.425   3.125 -0.2460  0.0738 -1.2030
 4768SOL    HW125763   2.196   4.514   3.113  1.1592  0.6303 -0.7739
 4768SOL    HW225764   2.148   4.383   3.157  0.4887 -1.0886 -0.8941
 4769SOL     OW25765   4.047   0.252  12.219  0.3055 -0.4602 -0.0434
 4769SOL    HW125766   3.953   0.244  12.201  0.1736  0.5713  0.1943
 4769SOL    HW225767   4.056   0.177  12.277 -0.3496 -0.2188  0.3682
 4770SOL     OW25768   3.889   4.688   1.309  0.4532 -0.7672 -0.0580
 4770SOL    HW125769   3.832   4.617   1.281  1.0695 -0.6189 -1.6778
 4770SOL    HW225770   3.836   0.042   1.299  1.5104 -0.0826 -0.1815
 4771SOL     OW25771   3.533   4.587   2.411  0.3581  0.3479 -0.4399
 4771SOL    HW125772   3.570   4.505   2.444 -1.1864  0.6331  2.0658
 4771SOL    HW225773   3.571   4.593   2.324 -2.1071 -0.4532 -1.5677
 4772SOL     OW25774   0.237   1.946   7.074 -0.2275  0.3228  0.4822
 4772SOL    HW125775   0.155   1.898   7.068 -0.1884  0.3037  0.1187
 4772SOL    HW225776   0.242   1.983   7.162 -0.3994  2.7963 -0.5399
 4773SOL     OW25777   4.008   3.625   6.306 -0.4769 -0.1259  0.3238
 4773SOL    HW125778   3.968   3.671   6.380  0.5942  1.3056  0.0055
 4773SOL    HW225779   4.030   3.693   6.242  1.2780 -0.9349  0.0649
 4774SOL     OW25780   1.145   1.739   6.093 -0.3134 -0.2922 -0.1383
 4774SOL    HW125781   1.213   1.801   6.120 -1.4709  0.6516  0.6143
 4774SOL    HW225782   1.196   1.690   6.029 -0.8979  2.0344 -2.3918
 4775SOL     OW25783   4.209   2.258   8.248 -0.7667  0.0440  0.1457
 4775SOL    HW125784   4.285   2.313   8.269 -0.8350  0.6759 -1.3083
 4775SOL    HW225785   4.234   2.180   8.297 -0.2507  0.2011  0.1413
 4776SOL     OW25786   2.707   1.290   2.635 -0.2522 -0.1537  1.1320
 4776SOL    HW125787   2.702   1.368   2.580 -0.2189 -0.6192  0.4675
 4776SOL    HW225788   2.801   1.271   2.632 -0.2670 -0.1736  0.7694
 4777SOL     OW25789   4.028   4.539   0.509 -0.4223  0.5459 -0.1971
 4777SOL    HW125790   4.004   4.513   0.598 -0.3423  1.0713 -0.0251
 4777SOL    HW225791   4.104   4.483   0.496 -0.8137 -0.2182  0.8368
 4778SOL     OW25792   0.513   3.343   5.501 -0.0072  0.2490  0.0135
 4778SOL    HW125793   0.566   3.390   5.566 -1.4576  1.8793  0.0334
 4778SOL    HW225794   0.539   3.398   5.427 -0.9832 -1.3518 -1.5083
 4779SOL     OW25795   0.594   2.486   9.455  0.0318 -0.2294 -0.7150
 4779SOL    HW125796   0.534   2.413   9.438 -0.3014 -0.3261  0.8952
 4779SOL    HW225797   0.588   2.506   9.548  0.6680  0.3854 -0.8036
 4780SOL     OW25798   0.586   0.362  15.647 -0.1727  0.2404 -0.2315
 4780SOL    HW125799   0.603   0.423  15.575  0.6372  0.4653  0.1548
 4780SOL    HW225800   0.520   0.408  15.700 -0.2299  0.3024 -0.3574
 4781SOL     OW25801   0.071   0.621   4.177 -0.5997 -0.2666 -0.0567
 4781SOL    HW125802   0.059   0.600   4.084  1.4181  0.1070 -0.4040
 4781SOL    HW225803   0.094   0.713   4.165 -0.5088 -0.4148 -1.0045
 4782SOL     OW25804   3.812   2.661  16.833 -0.3388  0.3056 -0.5330
 4782SOL    HW125805   3.731   2.695  16.872 -0.4395 -0.7821  0.2125
 4782SOL    HW225806   3.865   2.740  16.821 -0.7905  0.6962  0.0053
 4783SOL     OW25807   0.332   1.533   1.521 -0.2258  0.6618 -0.2154
 4783SOL    HW125808   0.270   1.469   1.487  0.4513 -0.5010  0.7223
 4783SOL    HW225809   0.278   1.577   1.586  0.0057  0.3650  0.1799
 4784SOL     OW25810   1.739   3.249   5.244  0.1665 -0.2210 -0.2161
 4784SOL    HW125811   1.682   3.177   5.217  0.3257  0.4751 -2.4277
 4784SOL    HW225812   1.677   3.322   5.241 -0.9791 -1.2159 -0.8950
 4785SOL     OW25813   3.816   3.239  15.799  0.3506  0.2210 -0.0099
 4785SOL    HW125814   3.746   3.175  15.786  1.5666 -1.0016 -0.5485
 4785SOL    HW225815   3.789   3.304  15.734 -0.7709  0.1650  0.3963
 4786SOL     OW25816   3.399   3.067   5.235 -0.1490  0.2083  0.2397
 4786SOL    HW125817   3.351   3.012   5.173 -1.8601  0.2537  1.5282
 4786SOL    HW225818   3.490   3.044   5.213 -0.0495  0.1366  0.7294
 4787SOL     OW25819   4.529   0.531   2.405  0.2516  0.4059  0.6470
 4787SOL    HW125820   4.550   0.498   2.318 -0.2145  1.2507  0.2237
 4787SOL    HW225821   4.469   0.463   2.436  0.0309 -0.0632 -0.7929
 4788SOL     OW25822   2.223   4.555  15.903 -0.1167 -0.5826 -0.3608
 4788SOL    HW125823   2.164   4.565  15.829 -1.9028 -1.0749  1.0163
 4788SOL    HW225824   2.309   4.570  15.863  0.7678 -0.4240  1.6013
 4789SOL     OW25825   2.302   4.282   4.066  0.3497  0.2948 -0.0444
 4789SOL    HW125826   2.375   4.237   4.109  0.1501  0.4929  0.5057
 4789SOL    HW225827   2.240   4.210   4.070  0.0070  0.5851 -0.2104
 4790SOL     OW25828   1.912   1.424  15.723 -0.1491 -0.3155 -0.3434
 4790SOL    HW125829   1.915   1.391  15.633  0.2934 -0.1922 -0.3718
 4790SOL    HW225830   1.989   1.480  15.730 -1.1505  0.9408  0.5563
 4791SOL     OW25831   0.088   1.055  11.102  0.1352 -0.5788  0.2836
 4791SOL    HW125832   0.052   1.082  11.186  2.4750 -1.4766  1.5821
 4791SOL    HW225833   0.176   1.092  11.111 -0.1776  0.1871  0.1351
 4792SOL     OW25834   0.974   4.220  11.926  0.5399  0.1102 -0.4730
 4792SOL    HW125835   0.883   4.201  11.904  0.3600  0.0112  0.3366
 4792SOL    HW225836   0.988   4.291  11.864 -1.8045 -1.3720 -2.6990
 4793SOL     OW25837   2.903   1.843   5.923  0.3770  0.2451 -0.2946
 4793SOL    HW125838   2.829   1.869   5.977  2.1943  0.5827  1.9962
 4793SOL    HW225839   2.893   1.921   5.868 -1.6447 -0.0982 -0.4425
 4794SOL     OW25840   4.423   4.275   6.106  0.0865  0.1817 -0.0683
 4794SOL    HW125841   4.359   4.281   6.035  0.0640  1.8265  0.0765
 4794SOL    HW225842   4.500   4.259   6.051 -0.7189 -0.9833 -0.8410
 4795SOL     OW25843   2.285   2.334   6.357  0.1319  0.0870  0.6150
 4795SOL    HW125844   2.274   2.426   6.336 -0.5042  0.1684  1.2924
 4795SOL    HW225845   2.194   2.306   6.354 -0.0024  0.5825  0.1784
 4796SOL     OW25846   3.699   4.060   4.143  0.0999 -0.6768  0.3783
 4796SOL    HW125847   3.655   4.129   4.192  2.9956  0.3553  1.5272
 4796SOL    HW225848   3.651   3.988   4.184 -0.8993  0.2582  0.8244
 4797SOL     OW25849   0.355   1.070   5.728 -0.3625 -0.5988 -0.2023
 4797SOL    HW125850   0.377   1.163   5.738 -0.9493 -0.2727 -1.9044
 4797SOL    HW225851   0.421   1.038   5.667  0.8668  2.0363 -0.2669
 4798SOL     OW25852   2.840   0.183  14.150  0.0940 -0.0336 -0.3559
 4798SOL    HW125853   2.821   0.264  14.196 -1.9862 -0.3349 -0.6825
 4798SOL    HW225854   2.855   0.123  14.223  1.6380  1.3881  0.4773
 4799SOL     OW25855   1.085   1.123   6.839 -0.2880  0.6455  0.1032
 4799SOL    HW125856   1.056   1.205   6.800  1.5171  1.5707  0.7274
 4799SOL    HW225857   1.163   1.101   6.789 -1.2397 -2.6121  0.0149
 4800SOL     OW25858   1.670   3.811  11.689  0.3358  0.0925  0.7010
 4800SOL    HW125859   1.741   3.749  11.672  2.2592  1.7864  2.6248
 4800SOL    HW225860   1.588   3.761  11.690  0.4365 -0.1153 -1.4313
 4801SOL     OW25861   2.617   4.110  17.390 -0.2762  0.1360 -0.3050
 4801SOL    HW125862   2.572   4.193  17.407 -0.8131 -0.3630  0.7446
 4801SOL    HW225863   2.642   4.075  17.476 -1.7381 -1.5267 -0.5652
 4802SOL     OW25864   1.804   1.247  15.911 -0.1165 -0.6666 -0.0114
 4802SOL    HW125865   1.830   1.280  15.825  0.6602  3.4167  1.7837
 4802SOL    HW225866   1.889   1.257  15.954 -0.1206 -0.1417 -0.1246
 4803SOL     OW25867   2.735   2.589   2.194  0.4806  0.7356  0.0295
 4803SOL    HW125868   2.788   2.643   2.135  0.6756  2.2873  1.6254
 4803SOL    HW225869   2.706   2.521   2.133  0.3449 -1.3837  2.4312
 4804SOL     OW25870   2.666   4.257   2.866  0.3269 -0.4780  0.6199
 4804SOL    HW125871   2.617   4.184   2.905 -0.3125  0.1811  1.0531
 4804SOL    HW225872   2.594   4.319   2.870 -1.2381 -2.3806  1.8654
 4805SOL     OW25873   1.127   1.656  15.391  0.1393  0.7470 -0.5826
 4805SOL    HW125874   1.167   1.721  15.333 -1.6073  1.4478 -1.0009
 4805SOL    HW225875   1.193   1.638  15.457 -0.4589  2.3447  0.4490
 4806SOL     OW25876   2.574   4.579  15.974 -0.0202  0.1985  0.0206
 4806SOL    HW125877   2.515   4.516  16.013 -0.6765  1.0933  0.4691
 4806SOL    HW225878   2.557   4.554  15.883  1.3883 -2.0891  0.4050
 4807SOL     OW25879   2.762   3.049   5.204  0.4846  0.4348 -0.3524
 4807SOL    HW125880   2.827   3.074   5.138  0.0992  1.7374 -0.2338
 4807SOL    HW225881   2.743   2.963   5.166  0.9297 -0.1214  0.6686
 4808SOL     OW25882   3.309   0.455   5.927  0.3335 -0.2126 -0.3836
 4808SOL    HW125883   3.388   0.508   5.927  0.7643 -0.8502 -1.0656
 4808SOL    HW225884   3.341   0.370   5.957  0.8023 -0.0612 -0.4568
 4809SOL     OW25885   2.152   3.210   4.168  0.4331  0.4808  0.0189
 4809SOL    HW125886   2.228   3.155   4.190 -0.4607 -0.6045  0.3961
 4809SOL    HW225887   2.172   3.241   4.080 -0.9299  0.3480 -0.3285
 4810SOL     OW25888   0.555   4.134  10.352 -0.0038 -0.3343  0.0282
 4810SOL    HW125889   0.497   4.058  10.362  0.9769 -1.1478 -0.5136
 4810SOL    HW225890   0.641   4.094  10.343 -0.9692 -2.1317 -1.0974
 4811SOL     OW25891   1.924   1.950  16.258 -0.1029  0.1159  0.2978
 4811SOL    HW125892   1.933   2.037  16.296  1.5577 -0.3281  0.9357
 4811SOL    HW225893   1.929   1.964  16.164 -0.5609 -1.4457  0.0389
 4812SOL     OW25894   2.269   1.526   8.245 -0.4402 -0.0485  0.0647
 4812SOL    HW125895   2.188   1.501   8.291  1.2191 -0.2005  2.9012
 4812SOL    HW225896   2.244   1.616   8.225 -0.7203 -0.7259 -2.7135
 4813SOL     OW25897   0.519   0.163  15.977  0.4662  0.4946 -0.3364
 4813SOL    HW125898   0.573   0.168  16.055 -0.5872  0.3274  0.4115
 4813SOL    HW225899   0.468   0.242  15.994 -0.2640 -0.0715  0.0969
 4814SOL     OW25900   4.034   1.830   3.496  0.2961  0.1149 -0.4902
 4814SOL    HW125901   4.119   1.852   3.533  1.0678 -1.2872 -1.4149
 4814SOL    HW225902   4.013   1.917   3.463 -2.2455 -0.9797 -1.7619
 4815SOL     OW25903   1.437   0.046  11.165  0.1371  0.0191 -0.0845
 4815SOL    HW125904   1.351   0.038  11.205  0.0152 -0.1114 -0.3772
 4815SOL    HW225905   1.480   0.078  11.244  0.4452 -1.3844  0.3159
 4816SOL     OW25906   4.098   1.632  17.450 -0.1079 -0.3716 -0.0603
 4816SOL    HW125907   4.137   1.710  17.488  1.8858 -2.3272  1.9279
 4816SOL    HW225908   4.030   1.619  17.517  1.0816  0.0446  1.2334
 4817SOL     OW25909   4.565   3.326   4.684  0.4218 -0.5486  0.6437
 4817SOL    HW125910   4.602   3.412   4.702 -1.9527  0.4447  0.8360
 4817SOL    HW225911   4.477   3.344   4.718 -0.0804 -0.9683 -0.4478
 4818SOL     OW25912   0.139   3.277   0.633 -0.5867 -0.3033 -0.1840
 4818SOL    HW125913   0.223   3.270   0.678 -0.8975 -0.3145  0.3872
 4818SOL    HW225914   0.113   3.369   0.636  0.1842 -0.0759 -0.5409
 4819SOL     OW25915   2.876   2.790   8.054  0.2061  0.2908  0.4243
 4819SOL    HW125916   2.964   2.771   8.086  1.2698  0.8060 -2.2164
 4819SOL    HW225917   2.892   2.866   7.999 -2.8570 -0.1317 -1.0173
 4820SOL     OW25918   2.823   3.597   1.895 -0.0212  0.2269  0.2930
 4820SOL    HW125919   2.851   3.594   1.804  2.0462 -1.1316  0.9607
 4820SOL    HW225920   2.861   3.681   1.919 -0.1491  0.4968 -0.4513
 4821SOL     OW25921   1.177   0.027   0.490  0.4392  0.1748  0.3037
 4821SOL    HW125922   1.207   4.672   0.449  1.0486  1.2790 -1.4528
 4821SOL    HW225923   1.107   4.720   0.546 -1.5247  0.3497 -2.0642
 4822SOL     OW25924   2.425   1.738   8.575 -0.0706 -0.7195  0.3179
 4822SOL    HW125925   2.471   1.787   8.642  1.4660  0.4701 -1.6050
 4822SOL    HW225926   2.349   1.731   8.633 -0.4031 -1.1675 -0.1659
 4823SOL     OW25927   0.974   1.727  16.730 -0.5077 -0.0879  0.0302
 4823SOL    HW125928   0.987   1.760  16.819 -2.3570 -1.7708  0.9490
 4823SOL    HW225929   1.042   1.661  16.722  1.0066  1.8362 -2.6140
 4824SOL     OW25930   2.477   1.168   2.755  0.5465 -0.5466 -0.1073
 4824SOL    HW125931   2.517   1.098   2.806 -0.3879 -0.8647  0.1767
 4824SOL    HW225932   2.547   1.234   2.750  1.5117 -1.3904  2.3110
 4825SOL     OW25933   0.304   0.621   2.977 -0.3710  0.1941  0.5994
 4825SOL    HW125934   0.306   0.616   3.073 -0.5725  4.0790  0.7836
 4825SOL    HW225935   0.223   0.671   2.970  1.3893  2.9245 -0.3088
 4826SOL     OW25936   2.095   0.170   7.321  0.0616 -0.1560  0.3196
 4826SOL    HW125937   2.020   0.113   7.338 -1.2121  1.3098 -0.4812
 4826SOL    HW225938   2.129   0.145   7.235 -0.8195 -0.8177  0.1718
 4827SOL     OW25939   2.821   0.027   9.307  0.0540 -0.1547 -0.0333
 4827SOL    HW125940   2.879   0.091   9.347 -0.1331  0.1257 -0.2121
 4827SOL    HW225941   2.754   0.008   9.373 -0.3855  0.8590 -0.1887
 4828SOL     OW25942   3.572   2.434  13.101 -0.3411  0.1698  0.5220
 4828SOL    HW125943   3.564   2.425  13.196 -1.6489 -2.1728  0.1789
 4828SOL    HW225944   3.533   2.349  13.081 -0.4506  0.0937  1.0578
 4829SOL     OW25945   3.621   4.037   5.114  0.1434  0.7507  0.4841
 4829SOL    HW125946   3.660   4.124   5.124 -0.1553  0.9933 -0.4034
 4829SOL    HW225947   3.675   4.003   5.043 -0.1735 -1.6782  1.4344
 4830SOL     OW25948   0.486   3.496  10.278  0.4593 -0.1526  0.0668
 4830SOL    HW125949   0.569   3.482  10.232  0.8086  2.7821 -0.1521
 4830SOL    HW225950   0.469   3.402  10.286  1.2481 -0.3797 -0.8962
 4831SOL     OW25951   3.380   1.391   2.242 -0.5737  0.6924 -0.2954
 4831SOL    HW125952   3.443   1.369   2.311  0.1579  4.0078  0.1342
 4831SOL    HW225953   3.446   1.425   2.181  0.1751 -2.1476 -1.0431
 4832SOL     OW25954   4.047   0.933  12.969  0.2718  0.1551  0.5926
 4832SOL    HW125955   4.100   0.923  12.890 -1.3315  1.8689 -0.7065
 4832SOL    HW225956   4.121   0.937  13.029 -0.6347  0.8852  1.6464
 4833SOL     OW25957   2.886   3.860   8.065 -0.2627  0.0404  0.2317
 4833SOL    HW125958   2.922   3.928   8.009 -0.5807 -1.0287 -1.2654
 4833SOL    HW225959   2.792   3.866   8.047  0.6163  1.2420 -3.8732
 4834SOL     OW25960   4.368   0.583   6.138  0.4379 -0.2166  0.1571
 4834SOL    HW125961   4.330   0.644   6.074  0.8352  0.5647  0.6747
 4834SOL    HW225962   4.408   0.526   6.072 -1.0881 -0.8954 -0.1925
 4835SOL     OW25963   2.578   1.748  12.405 -0.0838 -0.6932 -0.0271
 4835SOL    HW125964   2.667   1.736  12.373  0.1810  0.9118  0.1202
 4835SOL    HW225965   2.573   1.678  12.470  1.0650  2.7464  3.7517
 4836SOL     OW25966   0.551   3.735   8.249  0.1470 -0.1216 -0.2041
 4836SOL    HW125967   0.531   3.655   8.199 -0.1629 -0.1337 -0.0619
 4836SOL    HW225968   0.463   3.765   8.271 -0.1138 -0.7467 -0.3809
 4837SOL     OW25969   1.809   2.590   9.151  0.1971 -0.4856  0.9405
 4837SOL    HW125970   1.775   2.659   9.094  1.8483 -0.8054 -0.4114
 4837SOL    HW225971   1.743   2.521   9.142  2.6102 -2.7015  0.3092
 4838SOL     OW25972   3.176   4.195  15.216  0.3072  0.2034  0.3203
 4838SOL    HW125973   3.143   4.285  15.205  2.5609  1.1946  1.6880
 4838SOL    HW225974   3.269   4.217  15.217  0.6498 -1.3726  2.6794
 4839SOL     OW25975   1.695   4.192   2.705  0.1160  0.1794  0.0476
 4839SOL    HW125976   1.659   4.269   2.659 -2.1123  0.9089  3.0460
 4839SOL    HW225977   1.737   4.149   2.630  1.2689  1.9323 -0.3180
 4840SOL     OW25978   2.218   3.242  11.649 -0.4981  0.4478 -0.3381
 4840SOL    HW125979   2.199   3.214  11.738  0.8285  2.6710  0.6271
 4840SOL    HW225980   2.311   3.219  11.640 -0.8260 -1.6276  1.5450
 4841SOL     OW25981   0.449   1.219   4.663  0.1768  0.2274  0.2335
 4841SOL    HW125982   0.503   1.150   4.702  2.7172  1.9379 -0.2207
 4841SOL    HW225983   0.508   1.241   4.590 -0.5782  1.0592 -0.1264
 4842SOL     OW25984   2.663   3.141  17.673 -0.5090  0.0939  0.1231
 4842SOL    HW125985   2.666   3.048  17.648 -0.6173 -0.1874  1.1451
 4842SOL    HW225986   2.709   3.143   0.052  0.1761 -1.5119 -0.2087
 4843SOL     OW25987   2.393   0.720   5.472  0.3461  0.1168 -0.7226
 4843SOL    HW125988   2.414   0.739   5.563 -1.6496 -0.6581 -0.1135
 4843SOL    HW225989   2.306   0.691   5.498 -0.8750  1.1391 -3.7438
 4844SOL     OW25990   0.228   0.020   5.812  0.4664 -0.2154 -0.0887
 4844SOL    HW125991   0.196   4.723   5.899 -0.1518  2.2792  0.3485
 4844SOL    HW225992   0.307   4.691   5.812 -0.1983 -1.1702  0.2992
 4845SOL     OW25993   1.968   4.455   2.855 -0.3083  0.0291 -0.0921
 4845SOL    HW125994   1.876   4.428   2.847  0.0841 -1.4785  0.5266
 4845SOL    HW225995   1.970   4.550   2.844 -1.8003 -0.0266 -0.9241
 4846SOL     OW25996   2.626   3.746   2.942  0.2514 -0.2639 -0.4057
 4846SOL    HW125997   2.721   3.756   2.937 -0.0032  1.6479 -1.2545
 4846SOL    HW225998   2.610   3.701   2.860 -1.1626  0.1819 -0.3687
 4847SOL     OW25999   3.730   1.262   3.685 -0.4283  0.3068 -1.0361
 4847SOL    HW126000   3.648   1.246   3.638 -0.3067 -1.1581 -0.7621
 4847SOL    HW226001   3.707   1.349   3.717  0.3216  0.2113 -0.2486
 4848SOL     OW26002   1.116   1.463  16.714 -0.1536  0.4564  0.4463
 4848SOL    HW126003   1.129   1.440  16.806 -1.4071  2.1139  1.0501
 4848SOL    HW226004   1.145   1.373  16.696  0.8375  0.6074  1.3285
 4849SOL     OW26005   2.592   3.227   2.768 -0.2787 -0.6006 -0.0797
 4849SOL    HW126006   2.655   3.255   2.835 -1.1654 -2.0843  1.4003
 4849SOL    HW226007   2.522   3.283   2.802  0.6942  0.8141 -0.4494
 4850SOL     OW26008   3.390   1.645   8.525  0.0542  0.6161 -0.2800
 4850SOL    HW126009   3.356   1.569   8.479  0.4534  0.2927 -0.0390
 4850SOL    HW226010   3.325   1.660   8.593 -1.7836 -0.6467 -1.7648
 4851SOL     OW26011   3.616   4.580   3.664  0.5940 -0.2256  0.0188
 4851SOL    HW126012   3.538   4.556   3.715  0.6974 -2.4770 -0.8774
 4851SOL    HW226013   3.613   4.520   3.590  4.7541 -1.0198  0.4926
 4852SOL     OW26014   2.879   2.485   0.950 -0.4611 -0.2819 -0.2040
 4852SOL    HW126015   2.862   2.397   0.918  1.1483 -0.9565  0.8454
 4852SOL    HW226016   2.966   2.498   0.913 -0.8749 -0.7254 -1.3270
 4853SOL     OW26017   2.350   1.856  11.135 -0.0610 -0.7286 -0.0057
 4853SOL    HW126018   2.397   1.918  11.078 -0.8588  0.5445  0.7046
 4853SOL    HW226019   2.258   1.875  11.115 -0.3354 -1.0654  0.9540
 4854SOL     OW26020   2.618   0.879   8.310  0.0794 -0.4359 -0.5230
 4854SOL    HW126021   2.655   0.967   8.313 -2.2375  0.5372 -0.5253
 4854SOL    HW226022   2.642   0.852   8.221 -2.1722 -0.8496 -0.9858
 4855SOL     OW26023   3.689   1.377   4.647 -0.4828  0.1078  0.3349
 4855SOL    HW126024   3.682   1.353   4.555 -1.0226 -0.8060  0.6079
 4855SOL    HW226025   3.757   1.444   4.652 -0.4201  0.0017  0.8761
 4856SOL     OW26026   1.894   2.265   9.640  0.4105 -0.3937 -0.3932
 4856SOL    HW126027   1.894   2.201   9.569  0.7612 -1.3529  0.4616
 4856SOL    HW226028   1.832   2.213   9.691  0.7085  0.3895  0.7616
 4857SOL     OW26029   3.081   4.681   7.278 -0.2645  0.1157  0.0238
 4857SOL    HW126030   3.123   0.023   7.330 -0.6479 -0.0309  0.5288
 4857SOL    HW226031   3.048   4.638   7.358  2.8503 -1.6770  0.3349
 4858SOL     OW26032   4.133   0.538   6.667 -0.0996 -0.3549  0.0428
 4858SOL    HW126033   4.191   0.528   6.742  0.1029 -2.4469 -0.3930
 4858SOL    HW226034   4.189   0.557   6.591  1.6740  0.0060  1.4542
 4859SOL     OW26035   2.353   0.011   2.168  0.4560  0.2591 -0.5713
 4859SOL    HW126036   2.258   0.011   2.158  0.4344 -2.6241 -0.5408
 4859SOL    HW226037   2.380   0.035   2.079 -0.8124 -0.6473 -1.1881
 4860SOL     OW26038   0.099   3.767   5.383  0.0376  0.3968 -0.2774
 4860SOL    HW126039   0.045   3.809   5.451 -0.4130 -2.0800  0.8812
 4860SOL    HW226040   0.183   3.800   5.414  0.1564 -0.4851  0.3375
 4861SOL     OW26041   2.326   1.148   5.973  0.4075  0.0074  0.1181
 4861SOL    HW126042   2.391   1.082   5.996 -1.1030 -1.0297  1.4232
 4861SOL    HW226043   2.369   1.231   5.994 -0.1658 -0.1183  1.8531
 4862SOL     OW26044   2.128   4.492   4.044  0.1665  0.8755  0.0405
 4862SOL    HW126045   2.188   4.423   4.072 -0.5742 -0.2601 -1.1983
 4862SOL    HW226046   2.107   4.538   4.125 -0.7531  0.5860 -0.0317
 4863SOL     OW26047   1.727   1.642   5.242 -0.0899  0.4780 -0.6717
 4863SOL    HW126048   1.641   1.631   5.283  1.2626  0.1664  2.1013
 4863SOL    HW226049   1.780   1.651   5.321  1.6257  1.0808 -1.8985
 4864SOL     OW26050   2.117   1.331   2.197  0.4329  0.0425 -0.7572
 4864SOL    HW126051   2.165   1.271   2.140  1.4516  1.1699 -1.0997
 4864SOL    HW226052   2.108   1.283   2.279 -2.0651  1.7283 -0.0380
 4865SOL     OW26053   0.972   3.268   2.235  0.0781  0.0451  1.0391
 4865SOL    HW126054   1.052   3.300   2.277  1.0205 -0.9721  0.0145
 4865SOL    HW226055   1.008   3.184   2.207 -1.3873 -0.4063  0.5107
 4866SOL     OW26056   1.060   2.482  14.846  0.1962 -0.0560 -0.4051
 4866SOL    HW126057   1.098   2.395  14.858 -1.9614 -1.2237 -1.8883
 4866SOL    HW226058   1.123   2.520  14.785  1.0901  0.0440  0.5788
 4867SOL     OW26059   4.593   2.543   3.483  0.1573 -0.2115 -0.4702
 4867SOL    HW126060   4.643   2.470   3.446  1.1494 -0.8048  2.0590
 4867SOL    HW226061   4.521   2.502   3.531  1.1092 -1.9544 -0.5552
 4868SOL     OW26062   3.458   1.669   4.403  0.6149 -0.2364  0.3035
 4868SOL    HW126063   3.399   1.629   4.467 -0.1818  0.7702  0.2027
 4868SOL    HW226064   3.435   1.756   4.435 -0.0525 -0.3577  0.1668
 4869SOL     OW26065   4.657   3.967  11.945 -0.5160  0.7092  0.4305
 4869SOL    HW126066   4.667   3.885  11.896  0.1703  0.9246  0.2129
 4869SOL    HW226067   4.673   3.922  12.028  2.3545  1.0737  0.0454
 4870SOL     OW26068   3.511   1.048   6.916  0.0642 -0.5306  0.1119
 4870SOL    HW126069   3.416   1.040   6.914  0.1120 -1.0989 -0.1171
 4870SOL    HW226070   3.533   1.001   6.835 -1.1235  1.0464 -1.1186
 4871SOL     OW26071   2.123   3.761   0.341  0.0583  0.0637 -0.6299
 4871SOL    HW126072   2.035   3.778   0.307  0.2973 -1.8240 -2.1761
 4871SOL    HW226073   2.150   3.690   0.283 -0.8281 -2.4204  2.0016
 4872SOL     OW26074   1.768   3.445   8.805  0.2012  0.0531 -0.3263
 4872SOL    HW126075   1.847   3.494   8.830 -0.7231  1.4505 -0.0967
 4872SOL    HW226076   1.729   3.438   8.892  1.0038 -1.2241 -0.0735
 4873SOL     OW26077   3.030   2.240   4.213 -0.4494  0.1800 -0.7476
 4873SOL    HW126078   3.007   2.239   4.120  0.4167 -3.0148 -0.9491
 4873SOL    HW226079   2.957   2.194   4.255  0.8843  1.1663  2.6195
 4874SOL     OW26080   2.538   4.487   4.212 -0.2212 -0.3175 -0.5258
 4874SOL    HW126081   2.472   4.476   4.144 -3.0595  2.0713  1.8674
 4874SOL    HW226082   2.608   4.541   4.174 -1.3824  0.9582 -0.8146
 4875SOL     OW26083   3.668   0.067   4.134 -0.3642 -0.8690  0.6360
 4875SOL    HW126084   3.632   0.067   4.046  0.1963 -1.4489  0.4057
 4875SOL    HW226085   3.759   0.054   4.106 -0.1253  0.6792  0.6912
 4876SOL     OW26086   1.877   0.065   0.054  0.6075  0.4327  0.1543
 4876SOL    HW126087   1.931   4.719   0.086  0.4143 -0.4487 -1.5150
 4876SOL    HW226088   1.790   0.035   0.082  0.8100  0.0842  0.3951
 4877SOL     OW26089   3.965   1.689  11.812 -0.4629  0.3907  0.0786
 4877SOL    HW126090   3.974   1.600  11.846 -1.9551  0.2043 -0.0174
 4877SOL    HW226091   4.047   1.724  11.848  0.3147 -1.3351 -0.0036
 4878SOL     OW26092   3.024   2.118   7.210  0.0642  0.2766  0.2092
 4878SOL    HW126093   2.969   2.192   7.235 -2.3625 -0.7498 -2.1045
 4878SOL    HW226094   3.033   2.073   7.294  0.4612  0.4168  0.2433
 4879SOL     OW26095   0.776   0.411   5.299 -0.9364  0.3946  0.4744
 4879SOL    HW126096   0.779   0.316   5.307  0.7418  0.2252 -2.5224
 4879SOL    HW226097   0.713   0.427   5.370 -0.0023  2.7973  0.7514
 4880SOL     OW26098   0.378   0.675   3.957 -0.2215  0.2846 -0.1246
 4880SOL    HW126099   0.373   0.583   3.931  0.9415  0.7332 -1.9391
 4880SOL    HW226100   0.468   0.692   3.985 -0.2684 -1.2096  0.9022
 4881SOL     OW26101   1.311   3.646   6.904  0.1310 -0.0788  0.6840
 4881SOL    HW126102   1.239   3.695   6.864  0.3093 -0.4102 -0.0497
 4881SOL    HW226103   1.375   3.717   6.904 -0.5288  0.5190  0.3580
 4882SOL     OW26104   1.760   3.612   4.003 -0.3693 -0.3726  0.3290
 4882SOL    HW126105   1.723   3.588   4.088  0.6296 -2.0086  0.3136
 4882SOL    HW226106   1.680   3.607   3.951  1.1895 -2.1297 -1.9082
 4883SOL     OW26107   4.552   1.031   6.522 -0.4213  0.0421  0.4493
 4883SOL    HW126108   4.593   0.980   6.452  0.9217 -0.3422  1.5293
 4883SOL    HW226109   4.552   1.121   6.490 -0.0461 -0.6056 -1.4156
 4884SOL     OW26110   0.743   3.515   7.891  0.0512  0.2801 -0.1579
 4884SOL    HW126111   0.762   3.549   7.979 -0.4983 -1.3899  0.6215
 4884SOL    HW226112   0.768   3.587   7.834  0.1788  0.8220  0.5870
 4885SOL     OW26113   0.575   0.633   8.923  0.0744  0.1444  0.7271
 4885SOL    HW126114   0.589   0.614   9.016  0.9103 -0.3161  0.5039
 4885SOL    HW226115   0.491   0.677   8.935 -0.2222 -0.2113 -0.0326
 4886SOL     OW26116   4.704   1.305  16.507  0.1964 -0.2290  0.0740
 4886SOL    HW126117   4.715   1.237  16.441 -0.2543  0.8804 -1.1528
 4886SOL    HW226118   0.067   1.331  16.529  0.0779  1.9669 -2.0158
 4887SOL     OW26119   0.146   3.172  10.256 -0.0242 -0.6025 -0.6672
 4887SOL    HW126120   0.133   3.265  10.241  2.7565 -0.3404 -1.4253
 4887SOL    HW226121   0.228   3.162  10.208 -0.1493 -2.0049 -0.5856
 4888SOL     OW26122   3.399   3.008   6.305 -0.4738  0.2706 -0.0894
 4888SOL    HW126123   3.309   3.020   6.275 -0.6559  2.5924  1.3879
 4888SOL    HW226124   3.419   2.921   6.271 -0.7863  0.6152 -1.1597
 4889SOL     OW26125   3.976   4.381   5.801 -0.0511 -0.4468  0.1952
 4889SOL    HW126126   3.889   4.410   5.775  0.4836  0.7352 -0.2443
 4889SOL    HW226127   4.026   4.390   5.720  0.4704  0.5118  0.6306
 4890SOL     OW26128   3.337   0.520   7.890  0.0421 -0.0258  0.3012
 4890SOL    HW126129   3.306   0.430   7.883  0.0606  0.0349 -0.6389
 4890SOL    HW226130   3.411   0.502   7.948  1.0906  2.0526 -0.3764
 4891SOL     OW26131   0.882   2.236   2.426 -0.6114  0.1635  0.7714
 4891SOL    HW126132   0.793   2.250   2.394  0.6989  1.7562 -2.1448
 4891SOL    HW226133   0.858   2.252   2.517 -0.5614  1.0314  0.6304
 4892SOL     OW26134   3.963   4.062   8.028 -0.1671 -0.1748  0.2414
 4892SOL    HW126135   3.942   3.982   8.075  0.7200 -1.5272 -1.7075
 4892SOL    HW226136   3.977   4.020   7.943  0.2781 -2.1360  1.2902
 4893SOL     OW26137   1.815   1.546  10.218  0.0548 -0.0170 -0.1080
 4893SOL    HW126138   1.723   1.563  10.198  0.6131  2.7149 -0.3756
 4893SOL    HW226139   1.817   1.558  10.313  2.8181 -2.2832  0.1216
 4894SOL     OW26140   3.603   3.559   7.309 -0.0988  0.3433  0.1424
 4894SOL    HW126141   3.533   3.513   7.356  0.3045  0.1529  0.5610
 4894SOL    HW226142   3.580   3.533   7.220 -2.0992 -2.8959  1.6349
 4895SOL     OW26143   0.389   2.649  14.656 -0.2396 -0.7108 -0.3599
 4895SOL    HW126144   0.441   2.569  14.660  0.8344  0.0304  0.6634
 4895SOL    HW226145   0.334   2.635  14.733  1.1161  0.0178  0.7407
 4896SOL     OW26146   1.897   1.680   5.891  0.1156  0.0527  0.4549
 4896SOL    HW126147   1.878   1.772   5.872 -1.5341 -0.7941 -1.8991
 4896SOL    HW226148   1.823   1.645   5.941 -0.0743 -0.7903 -0.4301
 4897SOL     OW26149   3.563   1.145   4.299  0.6389  0.2466  0.0870
 4897SOL    HW126150   3.530   1.171   4.213 -0.5163  0.0641  0.4711
 4897SOL    HW226151   3.578   1.230   4.339  1.0049 -0.8180  2.1727
 4898SOL     OW26152   1.991   4.285   3.093 -0.4038 -0.4241 -0.3197
 4898SOL    HW126153   1.910   4.266   3.046  0.2958 -4.0055 -0.1059
 4898SOL    HW226154   2.026   4.333   3.018  0.3760 -1.7613 -0.8061
 4899SOL     OW26155   0.876   4.398   4.233 -0.2084 -0.2616 -0.6275
 4899SOL    HW126156   0.863   4.359   4.319 -2.0864  0.2440 -0.6775
 4899SOL    HW226157   0.946   4.463   4.243 -2.3353  1.9051  0.2411
 4900SOL     OW26158   2.702   3.844   4.573  0.2849  0.2375  0.4282
 4900SOL    HW126159   2.670   3.815   4.488  0.7355  0.2419  0.2607
 4900SOL    HW226160   2.625   3.891   4.604 -0.3603 -2.0294  2.3204
 4901SOL     OW26161   4.627   0.466   7.360  0.0166 -0.5373 -0.3365
 4901SOL    HW126162   4.579   0.528   7.305 -0.8456 -0.0216  0.9903
 4901SOL    HW226163   4.634   0.522   7.438  0.7807 -0.0693 -0.7494
 4902SOL     OW26164   0.282   3.870   0.184 -0.0842 -0.0290 -0.0358
 4902SOL    HW126165   0.350   3.859   0.250 -0.0838 -1.5562 -0.2833
 4902SOL    HW226166   0.252   3.960   0.198 -0.7067  0.0170 -1.6055
 4903SOL     OW26167   2.810   2.094  10.918 -0.2629  0.0014 -0.6898
 4903SOL    HW126168   2.871   2.040  10.969  1.8555  0.5610 -2.6383
 4903SOL    HW226169   2.821   2.184  10.948  1.1255 -0.5545  0.4642
 4904SOL     OW26170   3.906   4.608  16.281 -0.5299  0.1179  0.3246
 4904SOL    HW126171   3.916   4.665  16.205 -0.1948  0.1587  0.3990
 4904SOL    HW226172   3.899   4.518  16.250 -2.9697  0.2436  0.5325
 4905SOL     OW26173   1.535   3.891   0.579 -0.0371  0.5178 -0.2240
 4905SOL    HW126174   1.530   3.852   0.491 -3.3227  2.2726 -0.7970
 4905SOL    HW226175   1.622   3.869   0.613  0.3993  1.9907 -0.3757
 4906SOL     OW26176   1.055   4.576   8.250  0.4649  0.7354  0.2595
 4906SOL    HW126177   0.963   4.571   8.273  0.2189 -0.7938 -1.0875
 4906SOL    HW226178   1.092   4.491   8.275  0.3900  0.1209 -1.7929
 4907SOL     OW26179   4.688   2.419   8.402 -0.1819  0.4825 -0.4144
 4907SOL    HW126180   0.054   2.428   8.430  0.3565 -4.6610 -0.5797
 4907SOL    HW226181   4.651   2.380   8.481  2.2413  1.2541  1.1344
 4908SOL     OW26182   2.424   1.510  13.666  0.3271 -0.6701  0.2224
 4908SOL    HW126183   2.362   1.439  13.686 -1.6639  1.5873  2.0196
 4908SOL    HW226184   2.367   1.563  13.611  0.7089 -0.3170  0.1696
 4909SOL     OW26185   0.399   1.450   4.821  0.1321 -0.2365 -0.4273
 4909SOL    HW126186   0.371   1.365   4.788 -0.2676 -1.1292  2.1452
 4909SOL    HW226187   0.318   1.488   4.855  0.1594  0.2071 -0.8588
 4910SOL     OW26188   0.638   0.777  15.367  0.0286  0.4529  0.2934
 4910SOL    HW126189   0.632   0.722  15.288 -2.2925  1.6315 -0.3512
 4910SOL    HW226190   0.731   0.799  15.360  0.7848 -2.4175  1.0101
 4911SOL     OW26191   4.540   3.541  11.686  0.3726 -0.3475  0.2011
 4911SOL    HW126192   4.558   3.620  11.736  2.1747 -2.2982  2.6641
 4911SOL    HW226193   4.475   3.502  11.744 -0.2700 -0.5933 -0.6811
 4912SOL     OW26194   2.317   4.481   8.260 -0.4590 -0.1357 -0.7864
 4912SOL    HW126195   2.256   4.423   8.215 -0.2157 -0.8025 -0.2405
 4912SOL    HW226196   2.336   4.444   8.346 -1.8621 -1.8630 -1.2311
 4913SOL     OW26197   2.541   3.637  10.838 -0.9639 -0.0983 -0.1123
 4913SOL    HW126198   2.591   3.561  10.811 -0.1143  0.0585  0.9982
 4913SOL    HW226199   2.481   3.602  10.904 -1.0700 -0.6260 -0.4950
 4914SOL     OW26200   3.624   2.165   6.603  0.1146 -0.2577  0.0991
 4914SOL    HW126201   3.669   2.093   6.559  2.1122  1.0252  0.0270
 4914SOL    HW226202   3.557   2.131   6.663 -0.4181 -3.7919 -2.5183
 4915SOL     OW26203   2.471   3.079   0.637 -0.1200  0.1159 -0.0485
 4915SOL    HW126204   2.399   3.120   0.589 -0.7846 -2.3449 -1.1607
 4915SOL    HW226205   2.451   3.089   0.730 -1.7582 -0.8424 -0.3029
 4916SOL     OW26206   4.474   4.606   3.688 -0.2231 -0.0388  0.3249
 4916SOL    HW126207   4.539   4.651   3.634  3.1634 -3.8400  1.1569
 4916SOL    HW226208   4.489   4.645   3.774  0.2753  0.4424  0.0180
 4917SOL     OW26209   1.002   2.094  11.359 -0.1105  0.1901  0.3161
 4917SOL    HW126210   0.998   2.182  11.396 -1.2657  0.8396 -1.3821
 4917SOL    HW226211   0.946   2.115  11.284  0.6002 -0.6961 -0.4611
 4918SOL     OW26212   3.398   4.369   8.710 -0.5217 -0.4365 -0.1769
 4918SOL    HW126213   3.371   4.307   8.642 -1.6139 -0.5756  0.3945
 4918SOL    HW226214   3.389   4.448   8.658 -0.1741  0.2365  0.7834
 4919SOL     OW26215   3.261   0.310   6.713  0.3992  0.4637 -0.0132
 4919SOL    HW126216   3.193   0.325   6.647  0.6221  0.5519 -0.2247
 4919SOL    HW226217   3.338   0.313   6.656  0.5952 -1.1940  0.1686
 4920SOL     OW26218   0.500   3.497   7.757 -0.2114 -0.3367  0.1110
 4920SOL    HW126219   0.525   3.459   7.673 -1.3240 -0.5707 -0.1204
 4920SOL    HW226220   0.585   3.494   7.801  0.5131 -0.8368 -1.3546
 4921SOL     OW26221   4.202   3.783  10.383 -0.0498  0.1036 -0.1218
 4921SOL    HW126222   4.289   3.760  10.350  0.8785  0.2685  2.2572
 4921SOL    HW226223   4.218   3.864  10.431  1.0631  0.7844 -1.6128
 4922SOL     OW26224   3.395   2.768   3.394 -0.3760  0.2087 -0.2684
 4922SOL    HW126225   3.304   2.796   3.401 -0.9042 -1.4183 -0.4148
 4922SOL    HW226226   3.387   2.680   3.356  0.9528 -0.3385  0.7447
 4923SOL     OW26227   2.739   0.281   4.207 -0.0852 -0.1794 -0.0118
 4923SOL    HW126228   2.693   0.279   4.122  0.5398  0.6968 -0.3631
 4923SOL    HW226229   2.806   0.216   4.187 -2.1057 -2.3859  0.2974
 4924SOL     OW26230   0.231   2.289  11.944 -0.3434  0.5032 -0.3057
 4924SOL    HW126231   0.262   2.214  11.995  1.3956  0.0911 -1.9759
 4924SOL    HW226232   0.153   2.252  11.902 -1.1712  1.3362  0.4925
 4925SOL     OW26233   2.715   3.765   9.066 -0.0308 -0.1530 -0.0464
 4925SOL    HW126234   2.642   3.748   9.008 -0.7166  2.2751  0.1150
 4925SOL    HW226235   2.704   3.691   9.126  0.4089  2.0119  2.7084
 4926SOL     OW26236   4.103   1.751   0.278 -0.4500  0.0418  0.4499
 4926SOL    HW126237   4.199   1.742   0.284 -0.2914  0.5270 -1.3896
 4926SOL    HW226238   4.071   1.713   0.360 -0.2534 -1.1549 -0.0425
 4927SOL     OW26239   4.597   3.293   5.577 -0.2400 -0.4595  0.2889
 4927SOL    HW126240   4.664   3.282   5.510  1.0570 -2.6427  1.9445
 4927SOL    HW226241   4.523   3.327   5.527 -1.7526 -0.5123  2.4295
 4928SOL     OW26242   0.587   4.490   0.758 -0.0395 -0.0705  0.0258
 4928SOL    HW126243   0.548   4.448   0.834 -0.8424 -2.2538 -1.5791
 4928SOL    HW226244   0.526   4.535   0.700 -0.1108 -1.6171 -1.1267
 4929SOL     OW26245   0.544   0.153   5.185 -1.2151  0.4171 -0.8729
 4929SOL    HW126246   0.614   0.149   5.251  0.1585 -2.1184 -2.5164
 4929SOL    HW226247   0.531   0.247   5.174  1.1417  0.7557 -0.6394
 4930SOL     OW26248   3.355   0.197   7.595 -0.3863  0.3606  0.8892
 4930SOL    HW126249   3.279   0.213   7.539  0.5009  1.2226 -0.0587
 4930SOL    HW226250   3.333   0.120   7.647 -2.6038  0.3904 -0.0020
 4931SOL     OW26251   3.479   3.198  17.534 -0.1229  0.4994  0.3505
 4931SOL    HW126252   3.499   3.264  17.467 -1.5535 -0.3923 -0.9445
 4931SOL    HW226253   3.420   3.245  17.593  1.8180  2.2439  0.8948
 4932SOL     OW26254   1.176   2.910  10.868 -0.2342  0.0830 -0.1792
 4932SOL    HW126255   1.128   2.987  10.837 -0.8605 -0.1392  0.2378
 4932SOL    HW226256   1.149   2.908  10.959  0.4034  2.7985  0.0878
 4933SOL     OW26257   2.978   1.695   5.307 -0.2481  0.0526  0.7189
 4933SOL    HW126258   2.989   1.790   5.307  1.6363 -0.1529  0.8968
 4933SOL    HW226259   2.977   1.682   5.212 -3.0849  1.1701  0.5903
 4934SOL     OW26260   0.119   2.566   2.551  0.6232  0.3683  0.3051
 4934SOL    HW126261   0.189   2.595   2.609  0.8759 -0.5112  0.4321
 4934SOL    HW226262   0.160   2.588   2.467 -0.8474  0.3539 -0.4206
 4935SOL     OW26263   1.640   2.334  16.421 -0.0964  0.4580  0.2108
 4935SOL    HW126264   1.604   2.358  16.507 -0.2589  0.9558  0.0040
 4935SOL    HW226265   1.705   2.270  16.450 -0.9318 -0.3976  0.1708
 4936SOL     OW26266   3.749   3.666   1.268  0.0212  0.1216 -0.4774
 4936SOL    HW126267   3.766   3.601   1.336  2.7157  1.6528  0.3423
 4936SOL    HW226268   3.715   3.617   1.194  2.4641 -0.0885 -1.4436
 4937SOL     OW26269   2.367   0.561  12.835 -0.6684  0.3193  0.5573
 4937SOL    HW126270   2.415   0.482  12.858  0.2300  0.6341 -0.2121
 4937SOL    HW226271   2.361   0.556  12.739 -0.8037 -3.8076  0.7747
 4938SOL     OW26272   3.795   0.643   5.988  0.7440 -0.3314  0.0638
 4938SOL    HW126273   3.843   0.601   5.917  0.0465 -0.8015 -0.1264
 4938SOL    HW226274   3.789   0.737   5.970  2.1984 -0.4641 -1.0817
 4939SOL     OW26275   0.606   1.382   5.002  0.0068  0.3232  0.3052
 4939SOL    HW126276   0.550   1.433   4.943  1.3225  0.5735 -0.7252
 4939SOL    HW226277   0.653   1.458   5.036 -2.6539  2.0439  0.1437
 4940SOL     OW26278   3.039   0.054   4.375 -0.4025 -0.2890  0.8477
 4940SOL    HW126279   2.995   0.049   4.290 -1.7723  0.0552  1.5291
 4940SOL    HW226280   3.093   4.702   4.377 -0.6547 -0.5962 -4.0171
 4941SOL     OW26281   4.350   3.931  10.763 -0.0283  0.6015  0.1777
 4941SOL    HW126282   4.286   4.002  10.755  0.0621  0.3291 -3.0299
 4941SOL    HW226283   4.381   3.949  10.852 -0.7794  1.9317  0.1748
 4942SOL     OW26284   2.459   0.822   5.130  0.3971  0.1365  0.3003
 4942SOL    HW126285   2.538   0.810   5.183  0.7348 -1.2080 -0.5033
 4942SOL    HW226286   2.480   0.775   5.049 -1.2483 -0.2976  0.1367
 4943SOL     OW26287   2.282   3.591   4.480 -0.5355  0.4334 -0.0058
 4943SOL    HW126288   2.310   3.542   4.402  1.9788 -1.2191  1.9437
 4943SOL    HW226289   2.189   3.599   4.458 -0.5671 -0.2446 -0.1397
 4944SOL     OW26290   3.281   4.672   2.674  0.0763 -0.4433  0.4001
 4944SOL    HW126291   3.289   0.041   2.673  2.3299 -0.6272  2.2515
 4944SOL    HW226292   3.195   4.656   2.635 -0.2623  0.3352  0.8295
 4945SOL     OW26293   4.486   4.240   3.294  0.2516 -0.3454 -0.2302
 4945SOL    HW126294   4.547   4.277   3.231 -0.7088 -1.1346 -1.6316
 4945SOL    HW226295   4.420   4.303   3.321  0.0354 -1.0535  0.8810
 4946SOL     OW26296   3.886   1.813   8.840  0.1458  0.3734 -0.4806
 4946SOL    HW126297   3.838   1.744   8.886  1.8756 -0.7184 -0.2845
 4946SOL    HW226298   3.831   1.887   8.865 -0.5409 -0.7335  1.3052
 4947SOL     OW26299   3.113   1.580   8.982 -0.0448  0.0167  0.0112
 4947SOL    HW126300   3.146   1.606   9.068 -4.2542  2.0388  0.9963
 4947SOL    HW226301   3.054   1.509   9.008 -0.1357 -0.4049 -1.3538
 4948SOL     OW26302   3.111   3.714   3.337 -0.1408 -0.0491  0.5675
 4948SOL    HW126303   3.127   3.806   3.318  0.2327  0.4298  3.2712
 4948SOL    HW226304   3.119   3.718   3.432 -1.0226  0.0223  0.6400
 4949SOL     OW26305   1.927   2.828  12.211 -0.1905 -0.0156 -0.0366
 4949SOL    HW126306   1.965   2.866  12.132 -0.5861  0.8997  0.2134
 4949SOL    HW226307   1.900   2.909  12.253 -2.6699 -0.8305 -0.0714
 4950SOL     OW26308   3.029   0.333  12.158 -0.0945 -0.0868  0.2320
 4950SOL    HW126309   3.055   0.355  12.247 -2.0810  1.7282  0.3462
 4950SOL    HW226310   3.083   0.397  12.110  1.4788 -0.0978  2.0133
 4951SOL     OW26311   1.478   2.765   7.313 -0.7309  0.3268 -0.6824
 4951SOL    HW126312   1.544   2.721   7.259 -1.3556  1.4035 -2.3486
 4951SOL    HW226313   1.478   2.850   7.267  1.7620 -0.0352 -1.3798
 4952SOL     OW26314   2.565   1.789   5.839 -0.4161  0.1871  0.2556
 4952SOL    HW126315   2.582   1.879   5.869  2.3039 -0.5509  0.9167
 4952SOL    HW226316   2.538   1.790   5.747 -0.5317 -3.2701  0.2544
 4953SOL     OW26317   0.738   1.678   6.593  0.0590 -0.5835  0.3814
 4953SOL    HW126318   0.741   1.583   6.581  0.7026 -0.6466  1.0366
 4953SOL    HW226319   0.774   1.695   6.680  2.0335 -0.6781 -0.4072
 4954SOL     OW26320   4.237   0.099  12.453  0.0368 -0.2732 -0.4723
 4954SOL    HW126321   4.261   0.021  12.504 -0.0229  0.2194  0.3053
 4954SOL    HW226322   4.143   0.116  12.464  0.0324 -1.0868  0.7337
 4955SOL     OW26323   1.644   4.672   5.776 -0.1258  0.8228 -0.0210
 4955SOL    HW126324   1.549   4.666   5.765 -0.1257 -0.5694  0.8285
 4955SOL    HW226325   1.662   4.639   5.863 -2.3510 -1.1948 -0.3182
 4956SOL     OW26326   1.170   4.441   5.841  0.8804 -0.1435 -0.6371
 4956SOL    HW126327   1.217   4.479   5.915  2.1539 -1.3699 -0.8141
 4956SOL    HW226328   1.121   4.374   5.889 -0.6840 -0.4640 -2.6534
 4957SOL     OW26329   4.421   4.684   7.499 -0.5494  0.1973 -0.2666
 4957SOL    HW126330   4.360   0.017   7.454  2.6053  1.6633 -2.6057
 4957SOL    HW226331   4.363   4.608   7.493 -0.4644  0.1498 -0.4654
 4958SOL     OW26332   0.709   1.938  14.714 -0.2069  0.6100  0.7919
 4958SOL    HW126333   0.623   1.980  14.703 -1.1229 -0.8784  2.1113
 4958SOL    HW226334   0.757   1.997  14.771 -1.8496  1.9697  0.7801
 4959SOL     OW26335   2.382   2.868  12.389 -0.4333  0.4102  0.5128
 4959SOL    HW126336   2.375   2.906  12.302 -0.7611  0.4129  0.5398
 4959SOL    HW226337   2.299   2.821  12.400 -1.9269  2.5193 -1.9093
 4960SOL     OW26338   2.739   2.402   6.006  0.1394  0.5645  0.7749
 4960SOL    HW126339   2.696   2.327   6.047 -1.6210  0.7018 -0.7832
 4960SOL    HW226340   2.823   2.402   6.051 -0.3100 -0.5195  1.6116
 4961SOL     OW26341   0.346   0.370  16.063 -0.6540  0.3870  0.1210
 4961SOL    HW126342   0.360   0.446  16.120 -0.9751 -1.0588  2.1082
 4961SOL    HW226343   0.263   0.395  16.023 -1.4441  0.6650  1.9476
 4962SOL     OW26344   3.982   1.329   6.762 -0.1567  0.1462 -0.0835
 4962SOL    HW126345   3.960   1.261   6.825  0.0833 -0.0191 -0.1802
 4962SOL    HW226346   4.004   1.282   6.681  3.1489 -0.7413  1.3671
 4963SOL     OW26347   3.416   2.476   5.999 -0.0603 -0.6130  0.4501
 4963SOL    HW126348   3.491   2.528   5.971  0.3079 -1.4241 -0.0710
 4963SOL    HW226349   3.341   2.523   5.963 -0.3273  1.2873  3.4418
 4964SOL     OW26350   4.140   3.251  12.300  0.2589  0.0339  0.2310
 4964SOL    HW126351   4.174   3.255  12.210  2.8448 -0.0062  1.2032
 4964SOL    HW226352   4.077   3.323  12.303  0.5711  0.3731 -1.1332
 4965SOL     OW26353   0.389   3.133   4.784 -0.3037  0.3255  0.2400
 4965SOL    HW126354   0.423   3.218   4.755 -0.2647  0.3988  0.5001
 4965SOL    HW226355   0.450   3.116   4.855 -3.3590  0.0329  2.8211
 4966SOL     OW26356   3.731   4.069   8.849  0.2842  0.4424  0.6452
 4966SOL    HW126357   3.738   4.082   8.754  0.6722  2.1234  0.8986
 4966SOL    HW226358   3.730   4.158   8.885  1.0400 -0.2386  2.3652
 4967SOL     OW26359   1.051   3.182   5.548 -0.0493  0.1125  0.2061
 4967SOL    HW126360   0.959   3.171   5.575 -0.2066 -1.2198 -0.8580
 4967SOL    HW226361   1.065   3.090   5.527 -1.2093 -0.2117  0.8301
 4968SOL     OW26362   1.185   1.095  11.559  0.3700 -0.4182 -0.6176
 4968SOL    HW126363   1.138   1.030  11.508 -2.1474 -0.0027  1.1544
 4968SOL    HW226364   1.225   1.144  11.487 -0.1953  0.0648 -0.6037
 4969SOL     OW26365   2.637   4.070   5.101 -0.1935  0.2436 -0.2638
 4969SOL    HW126366   2.617   4.072   5.007 -2.0920  2.4470  0.1864
 4969SOL    HW226367   2.584   4.141   5.138 -0.1293  0.5231 -0.7082
 4970SOL     OW26368   0.975   0.315   1.233 -0.0780  0.2779 -0.0290
 4970SOL    HW126369   0.908   0.363   1.282 -0.7080 -0.1472 -0.4845
 4970SOL    HW226370   0.983   0.369   1.155  1.2944 -1.8168 -1.3262
 4971SOL     OW26371   3.574   4.244   0.347  0.0280 -0.1887 -0.5280
 4971SOL    HW126372   3.643   4.284   0.400 -0.2027 -1.4627  0.7236
 4971SOL    HW226373   3.502   4.290   0.390  1.4725  1.1726  0.4784
 4972SOL     OW26374   2.777   4.642   3.061 -0.2098 -0.1856  0.2997
 4972SOL    HW126375   2.814   4.634   2.973 -0.8436 -0.4231  0.0523
 4972SOL    HW226376   2.687   4.647   3.027  0.7320 -0.2817 -2.1668
 4973SOL     OW26377   0.721   4.404   3.794  0.3915 -0.4477 -0.4948
 4973SOL    HW126378   0.768   4.451   3.724  0.1847 -0.1836 -0.4561
 4973SOL    HW226379   0.761   4.320   3.772 -1.3521 -1.2323 -0.6384
 4974SOL     OW26380   0.706   4.217  13.346 -0.3734 -0.0488 -0.1281
 4974SOL    HW126381   0.721   4.296  13.294 -0.5000  0.4285  0.5538
 4974SOL    HW226382   0.620   4.238  13.382 -1.1380 -0.9157 -1.4623
 4975SOL     OW26383   3.749   0.764   4.509 -0.0162  0.0848  0.3548
 4975SOL    HW126384   3.710   0.851   4.502  0.3252  0.3353  1.5461
 4975SOL    HW226385   3.692   0.717   4.570  0.4559 -0.7356  0.1592
 4976SOL     OW26386   2.442   4.012   4.310  0.5931  0.0517 -0.1086
 4976SOL    HW126387   2.412   4.029   4.399 -0.2260  0.9478 -0.5493
 4976SOL    HW226388   2.471   3.921   4.318 -1.2183 -0.4843  0.4520
 4977SOL     OW26389   1.040   3.836   7.487  0.6511 -0.0060 -0.2041
 4977SOL    HW126390   0.981   3.812   7.417 -1.3880  2.9040  0.5413
 4977SOL    HW226391   0.995   3.912   7.525  0.2431  0.1081 -0.9299
 4978SOL     OW26392   4.501   1.862  10.611 -0.1719 -0.6556 -0.2256
 4978SOL    HW126393   4.488   1.774  10.646 -1.8303  0.4390  1.9154
 4978SOL    HW226394   4.512   1.912  10.692 -1.3578  1.7508 -1.5560
 4979SOL     OW26395   3.641   3.505  15.880  0.8270 -0.3366  0.2345
 4979SOL    HW126396   3.714   3.549  15.836  0.6381  0.5615  0.8178
 4979SOL    HW226397   3.681   3.435  15.931  0.8415 -0.5169 -0.0250
 4980SOL     OW26398   3.595   1.325  17.669  0.4071  0.6829  0.1798
 4980SOL    HW126399   3.528   1.371  17.618  1.4114 -0.6156 -2.2834
 4980SOL    HW226400   3.572   1.238  17.637  1.8363  0.2675  0.2899
 4981SOL     OW26401   2.930   1.753   3.486  0.5013 -0.0431  0.5603
 4981SOL    HW126402   2.954   1.714   3.570  1.4417 -0.9611 -0.1327
 4981SOL    HW226403   2.866   1.689   3.454  0.9671 -0.0142 -0.4306
 4982SOL     OW26404   0.295   3.043   6.088 -0.8698 -0.3641  0.4038
 4982SOL    HW126405   0.219   3.081   6.133 -1.1088  0.2460 -0.5218
 4982SOL    HW226406   0.341   2.988   6.152 -1.3861 -1.7445 -0.4382
 4983SOL     OW26407   3.415   3.248   0.253  0.3614  0.0075  0.0655
 4983SOL    HW126408   3.411   3.344   0.249 -0.4166 -0.0200  0.1649
 4983SOL    HW226409   3.343   3.237   0.316 -0.2277 -1.1041 -0.8030
 4984SOL     OW26410   4.019   2.093   3.411 -0.1075 -0.5174  0.7577
 4984SOL    HW126411   4.058   2.149   3.479 -2.3019  0.7394  0.9846
 4984SOL    HW226412   4.061   2.128   3.333 -1.1281 -1.2441 -0.1161
 4985SOL     OW26413   1.184   1.933   6.440 -0.2483 -0.1602 -0.0090
 4985SOL    HW126414   1.138   1.849   6.438 -0.5796  0.0159  0.3760
 4985SOL    HW226415   1.210   1.935   6.348 -4.5925 -2.0223 -1.2614
 4986SOL     OW26416   2.172   2.537   7.944  0.3333 -0.1132  0.0378
 4986SOL    HW126417   2.244   2.552   8.005 -0.7744  0.9069  1.1002
 4986SOL    HW226418   2.117   2.498   8.012 -0.1376 -0.2880 -0.4431
 4987SOL     OW26419   4.700   3.849  13.049 -0.4172  0.3892 -0.1909
 4987SOL    HW126420   4.681   3.942  13.033 -1.1499  0.2632 -0.0812
 4987SOL    HW226421   4.610   3.817  13.043 -0.5168  0.2678  1.7847
 4988SOL     OW26422   3.710   0.124   2.832  0.1071  0.1228  0.3620
 4988SOL    HW126423   3.652   0.098   2.902 -2.5391 -1.3009 -2.3601
 4988SOL    HW226424   3.761   0.044   2.845  0.4215  0.2834  0.1212
 4989SOL     OW26425   3.154   3.520   1.903  0.3211 -0.0804  0.3118
 4989SOL    HW126426   3.113   3.511   1.989  1.6571  0.6842  1.0314
 4989SOL    HW226427   3.111   3.600   1.873 -0.2077  0.1343  1.6495
 4990SOL     OW26428   0.966   0.895   2.601  0.0049 -0.4359  0.2881
 4990SOL    HW126429   0.886   0.866   2.557  0.1043 -1.1404  0.5585
 4990SOL    HW226430   0.995   0.814   2.644  0.2594 -0.9462 -0.8487
 4991SOL     OW26431   1.168   0.208   6.197  0.6077 -0.7668  0.2632
 4991SOL    HW126432   1.081   0.209   6.236  0.6661 -1.8232  0.4110
 4991SOL    HW226433   1.195   0.297   6.219 -2.4834  0.4380 -0.8844
 4992SOL     OW26434   1.868   4.290   6.019  0.1056  0.5173 -0.1155
 4992SOL    HW126435   1.959   4.312   6.000  0.1688 -0.3624 -0.8619
 4992SOL    HW226436   1.874   4.252   6.107 -0.5408  0.2446 -0.1839
 4993SOL     OW26437   3.663   3.199   7.846 -0.0454  0.6749 -0.3617
 4993SOL    HW126438   3.757   3.214   7.836  0.0967 -0.6350 -0.9742
 4993SOL    HW226439   3.655   3.156   7.761 -1.8288  1.2506 -0.4838
 4994SOL     OW26440   4.587   4.033   0.258 -0.9686  0.5052 -0.1043
 4994SOL    HW126441   4.493   4.036   0.242 -1.4294 -0.7840  2.3573
 4994SOL    HW226442   4.580   4.032   0.353  2.6844  2.4782  0.1821
 4995SOL     OW26443   1.376   4.479   9.139  0.0606  0.2355 -0.3213
 4995SOL    HW126444   1.470   4.483   9.123  0.0387  1.0395 -0.2222
 4995SOL    HW226445   1.356   4.398   9.186  2.9833 -0.5523 -0.4162
 4996SOL     OW26446   1.379   0.578   1.444  0.5198  0.1597 -0.2646
 4996SOL    HW126447   1.316   0.625   1.499 -1.0777 -0.3174 -1.7136
 4996SOL    HW226448   1.328   0.562   1.365  0.3835 -1.6886  0.1993
 4997SOL     OW26449   1.200   0.073  11.301 -0.1302 -0.8087  0.0081
 4997SOL    HW126450   1.120   0.105  11.260  0.5795 -0.8580 -1.4160
 4997SOL    HW226451   1.176   0.106  11.388  0.4267  0.8196 -0.4571
 4998SOL     OW26452   1.038   4.102   1.962 -0.4189 -0.7549  0.7054
 4998SOL    HW126453   1.015   4.101   1.869 -0.0956 -1.9565  0.6414
 4998SOL    HW226454   1.123   4.058   1.961  0.3537  0.7973 -2.1224
 4999SOL     OW26455   0.835   3.580   7.584  0.1098 -0.0445  0.0718
 4999SOL    HW126456   0.753   3.587   7.535  0.3076 -0.9927 -0.3906
 4999SOL    HW226457   0.893   3.544   7.516  2.0334 -0.3568  1.8849
 5000SOL     OW26458   1.484   1.845   5.165  0.7837  0.2412  0.0913
 5000SOL    HW126459   1.421   1.902   5.121  1.5677 -0.7544 -2.3061
 5000SOL    HW226460   1.528   1.900   5.229 -0.9325  1.1419  0.4919
 5001SOL     OW26461   3.139   2.827  17.624  0.2158  0.1861  0.2238
 5001SOL    HW126462   3.228   2.846  17.652  0.8628 -0.2469 -1.5413
 5001SOL    HW226463   3.134   2.749  17.678  0.5189 -0.6684 -0.9707
 5002SOL     OW26464   1.599   2.905   2.081  0.3038  0.0866  0.1989
 5002SOL    HW126465   1.585   2.814   2.053  1.8043 -1.0419  3.0137
 5002SOL    HW226466   1.693   2.912   2.067  0.1592  1.8823  0.1081
 5003SOL     OW26467   2.527   0.342  13.872  0.4451  0.7788  0.1988
 5003SOL    HW126468   2.572   0.273  13.920  1.7617  1.6597  0.2290
 5003SOL    HW226469   2.491   0.298  13.795  0.8856 -1.9065  1.5308
 5004SOL     OW26470   2.231   0.645   7.982 -0.1949 -0.5761  0.5311
 5004SOL    HW126471   2.176   0.592   8.039 -1.6063 -0.6913 -0.9585
 5004SOL    HW226472   2.167   0.710   7.954 -0.7995  0.4098  4.2216
 5005SOL     OW26473   3.226   0.912   2.815  0.3278 -0.0218 -0.2195
 5005SOL    HW126474   3.164   0.843   2.837 -0.6393  0.3484 -1.7897
 5005SOL    HW226475   3.172   0.989   2.835  1.5227  0.5647  0.7447
 5006SOL     OW26476   3.013   2.755  14.407  0.1775  0.2580  0.6938
 5006SOL    HW126477   3.047   2.822  14.348  0.5779  0.2745  0.9422
 5006SOL    HW226478   3.058   2.674  14.382 -1.4762  0.0537 -1.6591
 5007SOL     OW26479   1.022   1.400   2.331 -0.1276 -0.3885 -0.2473
 5007SOL    HW126480   1.014   1.443   2.246 -0.1240  1.2903  0.5991
 5007SOL    HW226481   0.972   1.463   2.384  1.9075  1.1516 -0.1342
 5008SOL     OW26482   2.727   4.673   6.866 -0.4445 -0.1126 -0.4891
 5008SOL    HW126483   2.714   0.028   6.817  0.8220  1.6620  2.1243
 5008SOL    HW226484   2.731   4.702   6.957  0.1613 -2.1685  0.1522
 5009SOL     OW26485   0.131   3.665   8.863  0.2741 -0.4114 -0.2687
 5009SOL    HW126486   0.211   3.653   8.914  1.7651  0.5556 -2.3488
 5009SOL    HW226487   0.169   3.717   8.791 -0.1987  1.9492  1.1852
 5010SOL     OW26488   3.138   1.010  17.194 -0.9435  0.3911 -0.4831
 5010SOL    HW126489   3.218   0.959  17.177 -2.0003 -0.9871 -1.2817
 5010SOL    HW226490   3.073   0.991  17.127 -1.0218 -0.8119 -0.0740
 5011SOL     OW26491   2.764   3.065   0.760  0.1929  0.4935  0.2713
 5011SOL    HW126492   2.673   3.044   0.778  0.3462 -0.1802  0.2406
 5011SOL    HW226493   2.786   3.005   0.690  0.3648 -0.5106  1.1887
 5012SOL     OW26494   2.382   0.994   1.524  0.1829 -0.5485  0.3463
 5012SOL    HW126495   2.438   0.931   1.569  0.2224  0.3063  1.4867
 5012SOL    HW226496   2.323   0.936   1.475  0.3006 -1.7020  1.5747
 5013SOL     OW26497   2.501   3.815   3.215  0.0982 -0.1150 -0.1670
 5013SOL    HW126498   2.581   3.772   3.183  1.1793  1.4155  0.4816
 5013SOL    HW226499   2.485   3.884   3.151  0.2765  0.2816  0.2139
 5014SOL     OW26500   4.657   0.854   3.923  0.3275 -0.0805 -0.5523
 5014SOL    HW126501   4.614   0.830   4.005  1.1600 -0.5593 -0.2509
 5014SOL    HW226502   4.713   0.778   3.905  0.5599 -0.2249  0.7818
 5015SOL     OW26503   0.380   4.075   0.378  0.0954 -0.0696  0.1805
 5015SOL    HW126504   0.452   4.112   0.327  0.5307  0.2665  1.0500
 5015SOL    HW226505   0.389   4.136   0.451  1.1656 -2.3509  1.9640
 5016SOL     OW26506   3.804   4.059  14.419  0.0712  0.4444 -1.1324
 5016SOL    HW126507   3.809   4.154  14.409 -1.8832  0.4465 -2.0833
 5016SOL    HW226508   3.710   4.054  14.436  0.1580  1.7339 -0.2747
 5017SOL     OW26509   4.248   0.983  13.790 -0.7425  0.4099 -0.5665
 5017SOL    HW126510   4.178   0.988  13.724 -0.3721  2.2057 -0.8004
 5017SOL    HW226511   4.232   0.893  13.819  2.4301 -0.3620 -1.2586
 5018SOL     OW26512   3.717   3.115   6.961 -0.1988  0.5093 -0.0729
 5018SOL    HW126513   3.767   3.168   7.024  0.3172  0.7584 -0.6865
 5018SOL    HW226514   3.632   3.108   7.005  0.7873 -0.5621  1.7009
 5019SOL     OW26515   4.162   0.806  10.860  0.0734 -0.3164 -0.2000
 5019SOL    HW126516   4.120   0.866  10.921 -1.2977 -1.8349  0.3387
 5019SOL    HW226517   4.127   0.720  10.883 -0.0005  0.3611  2.1660
 5020SOL     OW26518   0.936   3.017   3.348  0.1288 -0.0573 -0.7642
 5020SOL    HW126519   1.004   3.031   3.283  1.5199 -0.9463  0.4887
 5020SOL    HW226520   0.981   3.048   3.427 -1.4054  0.7893 -0.2169
 5021SOL     OW26521   1.947   3.829   7.318  0.0077  0.1510 -0.4689
 5021SOL    HW126522   1.989   3.899   7.369 -0.9581  0.5178 -0.1833
 5021SOL    HW226523   2.024   3.773   7.302 -0.2771 -0.3690 -0.0442
 5022SOL     OW26524   4.489   0.437   7.624 -0.0047  0.3744  0.1406
 5022SOL    HW126525   4.537   0.470   7.700  1.2711 -0.3309 -0.3640
 5022SOL    HW226526   4.511   0.344   7.633 -3.6097 -0.1411  3.9223
 5023SOL     OW26527   2.442   2.544   1.795  0.2302 -0.0809 -0.0278
 5023SOL    HW126528   2.425   2.638   1.795 -2.1477 -0.5286 -2.9311
 5023SOL    HW226529   2.362   2.513   1.837  0.2015  1.2584  0.9070
 5024SOL     OW26530   4.608   3.391  12.704  0.1583 -0.4640 -0.1198
 5024SOL    HW126531   4.585   3.336  12.629 -0.1790  0.1295 -0.4537
 5024SOL    HW226532   4.704   3.388  12.713 -0.1362 -0.5286  2.9407
 5025SOL     OW26533   2.383   1.357   5.218  0.0133 -1.1153  0.4385
 5025SOL    HW126534   2.354   1.269   5.241  0.8332 -0.8335  2.4811
 5025SOL    HW226535   2.325   1.404   5.277  1.7182  1.0564  0.3938
 5026SOL     OW26536   2.456   1.297  17.380 -0.3766 -0.6996  0.0270
 5026SOL    HW126537   2.501   1.213  17.381 -0.9949 -1.0318  0.1087
 5026SOL    HW226538   2.429   1.326  17.468 -3.7512  2.0053 -1.8817
 5027SOL     OW26539   2.527   0.914   9.425 -0.2622 -0.1836 -0.1300
 5027SOL    HW126540   2.570   0.999   9.416 -1.3650  0.3131 -0.6922
 5027SOL    HW226541   2.576   0.859   9.364 -1.2932  1.3239 -2.3522
 5028SOL     OW26542   4.590   2.420   5.362 -0.0107  0.1652 -0.0467
 5028SOL    HW126543   4.543   2.414   5.279 -1.8162 -1.5235  1.0891
 5028SOL    HW226544   4.649   2.345   5.356 -0.0144  0.1009  0.7413
 5029SOL     OW26545   3.038   3.015   1.144 -0.7250 -0.0699  0.1322
 5029SOL    HW126546   3.054   2.922   1.130 -2.0514 -0.3351  0.4062
 5029SOL    HW226547   3.013   3.043   1.056 -3.0037  0.9289  1.0867
 5030SOL     OW26548   1.215   1.232   9.002  0.7491 -0.1654 -0.2166
 5030SOL    HW126549   1.145   1.287   8.968 -2.1946 -4.0135 -0.3107
 5030SOL    HW226550   1.159   1.163   9.037 -1.9320  2.3500  0.3796
 5031SOL     OW26551   0.198   4.549   7.769 -0.3495  0.1371  0.1990
 5031SOL    HW126552   0.122   4.514   7.724 -0.8983 -0.5585  1.6435
 5031SOL    HW226553   0.153   4.600   7.837  2.0945  0.1122  1.8537
 5032SOL     OW26554   2.414   0.156  10.471 -0.1333  0.4744  0.0017
 5032SOL    HW126555   2.505   0.132  10.452 -0.7465 -1.8223 -0.1035
 5032SOL    HW226556   2.379   0.166  10.382 -2.2999 -0.6029  0.7258
 5033SOL     OW26557   4.585   2.777  16.988  0.0270  0.0839  0.4601
 5033SOL    HW126558   4.585   2.869  17.014  3.1515  0.4833 -0.8283
 5033SOL    HW226559   4.674   2.751  17.014  0.9533  0.9752 -1.7522
 5034SOL     OW26560   3.260   0.052   2.385 -0.1195  0.0032 -0.2859
 5034SOL    HW126561   3.348   0.016   2.397 -0.3360 -1.0423 -1.8865
 5034SOL    HW226562   3.282   0.138   2.348  0.2093 -0.0508 -0.2175
 5035SOL     OW26563   1.934   0.551   7.331  0.5645 -0.1233  0.1745
 5035SOL    HW126564   1.891   0.559   7.246  0.1780 -0.5265  0.3344
 5035SOL    HW226565   1.881   0.486   7.377  0.1184 -0.0794 -0.2854
 5036SOL     OW26566   1.067   3.442  16.821  0.2802  0.0899 -0.3708
 5036SOL    HW126567   1.040   3.512  16.881 -3.3148 -2.0106  0.5081
 5036SOL    HW226568   0.991   3.387  16.801  0.0384  0.7578 -1.2780
 5037SOL     OW26569   4.712   1.113  11.998 -0.0016  0.0945  0.0375
 5037SOL    HW126570   0.031   1.045  12.048 -0.1953 -0.2227 -0.2235
 5037SOL    HW226571   4.624   1.108  12.034  0.9722 -2.0692  2.1418
 5038SOL     OW26572   2.804   1.459   7.402 -0.2279 -0.3105 -0.5263
 5038SOL    HW126573   2.833   1.413   7.480 -0.5944  2.5837  1.3112
 5038SOL    HW226574   2.812   1.547   7.438  1.2416 -0.8453  0.4466
 5039SOL     OW26575   4.390   2.354  12.095  0.0820  0.1711  0.3044
 5039SOL    HW126576   4.413   2.349  12.188 -1.6933  0.4359  0.7464
 5039SOL    HW226577   4.299   2.325  12.100 -0.3018  1.5375  1.3201
 5040SOL     OW26578   0.216   0.942  10.432 -0.1061 -0.4561  0.0192
 5040SOL    HW126579   0.166   0.984  10.502  1.4340  0.8533  0.3150
 5040SOL    HW226580   0.142   0.921  10.375 -1.0156  2.5823  0.0478
 5041SOL     OW26581   4.218   2.706   8.049  0.2174  0.2312 -0.1841
 5041SOL    HW126582   4.181   2.708   8.137 -2.8762  2.5589 -1.5272
 5041SOL    HW226583   4.283   2.774   8.066 -0.6730  0.4096  2.4476
 5042SOL     OW26584   4.364   0.437   4.787  0.6131  0.3041  0.7001
 5042SOL    HW126585   4.454   0.434   4.820  1.0457  1.6374 -0.3053
 5042SOL    HW226586   4.323   0.360   4.824  0.0414  0.1843 -0.1803
 5043SOL     OW26587   2.740   0.352   9.873 -0.3672 -0.6915 -0.4490
 5043SOL    HW126588   2.798   0.319   9.942 -1.3729  0.9326  1.1750
 5043SOL    HW226589   2.751   0.447   9.879 -0.4713 -0.6345 -1.1337
 5044SOL     OW26590   0.037   0.704   8.019 -0.0313  0.0436 -0.3803
 5044SOL    HW126591   0.099   0.698   8.091 -1.2643 -0.6397  0.6147
 5044SOL    HW226592   4.681   0.700   8.068  0.0477  1.2231 -0.1371
 5045SOL     OW26593   4.272   1.331   4.819 -0.0229 -0.6025  0.1789
 5045SOL    HW126594   4.261   1.356   4.911 -0.4200  0.8796 -0.2599
 5045SOL    HW226595   4.367   1.335   4.824 -0.1196  1.0742  0.8193
 5046SOL     OW26596   2.810   2.100   6.120  0.1450  0.1835 -0.0991
 5046SOL    HW126597   2.790   2.044   6.195 -0.9730  0.0184 -0.5226
 5046SOL    HW226598   2.895   2.132   6.151 -1.3925  1.9316  2.2497
 5047SOL     OW26599   3.896   2.901  16.115 -0.1223  0.1365  0.4659
 5047SOL    HW126600   3.959   2.961  16.155 -2.6237  1.0949  2.9343
 5047SOL    HW226601   3.919   2.939  16.030  0.5550 -1.0783  0.1059
 5048SOL     OW26602   3.330   0.231  10.349 -0.2808  0.0674  0.1422
 5048SOL    HW126603   3.396   0.295  10.379 -0.2473 -0.5765  1.4388
 5048SOL    HW226604   3.312   0.187  10.432  1.1421 -1.3543 -0.2988
 5049SOL     OW26605   1.097   2.302   4.110 -0.3269 -0.2915  0.1289
 5049SOL    HW126606   1.153   2.365   4.064  0.2892 -0.1950  0.9960
 5049SOL    HW226607   1.115   2.220   4.065 -2.2338 -1.4608  1.4893
 5050SOL     OW26608   3.102   3.683   6.506  0.2735 -0.2294  0.0127
 5050SOL    HW126609   3.113   3.630   6.426  1.0021  0.0918 -0.1046
 5050SOL    HW226610   3.117   3.769   6.466  1.3811 -0.1047  0.7069
 5051SOL     OW26611   1.102   1.258   6.485 -0.8815  0.0139 -0.2167
 5051SOL    HW126612   1.182   1.211   6.463 -0.7534  0.6729 -1.2061
 5051SOL    HW226613   1.033   1.199   6.455  0.6302 -0.3553 -2.9597
 5052SOL     OW26614   0.317   3.852   3.299 -0.1156 -0.4717  0.3441
 5052SOL    HW126615   0.348   3.762   3.288 -1.0861 -0.9514  1.6014
 5052SOL    HW226616   0.286   3.848   3.389 -0.0919  0.9191  0.4041
 5053SOL     OW26617   0.519   2.652   3.738 -0.3552  1.1349 -0.5184
 5053SOL    HW126618   0.463   2.628   3.664 -0.7707 -3.4678  1.2710
 5053SOL    HW226619   0.510   2.746   3.726  2.1328  1.5248  0.6893
 5054SOL     OW26620   0.655   1.552   8.026  0.3157 -0.3688  0.0826
 5054SOL    HW126621   0.617   1.467   8.006  0.6008 -0.7280  1.0545
 5054SOL    HW226622   0.728   1.524   8.081  0.4737  1.9528  1.0466
 5055SOL     OW26623   2.256   1.800   3.865 -0.1270 -0.0802 -0.3639
 5055SOL    HW126624   2.330   1.803   3.804 -0.5763  2.9717 -0.7455
 5055SOL    HW226625   2.190   1.765   3.806 -0.6392  0.4101 -0.0754
 5056SOL     OW26626   2.245   3.482  11.564  0.6243 -0.2502 -0.2677
 5056SOL    HW126627   2.230   3.392  11.592  0.6358 -0.6723 -1.6601
 5056SOL    HW226628   2.201   3.528  11.636 -1.4031 -1.1599 -0.9321
 5057SOL     OW26629   1.104   0.096  13.079  0.5656  0.3103  0.1018
 5057SOL    HW126630   1.109   0.058  13.167  1.6990 -0.6332 -0.3745
 5057SOL    HW226631   1.190   0.138  13.071  2.0667 -2.6466  1.0373
 5058SOL     OW26632   2.678   4.569   8.746 -0.4325  0.1932 -0.0917
 5058SOL    HW126633   2.696   4.588   8.838 -1.5482 -2.5693  0.6953
 5058SOL    HW226634   2.769   4.588   8.722 -0.5311 -1.9459 -2.1711
 5059SOL     OW26635   4.539   2.386   6.336  0.0162 -0.2058  0.4285
 5059SOL    HW126636   4.541   2.468   6.288 -0.0007 -0.5418 -0.1444
 5059SOL    HW226637   4.595   2.336   6.277  0.2583 -0.7999  1.1479
 5060SOL     OW26638   1.956   0.621   4.294  0.8700  0.2045  0.2209
 5060SOL    HW126639   1.946   0.532   4.328  0.9011  0.3004  0.4873
 5060SOL    HW226640   1.922   0.670   4.369 -0.1318  0.7608 -0.6179
 5061SOL     OW26641   1.423   2.203  11.858 -0.5303  0.1846 -0.0283
 5061SOL    HW126642   1.484   2.267  11.821 -0.2517 -0.5581 -0.8414
 5061SOL    HW226643   1.472   2.195  11.940 -1.2461  1.2720  0.5022
 5062SOL     OW26644   4.652   3.650   3.320 -0.5126  0.1578  0.2253
 5062SOL    HW126645   4.712   3.668   3.392  1.0080 -2.4688 -0.3967
 5062SOL    HW226646   4.564   3.639   3.357 -0.7842 -0.5494 -0.6284
 5063SOL     OW26647   4.110   1.417  17.266 -0.1527 -0.5727 -0.3536
 5063SOL    HW126648   4.076   1.479  17.202 -0.6479 -1.5474 -1.0175
 5063SOL    HW226649   4.144   1.479  17.332  0.4101  0.2250 -1.3964
 5064SOL     OW26650   1.709   3.782  14.779  0.3651 -0.4531  0.0196
 5064SOL    HW126651   1.669   3.764  14.865  3.5760 -1.5021  1.2615
 5064SOL    HW226652   1.706   3.695  14.739 -0.6909  0.0923 -1.0936
 5065SOL     OW26653   2.339   1.028   5.002  0.7005 -0.1850  0.1022
 5065SOL    HW126654   2.384   0.951   5.037  1.1114 -0.8128 -1.7883
 5065SOL    HW226655   2.318   1.059   5.090 -1.8236 -2.0398  0.1422
 5066SOL     OW26656   0.997   2.426   3.848 -0.7184 -0.2351 -0.2749
 5066SOL    HW126657   0.941   2.402   3.921 -2.5121  1.4104 -1.1182
 5066SOL    HW226658   0.941   2.443   3.773 -0.5232  0.2472 -0.3100
 5067SOL     OW26659   1.154   1.760   8.852 -0.0197  0.3705 -0.0541
 5067SOL    HW126660   1.205   1.743   8.932  0.0943  1.2261  0.0558
 5067SOL    HW226661   1.072   1.715   8.868 -0.4102  0.9134 -0.5285
 5068SOL     OW26662   2.370   4.289  10.477 -0.3348  0.0892  0.6528
 5068SOL    HW126663   2.454   4.325  10.448 -0.8849  1.0184  0.2122
 5068SOL    HW226664   2.333   4.369  10.513 -1.3684 -0.2796  0.4184
 5069SOL     OW26665   4.618   0.292   7.144 -0.1246  0.4387 -0.0631
 5069SOL    HW126666   4.690   0.343   7.106  0.3549 -1.4202 -1.6875
 5069SOL    HW226667   4.615   0.347   7.222 -1.5832  0.9632 -0.4783
 5070SOL     OW26668   3.424   0.230   6.005  0.1219 -0.0632 -0.2015
 5070SOL    HW126669   3.436   0.149   5.954  0.6604  0.9473 -1.6868
 5070SOL    HW226670   3.488   0.214   6.074  0.9269  3.5203 -0.1315
 5071SOL     OW26671   2.130   4.309   8.668 -0.1777  0.6037  0.1181
 5071SOL    HW126672   2.117   4.215   8.673  1.0216  0.5277  1.6845
 5071SOL    HW226673   2.040   4.341   8.679  0.1169  1.5967 -0.3127
 5072SOL     OW26674   4.485   2.097  14.825  0.0224  0.4756 -0.2743
 5072SOL    HW126675   4.515   2.155  14.754  0.5495  0.9986  0.3677
 5072SOL    HW226676   4.569   2.081  14.869 -0.2605 -1.7630 -0.5557
 5073SOL     OW26677   2.701   2.603   8.490 -0.4466 -0.0840  0.2304
 5073SOL    HW126678   2.727   2.692   8.465 -0.2402 -0.8016 -2.1102
 5073SOL    HW226679   2.629   2.634   8.544  1.0165 -0.8909  2.6206
 5074SOL     OW26680   1.372   4.711   6.349 -0.1762 -0.1202  0.1843
 5074SOL    HW126681   1.313   0.043   6.300  0.5244 -1.0685 -1.7822
 5074SOL    HW226682   1.444   4.704   6.286  1.3075  0.5562  1.7973
 5075SOL     OW26683   3.867   2.836  12.663  0.5738  0.3355  0.1906
 5075SOL    HW126684   3.871   2.760  12.721  1.0688 -1.0815 -1.6931
 5075SOL    HW226685   3.772   2.843  12.661  0.7213  1.8949 -1.4428
 5076SOL     OW26686   0.830   4.425  15.180 -0.3895 -0.0792  0.0493
 5076SOL    HW126687   0.804   4.516  15.163  1.9943  0.3483 -1.4104
 5076SOL    HW226688   0.747   4.380  15.194 -0.6128  0.8832  1.7949
 5077SOL     OW26689   1.613   0.157   2.146 -0.3016 -0.4889  0.2437
 5077SOL    HW126690   1.556   0.138   2.220 -1.6594  2.1561 -0.1388
 5077SOL    HW226691   1.559   0.143   2.068  0.5482  2.0159 -0.8087
 5078SOL     OW26692   3.667   0.605   3.590 -0.3214  0.3223  0.2569
 5078SOL    HW126693   3.697   0.641   3.507 -1.2227  0.1544 -0.1382
 5078SOL    HW226694   3.724   0.532   3.613  1.3307  1.4596 -0.1652
 5079SOL     OW26695   1.188   1.945   5.464  0.6008 -0.3446  0.7979
 5079SOL    HW126696   1.157   1.917   5.550  0.6934 -0.5578  0.7624
 5079SOL    HW226697   1.248   2.014   5.490 -1.4530  1.4401  0.7528
 5080SOL     OW26698   1.857   3.042   7.722 -0.2482  0.4492  0.3345
 5080SOL    HW126699   1.922   3.078   7.782  1.9278 -0.4000 -1.5021
 5080SOL    HW226700   1.915   2.986   7.670  0.7423  0.0706  1.8557
 5081SOL     OW26701   0.768   1.191   8.872 -0.3838 -0.5279 -0.3164
 5081SOL    HW126702   0.679   1.161   8.855 -2.0658  1.8321  4.3564
 5081SOL    HW226703   0.814   1.131   8.813  0.7304 -1.7672  1.8090
 5082SOL     OW26704   3.939   3.306   6.244  0.1676  0.0529  0.1357
 5082SOL    HW126705   4.007   3.354   6.290  1.2854 -0.2411 -1.1823
 5082SOL    HW226706   3.988   3.265   6.172 -3.7329  0.1151 -2.5991
 5083SOL     OW26707   3.963   3.925   6.685 -0.1609 -0.2312  0.2775
 5083SOL    HW126708   3.957   3.904   6.592  0.2688  0.2924  0.1333
 5083SOL    HW226709   3.961   4.021   6.680  1.3150 -0.0244  3.4793
 5084SOL     OW26710   1.742   1.518   6.081 -0.4616  0.0278 -0.3635
 5084SOL    HW126711   1.820   1.467   6.101 -0.7405 -0.2102  0.1168
 5084SOL    HW226712   1.728   1.561   6.166 -0.0134  0.1824 -0.3686
 5085SOL     OW26713   2.716   1.996   0.661  0.0871  0.1006  0.2595
 5085SOL    HW126714   2.667   2.047   0.597 -0.4470 -0.8398 -0.0626
 5085SOL    HW226715   2.786   2.062   0.668 -0.6239  0.9108 -0.3627
 5086SOL     OW26716   3.360   0.552   2.134 -0.1174 -0.5272 -0.4917
 5086SOL    HW126717   3.268   0.546   2.110  0.5716 -1.5946 -2.8248
 5086SOL    HW226718   3.402   0.499   2.067  0.9250 -2.2466  1.5212
 5087SOL     OW26719   4.611   0.251   6.092 -0.0498 -0.3107 -0.3546
 5087SOL    HW126720   4.699   0.284   6.076 -1.0927  2.6969  0.0189
 5087SOL    HW226721   4.614   0.156   6.081  0.0743 -0.3206 -0.2242
 5088SOL     OW26722   1.978   3.598   7.739 -0.2805 -0.2804  0.1113
 5088SOL    HW126723   1.900   3.651   7.721  0.7656  0.4552 -2.2665
 5088SOL    HW226724   1.959   3.581   7.831  0.0012  0.5971  0.3288
 5089SOL     OW26725   0.574   0.996   8.810 -0.1583 -0.3246 -0.4256
 5089SOL    HW126726   0.555   0.991   8.904  0.6790  0.0205 -0.2385
 5089SOL    HW226727   0.642   0.930   8.798 -0.0891 -0.1833 -0.7991
 5090SOL     OW26728   3.878   4.539   6.033  0.3271  0.2320  0.3209
 5090SOL    HW126729   3.821   4.561   5.959  0.9055  2.1311  0.4645
 5090SOL    HW226730   3.926   4.468   5.992 -1.4075  0.2138 -1.6741
 5091SOL     OW26731   4.708   2.034   5.863  0.4003 -0.6013  0.1007
 5091SOL    HW126732   4.630   2.080   5.832 -0.9626 -2.0873  1.3184
 5091SOL    HW226733   0.034   2.044   5.783  0.0902  1.2247  0.1280
 5092SOL     OW26734   2.564   3.204   9.824 -0.2867 -0.3315  0.5751
 5092SOL    HW126735   2.559   3.286   9.775 -2.2169 -1.5485 -1.2406
 5092SOL    HW226736   2.514   3.215   9.905 -0.9412  0.0204  0.1262
 5093SOL     OW26737   2.559   2.392   1.011  0.0937 -0.0777  0.2835
 5093SOL    HW126738   2.610   2.453   1.065 -0.9279  0.6134  0.4560
 5093SOL    HW226739   2.512   2.347   1.081  0.9103 -1.2847  0.0610
 5094SOL     OW26740   0.446   2.911  12.863  0.2319  0.3086  0.1517
 5094SOL    HW126741   0.408   2.854  12.930 -0.9127 -1.3248 -1.9270
 5094SOL    HW226742   0.374   2.918  12.801 -2.4503  0.9641  3.3337
 5095SOL     OW26743   4.133   0.022   2.709 -0.4637 -0.2111  0.5325
 5095SOL    HW126744   4.066   0.055   2.769 -0.5749  0.6190 -0.0626
 5095SOL    HW226745   4.191   0.092   2.741 -0.0237 -1.0431  1.5979
 5096SOL     OW26746   2.574   0.401  17.334 -0.6855  0.3463 -0.1410
 5096SOL    HW126747   2.620   0.452  17.400 -2.1984  0.7297  0.6245
 5096SOL    HW226748   2.580   0.461  17.260 -2.3030 -0.4206 -0.8977
 5097SOL     OW26749   2.169   3.551   0.168 -0.0677  0.2870  0.5614
 5097SOL    HW126750   2.248   3.538   0.116 -0.8063  3.9321 -1.4584
 5097SOL    HW226751   2.106   3.539   0.097 -0.4794 -1.5100  1.2189
 5098SOL     OW26752   3.678   3.473   6.002  0.5794 -0.6538  0.3732
 5098SOL    HW126753   3.695   3.516   6.086  0.9547 -0.9083  0.4283
 5098SOL    HW226754   3.590   3.509   5.992  0.6590 -0.3507  0.7484
 5099SOL     OW26755   3.032   2.506   8.183  0.1312 -0.3666 -0.0220
 5099SOL    HW126756   3.073   2.499   8.097 -0.5886  0.3106 -0.4181
 5099SOL    HW226757   3.046   2.597   8.209  1.1645 -0.8894  1.2408
 5100SOL     OW26758   1.804   2.561   4.691 -0.3641  0.3998  0.4022
 5100SOL    HW126759   1.753   2.495   4.643  1.3972 -0.2555 -0.5814
 5100SOL    HW226760   1.801   2.524   4.779 -0.7662  0.2699  0.3337
 5101SOL     OW26761   3.428   4.209   1.498  0.4097 -0.0466  0.6304
 5101SOL    HW126762   3.408   4.134   1.553 -0.3317  0.7357  1.4379
 5101SOL    HW226763   3.363   4.269   1.534  0.9038  0.7359  0.2233
 5102SOL     OW26764   4.168   4.610   6.167  0.0876 -0.1068  0.0608
 5102SOL    HW126765   4.111   4.680   6.198  0.0785  0.8230 -2.0218
 5102SOL    HW226766   4.222   4.591   6.244 -0.4687  0.4260  0.5863
 5103SOL     OW26767   1.978   2.143   7.902 -1.1109 -0.4771  0.4562
 5103SOL    HW126768   1.926   2.221   7.921 -0.6947  0.1846 -1.1244
 5103SOL    HW226769   1.914   2.076   7.878  0.5724 -1.4420 -1.3602
 5104SOL     OW26770   3.036   2.954  14.879 -0.3378 -0.1391  0.0819
 5104SOL    HW126771   2.946   2.980  14.902  0.3491  0.6555  1.8606
 5104SOL    HW226772   3.047   2.895  14.954  0.7567 -0.1876 -0.1204
 5105SOL     OW26773   1.295   3.265   8.957  0.5064  0.8271  0.2284
 5105SOL    HW126774   1.348   3.197   8.917 -1.0511 -0.7359  0.8257
 5105SOL    HW226775   1.270   3.320   8.883  3.1778  0.6964 -0.7631
 5106SOL     OW26776   2.577   2.734   7.454  0.4728 -0.3921  0.6217
 5106SOL    HW126777   2.525   2.653   7.453 -0.4099  0.2865 -4.7756
 5106SOL    HW226778   2.661   2.701   7.487 -0.8825 -2.6845  1.8313
 5107SOL     OW26779   0.311   2.789   5.038  0.1920  0.2273 -0.2657
 5107SOL    HW126780   0.240   2.832   5.085 -0.7497 -0.8873 -0.6535
 5107SOL    HW226781   0.298   2.696   5.061  0.1392  0.1014 -0.8109
 5108SOL     OW26782   0.692   3.923   4.325  0.1413 -0.2256 -0.5793
 5108SOL    HW126783   0.747   3.848   4.348  0.2562  0.3525  1.0041
 5108SOL    HW226784   0.748   3.990   4.366  0.6311 -0.9191 -0.1075
 5109SOL     OW26785   1.310   1.219   8.285 -0.3253  0.5927 -0.3070
 5109SOL    HW126786   1.265   1.235   8.368 -1.7355  0.6926 -1.0769
 5109SOL    HW226787   1.386   1.275   8.297 -1.3519  1.5096  1.9420
 5110SOL     OW26788   3.599   2.217   1.624  0.2567 -0.2812  0.2533
 5110SOL    HW126789   3.581   2.127   1.595  0.6658  0.0603 -1.0617
 5110SOL    HW226790   3.658   2.201   1.698 -0.8683 -2.3025  0.7249
 5111SOL     OW26791   0.916   4.622  17.536 -0.2277 -0.5362 -0.3837
 5111SOL    HW126792   0.972   4.558  17.581 -1.4036 -2.1292 -1.1725
 5111SOL    HW226793   0.836   4.620  17.589 -0.7903 -0.2047 -1.2241
 5112SOL     OW26794   2.761   4.364  10.226 -0.7308  0.2460  0.1922
 5112SOL    HW126795   2.817   4.341  10.300  0.9992 -0.0901 -1.2151
 5112SOL    HW226796   2.799   4.316  10.153 -0.7536  0.3113  0.1374
 5113SOL     OW26797   2.008   2.433   9.026  0.1501  0.8346  0.4978
 5113SOL    HW126798   1.945   2.495   9.061 -1.1527  1.2920 -2.6354
 5113SOL    HW226799   2.049   2.482   8.955 -0.7899  3.7647  1.9992
 5114SOL     OW26800   0.890   2.303  11.980  0.3604 -0.0937  0.4120
 5114SOL    HW126801   0.965   2.256  11.945 -0.5922 -0.0650 -1.6639
 5114SOL    HW226802   0.913   2.395  11.965 -0.3471 -0.0090 -0.1466
 5115SOL     OW26803   3.590   0.019   6.770  0.0219  0.8231  0.1140
 5115SOL    HW126804   3.497   4.726   6.767 -0.5390  3.3193  1.6166
 5115SOL    HW226805   3.619   0.003   6.680  2.2494 -3.0552  1.5161
 5116SOL     OW26806   0.445   4.714  13.660  0.5384  0.9577  0.1402
 5116SOL    HW126807   0.351   4.724  13.678  0.1358 -1.6634 -0.3786
 5116SOL    HW226808   0.448   4.630  13.614  0.7616  1.4560 -0.7554
 5117SOL     OW26809   2.001   1.111   9.168  0.5329  0.1984  0.0072
 5117SOL    HW126810   1.990   1.133   9.260 -0.1779  1.3118 -0.3449
 5117SOL    HW226811   1.960   1.185   9.123  0.6918 -0.5081 -1.3135
 5118SOL     OW26812   0.765   3.727   7.021  0.4256 -0.2409 -0.3070
 5118SOL    HW126813   0.703   3.769   6.961  0.5721 -0.2941 -0.4948
 5118SOL    HW226814   0.830   3.678   6.972 -0.0640 -1.1318 -0.0586
 5119SOL     OW26815   2.825   2.360   7.823 -0.1390 -0.0153 -0.8368
 5119SOL    HW126816   2.826   2.280   7.772  0.9839  0.5168 -1.6520
 5119SOL    HW226817   2.737   2.362   7.861  0.9464  0.4464  1.6672
 5120SOL     OW26818   2.313   4.325   2.630  0.7002 -0.0614  0.0300
 5120SOL    HW126819   2.289   4.417   2.619  1.2412  0.0607 -0.1122
 5120SOL    HW226820   2.391   4.303   2.579 -0.1595  1.7468 -2.0510
 5121SOL     OW26821   3.757   4.179   3.432  0.0916  0.2031  0.6551
 5121SOL    HW126822   3.824   4.188   3.364  0.4584  0.1482  1.0141
 5121SOL    HW226823   3.713   4.095   3.419 -0.6610  0.5622  0.8727
 5122SOL     OW26824   0.409   3.899   5.323 -0.3187  0.1001  0.0382
 5122SOL    HW126825   0.386   3.927   5.412  1.3892  0.7161  0.2742
 5122SOL    HW226826   0.429   3.980   5.278  1.7020  0.7910  2.1680
 5123SOL     OW26827   2.415   2.931   8.807 -0.3049 -0.7396 -0.4967
 5123SOL    HW126828   2.463   2.889   8.878 -0.8879  0.9127  0.8610
 5123SOL    HW226829   2.363   2.992   8.860 -1.3120 -2.0808  0.0656
 5124SOL     OW26830   2.366   0.854   6.437 -0.2287  0.4473 -0.7216
 5124SOL    HW126831   2.292   0.815   6.390  0.4501 -0.3282 -1.1441
 5124SOL    HW226832   2.405   0.774   6.473 -1.0950 -0.0948 -0.9722
 5125SOL     OW26833   3.204   4.353   7.124 -0.1054  0.2937 -0.3770
 5125SOL    HW126834   3.147   4.278   7.142 -1.2998  1.6453  1.6074
 5125SOL    HW226835   3.280   4.313   7.081  0.6312  0.5434  0.6878
 5126SOL     OW26836   1.124   0.063  17.471 -0.4651  0.3061 -0.0759
 5126SOL    HW126837   1.106   0.075  17.378  0.5450  1.2512 -0.1538
 5126SOL    HW226838   1.046   0.017  17.501 -0.2491  1.1388  1.7843
 5127SOL     OW26839   1.018   3.372  13.145 -0.0262  0.2796 -0.1556
 5127SOL    HW126840   0.979   3.343  13.227 -1.4099 -1.6141 -1.5005
 5127SOL    HW226841   1.015   3.293  13.092 -0.5644  0.7104 -0.7724
 5128SOL     OW26842   0.241   2.639   2.293 -0.1705 -0.2883 -0.3990
 5128SOL    HW126843   0.297   2.716   2.295  1.9991 -1.8821  0.2366
 5128SOL    HW226844   0.274   2.583   2.223  1.5094  0.8419 -0.5237
 5129SOL     OW26845   3.551   0.264  12.243 -0.2166  0.1041 -0.3186
 5129SOL    HW126846   3.513   0.321  12.177  1.0734  1.2739 -0.0291
 5129SOL    HW226847   3.472   0.238  12.292 -0.9926 -1.2133 -2.2640
 5130SOL     OW26848   0.484   3.771   2.572 -0.3875  0.2102  0.2650
 5130SOL    HW126849   0.456   3.715   2.645 -0.7312  0.1425  0.0810
 5130SOL    HW226850   0.501   3.705   2.505 -1.6555 -0.9788  1.1105
 5131SOL     OW26851   0.653   0.816   0.188  0.1571 -0.2663 -0.1418
 5131SOL    HW126852   0.634   0.778   0.274 -0.4556 -0.8084 -0.5204
 5131SOL    HW226853   0.704   0.887   0.229  1.7829 -3.0457  2.6145
 5132SOL     OW26854   3.235   1.477   6.458 -0.0626  0.1123 -0.0072
 5132SOL    HW126855   3.254   1.422   6.534 -0.3187  0.2703  0.1725
 5132SOL    HW226856   3.292   1.433   6.395  0.6001 -1.4268  1.6555
 5133SOL     OW26857   3.303   0.254   8.561  0.0119 -1.1089 -0.2957
 5133SOL    HW126858   3.291   0.249   8.466  0.3780  2.2751 -0.5159
 5133SOL    HW226859   3.381   0.307   8.578 -0.6254 -0.6214  1.1174
 5134SOL     OW26860   3.921   3.535   3.846  0.3019  0.0038 -0.4511
 5134SOL    HW126861   3.888   3.624   3.838  0.2061 -0.0824 -1.0162
 5134SOL    HW226862   3.850   3.479   3.878  1.0561 -1.8021 -1.9253
 5135SOL     OW26863   1.573   3.853  12.571  0.2615  0.4565  0.2155
 5135SOL    HW126864   1.637   3.923  12.553  0.4806  0.5668  1.4249
 5135SOL    HW226865   1.491   3.901  12.574  0.1541  0.3098 -0.3655
 5136SOL     OW26866   4.488   2.737  12.463 -0.0453 -0.0450 -0.0598
 5136SOL    HW126867   4.448   2.657  12.429  1.1116 -0.4451 -0.5124
 5136SOL    HW226868   4.407   2.782  12.485 -1.2312 -0.4137 -3.6809
 5137SOL     OW26869   2.207   2.951   3.945 -0.0527 -0.5283  0.2619
 5137SOL    HW126870   2.247   2.913   3.866  0.1209 -0.3140  0.2484
 5137SOL    HW226871   2.135   2.998   3.903  0.7003  1.1798  0.8769
 5138SOL     OW26872   0.438   3.841   9.395 -0.1459 -0.2674 -0.3390
 5138SOL    HW126873   0.506   3.822   9.460 -0.4459 -1.1954 -0.3010
 5138SOL    HW226874   0.478   3.920   9.358 -0.3002  0.6874  1.5544
 5139SOL     OW26875   2.524   0.636   6.635  0.0814 -0.2906  0.3551
 5139SOL    HW126876   2.442   0.591   6.615  0.8234 -0.4023 -2.4315
 5139SOL    HW226877   2.555   0.590   6.713 -2.4527 -1.2110  0.8280
 5140SOL     OW26878   1.782   2.054   8.299 -0.0946  0.0031  0.2007
 5140SOL    HW126879   1.743   1.973   8.266 -0.8117 -0.0269  1.1234
 5140SOL    HW226880   1.723   2.110   8.249 -0.2994  1.0018  1.5618
 5141SOL     OW26881   1.494   2.368   3.005  0.7508  0.1394 -0.3809
 5141SOL    HW126882   1.533   2.455   3.002  1.8636 -0.2823  2.9208
 5141SOL    HW226883   1.557   2.312   3.050  1.7091  1.1115 -0.5319
 5142SOL     OW26884   3.617   3.824   2.049 -0.1348  0.4086 -0.0558
 5142SOL    HW126885   3.612   3.730   2.028  0.3264  0.8150 -2.0482
 5142SOL    HW226886   3.524   3.838   2.030 -0.0130 -0.0788 -1.0484
 5143SOL     OW26887   1.914   2.714   4.992 -0.1945  0.4110  0.1104
 5143SOL    HW126888   1.887   2.725   5.083 -1.8909  0.6586 -0.4274
 5143SOL    HW226889   1.961   2.631   4.994 -1.8608 -0.5095  0.9724
 5144SOL     OW26890   2.669   0.666   0.680 -0.2604 -0.3221 -0.0682
 5144SOL    HW126891   2.597   0.665   0.617 -0.2332 -0.3798 -0.0972
 5144SOL    HW226892   2.741   0.672   0.618 -0.4189  2.0873 -0.0479
 5145SOL     OW26893   3.548   1.585   2.558 -0.5198 -0.0048 -0.4859
 5145SOL    HW126894   3.636   1.557   2.533 -0.3610 -0.2001  0.2831
 5145SOL    HW226895   3.522   1.515   2.618 -0.5613  1.2485  0.9574
 5146SOL     OW26896   2.854   2.194   4.775  0.8899  0.5833  0.4270
 5146SOL    HW126897   2.850   2.177   4.869 -0.2000  1.5022  0.5434
 5146SOL    HW226898   2.860   2.289   4.780  2.3558  0.6550 -2.7781
 5147SOL     OW26899   0.964   1.947   8.674  0.3979  0.2661  0.3949
 5147SOL    HW126900   0.904   1.943   8.749  0.3680 -0.4337  0.3368
 5147SOL    HW226901   1.027   2.013   8.705 -0.5237  0.4823  1.8082
 5148SOL     OW26902   1.194   3.087  14.839 -0.2901  0.3881 -0.4145
 5148SOL    HW126903   1.162   3.046  14.919 -2.0869  1.4977 -0.5838
 5148SOL    HW226904   1.131   3.043  14.782 -2.0333  0.9579  1.0766
 5149SOL     OW26905   2.931   0.645   0.267 -1.1187  0.2896 -0.0643
 5149SOL    HW126906   2.936   0.562   0.219 -0.4725  1.0064 -1.2354
 5149SOL    HW226907   2.887   0.702   0.204  3.7878  2.1041 -1.8671
 5150SOL     OW26908   0.657   3.319   8.998  0.5640 -0.4707 -0.1834
 5150SOL    HW126909   0.676   3.352   8.910  0.2967  1.8197  0.6301
 5150SOL    HW226910   0.613   3.235   8.979  0.9500 -0.7851  0.3137
 5151SOL     OW26911   2.996   2.683   1.836 -0.0738  0.3392  0.0032
 5151SOL    HW126912   2.907   2.716   1.848 -0.0102  0.4975  0.0394
 5151SOL    HW226913   2.997   2.594   1.871 -0.6513  1.4227  2.7556
 5152SOL     OW26914   2.689   0.607  16.397 -0.3060 -0.4058  0.1592
 5152SOL    HW126915   2.718   0.516  16.408 -2.1923 -0.9447  0.6883
 5152SOL    HW226916   2.596   0.604  16.418 -0.1918 -2.0171  0.4344
 5153SOL     OW26917   1.351   4.723   8.474 -0.0265 -0.1674 -0.8714
 5153SOL    HW126918   1.342   0.032   8.386  0.5892  0.9439 -0.5008
 5153SOL    HW226919   1.380   4.634   8.453  1.7894  0.5468 -1.3768
 5154SOL     OW26920   1.685   3.570   7.005 -0.3598 -0.9285  0.7291
 5154SOL    HW126921   1.631   3.645   6.980 -0.2645 -2.3858 -3.9992
 5154SOL    HW226922   1.765   3.621   7.017  0.0562 -1.3059 -0.3714
 5155SOL     OW26923   0.236   1.094   7.952 -0.1244  0.1015  1.0802
 5155SOL    HW126924   0.257   1.089   7.859  0.8655  0.2037  1.3015
 5155SOL    HW226925   0.154   1.044   7.958 -0.8921  1.1345 -0.6082
 5156SOL     OW26926   0.714   3.476   1.875 -0.3424 -0.2010 -0.5483
 5156SOL    HW126927   0.739   3.465   1.967 -0.3042  1.0712 -0.4004
 5156SOL    HW226928   0.797   3.513   1.845 -0.7712  2.2471  1.2136
 5157SOL     OW26929   0.326   1.195   6.263  0.1190 -0.2234 -0.3681
 5157SOL    HW126930   0.268   1.267   6.285 -0.1876 -0.6098  0.0893
 5157SOL    HW226931   0.267   1.141   6.211 -0.4222  2.3916 -2.4418
 5158SOL     OW26932   2.984   1.148  10.519  0.2273 -0.0690  0.2286
 5158SOL    HW126933   2.981   1.195  10.603  2.1612 -0.6048  0.5962
 5158SOL    HW226934   3.025   1.217  10.468  0.6898 -0.4838  0.0360
 5159SOL     OW26935   1.111   2.227  14.827  0.3731 -0.4309  0.0367
 5159SOL    HW126936   1.174   2.166  14.788  0.7148 -0.4787  0.6732
 5159SOL    HW226937   1.057   2.176  14.888 -0.8651 -1.0762 -1.5929
 5160SOL     OW26938   1.645   2.025   7.367 -0.2237 -0.0507 -0.0753
 5160SOL    HW126939   1.711   2.056   7.304  1.3093 -1.0644  1.0458
 5160SOL    HW226940   1.589   2.102   7.369 -0.1586 -0.0094  0.0961
 5161SOL     OW26941   1.853   3.902   2.676 -0.4340  0.1068  0.5890
 5161SOL    HW126942   1.792   3.927   2.607 -0.4301 -1.6283 -0.0545
 5161SOL    HW226943   1.790   3.852   2.728 -3.4946  0.9672 -2.2627
 5162SOL     OW26944   0.833   0.615   8.602  0.5025 -0.5564 -0.5573
 5162SOL    HW126945   0.765   0.639   8.538 -0.0498 -0.0529  0.2182
 5162SOL    HW226946   0.798   0.531   8.629 -0.2255  0.1418  0.6442
 5163SOL     OW26947   4.593   2.588   3.093  0.3205  0.2072 -0.0131
 5163SOL    HW126948   4.577   2.627   3.007  0.1484 -1.9878 -0.9928
 5163SOL    HW226949   4.629   2.666   3.134 -2.8024  1.5418  0.1564
 5164SOL     OW26950   4.125   2.045   7.704  0.1357  0.2357 -0.5846
 5164SOL    HW126951   4.189   2.114   7.688 -0.0746 -0.0679 -2.6652
 5164SOL    HW226952   4.060   2.097   7.752  0.0649 -1.1991  0.8964
 5165SOL     OW26953   0.606   0.563   4.470 -0.0865  0.2469  0.6635
 5165SOL    HW126954   0.548   0.498   4.429  0.7841 -1.0382  1.4607
 5165SOL    HW226955   0.690   0.520   4.452 -0.5072 -0.0796 -0.5228
 5166SOL     OW26956   0.143   1.713   4.796 -0.0823 -0.4469  0.9061
 5166SOL    HW126957   0.107   1.738   4.711  2.2111 -1.3032 -0.3301
 5166SOL    HW226958   0.058   1.709   4.841 -0.6026  1.5058  0.0688
 5167SOL     OW26959   0.544   1.632   7.388 -0.3403  1.0054 -0.9388
 5167SOL    HW126960   0.578   1.543   7.387 -1.6943  0.4633  1.3391
 5167SOL    HW226961   0.514   1.629   7.297  0.0405 -2.8705 -0.9492
 5168SOL     OW26962   1.921   3.350  15.373  1.0371  0.5430  0.0902
 5168SOL    HW126963   2.005   3.385  15.401  0.1275  0.9940  2.2628
 5168SOL    HW226964   1.871   3.334  15.453  0.0554  1.9768 -0.2281
 5169SOL     OW26965   1.193   1.124   5.950 -0.1257 -0.3110 -0.1478
 5169SOL    HW126966   1.285   1.105   5.972 -0.5378 -1.8894  0.2196
 5169SOL    HW226967   1.174   1.053   5.889  1.2692 -0.6981 -0.1383
 5170SOL     OW26968   3.242   0.130   4.793  0.0600 -0.4829 -0.3218
 5170SOL    HW126969   3.182   0.064   4.757  1.5247 -1.5196 -0.8749
 5170SOL    HW226970   3.227   0.202   4.731 -1.9304 -0.8429 -0.2726
 5171SOL     OW26971   1.702   4.221   8.887 -0.5749 -0.1060 -0.2310
 5171SOL    HW126972   1.677   4.150   8.828 -0.1723 -0.0691 -0.4496
 5171SOL    HW226973   1.638   4.206   8.956 -1.0216 -1.6848 -0.9989
 5172SOL     OW26974   2.928   2.667   5.600  0.2415  0.3980  0.8311
 5172SOL    HW126975   2.979   2.592   5.630  0.7827  0.6475  0.5237
 5172SOL    HW226976   2.993   2.729   5.567  1.9125 -0.0511  3.2025
 5173SOL     OW26977   1.484   4.622   0.877 -0.2004  0.1195  0.2828
 5173SOL    HW126978   1.501   4.551   0.815  0.2951  0.2387  0.2823
 5173SOL    HW226979   1.400   4.584   0.902 -0.2072 -0.3842 -0.5156
 5174SOL     OW26980   1.963   4.218   3.367  0.0509  0.3670 -0.4811
 5174SOL    HW126981   1.888   4.273   3.391 -0.0949 -0.1925  0.3329
 5174SOL    HW226982   1.973   4.234   3.273 -1.5783  0.8101 -0.5888
 5175SOL     OW26983   0.774   3.993   8.648 -0.1319  0.5363 -0.1640
 5175SOL    HW126984   0.759   3.937   8.571  1.1347  0.0618 -0.0674
 5175SOL    HW226985   0.792   4.078   8.608 -1.2046  0.5267 -0.6536
 5176SOL     OW26986   2.068   3.589   9.252 -0.6755 -0.3444 -0.3472
 5176SOL    HW126987   1.997   3.552   9.200 -1.0566 -1.0704  0.6779
 5176SOL    HW226988   2.117   3.642   9.190 -0.8438 -1.1862 -1.1860
 5177SOL     OW26989   4.240   0.324   3.348 -0.4222 -0.2289  0.0335
 5177SOL    HW126990   4.282   0.272   3.417  0.8136  0.4837 -0.1721
 5177SOL    HW226991   4.316   0.376   3.321 -0.6156  0.4347  0.7859
 5178SOL     OW26992   1.263   3.538   9.593 -0.3707 -0.2478 -0.5811
 5178SOL    HW126993   1.197   3.524   9.662  0.1920 -0.6010 -0.1184
 5178SOL    HW226994   1.230   3.622   9.561  0.9724  0.7800  0.7462
 5179SOL     OW26995   1.993   3.751  17.558 -1.0812 -0.4745 -0.5693
 5179SOL    HW126996   1.998   3.664  17.596 -2.1262  0.6147  2.0876
 5179SOL    HW226997   1.945   3.778  17.636 -0.3299 -1.1840  0.1371
 5180SOL     OW26998   0.517   2.620   3.272  0.0676  0.4986  0.1963
 5180SOL    HW126999   0.529   2.586   3.183  3.0242  1.9214  0.0513
 5180SOL    HW227000   0.584   2.689   3.269  0.2952  0.2422 -0.5025
 5181SOL     OW27001   3.264   2.129   1.427  0.3470  0.2915  0.3578
 5181SOL    HW127002   3.237   2.146   1.517 -2.0699 -1.8577  0.0631
 5181SOL    HW227003   3.290   2.037   1.431  0.3108  0.1973 -1.6502
 5182SOL     OW27004   4.420   1.442   7.317 -0.5698  0.2478  0.1918
 5182SOL    HW127005   4.466   1.447   7.233 -1.7929  0.7189 -0.4612
 5182SOL    HW227006   4.458   1.522   7.354  1.1070 -0.8392  0.7907
 5183SOL     OW27007   1.254   3.806  13.245 -0.0839 -0.4872 -0.0418
 5183SOL    HW127008   1.245   3.723  13.293  1.6439 -1.2364 -1.0152
 5183SOL    HW227009   1.231   3.870  13.312  1.9754  1.2100 -0.9494
 5184SOL     OW27010   1.202   1.743   4.179 -0.2795  0.3163 -0.6394
 5184SOL    HW127011   1.241   1.813   4.231 -1.9624  1.9447 -1.5580
 5184SOL    HW227012   1.270   1.707   4.122  0.8250  2.4305 -0.6564
 5185SOL     OW27013   3.992   3.099   7.726 -0.3280 -0.5134  0.2196
 5185SOL    HW127014   4.049   3.175   7.714  1.0661 -1.7273 -0.8439
 5185SOL    HW227015   3.993   3.095   7.822  0.9251  0.8797  0.2775
 5186SOL     OW27016   2.755   2.877   4.337 -0.0290  0.5792 -0.2858
 5186SOL    HW127017   2.845   2.894   4.309  0.0820 -0.3125 -0.4497
 5186SOL    HW227018   2.707   2.876   4.254  0.5020  1.3031 -0.6101
 5187SOL     OW27019   4.168   3.381  17.210 -0.6488  0.2322 -0.5667
 5187SOL    HW127020   4.094   3.346  17.258 -1.4154 -1.0590 -2.7008
 5187SOL    HW227021   4.163   3.477  17.216  1.5219  0.4540 -2.0879
 5188SOL     OW27022   4.682   3.900   6.375 -0.5444 -0.0590  0.8034
 5188SOL    HW127023   4.635   3.905   6.291  2.3004  1.0841 -0.7246
 5188SOL    HW227024   4.620   3.847   6.426 -1.5019  1.2700  1.0031
 5189SOL     OW27025   2.476   3.820   6.693  0.3286 -0.2648 -0.9243
 5189SOL    HW127026   2.425   3.823   6.613 -0.5046 -1.6724 -0.4448
 5189SOL    HW227027   2.493   3.914   6.701  0.6198 -0.2255 -2.0460
 5190SOL     OW27028   1.858   2.053   8.765  0.0375 -0.6720  0.0686
 5190SOL    HW127029   1.818   2.134   8.796  1.1107  0.0511 -0.4510
 5190SOL    HW227030   1.931   2.095   8.719  0.5627 -0.0312  1.4726
 5191SOL     OW27031   4.526   1.979   2.072  0.0662 -0.2538 -0.3424
 5191SOL    HW127032   4.495   2.049   2.014 -0.0255 -0.0733 -0.0808
 5191SOL    HW227033   4.615   1.972   2.038 -0.2107  2.0027 -1.5606
 5192SOL     OW27034   1.215   4.426   0.716 -0.3652 -0.1451 -0.5993
 5192SOL    HW127035   1.234   4.335   0.693  0.0907  0.2850 -1.9109
 5192SOL    HW227036   1.277   4.466   0.655 -0.9674  2.2575  0.4014
 5193SOL     OW27037   1.856   2.850  10.028 -0.6918  0.7452  0.3488
 5193SOL    HW127038   1.784   2.806  10.074 -1.9567  1.8319 -0.5797
 5193SOL    HW227039   1.920   2.781  10.011  0.4968  2.4731 -2.2492
 5194SOL     OW27040   4.081   3.503  14.647  0.5491 -0.5051  0.0600
 5194SOL    HW127041   4.079   3.593  14.681 -0.5318  0.4134 -2.3833
 5194SOL    HW227042   4.139   3.468  14.714  0.2159  0.7373  1.0097
 5195SOL     OW27043   2.014   0.313   6.573 -0.2920  0.3718  0.3142
 5195SOL    HW127044   1.994   0.257   6.648 -1.4060  1.3248  0.7161
 5195SOL    HW227045   1.925   0.333   6.546  0.9500  2.0828 -2.5036
 5196SOL     OW27046   1.489   2.122  15.862 -0.4071 -0.1148  0.3619
 5196SOL    HW127047   1.477   2.028  15.873 -1.8873  0.3518  2.6651
 5196SOL    HW227048   1.441   2.152  15.939  0.8003  2.2428  0.2196
 5197SOL     OW27049   0.407   0.389   6.484 -0.2399 -0.0497  0.1135
 5197SOL    HW127050   0.375   0.386   6.574 -1.5755  2.1688 -0.2917
 5197SOL    HW227051   0.323   0.398   6.439  0.7311  0.1761 -1.6512
 5198SOL     OW27052   1.885   3.919   4.938  0.6303 -0.2479  0.4290
 5198SOL    HW127053   1.790   3.926   4.953  0.5289  1.2690 -0.9785
 5198SOL    HW227054   1.920   4.005   4.914  0.3681 -0.4593 -0.7105
 5199SOL     OW27055   1.411   1.460   8.100  0.9476 -0.0673 -0.2363
 5199SOL    HW127056   1.488   1.419   8.059  0.3558 -0.7139 -0.7104
 5199SOL    HW227057   1.456   1.487   8.180  0.6219  0.5706 -0.2675
 5200SOL     OW27058   3.511   2.219  10.565  0.1095  0.1486 -0.5379
 5200SOL    HW127059   3.447   2.287  10.544 -0.7113 -0.5927 -0.4649
 5200SOL    HW227060   3.541   2.202  10.476 -1.1474 -0.4527 -0.8461
 5201SOL     OW27061   0.887   2.136   8.235 -0.3054 -0.2050  0.0770
 5201SOL    HW127062   0.797   2.113   8.258 -1.4626  2.6105 -1.5929
 5201SOL    HW227063   0.931   2.082   8.300  1.2079 -0.4496 -1.1496
 5202SOL     OW27064   0.064   1.598  17.436 -0.4431 -0.2399  0.0439
 5202SOL    HW127065   0.045   1.510  17.468 -0.4102  0.4908  2.0607
 5202SOL    HW227066   0.145   1.611  17.485 -0.1969  0.9208 -0.6734
 5203SOL     OW27067   0.483   2.135   8.002 -0.1027  0.0704  0.1130
 5203SOL    HW127068   0.477   2.230   8.001  3.0362  0.3079  2.7236
 5203SOL    HW227069   0.497   2.116   7.909 -0.0285 -2.1472  0.5680
 5204SOL     OW27070   0.940   4.421  11.722  0.2198 -0.2844 -0.1690
 5204SOL    HW127071   0.974   4.431  11.634 -1.8761  1.6293 -0.7776
 5204SOL    HW227072   0.851   4.457  11.722  0.7692  1.0869  0.4845
 5205SOL     OW27073   0.494   0.658   4.821 -0.4911  0.1777 -0.4670
 5205SOL    HW127074   0.556   0.726   4.845 -0.9008  0.3179  0.1901
 5205SOL    HW227075   0.548   0.579   4.830 -0.5921  0.1210 -0.3587
 5206SOL     OW27076   0.219   2.907  12.719  0.3309 -0.0954  0.3392
 5206SOL    HW127077   0.162   2.984  12.731  0.0251 -0.6721  2.7446
 5206SOL    HW227078   0.160   2.850  12.670  0.9664 -3.2987  3.2825
 5207SOL     OW27079   0.217   1.543   5.885 -0.5727  0.3379  0.1630
 5207SOL    HW127080   0.286   1.574   5.943  1.2553 -0.3910 -1.6162
 5207SOL    HW227081   0.223   1.609   5.815 -1.7682 -0.0314 -0.2853
 5208SOL     OW27082   3.805   2.255  12.128 -0.1144 -0.4945  0.1370
 5208SOL    HW127083   3.740   2.199  12.084 -0.5189 -0.4269  0.6372
 5208SOL    HW227084   3.764   2.272  12.213 -1.6698 -0.7643 -0.5469
 5209SOL     OW27085   4.525   2.336   6.044 -0.1102  0.6019 -0.0821
 5209SOL    HW127086   4.437   2.302   6.032 -0.2998  1.4046 -0.9207
 5209SOL    HW227087   4.512   2.416   5.992 -2.0895 -1.4107 -2.6451
 5210SOL     OW27088   4.076   1.873   5.953  0.3864 -0.6827 -0.8013
 5210SOL    HW127089   4.143   1.913   6.008 -1.3190 -0.2971  1.0025
 5210SOL    HW227090   4.011   1.876   6.023  2.9442 -3.1672  1.6379
 5211SOL     OW27091   0.613   4.573  13.237  0.1952  0.1631  0.5894
 5211SOL    HW127092   0.589   4.493  13.190 -0.2162  2.2712 -2.7652
 5211SOL    HW227093   0.677   4.538  13.300 -0.8728 -1.3332  0.8371
 5212SOL     OW27094   3.500   1.383   7.008  0.4367  0.1673 -0.1069
 5212SOL    HW127095   3.487   1.431   6.926  0.5055 -1.7912 -1.2904
 5212SOL    HW227096   3.531   1.457   7.059 -0.8096  0.6324 -0.0305
 5213SOL     OW27097   2.314   4.462   6.261 -0.1687  0.2565  0.1968
 5213SOL    HW127098   2.252   4.397   6.228 -0.4637 -0.2387  1.7534
 5213SOL    HW227099   2.337   4.433   6.349  0.6546  0.9320  0.2006
 5214SOL     OW27100   2.798   0.583   1.975 -0.0245  0.0117 -0.6962
 5214SOL    HW127101   2.785   0.676   1.993 -2.0455  0.1308 -2.6976
 5214SOL    HW227102   2.734   0.562   1.907 -0.4247 -0.4800 -0.1772
 5215SOL     OW27103   1.922   1.526  12.900  0.7167  0.0963 -0.3070
 5215SOL    HW127104   1.850   1.590  12.904 -1.4581 -2.3858  0.0624
 5215SOL    HW227105   1.997   1.583  12.884  0.1851  1.4053  1.8370
 5216SOL     OW27106   4.212   1.926   5.610 -0.2008  0.1024  0.4516
 5216SOL    HW127107   4.208   2.019   5.588 -2.5365 -0.0764  0.1960
 5216SOL    HW227108   4.124   1.897   5.588  0.3885 -0.5007 -1.1196
 5217SOL     OW27109   1.966   2.459   8.133  0.2809  0.5264  0.2905
 5217SOL    HW127110   1.951   2.461   8.227  0.6812 -1.8800  0.4169
 5217SOL    HW227111   1.881   2.448   8.091  0.1993  0.8105  0.3830
 5218SOL     OW27112   1.602   0.281   5.518  0.5015 -0.8230  0.2161
 5218SOL    HW127113   1.686   0.307   5.554  0.0201 -2.2731  2.3954
 5218SOL    HW227114   1.595   0.337   5.441  1.3275  1.0046  1.4915
 5219SOL     OW27115   4.173   2.762   1.533  0.2017 -0.0924 -0.3629
 5219SOL    HW127116   4.245   2.705   1.505  0.0634 -0.4533  0.0151
 5219SOL    HW227117   4.146   2.787   1.445 -1.8238  0.7366  0.5087
 5220SOL     OW27118   4.172   2.130   2.271 -0.3905  0.1872  0.3148
 5220SOL    HW127119   4.155   2.223   2.290  1.4830  0.7663 -0.8381
 5220SOL    HW227120   4.084   2.105   2.243 -0.8439  0.2241  1.6813
 5221SOL     OW27121   0.346   2.421  10.963 -0.0238  0.8349  0.4231
 5221SOL    HW127122   0.281   2.352  10.948  2.1986 -0.9810 -1.0064
 5221SOL    HW227123   0.373   2.415  11.055  1.6355  0.3632 -0.0934
 5222SOL     OW27124   4.497   1.806   7.258 -0.1223  0.1150  0.2613
 5222SOL    HW127125   4.517   1.752   7.335 -0.4811 -0.2840  0.0786
 5222SOL    HW227126   4.509   1.891   7.300 -0.7559  0.3139  0.0362
 5223SOL     OW27127   0.167   3.018  14.723  0.9219  0.0346  0.7712
 5223SOL    HW127128   0.121   3.098  14.694 -1.7046 -2.6237 -2.4618
 5223SOL    HW227129   0.152   3.025  14.817  0.9571  0.3708  0.7540
 5224SOL     OW27130   0.881   1.075   9.705  0.7448  0.5527  0.0425
 5224SOL    HW127131   0.936   1.099   9.780  0.6249 -0.2193  0.3822
 5224SOL    HW227132   0.824   1.006   9.739 -0.2174  1.2886 -0.0589
 5225SOL     OW27133   1.063   4.439  11.468  0.3950 -0.6682 -0.2014
 5225SOL    HW127134   1.132   4.471  11.410 -0.0417 -0.8754 -0.8493
 5225SOL    HW227135   1.015   4.386  11.404 -2.7120  0.2152  1.3868
 5226SOL     OW27136   0.504   1.867   2.325 -0.7700 -0.4886 -0.0703
 5226SOL    HW127137   0.522   1.852   2.232 -0.6230  1.3513 -0.3312
 5226SOL    HW227138   0.480   1.959   2.316  1.0435 -0.0123 -0.0348
 5227SOL     OW27139   1.491   2.238   2.485  0.4275  0.0623  0.0062
 5227SOL    HW127140   1.512   2.330   2.498 -1.6221  0.2946  1.7039
 5227SOL    HW227141   1.575   2.192   2.475  0.5649  0.4265 -0.5066
 5228SOL     OW27142   2.499   2.660  12.618 -1.0214 -0.0093 -0.1572
 5228SOL    HW127143   2.482   2.597  12.548 -1.5329  0.4000 -0.4056
 5228SOL    HW227144   2.452   2.610  12.684  0.4796 -1.7822 -0.4437
 5229SOL     OW27145   0.809   1.742   1.437 -0.6854  0.0220  0.3898
 5229SOL    HW127146   0.755   1.789   1.501 -0.1082 -1.3801  1.8866
 5229SOL    HW227147   0.857   1.680   1.491  2.3087  1.6354 -0.4420
 5230SOL     OW27148   3.843   0.536   4.406  0.4812  0.2195  0.6300
 5230SOL    HW127149   3.938   0.543   4.414  0.5489 -0.1544  0.1881
 5230SOL    HW227150   3.805   0.616   4.442  0.4033  0.5365 -0.1411
 5231SOL     OW27151   0.380   0.354  15.364 -0.3048  0.5017 -0.1358
 5231SOL    HW127152   0.467   0.318  15.349 -0.2389 -0.4465  2.5758
 5231SOL    HW227153   0.392   0.448  15.378 -1.2109  0.8370 -1.5314
 5232SOL     OW27154   2.076   4.048   5.865 -0.1331 -0.0033 -0.0136
 5232SOL    HW127155   2.096   4.063   5.773  1.5439  1.2391  0.5443
 5232SOL    HW227156   2.006   3.984   5.856  1.1603 -1.6056  1.3534
 5233SOL     OW27157   3.844   0.260   4.524 -0.7125  0.0861  0.3223
 5233SOL    HW127158   3.826   0.354   4.525  0.1190  0.2642 -1.3254
 5233SOL    HW227159   3.851   0.253   4.619 -1.6653  2.5060  0.5698
 5234SOL     OW27160   1.799   4.725  10.557 -0.2444 -0.1799 -0.0292
 5234SOL    HW127161   1.770   4.710  10.467 -0.9252  0.1513  0.1394
 5234SOL    HW227162   1.778   4.640  10.597 -0.0700 -0.6431 -0.9245
 5235SOL     OW27163   1.758   4.254   2.962  0.2313 -0.1406  0.0423
 5235SOL    HW127164   1.743   4.231   2.870  1.0777 -2.7660  0.5792
 5235SOL    HW227165   1.675   4.226   3.000  0.0254 -1.3768 -1.3121
 5236SOL     OW27166   3.181   2.571   5.705  0.0048 -0.0645 -0.2439
 5236SOL    HW127167   3.230   2.652   5.687  1.0317 -0.4024  1.0096
 5236SOL    HW227168   3.174   2.584   5.800 -0.0113  1.6288 -0.4753
 5237SOL     OW27169   1.877   1.293   5.534 -0.4900 -0.1065  0.1564
 5237SOL    HW127170   1.893   1.378   5.575  1.3968 -0.4399  0.1404
 5237SOL    HW227171   1.941   1.289   5.463 -0.1522 -0.4019  0.4767
 5238SOL     OW27172   3.660   0.850   0.046  0.5426 -0.1908 -0.6164
 5238SOL    HW127173   3.590   0.818  17.695 -1.0936  0.6394  0.9758
 5238SOL    HW227174   3.729   0.854  17.684  2.5039 -1.3055  1.3407
 5239SOL     OW27175   3.481   0.636   2.796  0.2651  0.1216  0.1932
 5239SOL    HW127176   3.537   0.560   2.811  0.5924 -0.1352 -2.3043
 5239SOL    HW227177   3.423   0.638   2.871 -0.3557  0.0103 -0.2828
 5240SOL     OW27178   1.759   1.743   2.258  0.1737  0.3933 -0.1483
 5240SOL    HW127179   1.760   1.694   2.340 -0.5472 -0.3435 -0.5883
 5240SOL    HW227180   1.675   1.788   2.268 -0.2277 -0.2768 -0.5547
 5241SOL     OW27181   3.155   1.146   3.541 -0.1868 -0.5088 -0.4184
 5241SOL    HW127182   3.117   1.230   3.517 -0.0768 -0.6428 -1.0510
 5241SOL    HW227183   3.125   1.130   3.631  0.8649 -1.5115 -0.2412
 5242SOL     OW27184   3.324   3.166  11.904 -0.0210 -0.1607  0.0723
 5242SOL    HW127185   3.397   3.149  11.964 -1.2545 -1.4699  1.1997
 5242SOL    HW227186   3.354   3.108  11.834 -1.1166 -2.2655  1.3481
 5243SOL     OW27187   1.508   1.875   8.495 -0.3235 -0.3623 -0.5111
 5243SOL    HW127188   1.581   1.824   8.460 -0.5768 -1.0548 -0.0264
 5243SOL    HW227189   1.491   1.827   8.576  1.0704 -0.4229 -0.2531
 5244SOL     OW27190   0.610   2.879   4.171 -0.6536 -0.2457  0.3196
 5244SOL    HW127191   0.578   2.801   4.126 -0.9277  0.5832 -0.9299
 5244SOL    HW227192   0.585   2.859   4.261  1.6811  1.0990  1.2924
 5245SOL     OW27193   2.725   3.611   5.978  0.5240  0.5419  0.2303
 5245SOL    HW127194   2.759   3.645   5.895  1.3567  1.1905  0.8394
 5245SOL    HW227195   2.636   3.647   5.984  0.6432  0.5872  1.6703
 5246SOL     OW27196   4.003   2.658  14.637  0.3259  0.1595  0.8175
 5246SOL    HW127197   4.046   2.576  14.613  1.7203  0.7376  1.3235
 5246SOL    HW227198   3.912   2.630  14.635  0.2850  0.4630 -1.0799
 5247SOL     OW27199   2.821   2.168   7.666  0.0542  0.3617 -0.2966
 5247SOL    HW127200   2.786   2.081   7.687  0.4583  0.0663 -0.8598
 5247SOL    HW227201   2.906   2.135   7.636 -0.1894 -1.0827  0.5464
 5248SOL     OW27202   2.226   2.638   9.186 -0.0335 -0.5081  0.1101
 5248SOL    HW127203   2.214   2.547   9.159 -0.8754  0.2061 -1.8895
 5248SOL    HW227204   2.219   2.636   9.282 -0.5919 -1.0671  0.0605
 5249SOL     OW27205   1.405   3.009   2.256  0.7032 -0.3279 -0.0288
 5249SOL    HW127206   1.404   2.935   2.317 -0.2448  1.2900  1.9355
 5249SOL    HW227207   1.475   2.990   2.195  0.1921 -0.4117 -0.5890
 5250SOL     OW27208   2.519   3.900   0.858 -0.4764  0.0690 -0.2525
 5250SOL    HW127209   2.570   3.879   0.935 -0.1195 -2.0817 -1.0815
 5250SOL    HW227210   2.431   3.881   0.892 -0.2669  1.2739  0.9759
 5251SOL     OW27211   2.545   1.090   0.480 -0.8395 -1.0113 -0.3746
 5251SOL    HW127212   2.461   1.133   0.467 -1.5172 -1.5993  1.9489
 5251SOL    HW227213   2.606   1.156   0.515 -1.3381 -0.9496  0.3829
 5252SOL     OW27214   1.458   2.904   3.639  0.1979  0.0001 -0.4677
 5252SOL    HW127215   1.460   2.850   3.718  0.4337  1.5278  0.5685
 5252SOL    HW227216   1.505   2.986   3.655 -1.7216  1.5436 -2.8252
 5253SOL     OW27217   1.447   2.540   5.022 -0.0474  0.5870  0.4489
 5253SOL    HW127218   1.486   2.533   4.935  0.6437 -1.8731  0.9615
 5253SOL    HW227219   1.498   2.490   5.085 -3.9054 -0.2712  2.8823
 5254SOL     OW27220   3.012   0.177   5.770  0.2403  0.3829  0.4921
 5254SOL    HW127221   3.034   0.084   5.767 -0.1745  0.3250 -0.7945
 5254SOL    HW227222   2.920   0.173   5.797  0.3396  0.5460  0.8624
 5255SOL     OW27223   1.568   4.323  15.500  0.6712 -0.9693  0.5446
 5255SOL    HW127224   1.517   4.341  15.421  0.9228 -5.1111 -0.5260
 5255SOL    HW227225   1.531   4.392  15.555 -1.1318  1.2673 -3.4307
 5256SOL     OW27226   0.477   2.487   9.902  0.2764 -0.1887  0.3173
 5256SOL    HW127227   0.414   2.481   9.829 -1.7671 -0.5006  2.1049
 5256SOL    HW227228   0.551   2.530   9.859 -1.1860  1.8750 -0.1496
 5257SOL     OW27229   4.061   1.820   2.448 -0.0470  0.3380 -0.1929
 5257SOL    HW127230   4.084   1.786   2.361  1.0751 -0.4750  0.4166
 5257SOL    HW227231   4.150   1.835   2.482  0.3435 -1.8287 -0.2653
 5258SOL     OW27232   4.072   3.029   8.737  0.4849 -0.1763  0.0615
 5258SOL    HW127233   4.096   3.083   8.812  0.7097 -0.6460  0.3308
 5258SOL    HW227234   3.992   3.073   8.709  0.7766  0.4802  0.2763
 5259SOL     OW27235   0.631   1.204  13.631  0.3392  0.0920  0.7131
 5259SOL    HW127236   0.721   1.178  13.611  0.7667  1.6573  0.5302
 5259SOL    HW227237   0.602   1.205  13.540  3.2609  4.4342 -0.1950
 5260SOL     OW27238   1.180   2.533   8.832 -0.3974  0.8122  0.2781
 5260SOL    HW127239   1.219   2.445   8.827  1.2865  1.8355 -5.6201
 5260SOL    HW227240   1.211   2.567   8.748 -0.5661  1.0431  0.3120
 5261SOL     OW27241   2.198   4.077   6.812  0.7162  0.8751  0.6352
 5261SOL    HW127242   2.122   4.108   6.862 -0.0404  0.2419 -0.1114
 5261SOL    HW227243   2.234   4.026   6.883 -0.4047  2.2249  2.1803
 5262SOL     OW27244   0.756   3.763   2.810 -0.3971  0.0307  0.0861
 5262SOL    HW127245   0.676   3.798   2.850 -1.1566 -3.1515  1.3709
 5262SOL    HW227246   0.823   3.795   2.870  1.1363  2.9281 -3.1513
 5263SOL     OW27247   3.398   3.952  15.201 -0.3250  0.1371  0.1863
 5263SOL    HW127248   3.430   4.041  15.185 -0.0837 -0.1151 -0.7496
 5263SOL    HW227249   3.471   3.907  15.243 -0.3164  0.0631  0.0938
 5264SOL     OW27250   4.633   3.246   8.032  0.4825 -0.0964  0.3425
 5264SOL    HW127251   4.611   3.339   8.040 -1.7549 -0.3738 -2.3776
 5264SOL    HW227252   4.647   3.219   8.122  0.6684  0.0678  0.3624
 5265SOL     OW27253   3.401   1.979   4.215  0.1830 -0.1117 -0.1194
 5265SOL    HW127254   3.419   2.071   4.194 -0.6337  0.7943  3.1028
 5265SOL    HW227255   3.468   1.964   4.282  0.4311  0.6689 -0.1919
 5266SOL     OW27256   4.234   4.513   2.832  0.2315  0.7337 -0.3738
 5266SOL    HW127257   4.298   4.582   2.811 -0.4415  1.0871 -1.2245
 5266SOL    HW227258   4.153   4.561   2.816 -0.5394 -1.3225 -2.5473
 5267SOL     OW27259   3.514   3.443   4.272 -0.0561  0.3013  0.8099
 5267SOL    HW127260   3.420   3.459   4.265 -0.2377 -0.8557  0.6297
 5267SOL    HW227261   3.534   3.424   4.180  0.8743  0.0019  1.0735
 5268SOL     OW27262   1.372   0.310   4.675  0.2096  0.1075  0.1368
 5268SOL    HW127263   1.302   0.269   4.625 -0.3315 -1.1910  1.9734
 5268SOL    HW227264   1.423   0.358   4.609  0.1184 -1.5689 -1.1607
 5269SOL     OW27265   1.871   0.265  14.076  0.3448  0.0487  0.4056
 5269SOL    HW127266   1.929   0.192  14.097  2.2264  1.2525 -0.7181
 5269SOL    HW227267   1.783   0.228  14.068  1.1972 -2.1250  0.9097
 5270SOL     OW27268   2.735   4.136  11.587 -0.0360 -0.0303  0.0184
 5270SOL    HW127269   2.673   4.063  11.593 -0.9338  0.8413  1.4301
 5270SOL    HW227270   2.677   4.201  11.626 -0.0030  0.2488 -0.3998
 5271SOL     OW27271   0.317   4.443  13.258  0.0731 -1.1261  0.2479
 5271SOL    HW127272   0.391   4.421  13.202 -0.2824 -1.4474 -0.1054
 5271SOL    HW227273   0.277   4.500  13.192 -0.3926 -0.8415  0.7759
 5272SOL     OW27274   2.511   4.509   7.138 -0.2187  0.0185  0.2130
 5272SOL    HW127275   2.552   4.423   7.137 -0.4161 -0.0541 -1.9393
 5272SOL    HW227276   2.460   4.507   7.219 -0.3833 -0.1765  0.1038
 5273SOL     OW27277   0.067   0.437  15.640 -0.1789  0.4787 -0.4407
 5273SOL    HW127278   0.095   0.481  15.560 -1.8810 -0.2720 -1.4478
 5273SOL    HW227279   0.082   0.346  15.612  0.1000  0.0764  0.9965
 5274SOL     OW27280   1.961   4.231   7.509 -0.4122  0.3634  0.2180
 5274SOL    HW127281   2.023   4.300   7.488  0.1639 -0.4439 -0.7658
 5274SOL    HW227282   1.910   4.273   7.578  0.1484 -1.4156  1.7064
 5275SOL     OW27283   3.081   0.117   1.456  0.3384  0.7100  0.1378
 5275SOL    HW127284   3.052   0.118   1.547  2.0716  0.7043  0.6919
 5275SOL    HW227285   3.009   0.165   1.416  0.2547 -1.4446 -2.2766
 5276SOL     OW27286   1.550   4.131   7.810 -0.0367 -0.3885 -0.3218
 5276SOL    HW127287   1.570   4.039   7.790  0.4678 -0.8236  2.1900
 5276SOL    HW227288   1.602   4.147   7.888 -1.1256 -0.1263  0.3561
 5277SOL     OW27289   3.284   1.557   4.574  0.2046 -0.1984 -0.2726
 5277SOL    HW127290   3.297   1.543   4.668  0.3562 -0.7112 -0.3686
 5277SOL    HW227291   3.324   1.482   4.530 -0.3401 -0.3280 -0.5499
 5278SOL     OW27292   4.238   0.665   4.070 -0.2631 -0.5137  0.3022
 5278SOL    HW127293   4.184   0.590   4.094  0.4452 -1.0675  0.1314
 5278SOL    HW227294   4.313   0.654   4.128 -0.7149  1.4078  1.2587
 5279SOL     OW27295   2.639   3.390   8.355  0.0496 -0.3437  0.5918
 5279SOL    HW127296   2.708   3.439   8.312 -0.3273  1.2409  1.8315
 5279SOL    HW227297   2.681   3.303   8.352 -0.7278 -0.7649  2.0585
 5280SOL     OW27298   4.308   4.045   7.546  0.3142 -0.5013 -0.1703
 5280SOL    HW127299   4.268   3.979   7.488 -2.5061  1.5060 -0.4937
 5280SOL    HW227300   4.396   4.006   7.546 -0.6872 -2.7754  0.6094
 5281SOL     OW27301   1.490   0.532   8.092  0.5256 -0.4843  0.1946
 5281SOL    HW127302   1.503   0.500   8.181  1.7013 -1.5157 -0.3422
 5281SOL    HW227303   1.403   0.505   8.062  0.2591 -1.6479  2.0241
 5282SOL     OW27304   0.881   4.098  10.512  0.1761 -0.0067 -0.0298
 5282SOL    HW127305   0.855   4.074  10.423  0.0192 -0.4380  0.1344
 5282SOL    HW227306   0.900   4.189  10.488  0.9058  0.2723  1.6150
 5283SOL     OW27307   0.951   3.686  13.564 -0.0514  0.2242  0.6847
 5283SOL    HW127308   0.965   3.765  13.618  2.7144 -1.7147  2.8163
 5283SOL    HW227309   0.907   3.632  13.629  0.2993 -2.0728 -1.0016
 5284SOL     OW27310   1.796   0.444  13.254  0.0456  0.4885  0.5235
 5284SOL    HW127311   1.854   0.520  13.266  0.0214  0.6720 -0.4854
 5284SOL    HW227312   1.711   0.488  13.253  0.0022  0.4027  0.3713
 5285SOL     OW27313   1.617   0.275   8.192  0.5431 -0.0662  0.2722
 5285SOL    HW127314   1.627   0.223   8.112  0.9635  0.7167 -0.1819
 5285SOL    HW227315   1.522   0.270   8.197  0.6609 -2.2711  0.2779
 5286SOL     OW27316   3.852   0.137   8.729 -0.3109  0.0144  0.1950
 5286SOL    HW127317   3.862   0.196   8.804 -1.0278  0.4736 -0.0700
 5286SOL    HW227318   3.921   0.074   8.749  0.4721  0.3271 -1.5469
 5287SOL     OW27319   1.425   0.609   2.845  0.3937 -0.7059 -0.2912
 5287SOL    HW127320   1.390   0.663   2.916  2.1987 -0.2393  0.2364
 5287SOL    HW227321   1.505   0.660   2.837 -0.4576  0.5708 -0.6451
 5288SOL     OW27322   2.487   2.909   6.196 -0.0414 -0.5783  0.5253
 5288SOL    HW127323   2.429   2.978   6.162 -0.1293 -0.2253  1.3745
 5288SOL    HW227324   2.567   2.963   6.202 -0.5587  0.3430 -0.8033
 5289SOL     OW27325   1.113   2.184   8.569 -0.4017 -0.4251  0.3957
 5289SOL    HW127326   1.081   2.269   8.542  1.0236 -0.5767 -1.7762
 5289SOL    HW227327   1.162   2.156   8.491  2.9393  4.0074  0.9093
 5290SOL     OW27328   4.044   0.913   6.650  0.0619 -0.0830 -0.1987
 5290SOL    HW127329   4.071   0.854   6.579 -1.2691 -2.2365  1.0876
 5290SOL    HW227330   4.038   0.854   6.725 -1.5844  0.1229 -0.1677
 5291SOL     OW27331   1.663   0.402   3.983  0.0501  0.7578 -0.0780
 5291SOL    HW127332   1.717   0.455   3.923  0.1807  3.3358  2.2802
 5291SOL    HW227333   1.576   0.440   3.974 -0.7498 -1.3502 -1.2343
 5292SOL     OW27334   2.970   2.596   8.727 -0.6635  0.1800 -0.4459
 5292SOL    HW127335   2.922   2.514   8.715  0.2952 -0.6822  1.7896
 5292SOL    HW227336   3.017   2.575   8.807 -0.2048  1.3704 -0.4091
 5293SOL     OW27337   3.321   2.410  13.919 -0.1926 -0.0937 -0.3652
 5293SOL    HW127338   3.292   2.433  14.007 -1.5731  0.3601 -0.9357
 5293SOL    HW227339   3.275   2.326  13.907  0.2831 -0.4058  0.0148
 5294SOL     OW27340   4.237   3.458   6.555  0.1679  0.3433 -0.0069
 5294SOL    HW127341   4.172   3.389   6.542  1.9223 -1.2876 -0.2170
 5294SOL    HW227342   4.186   3.539   6.557  0.5615  0.5680  0.7750
 5295SOL     OW27343   2.268   4.277  11.167 -0.2013  0.0638 -0.2569
 5295SOL    HW127344   2.359   4.249  11.176 -0.4842 -0.7103  0.1204
 5295SOL    HW227345   2.286   4.347  11.103  0.2027 -1.8462 -2.2231
 5296SOL     OW27346   2.261   0.977   4.311 -0.2065 -0.0637 -0.4865
 5296SOL    HW127347   2.261   0.889   4.275 -0.9190  0.8383 -2.7249
 5296SOL    HW227348   2.298   1.032   4.241 -0.6674 -3.9689 -3.7569
 5297SOL     OW27349   2.855   2.092   5.766  0.3095 -0.0492  0.2366
 5297SOL    HW127350   2.780   2.142   5.735 -0.3281 -0.7720  0.6198
 5297SOL    HW227351   2.901   2.154   5.822 -1.0174 -1.4617  2.8938
 5298SOL     OW27352   3.461   1.885  10.456 -0.4655 -0.5030 -0.0017
 5298SOL    HW127353   3.465   1.926  10.370  1.1701  0.8670  0.7132
 5298SOL    HW227354   3.383   1.835  10.432 -1.7531  1.6164 -0.1628
 5299SOL     OW27355   4.632   4.434   0.212 -0.6610 -0.4121 -0.3282
 5299SOL    HW127356   4.569   4.376   0.254  0.2741 -1.1893 -0.0104
 5299SOL    HW227357   4.688   4.446   0.289 -0.7570  2.0202 -0.6450
 5300SOL     OW27358   1.305   0.987   5.001 -0.1574 -0.5547  0.3103
 5300SOL    HW127359   1.388   0.989   4.954 -1.1574 -0.4817 -1.4309
 5300SOL    HW227360   1.324   1.012   5.092 -0.9401  2.1577 -0.2832
 5301SOL     OW27361   2.655   2.993  12.529  0.4527 -0.5163 -0.3609
 5301SOL    HW127362   2.734   2.950  12.494  1.5098 -0.2624  1.7023
 5301SOL    HW227363   2.639   3.060  12.463  0.1034  1.5126  1.7856
 5302SOL     OW27364   2.254   1.713  13.512  0.4057  0.1697  0.2163
 5302SOL    HW127365   2.319   1.679  13.451  1.0588 -1.1330  1.6314
 5302SOL    HW227366   2.307   1.788  13.537  0.1711  0.0136  1.1798
 5303SOL     OW27367   1.041   0.835   2.333  0.3996  0.0499  0.2430
 5303SOL    HW127368   1.132   0.811   2.317 -0.5637 -3.1419 -0.5260
 5303SOL    HW227369   1.062   0.922   2.365 -0.7710  0.5149 -0.2334
 5304SOL     OW27370   1.857   2.942   2.014  0.2596 -0.3133  0.1337
 5304SOL    HW127371   1.880   2.912   1.926  0.3628  0.7562 -0.2059
 5304SOL    HW227372   1.920   3.014   2.027  1.4824 -1.3382 -0.1471
 5305SOL     OW27373   1.801   0.711   1.050  0.0838 -0.2892  0.0289
 5305SOL    HW127374   1.771   0.758   0.972 -0.1967  0.7959  0.7883
 5305SOL    HW227375   1.828   0.631   1.006 -0.4982  0.9714 -2.6495
 5306SOL     OW27376   0.590   2.725   8.107 -0.7084  0.1758 -0.0952
 5306SOL    HW127377   0.639   2.687   8.035  0.4159 -0.6801  1.1154
 5306SOL    HW227378   0.619   2.655   8.166  2.6845  1.5594 -0.1496
 5307SOL     OW27379   2.954   1.628   7.184 -0.6960 -0.4792  0.8726
 5307SOL    HW127380   2.894   1.571   7.233 -0.7896 -3.3333 -2.5171
 5307SOL    HW227381   2.890   1.698   7.170 -1.9797 -1.1324  3.5064
 5308SOL     OW27382   0.602   2.012  10.095 -0.0240 -0.4790 -0.7335
 5308SOL    HW127383   0.552   1.990  10.174 -1.1411  1.1232 -1.0015
 5308SOL    HW227384   0.616   2.106  10.110 -0.9603 -0.5638  0.6315
 5309SOL     OW27385   0.592   1.822   5.009  0.0227  0.5413  0.1105
 5309SOL    HW127386   0.534   1.816   4.933 -0.7053 -1.2900  0.8102
 5309SOL    HW227387   0.538   1.831   5.087  0.7801 -1.2902  0.8337
 5310SOL     OW27388   1.267   0.779   0.118 -0.0594 -0.1277 -0.6880
 5310SOL    HW127389   1.305   0.769   0.205 -0.4833  0.1429 -0.4715
 5310SOL    HW227390   1.183   0.810   0.153  1.6731 -1.0959  4.1702
 5311SOL     OW27391   2.274   0.129  10.221  0.0729 -0.2654 -0.1572
 5311SOL    HW127392   2.284   0.034  10.225  1.1648 -0.1505 -0.1168
 5311SOL    HW227393   2.180   0.132  10.203 -0.0751 -0.2375  0.6495
 5312SOL     OW27394   3.040   2.593   8.467  0.2953 -0.0689 -0.4802
 5312SOL    HW127395   3.112   2.656   8.473  0.2038  0.1580 -1.7253
 5312SOL    HW227396   3.006   2.597   8.556  0.2548  0.8004 -0.5349
 5313SOL     OW27397   3.714   1.214   9.760 -0.1053 -0.0730 -0.4712
 5313SOL    HW127398   3.800   1.209   9.803 -0.7261  3.5970  1.1881
 5313SOL    HW227399   3.683   1.296   9.799 -4.3299 -1.2641 -1.3587
 5314SOL     OW27400   0.824   3.664   4.470  0.5520 -0.0573 -0.1704
 5314SOL    HW127401   0.801   3.693   4.558  0.5614  0.3773 -0.3080
 5314SOL    HW227402   0.772   3.586   4.454 -1.5104  0.6671  2.9762
 5315SOL     OW27403   1.542   4.143   0.511 -0.2182  0.0268 -0.1079
 5315SOL    HW127404   1.462   4.171   0.554  0.6866  1.5853  0.5552
 5315SOL    HW227405   1.552   4.051   0.535  1.6918 -0.3425 -2.2876
 5316SOL     OW27406   2.952   3.934   4.422 -1.0234  0.6268 -0.0536
 5316SOL    HW127407   2.892   3.926   4.347 -1.3421 -0.8003  0.3566
 5316SOL    HW227408   2.909   4.009   4.463 -3.4101  0.7477 -2.7753
 5317SOL     OW27409   4.722   1.101   4.265  0.0932 -0.0253  0.6377
 5317SOL    HW127410   4.636   1.136   4.289 -0.0660  1.1556 -1.7364
 5317SOL    HW227411   4.689   1.022   4.223  3.3896 -1.5437  0.9364
 5318SOL     OW27412   4.299   1.688   9.478 -0.2201 -0.0074 -0.5552
 5318SOL    HW127413   4.295   1.773   9.523  0.2979  0.0814 -0.6682
 5318SOL    HW227414   4.257   1.628   9.539  0.3457 -0.9613 -1.1058
 5319SOL     OW27415   1.523   3.821   1.811  0.3897  0.2987 -0.5437
 5319SOL    HW127416   1.447   3.845   1.757 -0.8420 -1.1892  0.5324
 5319SOL    HW227417   1.573   3.782   1.739  0.9400  1.2042 -0.6444
 5320SOL     OW27418   3.060   1.068   4.054 -0.6269 -0.6826  0.0104
 5320SOL    HW127419   3.107   1.101   4.131  2.9972  1.3698 -3.1189
 5320SOL    HW227420   3.024   0.990   4.096 -1.8464 -0.7737 -1.2261
 5321SOL     OW27421   4.170   1.119   5.113 -0.8477  0.1042  0.2137
 5321SOL    HW127422   4.116   1.062   5.168 -1.9800  0.2374 -0.7356
 5321SOL    HW227423   4.128   1.106   5.027  0.6110 -2.3690 -0.1145
 5322SOL     OW27424   0.755   1.901   8.836  0.3829  0.1222  0.6421
 5322SOL    HW127425   0.697   1.825   8.848  2.1857 -1.4839 -0.8128
 5322SOL    HW227426   0.795   1.890   8.922  0.5357  0.8163  0.6566
 5323SOL     OW27427   0.079   2.623  11.547 -0.1038 -0.0480 -0.1617
 5323SOL    HW127428   0.170   2.650  11.560  0.0245  0.1795 -1.5445
 5323SOL    HW227429   0.039   2.651  11.629  0.8144 -0.5088  0.4443
 5324SOL     OW27430   2.014   2.551   1.755 -0.5551 -0.2156 -0.4182
 5324SOL    HW127431   1.980   2.640   1.754  0.0221 -0.0070 -2.6624
 5324SOL    HW227432   2.050   2.535   1.668  2.1610  2.5297  0.2158
 5325SOL     OW27433   4.384   4.664   4.546 -0.2444  0.4550 -0.7159
 5325SOL    HW127434   4.407   0.012   4.603  1.4519  0.9784 -2.0593
 5325SOL    HW227435   4.445   4.658   4.472 -0.1004 -3.4346 -0.2510
 5326SOL     OW27436   2.987   1.374   5.645 -0.5030  0.0730 -0.1246
 5326SOL    HW127437   3.020   1.390   5.557  0.9199 -1.9033  0.0530
 5326SOL    HW227438   2.982   1.464   5.677  0.9858 -0.1725  0.8128
 5327SOL     OW27439   1.346   2.872   0.230  0.3440  0.0399  0.2837
 5327SOL    HW127440   1.372   2.962   0.210 -0.8593  0.0931 -1.0810
 5327SOL    HW227441   1.275   2.884   0.292 -2.0117  1.5149 -2.6818
 5328SOL     OW27442   3.041   1.968  16.697  0.1377 -0.0295  0.3547
 5328SOL    HW127443   3.081   1.957  16.783  1.8603  1.9482 -0.1944
 5328SOL    HW227444   3.076   1.886  16.663 -0.5663 -0.1517 -0.0867
 5329SOL     OW27445   3.819   2.539  14.866 -0.3100 -0.1748 -0.2787
 5329SOL    HW127446   3.741   2.547  14.921 -0.1739  1.4213 -0.3035
 5329SOL    HW227447   3.779   2.535  14.779  2.9570 -2.6705 -1.6516
 5330SOL     OW27448   4.452   2.112   2.312 -0.2953 -0.0725 -0.5993
 5330SOL    HW127449   4.495   2.047   2.257 -0.8019 -0.3113 -0.7123
 5330SOL    HW227450   4.363   2.119   2.277 -0.7330 -2.8167  0.0317
 5331SOL     OW27451   4.273   3.115   9.204  0.3543 -0.1674 -0.6742
 5331SOL    HW127452   4.293   3.207   9.184  2.6445 -0.4043  0.6379
 5331SOL    HW227453   4.202   3.124   9.268  1.0535 -1.2765  0.2421
 5332SOL     OW27454   2.845   1.984   6.346 -0.2893  0.1803 -0.0312
 5332SOL    HW127455   2.824   1.895   6.373  1.2521 -0.2197 -0.2055
 5332SOL    HW227456   2.925   2.008   6.391  0.5838 -1.2296 -0.8465
 5333SOL     OW27457   4.055   1.966   2.922 -0.2269  0.4091  0.5233
 5333SOL    HW127458   4.046   1.871   2.913 -0.5895  0.5787 -0.7824
 5333SOL    HW227459   3.992   1.979   2.993 -2.0320 -0.7257 -0.8831
 5334SOL     OW27460   2.072   4.711   2.069 -0.1498  0.0236  0.4450
 5334SOL    HW127461   2.023   0.066   2.087 -0.8302 -0.4024  0.5290
 5334SOL    HW227462   2.008   4.640   2.078  1.1012 -1.2546 -0.8730
 5335SOL     OW27463   2.419   1.131   4.477  0.1800  0.1107 -0.9734
 5335SOL    HW127464   2.333   1.167   4.500  0.3553 -1.3366  1.8468
 5335SOL    HW227465   2.387   1.060   4.420  0.2578 -1.3737  0.8503
 5336SOL     OW27466   3.270   1.365   4.344 -0.4843  0.1797  0.3651
 5336SOL    HW127467   3.275   1.270   4.334  0.3556  0.2269  0.3256
 5336SOL    HW227468   3.329   1.399   4.276  0.2706  2.6532  2.2604
 5337SOL     OW27469   3.099   4.585  10.651  0.0959 -0.0555  0.0033
 5337SOL    HW127470   3.121   4.494  10.635 -0.1243 -0.0688 -0.2236
 5337SOL    HW227471   3.178   4.624  10.688 -0.8401  0.9601  0.9597
 5338SOL     OW27472   3.889   2.039  16.953 -0.2087  0.4646 -0.1511
 5338SOL    HW127473   3.815   1.989  16.988  0.2997  0.5057  0.9905
 5338SOL    HW227474   3.965   1.991  16.986  1.2911  1.6507 -1.9232
 5339SOL     OW27475   2.505   2.043   5.034 -0.4721 -0.6592 -0.2830
 5339SOL    HW127476   2.459   1.971   4.989 -2.6283  1.3861 -1.3229
 5339SOL    HW227477   2.580   1.987   5.055  2.9759  3.1563 -2.4659
 5340SOL     OW27478   4.667   0.002   1.361  0.2376 -0.3179  0.1392
 5340SOL    HW127479   4.675   0.096   1.341 -2.3633 -0.3447 -1.0255
 5340SOL    HW227480   4.581   4.717   1.321 -0.2797  1.5501  0.7359
 5341SOL     OW27481   0.159   3.540   5.214 -0.1758 -0.1138 -0.3820
 5341SOL    HW127482   0.090   3.474   5.207 -0.1549 -0.0167 -1.3892
 5341SOL    HW227483   0.122   3.610   5.268  3.7211 -0.6930  3.0939
 5342SOL     OW27484   1.640   0.207  13.305  0.3123  0.1722  0.4771
 5342SOL    HW127485   1.672   0.273  13.244 -0.0985  0.1999  0.2921
 5342SOL    HW227486   1.723   0.190  13.350 -0.0178  0.8849  1.3583
 5343SOL     OW27487   1.705   2.148   3.087 -0.2431 -0.8927 -0.1989
 5343SOL    HW127488   1.629   2.157   3.143  1.2550  1.0973  1.5094
 5343SOL    HW227489   1.732   2.062   3.119 -2.6285 -1.1812  1.0096
 5344SOL     OW27490   3.895   2.043   2.587  0.3618 -0.4421 -0.0676
 5344SOL    HW127491   3.851   2.024   2.670  1.9424  1.1825  1.1490
 5344SOL    HW227492   3.936   1.963   2.555 -1.5608 -1.3151 -0.3534
 5345SOL     OW27493   2.709   1.198   1.111 -0.1507  0.2232 -0.7306
 5345SOL    HW127494   2.790   1.236   1.144 -1.0641  0.4224  1.3113
 5345SOL    HW227495   2.654   1.276   1.112  0.8625  0.9217  0.1448
 5346SOL     OW27496   3.164   2.295   2.690 -0.2981 -1.0555 -0.6151
 5346SOL    HW127497   3.212   2.222   2.729  2.9166  0.8952 -0.9063
 5346SOL    HW227498   3.165   2.278   2.596 -4.7015 -0.7662 -0.7501
 5347SOL     OW27499   0.109   2.474   7.941  0.3375  0.0117  0.5005
 5347SOL    HW127500   0.093   2.550   7.997 -0.1144 -0.8813  1.5551
 5347SOL    HW227501   0.132   2.402   7.999 -3.2762 -0.3815  1.3937
 5348SOL     OW27502   2.587   3.082   7.007  0.0015  0.1912 -0.3131
 5348SOL    HW127503   2.626   3.081   6.919 -0.8906  0.2750 -0.7155
 5348SOL    HW227504   2.660   3.060   7.064 -0.3895 -4.0163 -1.4435
 5349SOL     OW27505   0.693   3.920   3.479  0.0363  0.0629 -0.3290
 5349SOL    HW127506   0.673   3.827   3.491 -1.7265  0.3325 -1.1159
 5349SOL    HW227507   0.685   3.933   3.384  0.9485 -0.0973 -0.4224
 5350SOL     OW27508   3.526   2.507   5.498 -0.0041  0.2335 -0.5866
 5350SOL    HW127509   3.447   2.549   5.464 -0.8528  0.3807  1.6328
 5350SOL    HW227510   3.506   2.413   5.502 -0.2400  0.2225 -1.9799
 5351SOL     OW27511   0.032   1.192   5.115  0.0412 -0.6773  0.4934
 5351SOL    HW127512   0.014   1.280   5.081  1.5667 -0.9947 -1.1423
 5351SOL    HW227513   0.039   1.139   5.036 -2.7286 -1.1903  0.6138
 5352SOL     OW27514   3.468   4.390  15.922  0.3580 -0.2332 -0.1839
 5352SOL    HW127515   3.483   4.484  15.928  3.2120 -0.6308 -0.8665
 5352SOL    HW227516   3.423   4.384  15.838  0.2053 -0.8329 -0.0584
 5353SOL     OW27517   2.437   3.541   3.562  0.5361  0.2254 -0.2986
 5353SOL    HW127518   2.526   3.527   3.530  0.1043 -0.1584 -1.3226
 5353SOL    HW227519   2.437   3.457   3.608  0.8718  0.1926 -0.3615
 5354SOL     OW27520   1.331   3.960   9.866  0.6101 -0.3283  0.6787
 5354SOL    HW127521   1.362   4.047   9.844  1.7916 -0.6691  0.9804
 5354SOL    HW227522   1.353   3.958   9.959 -1.2375  1.0531  1.1586
 5355SOL     OW27523   3.064   2.277   5.869 -0.1673 -0.1185  0.2655
 5355SOL    HW127524   3.160   2.275   5.866 -0.2472 -2.8405 -0.5390
 5355SOL    HW227525   3.041   2.242   5.955 -2.0703  1.7665  0.5100
 5356SOL     OW27526   2.590   1.498  10.387  0.1801  0.2847 -0.3107
 5356SOL    HW127527   2.597   1.477  10.294  1.9042 -0.5213 -0.0064
 5356SOL    HW227528   2.509   1.455  10.414  1.2171 -3.6123 -3.4760
 5357SOL     OW27529   2.130   4.083  14.797  0.1990 -0.4578  0.2173
 5357SOL    HW127530   2.224   4.062  14.801  0.0923 -0.9510  0.1850
 5357SOL    HW227531   2.097   3.999  14.764  0.0759  0.4156 -1.8717
 5358SOL     OW27532   2.362   3.901   2.739 -0.0726  0.0348 -0.3807
 5358SOL    HW127533   2.348   3.807   2.726 -0.7524  0.1804 -0.6355
 5358SOL    HW227534   2.269   3.921   2.736  0.4449  2.2884 -1.2171
 5359SOL     OW27535   1.214   4.381   6.805 -0.1324  0.8361  0.4762
 5359SOL    HW127536   1.234   4.472   6.783 -0.2482  1.2238  1.9795
 5359SOL    HW227537   1.120   4.383   6.827  0.0283  0.1977  1.2068
 5360SOL     OW27538   3.529   3.845   3.170  0.2470  0.4215  0.1078
 5360SOL    HW127539   3.527   3.874   3.079 -0.3287  2.1697  0.6904
 5360SOL    HW227540   3.569   3.759   3.156  2.6271  1.5262  0.0305
 5361SOL     OW27541   2.542   0.056  15.317 -0.0740 -0.2398  0.0057
 5361SOL    HW127542   2.503   4.701  15.351 -0.4466 -0.1503 -0.2014
 5361SOL    HW227543   2.578   0.085  15.400  0.4204  3.3085 -1.4584
 5362SOL     OW27544   1.396   1.709   9.000 -0.2533  0.4922  0.2458
 5362SOL    HW127545   1.392   1.623   9.043  0.0029  0.4457  0.1814
 5362SOL    HW227546   1.478   1.749   9.028  0.1276 -1.5437  1.9959
 5363SOL     OW27547   1.463   1.781  16.450 -0.1256  0.2712  0.6260
 5363SOL    HW127548   1.370   1.796  16.435 -0.7732 -3.2280  1.1921
 5363SOL    HW227549   1.455   1.744  16.537 -1.2237 -1.0692 -0.0415
 5364SOL     OW27550   2.912   1.393   7.850  0.0476 -0.1063  0.2249
 5364SOL    HW127551   2.882   1.479   7.879  1.4716  0.1640  0.8755
 5364SOL    HW227552   2.992   1.374   7.899  0.5847  1.3276 -0.1129
 5365SOL     OW27553   1.259   4.226   3.150 -0.0435 -0.3012 -0.6479
 5365SOL    HW127554   1.221   4.292   3.208 -2.2825 -2.5309  0.4390
 5365SOL    HW227555   1.179   4.179   3.127  0.4445 -2.8721  2.7914
 5366SOL     OW27556   2.384   3.071   4.151 -0.4752  0.1877 -0.4341
 5366SOL    HW127557   2.329   3.008   4.104  0.6058 -0.0613 -1.3831
 5366SOL    HW227558   2.397   3.038   4.239 -0.4731 -0.3832 -0.6456
 5367SOL     OW27559   3.954   2.010   2.120  0.6019  0.3374  0.0204
 5367SOL    HW127560   3.961   1.928   2.170  0.2573 -0.1420 -0.7234
 5367SOL    HW227561   3.982   1.994   2.030 -0.8863 -2.0852 -0.0407
 5368SOL     OW27562   3.402   1.085   4.808  0.1277 -0.1693  0.0441
 5368SOL    HW127563   3.324   1.038   4.780  1.7669 -2.0380 -1.3969
 5368SOL    HW227564   3.381   1.099   4.900  1.6292  0.0275  0.3633
 5369SOL     OW27565   1.513   2.794   3.890 -0.1751  0.0220 -0.6334
 5369SOL    HW127566   1.524   2.824   3.980 -0.5579 -0.9760 -0.2432
 5369SOL    HW227567   1.430   2.746   3.898  0.0377 -0.1423  0.7204
 5370SOL     OW27568   0.244   2.294   8.073  0.5822  0.5802 -0.4093
 5370SOL    HW127569   0.338   2.310   8.084  0.4644  1.2851 -0.4523
 5370SOL    HW227570   0.223   2.245   8.152 -1.1174 -1.2411 -1.9829
 5371SOL     OW27571   2.732   2.515  15.068  0.0433 -0.4588 -0.1649
 5371SOL    HW127572   2.744   2.423  15.088 -1.4080 -0.7890 -0.8132
 5371SOL    HW227573   2.781   2.519  14.986 -0.5562 -1.3387 -0.5617
 5372SOL     OW27574   1.216   0.321   8.629  0.0627  0.5813  0.1771
 5372SOL    HW127575   1.291   0.304   8.573 -0.0856  1.1318 -0.1918
 5372SOL    HW227576   1.188   0.410   8.605  0.4167  1.5067  3.1086
 5373SOL     OW27577   2.946   2.219  14.511  0.1564 -0.0936  0.1473
 5373SOL    HW127578   2.871   2.278  14.520  1.3169  1.0462  2.5132
 5373SOL    HW227579   2.916   2.171  14.434  1.8378 -1.4979  0.3645
 5374SOL     OW27580   1.033   0.288   8.882  0.6818 -0.1503 -0.3019
 5374SOL    HW127581   1.106   0.301   8.822 -1.0365  1.4045 -2.0598
 5374SOL    HW227582   1.026   0.193   8.868 -0.8772 -0.0418 -0.2781
 5375SOL     OW27583   2.149   2.562   4.834 -0.0252  0.6963  0.3103
 5375SOL    HW127584   2.092   2.612   4.776 -1.8761  0.1091  1.6496
 5375SOL    HW227585   2.171   2.487   4.779 -1.1470 -0.1316  0.9850
 5376SOL     OW27586   0.297   0.076   2.411 -0.4774 -0.1493 -0.6273
 5376SOL    HW127587   0.265   0.032   2.332 -1.1046  0.7137 -0.8577
 5376SOL    HW227588   0.385   0.095   2.379 -0.4336  1.6794  0.6175
 5377SOL     OW27589   1.879   0.149   7.616  0.4251  0.1642  0.4492
 5377SOL    HW127590   1.805   0.118   7.563  0.3801 -0.6609  0.9887
 5377SOL    HW227591   1.901   0.216   7.551 -1.9641  0.6610  0.1414
 5378SOL     OW27592   4.544   3.305   4.014  0.9113 -0.5151 -0.4660
 5378SOL    HW127593   4.528   3.334   4.104  0.4158 -0.2405 -0.6406
 5378SOL    HW227594   4.467   3.249   4.007  0.4590  0.0426  0.0580
 5379SOL     OW27595   2.730   2.310   2.449  0.2364 -0.7642  0.0868
 5379SOL    HW127596   2.637   2.307   2.471 -0.1394  1.4054 -1.1231
 5379SOL    HW227597   2.766   2.392   2.483 -1.0260 -0.7428  1.3513
 5380SOL     OW27598   0.131   3.052   5.843  0.2421  0.0997  0.4013
 5380SOL    HW127599   0.058   3.112   5.855  0.7639  1.0847 -1.4046
 5380SOL    HW227600   0.150   3.030   5.935 -0.0559 -2.2115 -0.0732
 5381SOL     OW27601   4.020   3.708  15.979  0.1653 -0.1275  0.3009
 5381SOL    HW127602   3.996   3.618  16.002 -0.8427  0.5334  1.8378
 5381SOL    HW227603   4.111   3.683  15.965 -0.6006 -3.2143  0.8555
 5382SOL     OW27604   1.498   1.531   8.352  0.4702 -0.3227  0.2262
 5382SOL    HW127605   1.565   1.563   8.412 -0.9183  1.0961  1.0016
 5382SOL    HW227606   1.486   1.442   8.384  0.8810 -0.9911 -1.4565
 5383SOL     OW27607   0.124   2.883   9.074  0.1596  0.5198  0.2416
 5383SOL    HW127608   0.190   2.924   9.130 -0.3146  1.5128  0.0739
 5383SOL    HW227609   0.183   2.819   9.034 -0.6095  0.0427 -0.1248
 5384SOL     OW27610   2.441   1.791   2.724  0.0473 -0.0721  0.3720
 5384SOL    HW127611   2.362   1.738   2.709 -0.8157  1.3779 -0.1560
 5384SOL    HW227612   2.465   1.764   2.813 -3.2751  0.1873  1.3586
 5385SOL     OW27613   0.530   4.475   7.550  0.4829 -0.3554 -0.1288
 5385SOL    HW127614   0.534   4.465   7.455  1.8926  0.0666 -0.1166
 5385SOL    HW227615   0.619   4.450   7.576  1.5944  0.6139 -2.9732
 5386SOL     OW27616   3.945   0.563  10.538  0.1379 -0.5974 -0.2753
 5386SOL    HW127617   3.947   0.590  10.446 -0.9853  0.4306  0.0074
 5386SOL    HW227618   4.007   0.628  10.571  0.9346  0.1312 -3.1931
 5387SOL     OW27619   0.731   1.233  15.802 -0.0982  0.2799  0.0153
 5387SOL    HW127620   0.761   1.173  15.733 -0.6580  3.5637 -3.1061
 5387SOL    HW227621   0.745   1.322  15.769 -2.8522  1.0330  0.9347
 5388SOL     OW27622   1.992   3.460  14.808  0.4479 -0.2803 -0.0182
 5388SOL    HW127623   1.903   3.484  14.780  0.2222 -1.7066 -0.5302
 5388SOL    HW227624   2.035   3.521  14.749 -0.4886 -1.3074 -1.7674
 5389SOL     OW27625   2.383   4.025   8.645 -0.2672 -0.5423  0.4983
 5389SOL    HW127626   2.398   3.930   8.646 -0.5723 -0.5715  2.9900
 5389SOL    HW227627   2.360   4.044   8.554 -2.1519 -4.1592  0.1860
 5390SOL     OW27628   1.229   0.914   3.915  0.2394  0.2702  0.1347
 5390SOL    HW127629   1.302   0.854   3.927 -0.6251 -0.6128  0.9426
 5390SOL    HW227630   1.270   1.001   3.915  1.4565 -0.2996 -1.8261
 5391SOL     OW27631   0.962   3.869   3.505 -0.0200 -0.0333  0.0609
 5391SOL    HW127632   0.993   3.840   3.420 -2.3429 -3.6344  0.4383
 5391SOL    HW227633   0.876   3.903   3.481  0.9272  1.3078 -1.4358
 5392SOL     OW27634   0.982   2.900  14.929  0.3433  0.0756 -0.5466
 5392SOL    HW127635   1.045   2.871  14.995 -1.0919  0.0752  0.8472
 5392SOL    HW227636   0.902   2.915  14.981  0.3480 -2.0112  0.0462
 5393SOL     OW27637   4.576   4.209   7.005  0.9130  0.0929  0.1553
 5393SOL    HW127638   4.671   4.213   7.005  1.0198 -2.6571  1.3828
 5393SOL    HW227639   4.557   4.193   6.913  1.4886 -0.0750  0.0650
 5394SOL     OW27640   0.624   3.654   6.205  0.6595 -0.4087 -0.2764
 5394SOL    HW127641   0.598   3.701   6.285 -3.1370 -2.0082 -0.5571
 5394SOL    HW227642   0.573   3.574   6.218 -0.1212 -0.0345 -1.0966
 5395SOL     OW27643   1.955   3.475   7.283  0.8162 -0.0306  0.1295
 5395SOL    HW127644   2.008   3.543   7.242  0.2243  0.6478  0.4959
 5395SOL    HW227645   2.027   3.420   7.314 -2.4859 -4.4643 -0.0911
 5396SOL     OW27646   0.608   3.574   3.066  0.1616 -0.9214 -1.0165
 5396SOL    HW127647   0.622   3.561   2.972 -1.0160 -0.2695 -1.2773
 5396SOL    HW227648   0.696   3.552   3.097 -0.5210 -2.5166 -0.1954
 5397SOL     OW27649   3.078   2.130   8.807 -0.2228  0.8226 -0.1592
 5397SOL    HW127650   3.052   2.052   8.758 -0.8016  0.7858  0.2067
 5397SOL    HW227651   3.142   2.100   8.871 -0.9070 -0.7917 -0.2397
 5398SOL     OW27652   0.037   1.609   7.376 -0.5087  0.0336 -0.0304
 5398SOL    HW127653   0.069   1.535   7.325 -2.1271 -0.1677 -0.7747
 5398SOL    HW227654   0.113   1.649   7.418 -0.1179 -0.4907 -0.2365
 5399SOL     OW27655   2.191   1.609   3.374  0.3749  0.0561  0.5163
 5399SOL    HW127656   2.099   1.584   3.386  0.3417  1.2888  2.7981
 5399SOL    HW227657   2.220   1.523   3.342  1.9411  0.2561  1.3955
 5400SOL     OW27658   4.002   3.642   2.989 -0.1129 -0.2298 -0.3186
 5400SOL    HW127659   4.008   3.569   2.928 -0.0352 -0.3010 -0.2255
 5400SOL    HW227660   4.049   3.602   3.062 -2.0806  0.7684  1.5209
 5401SOL     OW27661   1.117   2.338   2.631  0.5270  0.7691 -0.3287
 5401SOL    HW127662   1.210   2.354   2.647  0.0596  0.4427  2.6567
 5401SOL    HW227663   1.071   2.397   2.691  1.1151 -0.1276  1.0030
 5402SOL     OW27664   3.819   3.506   4.216  0.1165 -0.1069 -0.5649
 5402SOL    HW127665   3.785   3.474   4.133 -1.1282 -0.0934 -0.0651
 5402SOL    HW227666   3.743   3.545   4.260 -0.0192 -0.2274 -0.6930
 5403SOL     OW27667   0.292   1.175  11.457  0.1493  0.0020 -0.0501
 5403SOL    HW127668   0.281   1.269  11.449 -0.9906 -0.1586 -0.3582
 5403SOL    HW227669   0.315   1.156  11.366  1.9970  0.8793  0.2336
 5404SOL     OW27670   2.037   0.802   8.505 -0.9361 -0.4547 -0.3840
 5404SOL    HW127671   1.943   0.808   8.484 -0.5593  0.5909 -1.7820
 5404SOL    HW227672   2.054   0.708   8.504 -0.9666 -0.4712  0.5137
 5405SOL     OW27673   1.195   0.725  13.075  0.2857  0.2912 -0.8338
 5405SOL    HW127674   1.134   0.795  13.054  1.5239  1.6455  0.1081
 5405SOL    HW227675   1.239   0.706  12.992  1.9297 -0.0131  0.1054
 5406SOL     OW27676   2.732   0.406  11.456  0.1451  0.6959 -0.4590
 5406SOL    HW127677   2.752   0.490  11.415 -2.1395  1.7007  0.4983
 5406SOL    HW227678   2.807   0.354  11.426 -0.0308 -1.5106  2.8741
 5407SOL     OW27679   2.338   4.383   8.520  0.0152  0.5639  0.4484
 5407SOL    HW127680   2.253   4.382   8.563 -0.4151  1.3383 -0.3667
 5407SOL    HW227681   2.334   4.292   8.491  0.7923  1.1537 -1.5511
 5408SOL     OW27682   0.521   1.473  15.288 -0.0569 -0.3334 -0.0714
 5408SOL    HW127683   0.614   1.495  15.280 -0.5363  0.4811 -3.4419
 5408SOL    HW227684   0.494   1.475  15.196 -1.3793 -0.6153  0.3061
 5409SOL     OW27685   0.753   2.014   6.266  0.0422 -0.1602  0.4034
 5409SOL    HW127686   0.829   1.965   6.232 -0.5801 -0.2480 -0.8802
 5409SOL    HW227687   0.718   1.950   6.328  1.1346  1.7973  3.0283
 5410SOL     OW27688   1.269   2.402   9.309  0.3887 -0.0825 -0.2935
 5410SOL    HW127689   1.229   2.327   9.266 -0.1100 -0.1804  0.3352
 5410SOL    HW227690   1.252   2.385   9.402  0.1124  0.9564 -0.1513
 5411SOL     OW27691   3.888   1.486   3.071  0.1635 -0.1180 -0.8076
 5411SOL    HW127692   3.959   1.435   3.110  0.4356 -0.2754 -1.5173
 5411SOL    HW227693   3.833   1.429   3.018 -2.5428  1.2846  0.5124
 5412SOL     OW27694   0.715   2.392   5.741 -0.0645 -0.0019 -0.6554
 5412SOL    HW127695   0.708   2.318   5.681  1.6210  0.3054 -1.2197
 5412SOL    HW227696   0.626   2.403   5.774 -0.1585 -0.2634 -0.8259
 5413SOL     OW27697   2.937   3.140   1.800  0.0403 -0.6165  0.1314
 5413SOL    HW127698   2.864   3.184   1.845 -0.9126 -0.0968 -1.9481
 5413SOL    HW227699   2.978   3.214   1.757  0.6292 -0.1968  1.4217
 5414SOL     OW27700   3.487   1.536   3.597  0.0643  0.2248  0.4274
 5414SOL    HW127701   3.563   1.536   3.656  0.2444  3.2611  0.1985
 5414SOL    HW227702   3.432   1.611   3.619 -0.9551  0.5825 -3.3499
 5415SOL     OW27703   2.946   1.394   9.066  0.1320 -0.4150  0.8533
 5415SOL    HW127704   2.890   1.447   9.123  1.3484  0.1657  1.5256
 5415SOL    HW227705   2.901   1.310   9.065  3.1586 -2.0019 -1.2728
 5416SOL     OW27706   2.026   0.233   8.972 -0.2026 -0.5045 -0.5564
 5416SOL    HW127707   1.966   0.232   9.046 -1.5080  0.0376 -1.6073
 5416SOL    HW227708   2.049   0.140   8.970 -0.3292 -0.5637  0.7073
 5417SOL     OW27709   0.435   0.167  13.452 -0.1587  0.6266 -0.0660
 5417SOL    HW127710   0.410   0.226  13.523  3.7939  1.0796  0.9025
 5417SOL    HW227711   0.468   0.097  13.508  1.5742  0.7900 -0.8903
 5418SOL     OW27712   2.441   1.865   9.419  0.0708 -0.4650 -0.2094
 5418SOL    HW127713   2.454   1.775   9.450  0.1639 -0.1038  0.8099
 5418SOL    HW227714   2.351   1.866   9.387  0.2832  1.6018 -0.7221
 5419SOL     OW27715   1.767   4.433  10.601  0.3046  0.2055 -0.3849
 5419SOL    HW127716   1.700   4.386  10.551 -0.4723 -0.9233  1.7367
 5419SOL    HW227717   1.795   4.382  10.676  0.4669  1.9445  0.7382
 5420SOL     OW27718   3.806   1.581   2.353  0.0709 -0.1332  0.6172
 5420SOL    HW127719   3.754   1.659   2.331 -1.5845 -1.8572 -1.5355
 5420SOL    HW227720   3.865   1.616   2.420 -0.0831 -0.0238  0.6955
 5421SOL     OW27721   1.992   3.194   6.539 -0.3051 -0.7020 -0.5658
 5421SOL    HW127722   2.052   3.172   6.611 -0.9501  0.0897  0.2200
 5421SOL    HW227723   2.002   3.287   6.560 -0.7693 -0.8022  0.1184
 5422SOL     OW27724   2.973   0.400   4.589 -0.1172 -0.2768  0.0736
 5422SOL    HW127725   3.054   0.350   4.602 -0.9882 -1.5744  0.4187
 5422SOL    HW227726   2.988   0.439   4.503  0.0322 -1.5144 -0.4534
 5423SOL     OW27727   1.276   3.082   6.013  0.2973  0.7101 -0.1972
 5423SOL    HW127728   1.367   3.111   6.009  0.5631 -0.1782 -0.6548
 5423SOL    HW227729   1.252   3.101   5.922 -2.5930  0.9731  0.6026
 5424SOL     OW27730   0.898   4.677   5.478 -0.2876 -0.0677  0.4263
 5424SOL    HW127731   0.958   4.610   5.445 -0.7519 -1.1124  1.6880
 5424SOL    HW227732   0.942   4.691   5.562  0.3462  1.4196 -0.1622
 5425SOL     OW27733   2.614   4.074   4.834  0.0224 -0.0187 -0.2765
 5425SOL    HW127734   2.709   4.083   4.830  0.1436 -1.0844  0.3805
 5425SOL    HW227735   2.588   4.157   4.794 -1.2809 -0.9113 -1.3130
 5426SOL     OW27736   4.256   4.115   0.791  1.0167 -0.2560 -0.2031
 5426SOL    HW127737   4.323   4.051   0.813 -0.2518 -0.5661  2.7795
 5426SOL    HW227738   4.308   4.194   0.774  0.2527 -0.2621 -2.5453
 5427SOL     OW27739   2.161   3.308   3.874 -0.3728  0.1351  0.9605
 5427SOL    HW127740   2.101   3.236   3.855  0.1357  0.1049 -0.5207
 5427SOL    HW227741   2.090   3.371   3.882  2.1345  2.9353  1.1394
 5428SOL     OW27742   0.778   2.992   5.993  0.1678 -0.2340  0.5100
 5428SOL    HW127743   0.857   2.987   5.940  0.5422  0.7819  0.9613
 5428SOL    HW227744   0.776   3.088   5.999  4.2158 -0.1512  0.6176
 5429SOL     OW27745   2.439   1.812   9.122  0.1650  0.9276 -0.2934
 5429SOL    HW127746   2.529   1.787   9.141 -1.1637 -1.9308  2.1898
 5429SOL    HW227747   2.446   1.907   9.130 -0.3439  0.9392  0.0327
 5430SOL     OW27748   1.202   0.598   1.223  0.3548 -0.2883  0.5037
 5430SOL    HW127749   1.210   0.656   1.148 -0.6124 -0.0173  0.6023
 5430SOL    HW227750   1.138   0.653   1.269 -0.2258  0.2792 -0.9786
 5431SOL     OW27751   1.515   0.119  11.414  0.2451  0.3348  0.2697
 5431SOL    HW127752   1.494   0.181  11.484 -1.9845  0.8096 -0.8050
 5431SOL    HW227753   1.559   0.050  11.464  0.4444 -0.4712 -1.0287
 5432SOL     OW27754   3.242   1.387   3.820 -0.3957 -0.0247  0.1648
 5432SOL    HW127755   3.197   1.303   3.831 -0.7654  0.0208 -1.0884
 5432SOL    HW227756   3.262   1.389   3.727  2.4350 -1.9112  0.7481
 5433SOL     OW27757   2.719   0.409  12.874 -0.2372 -0.2068  0.1362
 5433SOL    HW127758   2.750   0.331  12.829  0.2801 -0.7337  1.4261
 5433SOL    HW227759   2.629   0.382  12.893 -0.3890 -0.1763 -0.5323
 5434SOL     OW27760   3.548   4.182   2.773 -0.1126 -0.6751  0.4010
 5434SOL    HW127761   3.556   4.277   2.773 -0.8502 -0.6168  3.7443
 5434SOL    HW227762   3.624   4.159   2.721 -0.2377  0.4516 -0.2749
 5435SOL     OW27763   3.564   3.196   8.104 -0.0137 -1.0059  0.8109
 5435SOL    HW127764   3.566   3.177   8.010  0.7312  1.2671  0.3805
 5435SOL    HW227765   3.478   3.233   8.124  0.5332  0.2779  0.7554
 5436SOL     OW27766   2.576   0.227   8.590 -0.2797  0.0837 -0.3362
 5436SOL    HW127767   2.639   0.282   8.545 -0.2606  0.5073  0.2019
 5436SOL    HW227768   2.598   0.247   8.681  0.4651 -0.4970 -0.3897
 5437SOL     OW27769   2.293   2.526   1.102 -0.0872  0.2312 -0.2939
 5437SOL    HW127770   2.270   2.434   1.113  1.0347 -0.0593 -0.3574
 5437SOL    HW227771   2.323   2.527   1.011 -0.7565 -0.0981 -0.5174
 5438SOL     OW27772   4.251   4.103   8.048  0.4901 -0.2972 -0.0512
 5438SOL    HW127773   4.261   4.178   8.106  0.3747 -1.3272  1.2888
 5438SOL    HW227774   4.156   4.098   8.032  0.4211  1.5732 -0.1808
 5439SOL     OW27775   3.183   1.981   8.028  0.3439 -0.4747  0.1533
 5439SOL    HW127776   3.234   2.046   8.076 -0.9102 -0.8781  2.0349
 5439SOL    HW227777   3.092   2.007   8.045  0.4589  0.3460 -0.5189
 5440SOL     OW27778   3.468   2.949   2.176 -0.1456 -0.2293  0.1875
 5440SOL    HW127779   3.511   2.975   2.258 -1.3361  1.3079  0.3021
 5440SOL    HW227780   3.533   2.880   2.161 -0.1669 -0.7266  2.3279
 5441SOL     OW27781   3.314   2.102   2.486  0.1235  0.2350  0.2912
 5441SOL    HW127782   3.270   2.185   2.469  0.6021  0.5011  0.3584
 5441SOL    HW227783   3.260   2.036   2.443  1.1150 -0.7262  0.5090
 5442SOL     OW27784   4.620   3.319   7.122  0.7148  0.3772 -0.1310
 5442SOL    HW127785   4.548   3.304   7.184 -0.3862  3.1073 -0.7937
 5442SOL    HW227786   4.694   3.267   7.154  1.0203 -0.3419 -2.0112
 5443SOL     OW27787   0.909   2.155   5.626 -0.4100  0.5973  0.3677
 5443SOL    HW127788   0.914   2.123   5.716  1.0267 -0.5061 -0.0989
 5443SOL    HW227789   1.002   2.165   5.605 -0.9680  1.5878 -1.6342
 5444SOL     OW27790   3.426   2.062  14.683 -0.1471  0.5433 -0.1827
 5444SOL    HW127791   3.489   2.002  14.643  0.3233  1.4169 -0.7458
 5444SOL    HW227792   3.477   2.102  14.754  0.6210  0.3857 -0.6428
 5445SOL     OW27793   2.874   0.709   7.967 -0.2084  0.3291 -0.4870
 5445SOL    HW127794   2.798   0.762   7.989  0.3032  0.4359  1.0957
 5445SOL    HW227795   2.933   0.750   8.031  0.9259 -0.2582 -1.1496
 5446SOL     OW27796   3.593   4.328   7.596 -1.0985 -0.1304 -0.5146
 5446SOL    HW127797   3.603   4.412   7.550  1.9038 -0.6772 -0.8927
 5446SOL    HW227798   3.509   4.302   7.560 -1.3625 -1.5909  1.1976
 5447SOL     OW27799   4.496   0.609   9.836 -0.1681 -0.0145 -0.3320
 5447SOL    HW127800   4.424   0.598   9.774  0.2591 -3.3367 -0.2124
 5447SOL    HW227801   4.522   0.698   9.814  3.2439 -1.2621 -1.2764
 5448SOL     OW27802   3.222   3.121   7.222 -0.3332  0.6936 -0.1798
 5448SOL    HW127803   3.176   3.042   7.252 -0.7479  1.2761  0.7311
 5448SOL    HW227804   3.314   3.097   7.218 -1.4943 -3.6829 -0.8301
 5449SOL     OW27805   2.361   0.862   4.030  0.0752 -0.0190  0.0549
 5449SOL    HW127806   2.425   0.833   4.095 -0.0914  0.1944  0.3126
 5449SOL    HW227807   2.288   0.801   4.044  0.1580  0.0305  0.6984
 5450SOL     OW27808   2.992   0.876   8.164  0.1596  0.0307 -0.4645
 5450SOL    HW127809   3.086   0.870   8.178  0.1943 -0.1234 -0.7741
 5450SOL    HW227810   2.991   0.953   8.107  0.0117  0.8868  0.7098
 5451SOL     OW27811   0.591   3.190   0.892 -0.1714  0.2232 -0.1332
 5451SOL    HW127812   0.681   3.192   0.859 -0.5930  0.0130 -1.3078
 5451SOL    HW227813   0.596   3.125   0.962  3.3470  1.8950  1.1572
 5452SOL     OW27814   2.726   2.830   5.649 -0.4730  0.0017  0.3195
 5452SOL    HW127815   2.802   2.778   5.624 -0.3891 -0.0224  0.6196
 5452SOL    HW227816   2.746   2.843   5.742  0.4892  2.8773 -0.2806
 5453SOL     OW27817   1.879   0.056   5.941  0.1415 -0.3721 -0.5991
 5453SOL    HW127818   1.816   4.711   5.938  0.7730 -1.0500  2.1876
 5453SOL    HW227819   1.959   0.005   5.954  0.7044  1.1229  1.9809
 5454SOL     OW27820   3.975   2.996  15.867 -0.1568  0.2302 -0.1018
 5454SOL    HW127821   4.009   2.984  15.778  0.8697  1.0402  0.1815
 5454SOL    HW227822   3.908   3.061  15.845  0.0284  0.6118  0.4577
 5455SOL     OW27823   4.468   1.950   5.689 -0.6084 -0.1107  0.1409
 5455SOL    HW127824   4.483   1.867   5.735  0.6710 -0.3553 -0.7172
 5455SOL    HW227825   4.373   1.944   5.679 -0.5612 -0.7479  0.1010
 5456SOL     OW27826   4.166   0.742  12.477 -0.8125 -0.2630 -0.0309
 5456SOL    HW127827   4.112   0.675  12.437 -0.2185  0.4021 -1.9339
 5456SOL    HW227828   4.197   0.696  12.555  0.4325 -0.2231 -0.4865
 5457SOL     OW27829   2.861   1.276   4.346  0.3717  0.1951 -0.1565
 5457SOL    HW127830   2.904   1.331   4.280  0.9039  2.4352  2.0472
 5457SOL    HW227831   2.769   1.301   4.345  0.0046 -1.1066  0.4561
 5458SOL     OW27832   2.129   3.033   1.070  0.0432 -0.2502  0.7579
 5458SOL    HW127833   2.144   2.979   0.992  0.1933 -0.2612  0.7953
 5458SOL    HW227834   2.194   3.102   1.061 -0.5690  0.0961 -1.0251
 5459SOL     OW27835   3.358   1.748   9.086  0.7795  0.0134  0.7059
 5459SOL    HW127836   3.429   1.762   9.148  0.4522 -1.1321  1.3443
 5459SOL    HW227837   3.280   1.730   9.139 -0.8094 -0.1869 -1.6649
 5460SOL     OW27838   0.567   0.523  11.815  0.3413  0.4694 -0.5541
 5460SOL    HW127839   0.558   0.607  11.771 -0.1156 -0.0749 -1.5026
 5460SOL    HW227840   0.606   0.464  11.751 -0.3665 -0.2604 -0.3148
 5461SOL     OW27841   0.005   0.512   3.603 -0.4395  0.2428  0.6375
 5461SOL    HW127842   0.028   0.463   3.524  0.7748  1.0532  0.4984
 5461SOL    HW227843   4.707   0.596   3.564  0.8704 -0.1431 -0.9826
 5462SOL     OW27844   0.231   2.635   9.468 -0.8343 -0.0027  0.4233
 5462SOL    HW127845   0.299   2.588   9.516  0.3082  0.1426 -1.0702
 5462SOL    HW227846   0.152   2.610   9.516 -1.8106  0.4648 -0.9297
 5463SOL     OW27847   2.595   0.781   4.159 -0.1453 -0.2973  0.0070
 5463SOL    HW127848   2.628   0.868   4.177 -0.3723 -0.5918  1.8175
 5463SOL    HW227849   2.676   0.733   4.140  0.4480  0.8265 -0.2902
 5464SOL     OW27850   2.494   2.952   1.562 -0.2525  0.1846  0.6250
 5464SOL    HW127851   2.589   2.943   1.550 -0.7506 -2.0553 -1.6737
 5464SOL    HW227852   2.471   2.936   1.471  0.2259 -2.7497  1.0035
 5465SOL     OW27853   0.848   3.902   5.995 -0.1201  0.3780 -0.0031
 5465SOL    HW127854   0.853   3.820   6.045 -3.1998 -0.0833 -0.4508
 5465SOL    HW227855   0.908   3.887   5.921 -0.6583 -2.3743  0.1281
 5466SOL     OW27856   3.421   3.745   6.215 -0.0139 -0.3893 -0.5235
 5466SOL    HW127857   3.327   3.733   6.232  0.0435  1.2842  0.9344
 5466SOL    HW227858   3.418   3.737   6.120 -1.4591 -0.4167 -0.4834
 5467SOL     OW27859   2.140   2.258   8.341  0.1290 -0.0299  0.2339
 5467SOL    HW127860   2.078   2.331   8.342 -0.0107 -0.1542  0.5699
 5467SOL    HW227861   2.223   2.296   8.372 -0.5242  0.0280  1.9203
 5468SOL     OW27862   4.233   1.842  17.544 -0.7348 -0.0574 -0.1474
 5468SOL    HW127863   4.245   1.934  17.565  1.5347 -0.8816  2.1486
 5468SOL    HW227864   4.258   1.798  17.625 -0.6396  0.5028  0.1268
 5469SOL     OW27865   0.127   4.674   3.793  1.1247 -0.6150 -0.1278
 5469SOL    HW127866   0.132   4.648   3.701 -0.4919  2.9580 -1.2273
 5469SOL    HW227867   0.038   4.708   3.803  1.7124  0.4022  1.6931
 5470SOL     OW27868   0.085   0.239   2.502  0.6414  0.3733 -0.3629
 5470SOL    HW127869   0.068   0.273   2.414  0.9639 -1.0618 -0.9772
 5470SOL    HW227870   0.166   0.195   2.477  0.3821  0.1721 -0.8389
 5471SOL     OW27871   2.586   2.500   5.806  0.1517  0.2976  0.1379
 5471SOL    HW127872   2.593   2.433   5.737  0.0276 -0.3065  0.7051
 5471SOL    HW227873   2.660   2.477   5.863  1.0710 -0.6744 -1.4490
 5472SOL     OW27874   3.724   1.535   3.758 -0.6457 -0.3756 -0.0364
 5472SOL    HW127875   3.771   1.581   3.689 -1.7431 -2.6765 -2.3119
 5472SOL    HW227876   3.716   1.604   3.824 -0.6527  0.2039 -0.6369
 5473SOL     OW27877   1.891   1.900   9.253  0.4468  0.2268 -0.3497
 5473SOL    HW127878   1.846   1.958   9.315  1.1996 -0.0265  0.4407
 5473SOL    HW227879   1.821   1.852   9.209 -0.3863  0.4674  0.7217
 5474SOL     OW27880   0.428   0.326   7.605  0.0350 -0.2519 -0.3618
 5474SOL    HW127881   0.374   0.360   7.675  0.3418 -0.2786 -0.1110
 5474SOL    HW227882   0.369   0.285   7.542 -2.2257  0.1803  1.5154
 5475SOL     OW27883   3.007   0.693  14.159 -0.1394  0.1909 -0.6046
 5475SOL    HW127884   2.956   0.631  14.211 -0.5659 -0.0797 -1.3339
 5475SOL    HW227885   2.934   0.728  14.107  0.8786  3.3977  0.0896
 5476SOL     OW27886   2.023   2.913   5.841  0.1702  0.6371  0.1865
 5476SOL    HW127887   1.933   2.903   5.873 -0.6037  1.6304 -1.6675
 5476SOL    HW227888   2.057   2.827   5.866  1.7020  0.7398 -1.5227
 5477SOL     OW27889   2.266   1.411   3.953  0.0050  0.5653 -0.0273
 5477SOL    HW127890   2.299   1.465   4.025  0.4500  0.7200 -0.3490
 5477SOL    HW227891   2.180   1.382   3.985  0.4338  1.7896  2.2453
 5478SOL     OW27892   2.377   3.278   3.680  0.4495 -0.1326 -0.2907
 5478SOL    HW127893   2.426   3.230   3.747 -0.7309  0.9250  1.3286
 5478SOL    HW227894   2.302   3.313   3.728  0.6092  0.0708 -0.1892
 5479SOL     OW27895   1.456   3.862  16.350  0.2603 -0.0284 -0.5766
 5479SOL    HW127896   1.532   3.842  16.294  0.3727 -3.2873  0.7581
 5479SOL    HW227897   1.443   3.957  16.340  2.2025  0.4598  1.6015
 5480SOL     OW27898   0.377   2.922   2.867  0.0250  0.2494  0.2326
 5480SOL    HW127899   0.467   2.953   2.881 -0.9350  1.8212  3.1305
 5480SOL    HW227900   0.390   2.843   2.815 -2.6016 -1.6709  2.4421
 5481SOL     OW27901   3.823   3.018   3.182  0.3747 -0.1650 -0.2833
 5481SOL    HW127902   3.787   3.062   3.105 -1.5774 -0.1575  0.6523
 5481SOL    HW227903   3.762   2.946   3.192  0.4473 -0.1839  0.0160
 5482SOL     OW27904   2.063   1.616   9.245  0.5978  0.4305  0.3968
 5482SOL    HW127905   1.967   1.619   9.251  0.5553  1.3935 -0.7471
 5482SOL    HW227906   2.090   1.530   9.277  1.6941  0.1665 -1.2329
 5483SOL     OW27907   2.020   0.748   6.106  0.0493 -0.1957 -0.2734
 5483SOL    HW127908   1.946   0.694   6.133  0.1182  0.5519  1.4157
 5483SOL    HW227909   2.014   0.740   6.011  2.5179 -1.6145 -0.2984
 5484SOL     OW27910   2.332   1.144  12.463 -0.6475 -0.4600 -0.1214
 5484SOL    HW127911   2.420   1.165  12.494 -0.6192  0.7088 -0.9940
 5484SOL    HW227912   2.322   1.210  12.394  1.0656  0.9394  0.9472
 5485SOL     OW27913   1.796   3.176   4.098  0.0418  0.2481 -0.1584
 5485SOL    HW127914   1.818   3.241   4.031  2.3084 -0.4188 -0.0788
 5485SOL    HW227915   1.850   3.203   4.172  0.3677 -1.8275  0.3527
 5486SOL     OW27916   3.168   4.587   6.339  0.0256 -0.5862 -0.3325
 5486SOL    HW127917   3.093   4.550   6.292 -0.2390 -3.6185  2.5124
 5486SOL    HW227918   3.139   4.665   6.386 -1.9184 -1.0132 -0.8072
 5487SOL     OW27919   1.162   1.392  15.726  0.8594  0.3113 -0.3614
 5487SOL    HW127920   1.109   1.345  15.791 -1.7722  2.8323 -0.7325
 5487SOL    HW227921   1.206   1.460  15.777  0.3135  1.0964 -0.9514
 5488SOL     OW27922   1.533   2.898  17.084 -0.0845 -0.2816 -1.2377
 5488SOL    HW127923   1.628   2.890  17.089  0.0083  2.1526  0.9336
 5488SOL    HW227924   1.527   2.965  17.015 -0.7281  0.8907 -0.0434
 5489SOL     OW27925   4.030   0.721   4.544 -0.1863  0.0979  0.5023
 5489SOL    HW127926   4.033   0.746   4.451 -0.7257  1.5184  0.8682
 5489SOL    HW227927   3.945   0.756   4.570 -0.2863  1.9143 -2.2408
 5490SOL     OW27928   3.293   2.198  17.004 -0.0479  0.5176 -0.1606
 5490SOL    HW127929   3.343   2.122  17.036 -0.8789  0.7375  1.6778
 5490SOL    HW227930   3.298   2.178  16.911 -3.9021 -1.3737  0.0371
 5491SOL     OW27931   4.342   4.066   3.946  0.1493 -0.0899 -0.5814
 5491SOL    HW127932   4.281   4.077   4.018 -0.5120 -0.4962 -1.0714
 5491SOL    HW227933   4.288   4.008   3.892 -0.4671 -0.7485  0.7527
 5492SOL     OW27934   2.568   3.516   9.778 -0.0088  0.3816  0.0803
 5492SOL    HW127935   2.663   3.514   9.791  0.0244  3.0944  0.2436
 5492SOL    HW227936   2.566   3.581   9.707 -1.1142  0.5634  0.2779
 5493SOL     OW27937   1.203   0.271  13.697 -0.7430 -0.1252 -0.1902
 5493SOL    HW127938   1.248   0.353  13.717  1.5863 -1.4824  0.1666
 5493SOL    HW227939   1.129   0.315  13.656 -0.3310  0.8913  0.1389
 5494SOL     OW27940   3.751   0.926  12.901 -0.0023 -0.0606  0.8297
 5494SOL    HW127941   3.742   0.849  12.845  0.9569 -0.1931  0.8593
 5494SOL    HW227942   3.741   0.890  12.989 -1.7100  0.9824  1.0750
 5495SOL     OW27943   2.673   3.652   8.752  0.4884  0.0225  0.4384
 5495SOL    HW127944   2.608   3.661   8.821  1.1576  1.0210  0.9324
 5495SOL    HW227945   2.612   3.668   8.679  1.5058 -1.6611 -0.7800
 5496SOL     OW27946   0.151   1.812  13.501 -0.4934  0.3931 -0.2635
 5496SOL    HW127947   0.161   1.732  13.552  0.5501  1.5165  1.2766
 5496SOL    HW227948   0.160   1.780  13.411 -0.9267 -0.3393 -0.0514
 5497SOL     OW27949   3.810   2.858   3.906 -0.4975  0.2195  0.0288
 5497SOL    HW127950   3.817   2.767   3.878  0.3164  0.2936 -0.0211
 5497SOL    HW227951   3.896   2.893   3.881 -0.1495 -0.2056  0.6297
 5498SOL     OW27952   3.503   4.321  10.665  0.0806 -0.8837 -0.2535
 5498SOL    HW127953   3.530   4.330  10.574 -2.5786  0.5827 -0.8863
 5498SOL    HW227954   3.409   4.335  10.660  0.1870  0.0022  0.1260
 5499SOL     OW27955   0.137   0.837  15.286 -0.2091 -0.2119  0.9839
 5499SOL    HW127956   0.078   0.860  15.213  0.0894  1.2463  1.2138
 5499SOL    HW227957   0.218   0.880  15.260 -2.0026  2.9328  0.6774
 5500SOL     OW27958   2.559   1.497   4.637  0.0397  0.2334 -0.3664
 5500SOL    HW127959   2.616   1.522   4.564 -0.8566 -0.4345 -1.3000
 5500SOL    HW227960   2.588   1.407   4.651  0.7675  0.3975 -0.7726
 5501SOL     OW27961   1.745   3.916   8.155  0.0883  0.1895  0.1427
 5501SOL    HW127962   1.804   3.941   8.085  1.7032  2.0027  2.1565
 5501SOL    HW227963   1.802   3.945   8.226  0.2612 -1.5039  0.7151
 5502SOL     OW27964   1.819   3.091   4.532  0.4114  0.5938 -0.4917
 5502SOL    HW127965   1.845   3.130   4.448 -0.9259  0.6375 -0.8918
 5502SOL    HW227966   1.902   3.094   4.579 -1.0613  0.7390  2.0990
 5503SOL     OW27967   3.563   0.708  16.904 -0.2834  0.0618 -0.1234
 5503SOL    HW127968   3.490   0.651  16.883 -2.3064  2.4892  0.2386
 5503SOL    HW227969   3.600   0.722  16.817 -2.7648  1.0887 -1.0110
 5504SOL     OW27970   4.420   1.277   2.905  0.1600  0.4954  0.1599
 5504SOL    HW127971   4.447   1.276   2.997  0.1089 -0.7616  0.1593
 5504SOL    HW227972   4.495   1.328   2.873  0.1179  0.0774 -0.5925
 5505SOL     OW27973   0.209   3.050  16.094  0.8697  0.3178  0.0762
 5505SOL    HW127974   0.172   3.127  16.139 -0.7098 -1.1798  1.3364
 5505SOL    HW227975   0.223   2.990  16.166 -1.7210 -0.6786 -0.2633
 5506SOL     OW27976   3.769   2.124   9.602  0.4278 -0.1656 -0.6718
 5506SOL    HW127977   3.818   2.047   9.572 -1.3257 -1.3076 -0.5838
 5506SOL    HW227978   3.792   2.124   9.695  0.9715  1.8793 -0.8021
 5507SOL     OW27979   2.032   2.042   9.052  0.0148 -0.5723 -0.0139
 5507SOL    HW127980   2.001   1.974   9.113 -1.2254 -0.6777 -0.7725
 5507SOL    HW227981   2.037   2.120   9.107 -1.8332  1.3696 -2.6542
 5508SOL     OW27982   3.712   3.431  12.403 -0.3649  0.3745 -0.3349
 5508SOL    HW127983   3.708   3.447  12.498  0.8440 -0.6768 -0.1134
 5508SOL    HW227984   3.624   3.396  12.392  0.7692 -2.3162 -0.6480
 5509SOL     OW27985   2.264   2.345   4.071 -0.2898  0.8447  0.0510
 5509SOL    HW127986   2.331   2.388   4.124 -0.2476  0.5095  0.2657
 5509SOL    HW227987   2.201   2.411   4.042  0.4615  0.8594 -1.5440
 5510SOL     OW27988   0.785   2.270   3.432 -0.0566  0.3878 -0.0599
 5510SOL    HW127989   0.708   2.327   3.434 -0.4070 -0.0159 -1.9227
 5510SOL    HW227990   0.764   2.207   3.363  1.1225  0.6439 -0.6451
 5511SOL     OW27991   4.025   4.056  17.639  0.4810  0.1353 -0.0810
 5511SOL    HW127992   4.109   4.100  17.626  0.4380 -0.5468 -2.5834
 5511SOL    HW227993   4.020   3.991  17.569 -1.8167  0.6242 -0.3874
 5512SOL     OW27994   0.872   3.785   9.402 -0.1885 -0.3242  0.0459
 5512SOL    HW127995   0.797   3.765   9.458 -1.3004  1.4779 -0.7776
 5512SOL    HW227996   0.845   3.867   9.361  1.8647  0.2469 -0.1649
 5513SOL     OW27997   3.648   4.636  17.432 -0.0861 -0.1934 -0.4026
 5513SOL    HW127998   3.656   4.651  17.337  1.6139  0.0899 -0.2183
 5513SOL    HW227999   3.695   4.553  17.442 -2.1065 -1.1540  1.0602
 5514SOL     OW28000   3.669   1.876  13.664  0.2431 -0.0880  0.1048
 5514SOL    HW128001   3.641   1.797  13.618 -1.2266 -0.0066  0.8671
 5514SOL    HW228002   3.591   1.923  13.693  0.0043 -0.3226 -0.1584
 5515SOL     OW28003   3.463   4.670   9.279  0.1254 -0.4882 -0.5578
 5515SOL    HW128004   3.445   4.586   9.236  0.7751  0.2383 -2.2543
 5515SOL    HW228005   3.520   4.637   9.348 -0.3593 -2.9118 -1.3153
 5516SOL     OW28006   3.663   1.660   4.217  0.2568  0.3765 -0.5955
 5516SOL    HW128007   3.590   1.677   4.277 -0.8857 -1.0359 -1.5814
 5516SOL    HW228008   3.640   1.709   4.138  0.0999  0.1069 -0.7175
 5517SOL     OW28009   3.289   3.204   1.840  0.6826  0.1116  0.0904
 5517SOL    HW128010   3.276   3.200   1.934 -1.9225  1.8390 -0.1929
 5517SOL    HW228011   3.198   3.223   1.816  1.3067  2.1153 -0.7137
 5518SOL     OW28012   2.274   1.220  16.806 -0.3835  0.2363 -0.1370
 5518SOL    HW128013   2.261   1.315  16.807 -0.2215  0.2819 -1.6511
 5518SOL    HW228014   2.228   1.201  16.888 -0.0700  2.7919  0.6197
 5519SOL     OW28015   2.579   2.193  17.578  0.6290 -0.7445 -0.1970
 5519SOL    HW128016   2.557   2.102  17.595  2.9366 -0.6719  3.2122
 5519SOL    HW228017   2.584   2.198  17.483 -1.6160  0.4526 -0.2661
 5520SOL     OW28018   3.390   0.322  15.028  0.7380  0.7326 -0.3271
 5520SOL    HW128019   3.463   0.377  15.000  0.4725  1.5478  0.5690
 5520SOL    HW228020   3.322   0.381  15.060 -0.2928  0.2863 -1.7292
 5521SOL     OW28021   2.145   2.957   8.563 -0.2179  0.2338 -0.1222
 5521SOL    HW128022   2.221   3.013   8.579 -0.8043  1.1271 -0.4350
 5521SOL    HW228023   2.156   2.879   8.617  0.2866 -0.8110 -1.7578
 5522SOL     OW28024   1.653   1.668  11.427  0.8533  0.3820  0.2740
 5522SOL    HW128025   1.563   1.643  11.409  0.8947  0.5759 -0.2012
 5522SOL    HW228026   1.677   1.591  11.480 -2.0933 -2.5828 -2.7527
 5523SOL     OW28027   2.164   2.197   1.328 -0.4309  0.2040 -0.0525
 5523SOL    HW128028   2.232   2.258   1.355  1.8549 -1.5799 -1.7165
 5523SOL    HW228029   2.157   2.229   1.238 -0.0139  1.1528  0.2588
 5524SOL     OW28030   0.930   4.327  17.360 -0.7791 -0.6446  0.0609
 5524SOL    HW128031   0.924   4.354  17.452  0.4533 -2.4048  0.6720
 5524SOL    HW228032   0.969   4.240  17.372 -2.3639 -1.6172 -1.8024
 5525SOL     OW28033   3.790   2.120   3.262 -0.0787 -0.9770 -0.0309
 5525SOL    HW128034   3.722   2.172   3.305  0.4700  0.3967 -0.8247
 5525SOL    HW228035   3.860   2.129   3.327 -1.6576 -2.8796  1.9091
 5526SOL     OW28036   2.741   0.616   3.552 -0.7883 -0.2589  0.0449
 5526SOL    HW128037   2.646   0.624   3.558 -0.6814  2.3597 -1.6291
 5526SOL    HW228038   2.761   0.550   3.487 -1.0344 -1.0766  0.8037
 5527SOL     OW28039   1.937   1.528   4.071  0.4673 -0.1168 -0.2912
 5527SOL    HW128040   1.957   1.559   4.159  0.9651 -1.6731  0.1370
 5527SOL    HW228041   1.898   1.606   4.032  0.2958 -0.6800 -1.2410
 5528SOL     OW28042   1.389   3.625   9.271 -0.5219 -0.2110  0.0736
 5528SOL    HW128043   1.416   3.533   9.267  2.7489  0.8210 -1.2442
 5528SOL    HW228044   1.301   3.612   9.307  0.0659  0.3231  1.6815
 5529SOL     OW28045   4.231   3.504   3.643 -0.1146  0.2003 -0.2163
 5529SOL    HW128046   4.195   3.465   3.723  1.1654  2.0744  1.2575
 5529SOL    HW228047   4.264   3.427   3.597 -1.0579  0.4250 -1.2937
 5530SOL     OW28048   1.620   1.935  14.764  0.0649 -0.2169  0.0649
 5530SOL    HW128049   1.563   1.888  14.703 -2.2659 -2.9034  4.3332
 5530SOL    HW228050   1.630   2.022  14.726  0.1387 -0.5763 -0.7321
 5531SOL     OW28051   3.079   1.699   6.480 -0.1281 -0.7610  0.2291
 5531SOL    HW128052   3.039   1.693   6.567 -0.8934 -0.7932 -0.1329
 5531SOL    HW228053   3.131   1.620   6.492 -1.1073 -1.4765 -0.2931
 5532SOL     OW28054   1.395   1.324   4.423 -0.0703  0.2261  0.4395
 5532SOL    HW128055   1.359   1.279   4.499 -1.4186 -0.8532 -0.8342
 5532SOL    HW228056   1.352   1.409   4.437  0.1570  0.2238  1.1242
 5533SOL     OW28057   1.925   4.664   7.346  0.7155  0.1294  0.1624
 5533SOL    HW128058   2.004   4.612   7.333  1.9267  1.0307  3.6845
 5533SOL    HW228059   1.882   4.624   7.422  0.1178 -1.8058 -1.1846
 5534SOL     OW28060   1.559   2.207   7.657 -0.5460 -0.0390 -0.0547
 5534SOL    HW128061   1.479   2.258   7.668 -1.9809 -2.5029  0.8026
 5534SOL    HW228062   1.579   2.209   7.563  2.2876  1.1774  0.5749
 5535SOL     OW28063   2.833   4.588   6.186  0.0184  0.6654 -0.1994
 5535SOL    HW128064   2.784   4.605   6.266  0.6410 -0.8134  0.4954
 5535SOL    HW228065   2.775   4.525   6.145  1.1734  0.8650 -2.1702
 5536SOL     OW28066   2.201   1.845   5.817 -0.0776 -0.0213  0.3156
 5536SOL    HW128067   2.229   1.818   5.905  1.1833 -0.5274 -0.2375
 5536SOL    HW228068   2.154   1.924   5.842  0.8320  0.0085  1.9191
 5537SOL     OW28069   0.503   2.943   1.362  0.0623 -0.3002  0.6091
 5537SOL    HW128070   0.532   3.025   1.404 -0.4760  0.7694 -1.1183
 5537SOL    HW228071   0.582   2.918   1.314 -1.1506 -0.2577 -1.4076
 5538SOL     OW28072   4.063   2.303  16.244  0.0811  0.2393 -0.1761
 5538SOL    HW128073   4.035   2.255  16.322 -0.4802  1.9344  0.6854
 5538SOL    HW228074   4.158   2.310  16.252 -0.1573  2.2088  1.0088
 5539SOL     OW28075   4.240   2.433   4.457  0.3022 -0.0694  0.1184
 5539SOL    HW128076   4.182   2.503   4.487 -1.0820 -1.5577  0.9430
 5539SOL    HW228077   4.326   2.468   4.477  1.4959 -2.3531 -0.9992
 5540SOL     OW28078   4.053   0.120   5.444 -0.2997 -0.2844 -0.4423
 5540SOL    HW128079   4.019   0.203   5.479  0.9938  0.0284  0.0907
 5540SOL    HW228080   4.129   0.155   5.397  0.7898 -1.4230  0.4600
 5541SOL     OW28081   2.780   0.073   2.106 -0.0643  0.2425 -0.2951
 5541SOL    HW128082   2.819   4.718   2.072  0.4179 -0.1162  1.1130
 5541SOL    HW228083   2.804   0.140   2.043 -0.2790 -1.3095 -2.0157
 5542SOL     OW28084   4.425   0.791   9.186 -0.3287 -0.3872  0.3961
 5542SOL    HW128085   4.407   0.863   9.124  0.8702 -0.3165  0.1452
 5542SOL    HW228086   4.351   0.734   9.163 -1.3455  1.1348 -0.1691
 5543SOL     OW28087   1.743   2.114   9.785 -0.1534 -0.6373  0.8836
 5543SOL    HW128088   1.758   2.046   9.850 -0.3904 -0.9449  0.6226
 5543SOL    HW228089   1.699   2.169   9.850  1.2929  1.1479  0.3432
 5544SOL     OW28090   3.380   1.359   0.699  0.9907  0.1102 -0.5237
 5544SOL    HW128091   3.327   1.288   0.663  0.4461 -0.5490  1.5938
 5544SOL    HW228092   3.468   1.338   0.668 -0.9662 -2.9141 -4.0583
 5545SOL     OW28093   2.906   4.019  11.788 -0.4077  0.8041 -0.4276
 5545SOL    HW128094   2.925   3.939  11.739 -1.4303 -0.4170  1.1492
 5545SOL    HW228095   2.858   4.065  11.720 -0.7366 -1.0966 -1.4897
 5546SOL     OW28096   1.787   1.668   3.195  0.6421 -0.2788 -0.1153
 5546SOL    HW128097   1.788   1.639   3.104  3.9604  0.1639 -0.2513
 5546SOL    HW228098   1.811   1.588   3.243  0.6676 -0.4192 -0.3633
 5547SOL     OW28099   4.561   2.872  15.082  0.2990 -0.2679 -0.1342
 5547SOL    HW128100   4.494   2.872  15.151  0.9420  0.1012  0.4929
 5547SOL    HW228101   4.617   2.803  15.119 -0.9651 -0.3288  1.6462
 5548SOL     OW28102   4.352   3.296   4.888  1.0703 -0.1765  0.4090
 5548SOL    HW128103   4.426   3.242   4.915  0.5522 -1.1867 -0.1916
 5548SOL    HW228104   4.362   3.373   4.944 -0.5242 -0.5639  1.2468
 5549SOL     OW28105   0.309   4.292  15.992  0.1988  0.1735 -0.1427
 5549SOL    HW128106   0.331   4.384  16.006 -0.6735  0.3857 -0.1688
 5549SOL    HW228107   0.380   4.246  15.948  0.4103  0.0583  0.3173
 5550SOL     OW28108   3.954   1.068   6.991 -0.6249 -0.0943  0.3613
 5550SOL    HW128109   3.886   1.134   6.972 -0.5135 -0.3315 -0.8721
 5550SOL    HW228110   3.913   0.987   6.960 -1.8583  0.2433  1.1124
 5551SOL     OW28111   0.899   0.807  13.164  0.0009  0.3221 -0.0438
 5551SOL    HW128112   0.871   0.731  13.113 -1.1660  0.2661  0.6809
 5551SOL    HW228113   0.954   0.852  13.101 -1.5926  2.2020 -0.1053
 5552SOL     OW28114   3.456   3.408   3.248 -0.2577 -0.0451 -0.1127
 5552SOL    HW128115   3.390   3.353   3.206 -2.2688  1.6255  0.8435
 5552SOL    HW228116   3.471   3.349   3.322 -1.7768  1.0558  1.0836
 5553SOL     OW28117   3.717   1.975   3.575  0.5558 -0.2426 -0.5540
 5553SOL    HW128118   3.782   1.913   3.607 -0.8973 -1.7247 -0.4171
 5553SOL    HW228119   3.760   2.060   3.582 -0.5295  0.3097 -0.5920
 5554SOL     OW28120   1.981   0.923   3.136 -0.2780 -0.2903 -0.2475
 5554SOL    HW128121   1.998   0.972   3.217  0.0660 -1.0021  0.1114
 5554SOL    HW228122   2.051   0.948   3.077  0.1178  0.5142  0.5740
 5555SOL     OW28123   2.140   3.054   3.165 -0.0798 -0.0491  0.6072
 5555SOL    HW128124   2.147   2.973   3.115 -0.9604  0.4005 -0.2384
 5555SOL    HW228125   2.128   3.130   3.108 -0.5079 -1.4350 -1.1377
 5556SOL     OW28126   3.889   0.729  13.071 -0.2386  0.0822 -0.5416
 5556SOL    HW128127   3.944   0.784  13.015 -0.0944  0.7398  0.2502
 5556SOL    HW228128   3.883   0.788  13.145  1.5010  0.7547 -0.9331
 5557SOL     OW28129   0.444   2.440   7.051 -0.1641 -0.0346 -0.1469
 5557SOL    HW128130   0.391   2.362   7.037  0.9286 -0.8571  0.3106
 5557SOL    HW228131   0.532   2.417   7.019 -0.6954 -0.1793 -1.4879
 5558SOL     OW28132   3.811   0.699   4.873  0.7530  0.0364 -0.6212
 5558SOL    HW128133   3.865   0.773   4.902 -2.9793  2.4355  0.2991
 5558SOL    HW228134   3.737   0.754   4.847  1.7508  0.7444 -1.9852
 5559SOL     OW28135   1.550   0.890   6.344 -0.5196 -0.4170 -0.5792
 5559SOL    HW128136   1.467   0.894   6.392  0.4652  1.4903  0.9951
 5559SOL    HW228137   1.525   0.837   6.269 -0.5103  0.1649 -0.9936
 5560SOL     OW28138   1.039   0.242   5.925  0.0905 -0.3870  0.3515
 5560SOL    HW128139   0.985   0.182   5.976  1.6772 -1.7424  0.4175
 5560SOL    HW228140   1.073   0.308   5.986  0.2948  0.7483 -0.9815
 5561SOL     OW28141   2.784   0.355  16.422 -0.0650 -0.1925 -0.7999
 5561SOL    HW128142   2.843   0.306  16.478 -1.0824 -1.5254 -0.8834
 5561SOL    HW228143   2.741   0.277  16.386  0.0749  0.0833 -1.5582
 5562SOL     OW28144   0.289   4.242   7.861  0.0561 -0.1432 -0.3594
 5562SOL    HW128145   0.320   4.208   7.777 -0.8224  0.4448 -0.9181
 5562SOL    HW228146   0.358   4.302   7.890  0.7342 -1.5945  1.0336
 5563SOL     OW28147   4.528   3.328  14.804 -0.2523  0.4065 -0.1368
 5563SOL    HW128148   4.589   3.285  14.744  0.0792 -1.1222  1.3022
 5563SOL    HW228149   4.442   3.311  14.765 -0.2280  1.9766 -0.8755
 5564SOL     OW28150   4.330   3.908  14.103  0.7912 -0.3475  0.3114
 5564SOL    HW128151   4.363   3.901  14.192  0.9516  1.4704  0.4053
 5564SOL    HW228152   4.250   3.855  14.110  0.2912  0.0603 -2.0673
 5565SOL     OW28153   1.538   0.623   6.590 -0.3062 -0.5776  0.0055
 5565SOL    HW128154   1.518   0.620   6.496  0.4651  1.1202 -0.2185
 5565SOL    HW228155   1.455   0.587   6.621 -0.1624 -0.6326  0.3237
 5566SOL     OW28156   2.703   1.767   9.238 -0.0290  0.7065 -0.2108
 5566SOL    HW128157   2.668   1.759   9.326 -1.0691 -0.6878 -0.7488
 5566SOL    HW228158   2.746   1.852   9.240  1.3385  0.0266 -1.0391
 5567SOL     OW28159   3.228   1.389  10.008  0.2038 -0.3176  0.1421
 5567SOL    HW128160   3.228   1.340  10.090  0.1257 -0.5121  0.0278
 5567SOL    HW228161   3.161   1.453  10.031  0.1529 -0.0790 -0.6869
 5568SOL     OW28162   2.902   2.615   3.473 -0.0135  0.4754  0.5191
 5568SOL    HW128163   2.944   2.656   3.398  2.2072 -1.6807  0.5563
 5568SOL    HW228164   2.906   2.682   3.541 -4.3078  1.4849 -0.2538
 5569SOL     OW28165   2.684   0.347   8.049 -0.5110 -0.2471 -0.5385
 5569SOL    HW128166   2.610   0.387   8.005 -1.7707 -0.8672  1.0091
 5569SOL    HW228167   2.675   0.257   8.017  1.2940  0.0780 -1.9673
 5570SOL     OW28168   3.234   3.029   2.539  0.0564  0.2569  0.2118
 5570SOL    HW128169   3.320   2.991   2.557 -0.1815  0.1774  1.1638
 5570SOL    HW228170   3.205   2.966   2.474  1.6035 -0.6795  0.4367
 5571SOL     OW28171   0.610   3.055   2.864 -0.0643 -0.4602 -0.5542
 5571SOL    HW128172   0.660   3.133   2.889  2.0121 -1.5764 -1.1942
 5571SOL    HW228173   0.633   3.052   2.771 -1.0064 -1.1134 -0.7646
 5572SOL     OW28174   2.161   3.715  17.320 -0.4484 -0.1716 -0.3216
 5572SOL    HW128175   2.108   3.703  17.242 -2.1287  0.8328  0.6674
 5572SOL    HW228176   2.103   3.744  17.391 -2.5208 -1.4089 -1.5258
 5573SOL     OW28177   1.824   4.182   1.953 -0.2154  0.4361 -0.0472
 5573SOL    HW128178   1.864   4.239   1.887 -0.9857  1.3865  0.3163
 5573SOL    HW228179   1.844   4.220   2.038 -2.2738 -0.1355  0.7033
 5574SOL     OW28180   4.666   0.131  11.041  0.2249 -0.1941  0.1462
 5574SOL    HW128181   4.689   0.049  10.998  0.1097 -0.3161  0.3210
 5574SOL    HW228182   4.593   0.160  10.987  1.1715  1.3510 -0.3199
 5575SOL     OW28183   0.702   0.984   7.225 -0.0668  0.3602 -0.1497
 5575SOL    HW128184   0.755   1.017   7.153  0.9569 -2.3150 -0.6225
 5575SOL    HW228185   0.765   0.978   7.297 -0.9652 -0.4064  0.5666
 5576SOL     OW28186   1.325   2.619   7.720  0.5600 -0.3967 -0.0006
 5576SOL    HW128187   1.254   2.675   7.751  0.0530 -0.3038 -1.3093
 5576SOL    HW228188   1.336   2.665   7.636  0.6925  0.0739  0.2737
 5577SOL     OW28189   2.152   1.850   6.890  0.4682 -0.4742 -0.5023
 5577SOL    HW128190   2.206   1.927   6.873 -0.2918  0.1841  0.0893
 5577SOL    HW228191   2.174   1.823   6.979  2.6047  1.5869 -0.4252
 5578SOL     OW28192   0.521   2.372   3.377  0.8150 -0.5148 -0.6161
 5578SOL    HW128193   0.471   2.333   3.306 -0.3716  1.7601 -1.0358
 5578SOL    HW228194   0.526   2.462   3.343 -2.2780  0.1484  0.6957
 5579SOL     OW28195   3.076   0.702   2.249  0.1669 -0.0308  0.0845
 5579SOL    HW128196   3.053   0.617   2.212 -0.0392  0.5508 -1.1398
 5579SOL    HW228197   3.123   0.733   2.171 -0.6408  0.9397 -0.0182
 5580SOL     OW28198   3.022   1.749   7.983 -0.0422 -0.0795 -0.0468
 5580SOL    HW128199   3.101   1.788   8.022 -0.1341  0.2584 -0.2037
 5580SOL    HW228200   3.059   1.708   7.905  0.5760 -0.9445  0.6965
 5581SOL     OW28201   2.787   1.485   3.414  0.5150 -0.1545  0.4004
 5581SOL    HW128202   2.784   1.394   3.387  1.2196  0.2995 -1.1633
 5581SOL    HW228203   2.706   1.496   3.465  0.6688 -0.9527  0.8161
 5582SOL     OW28204   4.261   4.695  10.516 -0.2426 -1.0046 -0.2636
 5582SOL    HW128205   4.314   0.018  10.579 -1.4090 -2.5301  1.8785
 5582SOL    HW228206   4.284   0.017  10.436  0.1370 -0.2090  0.3180
 5583SOL     OW28207   3.880   2.507   8.976 -0.2253  0.0184  0.3564
 5583SOL    HW128208   3.911   2.506   9.067 -0.0629  0.2326  0.3049
 5583SOL    HW228209   3.918   2.584   8.934  0.1259 -0.6829 -0.6013
 5584SOL     OW28210   0.757   0.884  16.322  0.5022 -0.1347  0.8013
 5584SOL    HW128211   0.811   0.860  16.247 -0.6645 -3.1379  0.9225
 5584SOL    HW228212   0.807   0.960  16.351  1.6733 -2.2187  4.2723
 5585SOL     OW28213   4.573   1.482   7.009 -0.0215  0.1536 -0.2539
 5585SOL    HW128214   4.604   1.399   6.973  0.0192 -0.3426  0.9090
 5585SOL    HW228215   4.528   1.525   6.936  0.8656  0.8529 -0.3858
 5586SOL     OW28216   1.401   0.498   3.897  0.6021  0.6398 -0.2481
 5586SOL    HW128217   1.400   0.594   3.898 -2.0897  0.5790  2.0699
 5586SOL    HW228218   1.311   0.490   3.929 -0.2292  0.4901 -2.6531
 5587SOL     OW28219   3.648   3.394   4.504  0.5097 -0.2314  0.4115
 5587SOL    HW128220   3.590   3.343   4.561  0.6156 -0.7614  0.0357
 5587SOL    HW228221   3.598   3.391   4.423  0.4094 -0.2296  0.4729
 5588SOL     OW28222   2.524   3.145   3.202 -0.1157  0.1208 -0.6613
 5588SOL    HW128223   2.488   3.191   3.278 -0.3846 -0.6823 -0.2996
 5588SOL    HW228224   2.465   3.071   3.192  2.9778 -2.5950  1.2203
 5589SOL     OW28225   4.357   2.219   7.877  0.0897  0.1654 -0.3317
 5589SOL    HW128226   4.431   2.217   7.937  0.1138 -0.1820 -0.3769
 5589SOL    HW228227   4.308   2.140   7.898 -0.1107  0.3870  0.0434
 5590SOL     OW28228   0.916   0.587  16.120 -0.2584 -0.0448 -0.1065
 5590SOL    HW128229   0.939   0.679  16.136 -0.0470  0.1497 -1.5631
 5590SOL    HW228230   0.833   0.587  16.073 -0.1303 -0.0987 -0.3340
 5591SOL     OW28231   4.221   4.599  10.851 -0.0431  0.0830 -0.1121
 5591SOL    HW128232   4.144   4.568  10.900 -0.3196 -0.5998 -0.9803
 5591SOL    HW228233   4.168   4.636  10.780  0.5383  0.3686 -0.3969
 5592SOL     OW28234   3.089   3.098  10.012  0.1497  0.0422  0.5079
 5592SOL    HW128235   3.148   3.095  10.087  1.8114 -2.4360 -0.8591
 5592SOL    HW228236   3.078   3.192  10.018  0.6781  0.1912 -0.7559
 5593SOL     OW28237   2.674   4.541   3.436 -0.1030 -0.5102  0.3996
 5593SOL    HW128238   2.592   4.529   3.483 -1.0002 -0.2901 -1.0936
 5593SOL    HW228239   2.684   4.451   3.402  0.8679 -0.4132  0.4499
 5594SOL     OW28240   3.406   3.144  10.678  0.1682  0.1033 -0.0652
 5594SOL    HW128241   3.475   3.142  10.744 -0.5937 -0.5110  0.7104
 5594SOL    HW228242   3.387   3.237  10.672  1.6579  0.4329  0.1490
 5595SOL     OW28243   0.366   3.391   2.938  0.1141 -0.6554  0.0785
 5595SOL    HW128244   0.327   3.316   2.893 -1.9489 -0.5461  1.6847
 5595SOL    HW228245   0.438   3.352   2.986 -0.5506 -1.7094  0.2095
 5596SOL     OW28246   2.097   3.217   6.794 -0.2652 -0.0183  0.5138
 5596SOL    HW128247   2.105   3.142   6.853 -1.8345 -0.1917  0.5063
 5596SOL    HW228248   2.190   3.225   6.773 -0.4759  0.1365 -0.3370
 5597SOL     OW28249   3.624   4.493   5.141 -0.0578 -0.1275  0.0840
 5597SOL    HW128250   3.675   4.419   5.109  1.9240  0.2666  2.3156
 5597SOL    HW228251   3.544   4.452   5.172  1.1559 -1.2428  1.7325
 5598SOL     OW28252   2.012   0.635  13.263  0.6908 -0.0937 -0.4238
 5598SOL    HW128253   1.999   0.729  13.267 -1.6764 -0.5234  2.3020
 5598SOL    HW228254   2.095   0.625  13.308  1.4693 -0.3831 -1.9186
 5599SOL     OW28255   1.969   3.276   6.092 -0.0296  0.3020  0.2346
 5599SOL    HW128256   1.908   3.284   6.019 -0.1193 -0.1446  0.2605
 5599SOL    HW228257   1.989   3.369   6.101 -1.1154  0.5143  0.4688
 5600SOL     OW28258   2.117   2.106   1.892 -0.0926 -0.3448 -0.3996
 5600SOL    HW128259   2.126   2.010   1.886 -1.8243 -0.5466  0.3713
 5600SOL    HW228260   2.031   2.131   1.925  0.1231  0.3811 -0.3925
 5601SOL     OW28261   0.507   3.752   7.159 -0.1669  0.0375  0.2098
 5601SOL    HW128262   0.550   3.692   7.098 -0.7155  0.7990 -0.9282
 5601SOL    HW228263   0.416   3.724   7.162  0.3079 -1.4905  0.3558
 5602SOL     OW28264   0.710   2.580   5.134 -0.5892 -0.3667 -0.3440
 5602SOL    HW128265   0.767   2.617   5.066 -0.6181 -2.8817 -1.7477
 5602SOL    HW228266   0.643   2.647   5.122  0.4862  0.3832 -2.1882
 5603SOL     OW28267   3.418   2.749   3.745 -0.3757 -0.7494  0.1203
 5603SOL    HW128268   3.363   2.674   3.719  1.5652 -2.4862  1.0398
 5603SOL    HW228269   3.357   2.822   3.735  0.6162  0.3446  2.0049
 5604SOL     OW28270   4.618   1.325   6.404  0.5163  0.9773 -0.1008
 5604SOL    HW128271   4.581   1.402   6.360  0.3622  1.3260  0.6286
 5604SOL    HW228272   4.639   1.369   6.487 -2.8450  0.9503  0.7571
 5605SOL     OW28273   0.240   1.416   5.570 -0.5557 -0.0606 -0.4795
 5605SOL    HW128274   0.235   1.366   5.489  0.6134  1.2903 -1.3743
 5605SOL    HW228275   0.300   1.483   5.540 -1.7660  1.5965  0.7995
 5606SOL     OW28276   2.567   1.844  13.190 -0.4412 -0.1333 -0.0828
 5606SOL    HW128277   2.570   1.854  13.095 -4.1308 -1.0281 -0.3158
 5606SOL    HW228278   2.492   1.890  13.228  0.7099 -0.0062  2.0205
 5607SOL     OW28279   2.390   2.363   2.217 -0.7168 -0.2803 -0.0928
 5607SOL    HW128280   2.317   2.314   2.255  0.5840 -0.3399  2.3204
 5607SOL    HW228281   2.376   2.326   2.130  0.1354  2.7456 -1.5168
 5608SOL     OW28282   3.485   3.493   6.441 -0.1609 -0.0642 -0.1015
 5608SOL    HW128283   3.529   3.550   6.504 -0.0837 -1.3780  1.0333
 5608SOL    HW228284   3.567   3.455   6.410  0.4437  2.3370 -1.4883
 5609SOL     OW28285   1.981   0.731  10.867 -0.4431 -0.3627 -0.3943
 5609SOL    HW128286   2.045   0.799  10.884  0.0987 -1.6248  2.5004
 5609SOL    HW228287   1.915   0.763  10.929  1.0134  0.4315  0.7288
 5610SOL     OW28288   4.355   4.372   7.130  0.0463 -0.3600 -0.2652
 5610SOL    HW128289   4.402   4.309   7.076 -1.6942 -1.7340 -0.1745
 5610SOL    HW228290   4.393   4.362   7.218  1.0104 -1.7676 -0.8547
 5611SOL     OW28291   0.068   4.189  15.973  0.0404  0.7166 -0.1862
 5611SOL    HW128292   0.046   4.268  15.923  0.0189 -1.0053 -2.9267
 5611SOL    HW228293   0.163   4.194  15.978  0.0515 -0.5317  0.8568
 5612SOL     OW28294   2.320   1.438   4.325 -0.0397  0.4719 -0.0546
 5612SOL    HW128295   2.366   1.518   4.353 -1.4551  1.7210 -1.3218
 5612SOL    HW228296   2.282   1.411   4.408  0.0667  0.4672 -0.0068
 5613SOL     OW28297   3.570   3.721   3.827 -0.3575  0.0941  0.0829
 5613SOL    HW128298   3.477   3.731   3.805 -0.0028  0.5981 -1.1955
 5613SOL    HW228299   3.589   3.639   3.782 -3.0248 -0.6561  0.2862
 5614SOL     OW28300   2.412   3.370   6.206 -0.2642  0.7140 -0.4961
 5614SOL    HW128301   2.463   3.446   6.235 -1.4191  0.8617  1.1683
 5614SOL    HW228302   2.407   3.392   6.113 -1.1711  2.2516 -0.0846
 5615SOL     OW28303   3.777   3.132   2.922  0.3392  0.5655  0.5830
 5615SOL    HW128304   3.748   3.121   2.832  0.3418  1.8965  0.4148
 5615SOL    HW228305   3.869   3.151   2.905  0.6514  0.2790  1.8980
 5616SOL     OW28306   3.167   3.943  15.058 -0.3962  0.3236  0.3603
 5616SOL    HW128307   3.246   3.933  15.112 -0.5883 -0.6767  0.4509
 5616SOL    HW228308   3.146   4.036  15.060 -2.0739 -0.0967  1.6345
 5617SOL     OW28309   3.698   2.109   4.618  0.4108  1.0191 -0.4270
 5617SOL    HW128310   3.618   2.105   4.670  2.3099 -0.5055  2.4161
 5617SOL    HW228311   3.758   2.148   4.682  0.7094 -1.5041  0.8362
 5618SOL     OW28312   3.096   1.952   3.438  0.2432  0.2235 -0.4026
 5618SOL    HW128313   3.050   1.871   3.457 -0.0804  0.0104 -2.0672
 5618SOL    HW228314   3.078   1.948   3.344  0.5693 -1.1354 -0.3942
 5619SOL     OW28315   0.937   1.661   3.200 -0.3546 -0.3333  0.5550
 5619SOL    HW128316   0.991   1.631   3.273 -0.2872  0.8386  0.9875
 5619SOL    HW228317   0.930   1.576   3.156 -2.7220 -0.9502  2.1191
 5620SOL     OW28318   3.371   1.978   1.747 -0.1099 -0.4423  0.4289
 5620SOL    HW128319   3.323   2.048   1.789  0.1283  0.0305 -0.0836
 5620SOL    HW228320   3.296   1.920   1.737  1.0904 -2.1443  1.2002
 5621SOL     OW28321   2.760   3.946  17.145 -0.0631 -0.6659  0.8121
 5621SOL    HW128322   2.750   3.874  17.082 -2.2747  0.3440  0.0063
 5621SOL    HW228323   2.854   3.933  17.156  0.4754  2.4028 -0.3367
 5622SOL     OW28324   1.051   3.019   8.181  0.2767  0.3610  0.3076
 5622SOL    HW128325   0.970   2.988   8.141  0.3743 -0.1922  0.5468
 5622SOL    HW228326   1.119   2.960   8.149  0.2061 -0.0090  0.8590
 5623SOL     OW28327   1.068   4.232  13.769 -0.1695  0.2798 -0.2861
 5623SOL    HW128328   1.110   4.286  13.836  0.9212 -0.2422 -0.5413
 5623SOL    HW228329   1.056   4.145  13.808 -2.6081  0.7882  0.1125
 5624SOL     OW28330   2.518   0.360   4.918  0.0578 -0.0058  0.7047
 5624SOL    HW128331   2.508   0.425   4.849  0.5906 -1.5000 -0.7877
 5624SOL    HW228332   2.613   0.361   4.909  0.1654  0.7886  1.9023
 5625SOL     OW28333   3.290   3.856   0.661 -0.4695  1.2478 -0.0440
 5625SOL    HW128334   3.326   3.799   0.594  1.7847  0.9369  1.4250
 5625SOL    HW228335   3.264   3.939   0.621 -0.7745  0.8770 -0.6135
 5626SOL     OW28336   2.671   4.509   7.751 -0.5352  0.2593 -0.4611
 5626SOL    HW128337   2.725   4.457   7.691  0.8627  0.9033  0.2389
 5626SOL    HW228338   2.711   4.596   7.740  0.1896 -0.0346 -0.1909
 5627SOL     OW28339   3.730   4.285   5.003 -0.0803 -0.5382 -0.1678
 5627SOL    HW128340   3.808   4.230   5.003 -0.1057 -0.5803 -1.8835
 5627SOL    HW228341   3.702   4.260   4.915  1.3081 -3.1754  0.1404
 5628SOL     OW28342   3.283   2.815   5.681  0.3188 -0.2952  0.0148
 5628SOL    HW128343   3.317   2.874   5.613  0.5449 -0.8674 -0.3707
 5628SOL    HW228344   3.309   2.868   5.757 -0.4092 -2.3158  1.6513
 5629SOL     OW28345   0.926   3.410  16.225  0.0468 -0.1452 -0.4082
 5629SOL    HW128346   0.962   3.324  16.206 -0.0368 -0.0492 -0.9986
 5629SOL    HW228347   0.832   3.394  16.226 -0.1088  0.8162  1.1136
 5630SOL     OW28348   3.850   0.694   0.242 -0.8832 -0.3023  0.1464
 5630SOL    HW128349   3.833   0.600   0.238  2.5166 -0.7770 -2.8835
 5630SOL    HW228350   3.794   0.730   0.173  0.9871 -0.2647 -1.3725
 5631SOL     OW28351   1.254   2.718   5.872  0.4740  0.2811  0.1120
 5631SOL    HW128352   1.334   2.669   5.892  0.9557  0.5274 -1.2306
 5631SOL    HW228353   1.206   2.720   5.955 -1.3554 -3.5468 -0.8242
 5632SOL     OW28354   1.661   0.638   1.449 -0.4522  0.9055 -0.1263
 5632SOL    HW128355   1.698   0.566   1.397 -0.1906 -0.4006  1.8729
 5632SOL    HW228356   1.569   0.613   1.454 -0.9882  2.8072 -0.4372
 5633SOL     OW28357   0.522   1.195  14.648  0.0793  0.3718  0.5105
 5633SOL    HW128358   0.439   1.242  14.638 -0.5765 -0.5945  1.3641
 5633SOL    HW228359   0.566   1.250  14.583  0.2681 -1.5054 -0.9469
 5634SOL     OW28360   0.362   4.234   7.585 -0.1661  0.0573 -0.3606
 5634SOL    HW128361   0.285   4.242   7.529 -0.5706 -1.5582 -0.0433
 5634SOL    HW228362   0.401   4.320   7.598  0.6246 -0.2688 -0.5236
 5635SOL     OW28363   2.124   3.621   6.317 -0.0928 -0.1482  0.0729
 5635SOL    HW128364   2.072   3.647   6.393  1.3983  0.1513  0.9800
 5635SOL    HW228365   2.189   3.571   6.366  0.2933  0.3163  0.0231
 5636SOL     OW28366   4.113   4.643  16.473  0.7580 -0.0983 -0.1467
 5636SOL    HW128367   4.175   4.704  16.433 -0.2092  2.0918  1.7275
 5636SOL    HW228368   4.045   4.643  16.406 -0.8211  0.0341  1.4779
 5637SOL     OW28369   1.031   0.926  12.958  0.2518 -0.0845 -0.1392
 5637SOL    HW128370   0.963   0.961  12.899 -1.9358  1.0129  3.0122
 5637SOL    HW228371   1.093   0.999  12.956 -1.0110  0.9875 -0.6029
 5638SOL     OW28372   2.108   0.871   2.711 -0.1554 -0.2157 -0.0697
 5638SOL    HW128373   2.087   0.953   2.666  0.7898  0.3788  0.5718
 5638SOL    HW228374   2.190   0.852   2.664 -0.0686 -2.7076  1.1087
 5639SOL     OW28375   1.714   2.297  15.922  1.0687 -0.1173  0.7218
 5639SOL    HW128376   1.633   2.247  15.919  1.6021 -0.9755  0.5580
 5639SOL    HW228377   1.708   2.339  16.008 -0.4463  0.8659  0.1165
 5640SOL     OW28378   2.023   1.711   5.434 -0.4480 -0.2435 -0.1560
 5640SOL    HW128379   2.018   1.643   5.367  0.2656 -0.8096  0.3594
 5640SOL    HW228380   2.108   1.745   5.408 -0.1748 -0.8953 -0.1212
 5641SOL     OW28381   0.409   3.431  17.127  0.4561 -0.1907 -0.0227
 5641SOL    HW128382   0.395   3.422  17.033  0.5509 -0.5009 -0.0079
 5641SOL    HW228383   0.325   3.389  17.145  0.4874  0.6482  2.0094
 5642SOL     OW28384   2.225   4.346  10.140  0.3697 -0.1171 -0.6740
 5642SOL    HW128385   2.136   4.319  10.120  0.3887 -0.6880  0.0110
 5642SOL    HW228386   2.274   4.268  10.167 -1.1926 -1.1182 -0.7568
 5643SOL     OW28387   1.478   0.533   8.701 -0.3980 -0.0284 -0.2690
 5643SOL    HW128388   1.475   0.480   8.621 -1.2390 -1.7867  0.9282
 5643SOL    HW228389   1.453   0.461   8.759  0.5241  0.0843  0.2581
 5644SOL     OW28390   3.980   3.250   3.173  0.1924 -0.2264 -0.6495
 5644SOL    HW128391   3.999   3.238   3.079 -1.9681  1.0748 -1.2482
 5644SOL    HW228392   3.940   3.166   3.192 -1.9243  1.0148  0.3351
 5645SOL     OW28393   0.069   4.435   8.665  0.2289  0.2818 -0.6451
 5645SOL    HW128394   0.043   4.344   8.674  0.3944  0.3221  0.2974
 5645SOL    HW228395   0.163   4.437   8.686  0.0448  1.6653  0.0404
 5646SOL     OW28396   2.023   4.328   6.712  0.1729  0.0290  0.2379
 5646SOL    HW128397   1.989   4.272   6.782  0.3812 -2.7031 -1.8585
 5646SOL    HW228398   2.072   4.396   6.758  0.1510  2.1071 -2.7960
 5647SOL     OW28399   1.796   1.150  13.499 -0.8221 -0.5422 -0.6882
 5647SOL    HW128400   1.796   1.232  13.450 -1.0118 -0.6081 -0.8014
 5647SOL    HW228401   1.716   1.156  13.551 -0.6599  0.3651 -0.5459
 5648SOL     OW28402   3.318   1.737   2.287  0.2583  0.1187 -0.5865
 5648SOL    HW128403   3.344   1.759   2.198 -0.3706 -0.0827 -0.8165
 5648SOL    HW228404   3.373   1.658   2.293 -0.2414 -0.0462  2.0079
 5649SOL     OW28405   1.949   0.850   1.247 -0.1298 -0.0695 -0.3196
 5649SOL    HW128406   1.867   0.886   1.280 -1.1931  0.2211 -3.3232
 5649SOL    HW228407   1.918   0.792   1.178  0.2092 -0.2540 -0.3172
 5650SOL     OW28408   4.100   3.835   6.105 -0.0695  0.2961  0.0010
 5650SOL    HW128409   4.011   3.824   6.071  0.2052  1.0219 -0.9740
 5650SOL    HW228410   4.097   3.921   6.145 -0.9408  0.0691  0.4199
 5651SOL     OW28411   0.677   0.984   7.924 -0.1157 -0.1819 -0.3325
 5651SOL    HW128412   0.657   0.969   7.831  2.8811 -0.9613 -0.8623
 5651SOL    HW228413   0.599   0.945   7.963  0.9451 -2.9666 -0.9439
 5652SOL     OW28414   2.527   0.866   3.317  0.3844  0.3611 -0.5095
 5652SOL    HW128415   2.615   0.899   3.337 -0.0021  0.9647  0.2041
 5652SOL    HW228416   2.558   0.793   3.263  0.0266  0.3218 -0.6618
 5653SOL     OW28417   2.107   3.521   9.692  0.1708 -0.4575  0.1251
 5653SOL    HW128418   2.043   3.494   9.759  0.9682 -0.4368  0.8930
 5653SOL    HW228419   2.047   3.558   9.627  1.3391  0.8885 -0.1770
 5654SOL     OW28420   2.698   2.823   2.350 -0.4357  0.8150 -0.2973
 5654SOL    HW128421   2.603   2.813   2.355 -0.3852  1.3174  1.8025
 5654SOL    HW228422   2.717   2.748   2.294 -0.9227  1.7889 -1.7683
 5655SOL     OW28423   3.491   4.494   2.698 -0.7114 -0.2189 -0.1468
 5655SOL    HW128424   3.425   4.551   2.657 -0.7355 -0.5094 -0.5135
 5655SOL    HW228425   3.525   4.450   2.620 -2.1793  0.7064 -1.3127
 5656SOL     OW28426   2.929   1.877   8.990 -0.3398 -0.3085  0.4366
 5656SOL    HW128427   2.992   1.810   9.014  0.5669  0.1930 -0.5086
 5656SOL    HW228428   2.965   1.956   9.030  2.4402 -1.1009 -0.5355
 5657SOL     OW28429   3.915   1.298  10.894  0.3098 -0.6847 -0.1369
 5657SOL    HW128430   3.939   1.323  10.984 -0.2612  0.2636 -0.2463
 5657SOL    HW228431   3.862   1.218  10.896 -1.2658  0.3283 -1.5019
 5658SOL     OW28432   2.034   3.475  17.653 -0.0297  0.1060 -1.0810
 5658SOL    HW128433   2.078   3.449  17.571 -1.7097 -2.6887 -1.0981
 5658SOL    HW228434   1.992   3.401  17.695 -0.2904  1.2261  0.6198
 5659SOL     OW28435   1.585   2.814   6.383  0.3283  0.4984 -0.6509
 5659SOL    HW128436   1.516   2.841   6.444 -0.4255 -2.1875 -0.3167
 5659SOL    HW228437   1.526   2.798   6.310 -1.9094  0.3222  1.2020
 5660SOL     OW28438   4.409   2.908   9.089 -0.4147  0.4241  0.1362
 5660SOL    HW128439   4.383   2.956   9.010 -0.2855 -1.9349 -1.3431
 5660SOL    HW228440   4.384   2.967   9.160  0.8754  0.8943  0.1968
 5661SOL     OW28441   4.270   2.365   4.904 -0.0955  0.4244  0.0230
 5661SOL    HW128442   4.183   2.394   4.874  0.2584  0.6159 -0.8146
 5661SOL    HW228443   4.328   2.433   4.871  1.5736  0.0717  2.1960
 5662SOL     OW28444   2.349   0.632   1.342 -0.1745 -0.0246  0.2470
 5662SOL    HW128445   2.421   0.695   1.336 -1.9902  1.9390 -0.8235
 5662SOL    HW228446   2.286   0.675   1.400  0.5843 -1.0696  1.8485
 5663SOL     OW28447   4.443   1.331  10.787 -0.3239 -0.0061  0.0794
 5663SOL    HW128448   4.382   1.258  10.775  1.5371 -1.2116 -2.1615
 5663SOL    HW228449   4.495   1.289  10.854  1.6213 -1.3623 -2.3075
 5664SOL     OW28450   1.845   3.999   4.047 -0.8776 -0.3347  0.3125
 5664SOL    HW128451   1.834   3.937   3.975  0.9391 -1.1595  0.7251
 5664SOL    HW228452   1.772   3.966   4.098 -1.1220  1.9872  1.4827
 5665SOL     OW28453   2.200   3.929   7.895 -0.2442 -0.0960  0.2781
 5665SOL    HW128454   2.237   3.856   7.845 -1.5208 -0.0051 -0.7920
 5665SOL    HW228455   2.270   3.981   7.934  0.2459 -0.6035  0.0903
 5666SOL     OW28456   2.756   3.631   5.705  0.1945 -0.5012  0.3991
 5666SOL    HW128457   2.699   3.696   5.664  1.8388 -0.4418 -1.8075
 5666SOL    HW228458   2.731   3.551   5.660 -2.2555  0.8401 -0.6328
 5667SOL     OW28459   2.917   1.462   8.758 -0.4515 -0.0128  0.5852
 5667SOL    HW128460   2.898   1.526   8.828  1.9237  1.9533 -0.5593
 5667SOL    HW228461   2.874   1.382   8.786 -0.1186 -0.8356 -1.2669
 5668SOL     OW28462   0.504   0.698   5.126  0.6023 -0.8154 -0.4304
 5668SOL    HW128463   0.515   0.717   5.219  0.3014  2.5568 -1.0749
 5668SOL    HW228464   0.534   0.783   5.096  0.5156 -1.0710 -1.2553
 5669SOL     OW28465   3.736   1.926   6.547 -0.9216 -0.6389 -0.2860
 5669SOL    HW128466   3.735   1.860   6.477 -1.6619 -0.6705 -0.2522
 5669SOL    HW228467   3.825   1.910   6.577 -1.7669 -0.7815  2.1501
 5670SOL     OW28468   1.575   4.611   7.698 -0.2799 -0.0397  0.2200
 5670SOL    HW128469   1.493   4.563   7.681 -0.3783  0.4969 -0.7979
 5670SOL    HW228470   1.612   4.580   7.781  0.7539  2.0275  0.5215
 5671SOL     OW28471   2.384   1.457   9.274  0.4117 -0.1466 -0.1105
 5671SOL    HW128472   2.297   1.420   9.284  1.0076 -1.4718  0.1572
 5671SOL    HW228473   2.385   1.530   9.336 -1.4218  0.5869 -0.9414
 5672SOL     OW28474   2.695   1.133   9.364  0.7373  0.1934  0.1258
 5672SOL    HW128475   2.670   1.209   9.418  0.9377  1.1255 -1.0905
 5672SOL    HW228476   2.674   1.164   9.276  2.6974  0.9209 -0.0826
 5673SOL     OW28477   0.242   0.489   2.254  0.4453  0.1978 -0.3616
 5673SOL    HW128478   0.312   0.537   2.211  0.3328  0.9708  0.3178
 5673SOL    HW228479   0.291   0.408   2.270  0.6228  0.4642  0.4634
 5674SOL     OW28480   1.327   3.857   6.239  0.4058 -0.1622 -0.1216
 5674SOL    HW128481   1.311   3.775   6.193 -0.0842 -0.4646  0.6034
 5674SOL    HW228482   1.418   3.877   6.214  0.6109 -1.2367 -0.2182
 5675SOL     OW28483   4.015   4.656   8.833 -0.4789  0.6041  1.0229
 5675SOL    HW128484   4.075   4.662   8.907 -0.2020  0.7353  0.7857
 5675SOL    HW228485   4.074   4.616   8.769 -2.7197 -1.8007  0.4483
 5676SOL     OW28486   2.198   1.935   6.547  0.3815 -0.4806 -0.2503
 5676SOL    HW128487   2.119   1.971   6.589 -0.6819 -2.3518 -0.6246
 5676SOL    HW228488   2.174   1.920   6.456  0.2744 -1.6143 -0.0412
 5677SOL     OW28489   0.638   4.320  17.324  0.8687 -0.2868 -0.1315
 5677SOL    HW128490   0.603   4.286  17.242  0.4777 -1.5463  0.5456
 5677SOL    HW228491   0.725   4.280  17.333  0.9943 -0.1357 -0.7049
 5678SOL     OW28492   3.228   3.957  13.786  0.2681  0.2487  0.1840
 5678SOL    HW128493   3.225   4.046  13.823  1.5636  0.6114 -0.6017
 5678SOL    HW228494   3.142   3.933  13.821  0.3532  1.0611  0.9666
 5679SOL     OW28495   3.628   2.562   5.202  0.8876 -0.1826  0.1252
 5679SOL    HW128496   3.718   2.534   5.185  0.6449 -0.5668 -0.5355
 5679SOL    HW228497   3.644   2.588   5.293  3.9607 -3.0013  0.4036
 5680SOL     OW28498   1.584   2.158  15.111  0.5436  0.3800 -0.1718
 5680SOL    HW128499   1.543   2.164  15.197 -0.5939  2.4274 -0.8445
 5680SOL    HW228500   1.524   2.206  15.053 -0.1916 -0.2562  0.0547
 5681SOL     OW28501   3.073   4.015   1.964  0.3770  0.0050 -0.2654
 5681SOL    HW128502   3.095   4.076   2.035  1.2665 -0.4111 -0.1872
 5681SOL    HW228503   3.150   3.961   1.949  0.4964  0.6888 -2.1752
 5682SOL     OW28504   2.032   2.165   4.560  0.3862  0.2862 -0.1461
 5682SOL    HW128505   2.076   2.148   4.476 -0.8268  1.5307 -1.0389
 5682SOL    HW228506   1.953   2.115   4.539  1.5536 -1.8830  0.5715
 5683SOL     OW28507   2.235   1.123   0.152 -0.0291 -0.6575 -0.1445
 5683SOL    HW128508   2.299   1.053   0.162  1.5346  1.0916  2.1354
 5683SOL    HW228509   2.274   1.172   0.079 -0.7332  0.4874  0.2360
 5684SOL     OW28510   1.609   3.956   3.085  0.2652 -0.4885  0.1597
 5684SOL    HW128511   1.676   3.890   3.066  0.0573 -1.0106  1.3091
 5684SOL    HW228512   1.652   3.991   3.163 -1.1977  0.4322  0.5493
 5685SOL     OW28513   1.833   3.345   3.894 -0.1086  0.2898 -0.2980
 5685SOL    HW128514   1.757   3.327   3.839 -1.2701  2.0088  0.7365
 5685SOL    HW228515   1.828   3.441   3.899  0.7053  0.4452 -2.0728
 5686SOL     OW28516   0.303   2.147   0.988  0.0373 -0.5137 -0.3349
 5686SOL    HW128517   0.380   2.103   0.951 -0.3550 -0.5647 -1.1059
 5686SOL    HW228518   0.250   2.164   0.910 -0.9691  2.5078  1.0423
 5687SOL     OW28519   1.578   4.311   5.941  0.1145  0.5174 -0.2702
 5687SOL    HW128520   1.580   4.275   6.030  3.9052 -1.0645 -0.9958
 5687SOL    HW228521   1.666   4.299   5.905  0.5871 -3.5105  2.2264
 5688SOL     OW28522   1.463   2.859   8.714  0.4533  0.6435  0.4869
 5688SOL    HW128523   1.407   2.873   8.790 -1.3610  2.2577 -1.1126
 5688SOL    HW228524   1.443   2.940   8.665  1.5653 -0.8209 -2.4008
 5689SOL     OW28525   3.698   1.337   2.463 -0.5320 -0.3214  0.0845
 5689SOL    HW128526   3.682   1.249   2.429  0.4115 -0.6942  0.6104
 5689SOL    HW228527   3.779   1.358   2.416 -0.3943  0.0405  0.4854
 5690SOL     OW28528   1.364   0.485   2.306 -0.5235 -0.1181  0.2537
 5690SOL    HW128529   1.423   0.410   2.318  2.0198  1.4324 -2.6052
 5690SOL    HW228530   1.425   0.543   2.261 -1.4835  1.3562  0.8569
 5691SOL     OW28531   3.112   3.913   7.541 -0.2512  0.0437  0.0109
 5691SOL    HW128532   3.138   3.824   7.519 -1.4673 -0.4209  0.4674
 5691SOL    HW228533   3.166   3.975   7.492 -0.2917  1.1788  1.3785
 5692SOL     OW28534   3.154   4.547   9.043 -0.5190  0.7532 -0.0214
 5692SOL    HW128535   3.076   4.539   9.097 -0.0557  1.4832  0.7724
 5692SOL    HW228536   3.118   4.507   8.964  1.6237  3.0812 -2.2101
 5693SOL     OW28537   0.551   0.339   8.847 -0.2491 -0.0618  0.0850
 5693SOL    HW128538   0.535   0.430   8.874 -1.3400  0.5066 -2.5266
 5693SOL    HW228539   0.491   0.297   8.909  1.4389  0.0904  1.8420
 5694SOL     OW28540   2.461   3.781   1.862 -0.6859 -0.5343 -0.0946
 5694SOL    HW128541   2.404   3.800   1.787 -0.9527  1.7911  0.6822
 5694SOL    HW228542   2.508   3.705   1.829 -3.0617 -1.3338 -1.6011
 5695SOL     OW28543   0.300   3.216   7.746  0.1762  0.0573  0.2876
 5695SOL    HW128544   0.273   3.254   7.830  2.3749  0.8802  0.6095
 5695SOL    HW228545   0.244   3.272   7.692  0.1147  1.0623  1.3981
 5696SOL     OW28546   1.369   3.847  11.780 -0.0825 -0.2676 -0.3001
 5696SOL    HW128547   1.284   3.849  11.824 -0.5864 -0.5561 -1.2620
 5696SOL    HW228548   1.391   3.940  11.783  2.1037 -0.7717 -0.5110
 5697SOL     OW28549   1.544   0.537  13.251 -0.2371 -0.1617  0.1442
 5697SOL    HW128550   1.452   0.539  13.277 -0.2388 -1.8412  0.2948
 5697SOL    HW228551   1.546   0.611  13.191  0.6237 -1.9403 -2.0102
 5698SOL     OW28552   4.464   3.475   6.401 -0.0553 -0.5808 -0.5879
 5698SOL    HW128553   4.467   3.570   6.414 -2.0932 -0.5046 -0.6687
 5698SOL    HW228554   4.379   3.456   6.441  1.5252 -0.5495  2.7019
 5699SOL     OW28555   2.973   3.268   2.622  0.8526  0.2779  0.2345
 5699SOL    HW128556   3.041   3.334   2.635  0.1773  1.0807 -0.3304
 5699SOL    HW228557   3.017   3.194   2.666 -0.4531 -0.0615  0.9651
 5700SOL     OW28558   3.032   3.525   7.235  0.4797  0.5636  0.5135
 5700SOL    HW128559   3.098   3.566   7.179 -1.1914 -2.9791 -4.0239
 5700SOL    HW228560   3.081   3.494   7.311  0.7790  0.5082  0.2942
 5701SOL     OW28561   0.056   3.154   6.464 -0.0617  0.0363 -0.1150
 5701SOL    HW128562   0.070   3.230   6.521 -1.2579  0.0047  0.2180
 5701SOL    HW228563   0.101   3.080   6.505  0.4473  1.2412  1.4978
 5702SOL     OW28564   3.525   2.445  15.280 -0.0756  0.5225  0.6192
 5702SOL    HW128565   3.577   2.515  15.319  0.3338  0.2321  0.5869
 5702SOL    HW228566   3.435   2.478  15.270 -0.1466 -0.1969 -1.0405
 5703SOL     OW28567   1.482   3.251   2.812  0.2530  0.2922 -0.4187
 5703SOL    HW128568   1.561   3.263   2.865  0.5585 -1.5214 -0.4420
 5703SOL    HW228569   1.422   3.214   2.878  0.4600 -1.7898 -1.3947
 5704SOL     OW28570   4.194   3.000   5.475  0.4889  0.2099 -0.3274
 5704SOL    HW128571   4.286   2.998   5.504  0.9755 -0.8873 -1.9341
 5704SOL    HW228572   4.202   3.068   5.408  0.6817  0.3591 -0.1531
 5705SOL     OW28573   2.925   4.434   3.209  0.4254  0.2237  0.2389
 5705SOL    HW128574   2.986   4.405   3.141  0.9860  1.5863  0.1468
 5705SOL    HW228575   2.864   4.478   3.149  0.7134 -1.0109 -0.9484
 5706SOL     OW28576   1.377   2.841   1.856  0.1696 -0.6073  0.0293
 5706SOL    HW128577   1.399   2.880   1.772 -1.9491  0.3290 -0.1000
 5706SOL    HW228578   1.311   2.904   1.884  1.7532  0.7527  0.6770
 5707SOL     OW28579   3.058   3.721   2.093  0.0717 -0.0256 -0.3154
 5707SOL    HW128580   3.098   3.696   2.176 -1.7123  2.9101  1.4440
 5707SOL    HW228581   2.979   3.769   2.119  2.3716  2.9589  1.1540
 5708SOL     OW28582   1.790   0.790   8.199  0.1439  0.3825 -0.1553
 5708SOL    HW128583   1.783   0.695   8.202 -0.8547  0.4373 -0.7590
 5708SOL    HW228584   1.770   0.806   8.291 -0.4649 -0.9008 -0.0681
 5709SOL     OW28585   2.449   0.665   5.737 -0.7125  0.1672  0.3533
 5709SOL    HW128586   2.437   0.570   5.725 -0.0848  0.1696 -0.2905
 5709SOL    HW228587   2.401   0.676   5.819 -1.6736  0.2275 -0.2084
 5710SOL     OW28588   4.533   4.238   4.672 -0.1730  0.3384  0.4863
 5710SOL    HW128589   4.510   4.145   4.680 -2.1970  1.0698  2.9900
 5710SOL    HW228590   4.522   4.269   4.762  0.1060 -0.2193  0.7114
 5711SOL     OW28591   1.567   2.647   1.968  0.9864  0.4887  0.2306
 5711SOL    HW128592   1.488   2.674   1.922 -0.6067 -0.8772  2.1131
 5711SOL    HW228593   1.623   2.615   1.898 -0.6016 -2.1602  0.1677
 5712SOL     OW28594   4.182   2.964   4.583  0.1915  0.6304  0.4413
 5712SOL    HW128595   4.087   2.959   4.572  0.3812  0.4900 -1.1556
 5712SOL    HW228596   4.211   3.045   4.541 -0.6353  0.5504 -0.2721
 5713SOL     OW28597   1.237   4.691  12.849 -0.6755 -0.1216 -0.4366
 5713SOL    HW128598   1.227   4.638  12.928  0.8089 -2.1206 -1.5923
 5713SOL    HW228599   1.261   0.045  12.896  1.5603 -1.1013  0.1249
 5714SOL     OW28600   1.868   2.149   2.006  0.9707 -0.3140 -0.1714
 5714SOL    HW128601   1.830   2.177   2.090  1.3371 -0.1647 -0.0553
 5714SOL    HW228602   1.789   2.123   1.959  1.1773  0.2384 -0.8134
 5715SOL     OW28603   3.299   3.713   7.274 -0.1135  0.5135 -0.0059
 5715SOL    HW128604   3.240   3.786   7.253  0.3096  0.3646 -1.6972
 5715SOL    HW228605   3.272   3.685   7.361 -1.0951 -0.0608 -0.5000
 5716SOL     OW28606   0.505   0.085  13.925 -0.2441 -0.1943  0.0937
 5716SOL    HW128607   0.484   0.091  13.832  1.2341  4.2917  0.0417
 5716SOL    HW228608   0.536   4.721  13.927  0.3443  0.0110  0.4525
 5717SOL     OW28609   0.554   2.911   4.603  0.0167 -0.4800 -0.0959
 5717SOL    HW128610   0.616   2.981   4.581  0.2907 -0.0161  2.2253
 5717SOL    HW228611   0.474   2.963   4.616  1.3339  1.5140  0.0262
 5718SOL     OW28612   0.454   3.433   9.692  0.5160  0.3010  0.1174
 5718SOL    HW128613   0.518   3.499   9.718  0.7566 -0.9774  2.6804
 5718SOL    HW228614   0.497   3.402   9.612 -1.5306  1.0327 -1.2966
 5719SOL     OW28615   0.818   3.365   9.666 -0.4698  0.1719  0.1509
 5719SOL    HW128616   0.904   3.391   9.698 -0.5354  1.9515 -1.1383
 5719SOL    HW228617   0.772   3.448   9.677 -3.1017 -1.4607  1.4303
 5720SOL     OW28618   3.761   1.991   5.887  0.0468  0.0855 -0.2048
 5720SOL    HW128619   3.788   1.981   5.978 -4.2666 -2.1697  0.8030
 5720SOL    HW228620   3.772   2.085   5.871  0.7426  0.1023  0.3750
 5721SOL     OW28621   3.523   1.877   7.035  0.6357 -1.0205  0.4949
 5721SOL    HW128622   3.476   1.863   6.953  2.2858 -0.9356 -0.4524
 5721SOL    HW228623   3.611   1.890   7.000 -0.1244  1.3141 -0.5544
 5722SOL     OW28624   3.824   2.488   4.860 -0.0897  0.6288 -0.6341
 5722SOL    HW128625   3.805   2.581   4.856  3.2211  1.3232 -0.0871
 5722SOL    HW228626   3.758   2.445   4.805 -0.4745 -0.7973  0.9511
 5723SOL     OW28627   1.637   1.912  10.734 -0.4403 -0.0078 -0.0516
 5723SOL    HW128628   1.700   1.904  10.662  1.1503  0.1198  1.3270
 5723SOL    HW228629   1.682   1.864  10.803 -0.6376 -1.5981 -1.0201
 5724SOL     OW28630   2.683   2.851   3.352  0.1455  0.3106  0.1579
 5724SOL    HW128631   2.709   2.762   3.327  0.6254  1.2569 -2.8018
 5724SOL    HW228632   2.627   2.828   3.426 -0.3926 -1.5157 -0.8208
 5725SOL     OW28633   2.071   2.310   9.921 -0.2070  0.3831  0.5938
 5725SOL    HW128634   2.062   2.215   9.922  2.4483  0.1361  0.4709
 5725SOL    HW228635   2.149   2.319   9.975 -0.8103 -0.8645  1.6597
 5726SOL     OW28636   4.196   3.533   4.447 -0.4344  0.8087 -0.2861
 5726SOL    HW128637   4.181   3.607   4.505  1.3740  0.3004  0.8471
 5726SOL    HW228638   4.175   3.468   4.514  2.0853 -0.2572 -0.5158
 5727SOL     OW28639   3.092   2.665   2.495 -0.4753  0.4994  0.3138
 5727SOL    HW128640   3.058   2.716   2.422 -1.4646  1.3790  1.3986
 5727SOL    HW228641   3.184   2.654   2.470 -0.9476  1.1871 -1.7552
 5728SOL     OW28642   4.645   2.309   3.356  0.3097  0.2428  0.2186
 5728SOL    HW128643   4.674   2.370   3.288 -1.6147 -0.3867 -1.1442
 5728SOL    HW228644   4.711   2.242   3.339 -1.0586 -1.2488  0.7665
 5729SOL     OW28645   3.724   0.068  16.854  0.9724 -0.3506 -0.1626
 5729SOL    HW128646   3.789   0.131  16.887 -0.7991  0.3324  2.0047
 5729SOL    HW228647   3.765   0.049  16.769  0.6909 -4.4111  0.6134
 5730SOL     OW28648   0.184   0.179   8.878  0.0462  0.5279  0.0628
 5730SOL    HW128649   0.255   0.123   8.849 -1.3414 -1.2893  0.1640
 5730SOL    HW228650   0.109   0.151   8.824  1.1764 -3.6396  0.6785
 5731SOL     OW28651   3.384   0.222   8.159 -0.5930 -0.0287 -0.1920
 5731SOL    HW128652   3.407   0.199   8.069 -0.6009 -1.4766  0.1843
 5731SOL    HW228653   3.462   0.275   8.174 -1.2629  0.3491  1.9502
 5732SOL     OW28654   0.347   2.716   5.356 -0.3627 -0.2867  0.1754
 5732SOL    HW128655   0.261   2.693   5.321  0.0546 -2.3061  0.5088
 5732SOL    HW228656   0.395   2.634   5.360 -0.0750 -0.2109 -1.5002
 5733SOL     OW28657   1.116   0.274   4.359  0.0163 -0.1291 -0.2710
 5733SOL    HW128658   1.205   0.275   4.326 -0.1457 -0.9820 -0.7179
 5733SOL    HW228659   1.064   0.249   4.283  1.0151  0.9175 -1.2899
 5734SOL     OW28660   0.205   0.700   5.003 -0.1241  0.5442 -0.0680
 5734SOL    HW128661   0.205   0.781   4.953  0.1701  0.1007 -0.7983
 5734SOL    HW228662   0.293   0.706   5.041  0.2736 -1.2737 -0.6755
 5735SOL     OW28663   1.690   4.095  10.953 -0.0506  0.6269 -0.3117
 5735SOL    HW128664   1.619   4.097  10.889 -1.5314 -0.7470  1.2842
 5735SOL    HW228665   1.741   4.172  10.927  0.7970 -0.5589 -2.1767
 5736SOL     OW28666   0.294   1.802  12.178 -0.8384 -0.3324  0.2402
 5736SOL    HW128667   0.274   1.891  12.206 -0.6924  0.1290 -1.1296
 5736SOL    HW228668   0.325   1.758  12.257  0.4702 -1.1199 -0.7047
 5737SOL     OW28669   0.670   1.512   2.644 -0.3206 -0.3656  0.4361
 5737SOL    HW128670   0.680   1.578   2.574 -1.1025 -0.2435  0.4363
 5737SOL    HW228671   0.642   1.572   2.714 -0.9700 -1.9542  1.5175
 5738SOL     OW28672   4.496   2.012   1.311 -0.5524  0.2809 -0.3340
 5738SOL    HW128673   4.578   1.979   1.275 -0.1641  1.4229 -0.5101
 5738SOL    HW228674   4.425   1.953   1.285  0.6621 -0.8302 -1.1028
 5739SOL     OW28675   4.079   1.547   1.040  0.0750 -0.4514  0.0742
 5739SOL    HW128676   4.128   1.467   1.059 -4.5528 -3.5440 -0.9925
 5739SOL    HW228677   4.069   1.566   1.133  0.0409 -2.1410  0.4207
 5740SOL     OW28678   0.937   3.677   1.841 -0.5988  0.6730  0.4427
 5740SOL    HW128679   1.033   3.666   1.843 -0.9354 -2.4162  0.6034
 5740SOL    HW228680   0.941   3.766   1.806 -0.3186  1.5037  2.5851
 5741SOL     OW28681   1.026   3.922   4.401 -0.5610 -0.2082 -0.3096
 5741SOL    HW128682   1.108   3.968   4.418  0.1716 -1.4291 -0.6045
 5741SOL    HW228683   1.016   3.862   4.475 -0.5667 -0.6784 -0.6980
 5742SOL     OW28684   0.742   4.014   7.034  0.2174  0.5161  0.2438
 5742SOL    HW128685   0.718   3.931   6.994  1.5836 -0.3054  1.1116
 5742SOL    HW228686   0.656   4.054   7.043  0.2745  1.0792 -1.7108
 5743SOL     OW28687   2.060   0.460   9.317 -0.0762  0.1065 -0.1698
 5743SOL    HW128688   1.991   0.404   9.353 -0.9300  0.4455 -1.2587
 5743SOL    HW228689   2.132   0.447   9.378 -0.7522  2.5634  1.1613
 5744SOL     OW28690   2.841   1.664   7.574 -0.2411 -0.3553 -0.0332
 5744SOL    HW128691   2.884   1.641   7.657 -0.6224 -0.3343  0.1709
 5744SOL    HW228692   2.830   1.759   7.580 -0.8316 -0.3956 -0.4598
 5745SOL     OW28693   1.003   1.071   2.926 -0.1110  0.1333 -0.2478
 5745SOL    HW128694   1.054   1.054   3.005  2.4054  2.6221 -1.3403
 5745SOL    HW228695   0.913   1.077   2.957 -0.3276  0.8942 -1.0254
 5746SOL     OW28696   4.585   1.167  10.959 -0.1135  0.1422  0.3801
 5746SOL    HW128697   4.678   1.143  10.962 -0.2985 -0.2739  2.7762
 5746SOL    HW228698   4.555   1.125  11.040  2.5652 -1.1712  0.6968
 5747SOL     OW28699   3.751   2.219   2.092  0.2023 -0.9202  0.4647
 5747SOL    HW128700   3.743   2.250   2.182 -0.1955  0.4144 -0.0271
 5747SOL    HW228701   3.809   2.143   2.093 -1.4106 -2.1661 -0.8829
 5748SOL     OW28702   0.220   2.570  14.867 -0.0719  0.4436  0.0097
 5748SOL    HW128703   0.170   2.489  14.866  2.0160 -0.8408  0.5966
 5748SOL    HW228704   0.148   2.633  14.863  0.2553  0.8840  1.0464
 5749SOL     OW28705   3.776   4.255   9.140 -0.1454 -0.1466  0.1200
 5749SOL    HW128706   3.782   4.311   9.217  0.5050  0.1951 -0.1854
 5749SOL    HW228707   3.768   4.318   9.069 -0.8421 -2.3586 -1.7628
 5750SOL     OW28708   2.435   1.794   2.039 -0.0075  0.1823 -0.6112
 5750SOL    HW128709   2.440   1.717   2.095  2.2735 -0.9768 -2.4153
 5750SOL    HW228710   2.493   1.771   1.967  1.9651  3.2163 -0.0289
 5751SOL     OW28711   3.275   4.662   7.632  0.0326  0.4987 -0.4810
 5751SOL    HW128712   3.266   4.604   7.556  1.2144  0.8688 -0.8972
 5751SOL    HW228713   3.188   4.693   7.657  0.1719 -0.4133  1.1331
 5752SOL     OW28714   1.736   3.319  12.349 -0.1012  0.7237 -0.1483
 5752SOL    HW128715   1.821   3.294  12.313 -1.8320 -2.5444 -2.0265
 5752SOL    HW228716   1.674   3.306  12.276 -0.8419 -0.9535  0.7811
 5753SOL     OW28717   1.005   2.927  15.338 -0.1583 -0.2195  0.5607
 5753SOL    HW128718   0.955   2.962  15.412  0.1956  0.1648  0.6192
 5753SOL    HW228719   1.008   2.833  15.353 -0.4310 -0.2840  0.2106
 5754SOL     OW28720   3.433   1.155  15.836 -0.3211  0.0175  0.1233
 5754SOL    HW128721   3.348   1.152  15.879  0.1880 -0.9317  1.0410
 5754SOL    HW228722   3.422   1.205  15.755 -2.7162 -0.7009  0.0008
 5755SOL     OW28723   1.372   0.442  17.024 -0.4050  0.5286  0.0424
 5755SOL    HW128724   1.346   0.381  17.093 -0.6410 -0.6520 -1.0901
 5755SOL    HW228725   1.381   0.521  17.077 -0.5591  0.9865 -0.6180
 5756SOL     OW28726   4.263   0.018  16.186  0.6861 -0.3538 -0.1238
 5756SOL    HW128727   4.294   0.101  16.225 -2.1564  0.8815 -0.5159
 5756SOL    HW228728   4.347   4.705  16.159  0.7740  0.2574 -0.7359
 5757SOL     OW28729   3.336   4.445   9.248 -0.1051 -0.6914 -0.2442
 5757SOL    HW128730   3.262   4.423   9.306  0.4652  1.7488  1.4018
 5757SOL    HW228731   3.286   4.453   9.167  0.5644  1.1287 -0.4621
 5758SOL     OW28732   3.154   0.879   6.588 -0.0872 -0.2441 -0.8446
 5758SOL    HW128733   3.234   0.929   6.571 -1.0899  0.8674 -2.2985
 5758SOL    HW228734   3.165   0.810   6.523  1.0634 -0.4182 -0.4596
 5759SOL     OW28735   2.077   1.395   7.981 -0.3779 -0.0945 -0.0734
 5759SOL    HW128736   2.122   1.474   7.952 -1.2641  0.4131 -0.0515
 5759SOL    HW228737   2.012   1.385   7.912  0.3373 -1.8629 -0.5114
 5760SOL     OW28738   1.740   0.628   8.639 -0.2405 -0.2927  0.0882
 5760SOL    HW128739   1.654   0.602   8.674 -0.1418 -0.0138  0.5441
 5760SOL    HW228740   1.797   0.562   8.678  0.3425 -0.6858 -1.4486
 5761SOL     OW28741   4.329   4.193  16.115 -0.0571  0.0936 -0.2100
 5761SOL    HW128742   4.268   4.263  16.090 -2.0630 -1.1158  1.2947
 5761SOL    HW228743   4.387   4.199  16.039 -0.3006  1.2794 -0.3009
 5762SOL     OW28744   1.132   0.988  11.291  0.0124 -0.4806  0.4529
 5762SOL    HW128745   1.136   1.083  11.306  2.3221 -0.0990 -2.6782
 5762SOL    HW228746   1.055   0.971  11.238  0.0787  0.4189  0.0641
 5763SOL     OW28747   0.103   4.356  11.163  0.0673  0.2145  0.1357
 5763SOL    HW128748   0.160   4.432  11.152  1.4045 -0.7657  0.3486
 5763SOL    HW228749   0.067   4.359  11.252 -0.7912 -0.1374 -0.1986
 5764SOL     OW28750   3.032   1.410   9.746 -0.4970 -0.1728 -0.0723
 5764SOL    HW128751   2.967   1.381   9.682 -0.2327  0.0746 -0.4541
 5764SOL    HW228752   2.976   1.435   9.819  1.2972  1.5783  0.6977
 5765SOL     OW28753   0.401   1.013   3.310 -0.1919  0.0950 -0.1220
 5765SOL    HW128754   0.320   1.006   3.260 -0.7942 -2.1453  1.1836
 5765SOL    HW228755   0.371   0.994   3.399  0.9137  1.4544  0.5397
 5766SOL     OW28756   3.637   0.252   5.375  0.1460 -0.3372 -0.4685
 5766SOL    HW128757   3.686   0.203   5.309  1.2678  1.4332 -0.9307
 5766SOL    HW228758   3.693   0.238   5.451 -0.6293  1.2440  0.3799
 5767SOL     OW28759   3.353   4.309   5.882 -0.4324 -0.2316  0.2745
 5767SOL    HW128760   3.378   4.360   5.805 -2.0139  0.5652  0.2776
 5767SOL    HW228761   3.277   4.264   5.845 -0.5526 -1.3658  1.8971
 5768SOL     OW28762   2.356   3.790   1.386  0.3379 -0.3076 -0.0579
 5768SOL    HW128763   2.338   3.713   1.333 -1.2443  1.8418 -2.6710
 5768SOL    HW228764   2.301   3.864   1.359  1.4949  1.2416  1.8065
 5769SOL     OW28765   3.804   3.537   1.487 -0.0297  0.5276  0.3803
 5769SOL    HW128766   3.863   3.559   1.559  1.2399 -1.8802  0.0786
 5769SOL    HW228767   3.733   3.495   1.534 -0.5829  0.6101 -0.3775
 5770SOL     OW28768   0.814   0.597   3.121  0.0131  0.1240 -0.0908
 5770SOL    HW128769   0.789   0.614   3.030  2.2645  1.5714 -0.4655
 5770SOL    HW228770   0.899   0.639   3.108  0.1380 -0.0434  0.1971
 5771SOL     OW28771   4.430   1.936   1.708 -0.2843 -0.0618 -0.3726
 5771SOL    HW128772   4.497   1.995   1.674  1.1874 -1.1088  0.7189
 5771SOL    HW228773   4.395   1.994   1.775  3.4498  1.2799  0.3630
 5772SOL     OW28774   2.417   0.399   5.596 -0.1186  0.1249  0.3950
 5772SOL    HW128775   2.358   0.401   5.520 -0.7899 -0.1264  0.9018
 5772SOL    HW228776   2.498   0.420   5.550 -1.3054  1.2315 -1.1880
 5773SOL     OW28777   2.748   1.633   5.539 -0.4514 -0.2567 -0.0869
 5773SOL    HW128778   2.731   1.721   5.570 -1.4369  0.1654 -1.8523
 5773SOL    HW228779   2.799   1.654   5.461  0.6754 -1.3101  0.3673
 5774SOL     OW28780   0.873   4.043   5.370  0.2082  0.0599  0.1598
 5774SOL    HW128781   0.925   3.963   5.382 -2.5716 -1.7581  0.1499
 5774SOL    HW228782   0.878   4.076   5.460  1.2614  0.5938 -0.0969
 5775SOL     OW28783   0.156   2.174   8.306  0.5880 -0.3866 -0.4185
 5775SOL    HW128784   0.063   2.154   8.311  0.0291  2.1393 -0.7438
 5775SOL    HW228785   0.157   2.250   8.365  0.5310  0.4559 -1.5100
 5776SOL     OW28786   1.185   1.603  11.183 -0.4240 -0.1847  0.0080
 5776SOL    HW128787   1.121   1.672  11.204  1.4997  1.8812 -1.0130
 5776SOL    HW228788   1.147   1.565  11.103  4.0188 -2.1250 -1.1446
 5777SOL     OW28789   3.335   3.196   4.300  0.0550 -0.0330  0.2264
 5777SOL    HW128790   3.388   3.131   4.254  1.9577  2.1564 -0.6644
 5777SOL    HW228791   3.401   3.227   4.362  1.1989 -3.5320  0.7525
 5778SOL     OW28792   0.845   4.246   6.266 -0.7873 -0.2569  0.0072
 5778SOL    HW128793   0.775   4.279   6.210 -1.3445 -0.7571  0.4093
 5778SOL    HW228794   0.892   4.328   6.284 -0.1879 -0.2882 -1.4523
 5779SOL     OW28795   3.090   2.035   8.493 -0.0030 -0.0752  0.6055
 5779SOL    HW128796   3.023   1.987   8.542 -1.2856  1.3744  0.2492
 5779SOL    HW228797   3.158   1.968   8.483  0.5042  0.8664 -2.0415
 5780SOL     OW28798   3.911   4.095   5.701  0.1516 -0.6403 -0.7377
 5780SOL    HW128799   3.972   4.025   5.677 -0.5924 -0.6975 -2.4313
 5780SOL    HW228800   3.973   4.165   5.720 -2.1227 -0.0816  4.6165
 5781SOL     OW28801   0.253   0.445   9.596  0.2001  0.0685  0.2309
 5781SOL    HW128802   0.183   0.482   9.649  1.2778  0.1058  1.6624
 5781SOL    HW228803   0.224   0.358   9.568  2.5654  1.1287 -5.4718
 5782SOL     OW28804   2.811   3.319  10.041 -0.5796  0.3698 -0.2502
 5782SOL    HW128805   2.907   3.328  10.035 -0.3417 -0.1689  2.8578
 5782SOL    HW228806   2.801   3.224  10.049  0.9103  0.2218 -0.1360
 5783SOL     OW28807   3.988   4.396   2.143  0.2004 -0.4484  0.4649
 5783SOL    HW128808   4.073   4.411   2.101  0.5842  0.9007  1.7033
 5783SOL    HW228809   3.943   4.351   2.072 -0.3885 -1.4816  1.4862
 5784SOL     OW28810   1.620   0.823   2.447  0.0790  0.0918  0.1145
 5784SOL    HW128811   1.684   0.754   2.465  1.4301  1.4356  0.4111
 5784SOL    HW228812   1.589   0.787   2.363 -1.4659  0.1193  0.6708
 5785SOL     OW28813   0.352   2.890   8.442 -0.1861 -0.2112 -0.7472
 5785SOL    HW128814   0.446   2.880   8.453 -0.1474  0.4160 -0.5024
 5785SOL    HW228815   0.332   2.808   8.397 -0.3148 -0.7242  0.2599
 5786SOL     OW28816   0.024   3.235   6.911  0.3629 -0.0141 -0.4077
 5786SOL    HW128817   0.115   3.250   6.936 -0.3110  0.2747  1.8703
 5786SOL    HW228818   4.713   3.255   6.997  0.1717 -0.2464 -0.4344
 5787SOL     OW28819   3.581   1.728  11.497  0.0382  0.1557 -0.3703
 5787SOL    HW128820   3.630   1.647  11.481  0.9520  0.5394  0.4620
 5787SOL    HW228821   3.621   1.755  11.580  1.9966 -2.6036 -0.3924
 5788SOL     OW28822   1.716   1.326   2.484  0.1109 -0.2561  0.0737
 5788SOL    HW128823   1.670   1.403   2.451 -0.0803 -0.6010 -0.4678
 5788SOL    HW228824   1.708   1.271   2.405  1.2420 -0.6817  0.2439
 5789SOL     OW28825   0.464   1.451   6.018 -0.4417  0.1708 -0.1875
 5789SOL    HW128826   0.407   1.403   5.958  0.1552 -0.1572 -0.4958
 5789SOL    HW228827   0.546   1.459   5.968  0.8059  1.2007  2.0450
 5790SOL     OW28828   3.796   1.557   0.351 -0.3692  0.3297  0.4964
 5790SOL    HW128829   3.843   1.622   0.404 -1.7867  0.8874  1.0804
 5790SOL    HW228830   3.785   1.491   0.419 -2.3060  0.0261 -0.1187
 5791SOL     OW28831   1.551   4.556   4.259  0.6108 -0.4298 -0.1885
 5791SOL    HW128832   1.513   4.509   4.186  0.3929 -0.3372 -0.1346
 5791SOL    HW228833   1.501   4.638   4.258  2.2821  0.6148  1.0112
 5792SOL     OW28834   1.392   4.571   3.773  0.5510 -0.7746  0.1927
 5792SOL    HW128835   1.447   4.640   3.808 -0.6015  1.1107 -1.7204
 5792SOL    HW228836   1.384   4.615   3.689  0.1573 -0.6309  0.3080
 5793SOL     OW28837   1.340   0.834   2.959  0.3825 -0.0081  0.0173
 5793SOL    HW128838   1.297   0.870   2.881  0.3341 -1.6249 -0.6965
 5793SOL    HW228839   1.271   0.841   3.026 -1.4439  1.7268 -2.0339
 5794SOL     OW28840   0.306   1.367   4.068  0.0361  0.4280 -0.1881
 5794SOL    HW128841   0.298   1.324   3.984  0.8486 -1.7968  0.8829
 5794SOL    HW228842   0.272   1.303   4.130 -1.7214  3.2976  1.8459
 5795SOL     OW28843   2.018   4.195   4.877  0.0161  0.4865  0.0313
 5795SOL    HW128844   2.014   4.268   4.815  0.0464 -0.1710 -0.7501
 5795SOL    HW228845   2.090   4.218   4.936  1.2616 -1.6036 -0.6918
 5796SOL     OW28846   4.649   2.744   8.918  0.4714 -0.2184 -0.1907
 5796SOL    HW128847   0.018   2.738   8.908  0.5020  1.2285 -0.8768
 5796SOL    HW228848   4.641   2.814   8.983 -0.4368 -1.4687  1.0452
 5797SOL     OW28849   3.984   1.018   2.386  0.0087 -0.4238 -0.0135
 5797SOL    HW128850   3.984   1.114   2.385 -1.7261 -0.4411 -2.1943
 5797SOL    HW228851   4.072   0.994   2.355 -0.7603 -1.7378 -1.1922
 5798SOL     OW28852   0.508   1.089  11.614 -0.5880 -0.5771 -0.0474
 5798SOL    HW128853   0.561   1.114  11.538 -0.1341 -1.8026 -0.1331
 5798SOL    HW228854   0.421   1.104  11.576 -0.2999  2.3039  0.4299
 5799SOL     OW28855   0.860   0.036   4.412  0.2565  0.3261  0.5804
 5799SOL    HW128856   0.785   0.065   4.465  1.0061 -1.0723  2.3818
 5799SOL    HW228857   0.915   4.718   4.477  0.6933  0.7279  0.4798
 5800SOL     OW28858   2.252   0.588  13.083 -0.5232  0.3666 -0.5583
 5800SOL    HW128859   2.307   0.585  13.005  0.4966  0.8256  0.1507
 5800SOL    HW228860   2.226   0.680  13.092  0.4459  0.5570  0.1945
 5801SOL     OW28861   3.594   3.943   3.413 -0.1044  0.1166  0.0675
 5801SOL    HW128862   3.536   3.885   3.463  0.9004 -2.0475 -1.2671
 5801SOL    HW228863   3.584   3.898   3.329 -2.6195  2.4648 -0.8855
 5802SOL     OW28864   4.188   0.724   7.046  0.3191  0.3647  0.4698
 5802SOL    HW128865   4.245   0.663   7.093  0.4364  0.2439  0.1774
 5802SOL    HW228866   4.217   0.717   6.955  2.7993  0.2832  1.2617
 5803SOL     OW28867   4.649   4.385   3.142  0.8862 -0.2986  0.1811
 5803SOL    HW128868   4.636   4.395   3.048 -0.7453  3.0297  0.7557
 5803SOL    HW228869   4.720   4.448   3.156  0.5367  0.7207 -2.5442
 5804SOL     OW28870   1.529   4.515  15.689  0.2145 -0.3596  0.1041
 5804SOL    HW128871   1.504   4.605  15.711 -0.8233  0.1821 -3.1708
 5804SOL    HW228872   1.452   4.475  15.730 -0.2324  0.2505 -0.1272
 5805SOL     OW28873   4.290   1.634  11.628  0.6968  0.5305 -0.1872
 5805SOL    HW128874   4.282   1.615  11.722 -2.1838 -3.4000 -1.2013
 5805SOL    HW228875   4.380   1.603  11.630  1.2013  2.0609  1.3376
 5806SOL     OW28876   3.784   4.686   9.181 -0.0208  0.1004  0.1906
 5806SOL    HW128877   3.797   4.646   9.095  1.4331  2.3857 -0.6712
 5806SOL    HW228878   3.761   4.613   9.238  0.8177 -1.6235 -1.6665
 5807SOL     OW28879   4.320   3.890  13.094  0.2777  0.6318 -0.3203
 5807SOL    HW128880   4.344   3.854  13.180  2.7443 -2.7870 -2.4395
 5807SOL    HW228881   4.323   3.803  13.053 -0.2844 -0.1932  1.3824
 5808SOL     OW28882   1.699   3.032   8.477  0.2210  0.2854 -0.5208
 5808SOL    HW128883   1.671   3.084   8.401  0.5199  0.5084 -0.4780
 5808SOL    HW228884   1.782   3.003   8.440  1.1828  0.0424  1.8585
 5809SOL     OW28885   2.224   4.410   5.871  0.4212 -0.1029  0.4724
 5809SOL    HW128886   2.290   4.342   5.868  1.9941  1.3403  2.1521
 5809SOL    HW228887   2.181   4.383   5.790 -0.2493  0.0944  0.7647
 5810SOL     OW28888   1.395   4.092   5.766 -0.5102  0.1865  0.1049
 5810SOL    HW128889   1.441   4.165   5.806  1.4639 -0.5535 -0.8342
 5810SOL    HW228890   1.462   4.025   5.754 -0.9052 -0.2362  0.2687
 5811SOL     OW28891   4.555   4.118  14.784 -0.3534 -0.9538 -0.5837
 5811SOL    HW128892   4.546   4.183  14.714  2.1741 -2.4292 -2.2517
 5811SOL    HW228893   4.568   4.033  14.742 -0.4210 -1.5400  0.5822
 5812SOL     OW28894   3.253   4.491  12.454  0.5129  0.0408 -0.3441
 5812SOL    HW128895   3.164   4.485  12.419  0.9773 -2.5486 -1.0952
 5812SOL    HW228896   3.244   4.426  12.524 -0.0308 -0.8954 -1.2820
 5813SOL     OW28897   3.762   2.037   7.073 -0.3277 -0.2565  0.3167
 5813SOL    HW128898   3.783   2.046   6.980 -2.6792 -0.3962 -0.2396
 5813SOL    HW228899   3.836   1.983   7.100 -0.9683 -1.0180  0.5519
 5814SOL     OW28900   3.842   3.406   3.356  0.4603 -0.0860 -0.0842
 5814SOL    HW128901   3.906   3.361   3.300  0.1267 -0.5316 -0.1055
 5814SOL    HW228902   3.783   3.332   3.371 -1.3241  1.1354 -1.0553
 5815SOL     OW28903   2.526   2.050   9.592 -0.2477  0.2557  0.1874
 5815SOL    HW128904   2.497   1.994   9.519  1.5160 -0.2066 -0.1765
 5815SOL    HW228905   2.522   1.989   9.666  0.5645  1.5549  1.2957
 5816SOL     OW28906   2.280   3.276   2.433 -0.2342 -0.4547 -0.0523
 5816SOL    HW128907   2.371   3.250   2.417 -0.0793  0.1497 -0.1291
 5816SOL    HW228908   2.254   3.292   2.342  1.3720  1.1734 -0.2110
 5817SOL     OW28909   1.079   2.197   7.063  0.2740 -0.2007  0.3618
 5817SOL    HW128910   1.038   2.110   7.060 -1.6128  0.6405  1.9704
 5817SOL    HW228911   1.160   2.192   7.114 -1.0366  1.7442  2.6310
 5818SOL     OW28912   1.340   3.690   0.801 -0.3827  0.0441  0.1277
 5818SOL    HW128913   1.262   3.699   0.855 -1.1883  1.4179 -1.2679
 5818SOL    HW228914   1.300   3.662   0.719  1.7887 -2.8638  0.0497
 5819SOL     OW28915   0.398   0.934  10.215  0.3275  0.1042 -0.1368
 5819SOL    HW128916   0.333   0.903  10.151  0.4989 -1.3162  0.3802
 5819SOL    HW228917   0.368   0.894  10.296  1.5436 -1.9846 -0.7262
 5820SOL     OW28918   2.228   3.836   5.107 -0.1050 -0.4567 -0.9229
 5820SOL    HW128919   2.132   3.830   5.105 -0.3521  2.6958  0.9850
 5820SOL    HW228920   2.239   3.896   5.033  3.2160  1.3401  0.9995
 5821SOL     OW28921   3.710   2.342   6.130  0.1640 -0.3334 -0.3095
 5821SOL    HW128922   3.670   2.387   6.056  1.8408 -0.7930 -1.4972
 5821SOL    HW228923   3.799   2.351   6.095 -0.2528  1.7295 -0.8367
 5822SOL     OW28924   2.794   3.425   8.636  0.2755  0.2347 -0.1153
 5822SOL    HW128925   2.807   3.353   8.698 -0.6858 -0.3252 -0.5494
 5822SOL    HW228926   2.741   3.489   8.683  0.6851  0.3814  0.1429
 5823SOL     OW28927   3.541   3.612   5.128  0.1203 -0.2293 -0.1092
 5823SOL    HW128928   3.464   3.665   5.151  0.6984  1.0246 -1.0692
 5823SOL    HW228929   3.492   3.532   5.110 -0.2235 -0.1184  0.3104
 5824SOL     OW28930   1.344   1.398   7.061 -0.3421  0.2067  0.3173
 5824SOL    HW128931   1.399   1.473   7.038  0.6409 -0.5921  0.0602
 5824SOL    HW228932   1.383   1.328   7.007 -2.4343  1.1081 -2.3756
 5825SOL     OW28933   1.830   0.246   1.028  0.2275  0.2866 -0.0371
 5825SOL    HW128934   1.845   0.258   1.122 -0.9396  2.4953 -0.1214
 5825SOL    HW228935   1.758   0.183   1.018  1.6321 -1.6999  2.2869
 5826SOL     OW28936   0.673   1.543   5.349  0.2688 -0.0142 -0.3193
 5826SOL    HW128937   0.751   1.525   5.401  0.7189  1.4160 -0.4888
 5826SOL    HW228938   0.695   1.613   5.287 -1.1442  2.3692  1.8413
 5827SOL     OW28939   4.342   4.030   5.357  0.5103  0.0032  0.1252
 5827SOL    HW128940   4.423   4.021   5.409 -0.0127 -1.7767  0.6525
 5827SOL    HW228941   4.310   3.941   5.372  0.4168 -0.1852 -1.2295
 5828SOL     OW28942   3.263   4.490   7.373  0.4968 -0.8407  0.5996
 5828SOL    HW128943   3.345   4.523   7.337  0.8281 -3.5511 -1.1007
 5828SOL    HW228944   3.240   4.449   7.290 -1.2891  0.7106  0.3288
 5829SOL     OW28945   3.638   2.413   4.663  0.4624  0.5023  0.1029
 5829SOL    HW128946   3.606   2.502   4.675  1.1821  0.6339  1.0194
 5829SOL    HW228947   3.705   2.435   4.598 -0.7135  3.0596 -0.2453
 5830SOL     OW28948   1.650   0.044   6.865  0.4070  0.3913  0.6049
 5830SOL    HW128949   1.706   0.037   6.787 -0.7899  1.4936 -0.3581
 5830SOL    HW228950   1.713   0.011   6.929  2.9115 -1.1851 -2.6273
 5831SOL     OW28951   3.017   4.149   7.254  0.2010 -0.2495  0.7493
 5831SOL    HW128952   3.033   4.184   7.341 -2.2431 -1.3702  1.6453
 5831SOL    HW228953   2.923   4.132   7.265  0.3697 -0.9714  1.0711
 5832SOL     OW28954   1.712   4.004   1.739 -0.0843  0.5012  0.1626
 5832SOL    HW128955   1.676   3.937   1.796 -2.6098  1.4231 -0.3519
 5832SOL    HW228956   1.797   4.027   1.778  1.0216  0.6390 -2.3134
 5833SOL     OW28957   1.854   0.025   8.363  0.4718  0.0478 -0.4299
 5833SOL    HW128958   1.817   4.693   8.429  1.7433 -2.8648 -2.2916
 5833SOL    HW228959   1.946   4.725   8.355  0.6787  0.4009  0.7311
 5834SOL     OW28960   2.676   4.707   2.495 -0.2121  0.1992  0.0132
 5834SOL    HW128961   2.638   4.705   2.407  0.1286  2.8624 -0.2035
 5834SOL    HW228962   2.731   4.631   2.476  1.6525  1.1147  1.7724
 5835SOL     OW28963   2.773   3.811   6.264 -0.1279 -0.1143  0.7096
 5835SOL    HW128964   2.806   3.851   6.344 -1.1227  0.8776  0.6236
 5835SOL    HW228965   2.694   3.863   6.251  1.4673  3.0861  4.0331
 5836SOL     OW28966   4.010   2.886  14.509 -0.2280  0.2780  0.0134
 5836SOL    HW128967   4.012   2.806  14.561  0.5623  1.0736  1.2318
 5836SOL    HW228968   3.946   2.874  14.439  0.5530 -0.7250 -0.5087
 5837SOL     OW28969   0.946   2.400   1.997  0.4410  0.0499 -0.2785
 5837SOL    HW128970   1.007   2.333   1.967  2.0437  0.2729  2.4529
 5837SOL    HW228971   1.001   2.478   1.985  1.1208 -0.1040  1.7174
 5838SOL     OW28972   2.468   0.975   0.219  0.4859  0.5335 -0.0876
 5838SOL    HW128973   2.490   1.010   0.305  1.0171  1.5013 -0.6181
 5838SOL    HW228974   2.520   0.895   0.224 -0.9364 -0.5036 -1.8140
 5839SOL     OW28975   2.198   0.412  17.195  0.4677  0.4837 -0.2386
 5839SOL    HW128976   2.115   0.371  17.219  1.1051 -1.1942 -0.9198
 5839SOL    HW228977   2.195   0.504  17.224  1.7192 -0.6854  3.5617
 5840SOL     OW28978   4.680   1.266   1.750 -0.9418 -0.7985 -0.1291
 5840SOL    HW128979   4.686   1.288   1.657  2.6953 -0.1591  0.2571
 5840SOL    HW228980   4.711   1.175   1.748  1.2815 -0.0769  1.5099
 5841SOL     OW28981   1.316   1.794  16.185  0.4618  0.6822 -0.5313
 5841SOL    HW128982   1.342   1.821  16.096  0.8564 -0.0897 -0.6519
 5841SOL    HW228983   1.398   1.771  16.228  0.3754  0.7551 -0.3285
 5842SOL     OW28984   3.828   3.507   2.218  0.5225 -0.6932 -0.1606
 5842SOL    HW128985   3.883   3.508   2.296  0.6555  1.3069 -0.2919
 5842SOL    HW228986   3.762   3.446   2.249 -1.3852  1.9397  0.9027
 5843SOL     OW28987   3.139   3.099   7.740 -0.0076 -0.2246  0.3439
 5843SOL    HW128988   3.050   3.082   7.709  0.0129  0.0525  0.1335
 5843SOL    HW228989   3.132   3.189   7.773 -1.9892  0.3751 -1.7019
 5844SOL     OW28990   2.223   2.953   1.813 -0.0482 -0.0087 -0.2439
 5844SOL    HW128991   2.169   3.019   1.856 -0.6802 -0.4667 -0.3534
 5844SOL    HW228992   2.168   2.926   1.740 -1.0784  2.3027 -0.3006
 5845SOL     OW28993   1.925   2.544   2.213  0.0809  0.7030  0.2836
 5845SOL    HW128994   1.890   2.623   2.255 -2.3297  0.5987 -1.5669
 5845SOL    HW228995   1.994   2.515   2.273 -1.3968 -1.6779  0.8185
 5846SOL     OW28996   2.897   0.702   0.879  0.0686  0.5072 -0.2358
 5846SOL    HW128997   2.815   0.706   0.830 -1.0139 -0.9085  1.4458
 5846SOL    HW228998   2.867   0.659   0.960 -0.1486  0.5956 -0.2715
 5847SOL     OW28999   3.512   2.924  14.393 -0.0845  0.2404 -0.3203
 5847SOL    HW129000   3.594   2.944  14.438 -0.6934  1.0173  0.4415
 5847SOL    HW229001   3.453   2.980  14.443 -0.1192 -1.1040  1.1587
 5848SOL     OW29002   4.669   4.644   0.468 -0.5259 -0.0583  0.0971
 5848SOL    HW129003   4.685   4.652   0.562 -0.3824  0.7641  0.0061
 5848SOL    HW229004   0.025   4.618   0.426 -1.0474  3.2651 -3.0121
 5849SOL     OW29005   3.696   3.025  10.408  0.1804 -0.7235 -0.2592
 5849SOL    HW129006   3.769   2.981  10.365 -0.5660  0.3204 -2.6256
 5849SOL    HW229007   3.726   3.066  10.489 -2.8133  2.1345 -0.5932
 5850SOL     OW29008   2.094   2.992  12.078  0.3389  0.3468  1.1774
 5850SOL    HW129009   2.050   3.005  11.994  0.1313 -0.7526  1.1167
 5850SOL    HW229010   2.188   2.984  12.063 -0.2992 -0.6951 -2.2452
 5851SOL     OW29011   0.977   0.135   0.300  0.4647  0.2353  0.3515
 5851SOL    HW129012   1.067   0.162   0.286  0.5508  0.7017  1.8328
 5851SOL    HW229013   0.993   0.073   0.371  0.2289  0.3535  0.5062
 5852SOL     OW29014   3.272   2.641   6.686  0.6335 -0.2059 -0.4130
 5852SOL    HW129015   3.247   2.729   6.714 -0.0800 -0.1379 -1.2678
 5852SOL    HW229016   3.354   2.629   6.734  0.4937 -0.8802 -0.3458
 5853SOL     OW29017   1.255   3.016   9.210 -0.1897 -0.6488 -0.9132
 5853SOL    HW129018   1.180   3.013   9.269  1.4437  3.8722  1.3464
 5853SOL    HW229019   1.308   2.938   9.226 -0.0042 -0.8991 -2.7384
 5854SOL     OW29020   3.657   4.641  16.386  0.0452  0.0285  0.5947
 5854SOL    HW129021   3.748   4.613  16.391 -0.6189 -2.3407 -0.4825
 5854SOL    HW229022   3.617   4.575  16.443  0.7030 -2.2645 -1.5934
 5855SOL     OW29023   2.591   0.907   2.828  0.0474 -0.1732  0.1900
 5855SOL    HW129024   2.580   0.906   2.733 -0.2406 -0.2216  0.2253
 5855SOL    HW229025   2.576   0.814   2.843 -2.0389 -0.0370 -0.9759
 5856SOL     OW29026   1.842   3.771   0.100  0.1063 -0.5584 -0.1181
 5856SOL    HW129027   1.838   3.708   0.172  2.0300  1.2693  1.5650
 5856SOL    HW229028   1.799   3.844   0.143  0.5491  0.3535 -1.2321
 5857SOL     OW29029   3.636   4.709   5.708 -0.2596  0.1981 -0.1646
 5857SOL    HW129030   3.606   4.707   5.617 -1.1624 -1.6750  0.1705
 5857SOL    HW229031   3.553   4.715   5.754 -1.1645 -2.9568 -1.4145
 5858SOL     OW29032   0.148   4.146   6.405 -0.4533 -0.0960 -0.4030
 5858SOL    HW129033   0.063   4.104   6.414 -1.9349  3.1653  0.9496
 5858SOL    HW229034   0.144   4.214   6.473 -0.5557 -1.6579  1.1363
 5859SOL     OW29035   1.960   2.775   9.416  0.0677  0.0349 -0.0239
 5859SOL    HW129036   1.943   2.733   9.332  0.2340  0.7985 -0.4320
 5859SOL    HW229037   1.917   2.858   9.399  0.8939  0.2305 -1.1692
 5860SOL     OW29038   0.823   0.505   5.669 -0.3075 -0.1493 -0.4691
 5860SOL    HW129039   0.781   0.465   5.745  2.1089  0.9977  1.4720
 5860SOL    HW229040   0.744   0.499   5.615 -0.5170 -0.6264 -0.1094
 5861SOL     OW29041   0.412   4.705   8.791  0.1551 -0.1951  0.2401
 5861SOL    HW129042   0.417   0.044   8.721  0.3415 -1.7495 -1.2161
 5861SOL    HW229043   0.502   4.706   8.824  1.1601 -0.3573 -2.4585
 5862SOL     OW29044   1.362   4.517   2.221  0.2266 -0.3586 -0.7290
 5862SOL    HW129045   1.400   4.543   2.304  0.5339 -1.1985 -0.6049
 5862SOL    HW229046   1.289   4.579   2.223  1.3461  0.9439 -0.3599
 5863SOL     OW29047   3.960   0.418   4.081 -0.2792 -0.1709  0.2181
 5863SOL    HW129048   4.042   0.376   4.057 -0.1917  0.0561  0.1214
 5863SOL    HW229049   3.940   0.381   4.167  1.5125  2.5911  1.8100
 5864SOL     OW29050   1.089   0.352   5.691 -0.1066  0.3823  0.3666
 5864SOL    HW129051   1.006   0.388   5.661 -0.9314 -0.8921  1.0902
 5864SOL    HW229052   1.059   0.309   5.772  1.4829  0.7446  1.1362
 5865SOL     OW29053   4.190   3.867   2.162 -0.0624 -0.0293  0.1026
 5865SOL    HW129054   4.110   3.914   2.186  0.6986 -0.6189  3.9202
 5865SOL    HW229055   4.240   3.862   2.244  0.0624 -0.6654 -0.0138
 5866SOL     OW29056   4.246   3.738   8.083 -0.5795  0.1114 -0.1267
 5866SOL    HW129057   4.323   3.790   8.060  0.5645 -0.0847  3.2363
 5866SOL    HW229058   4.274   3.702   8.167  1.6325  2.7016  0.2383
 5867SOL     OW29059   0.898   4.178   5.614 -0.0626 -0.6681 -0.1133
 5867SOL    HW129060   0.991   4.163   5.630  0.5890  2.2179 -1.2633
 5867SOL    HW229061   0.874   4.265   5.645  0.4937 -0.8723  0.8782
 5868SOL     OW29062   2.884   3.342   2.054  0.3397 -0.1481 -0.2955
 5868SOL    HW129063   2.812   3.281   2.070  1.7253 -1.3114  1.4500
 5868SOL    HW229064   2.845   3.415   2.004  0.5584  1.6661  2.1998
 5869SOL     OW29065   0.981   3.776   5.400  0.1713 -0.1485 -0.0225
 5869SOL    HW129066   0.907   3.752   5.456 -0.4679 -0.8752 -1.1914
 5869SOL    HW229067   0.985   3.697   5.347 -1.3333 -0.1842 -0.0824
 5870SOL     OW29068   0.291   0.994   7.122  0.1309 -0.0761  0.2581
 5870SOL    HW129069   0.343   0.915   7.135 -1.2427 -0.8201  1.2984
 5870SOL    HW229070   0.356   1.062   7.136  0.8250 -0.8873  0.9675
 5871SOL     OW29071   2.990   1.977   5.385 -0.1098  0.3409  0.1077
 5871SOL    HW129072   3.046   1.999   5.311  1.0254 -0.3209  0.7843
 5871SOL    HW229073   3.050   1.985   5.459 -2.1904 -0.4411  1.8930
 5872SOL     OW29074   1.107   0.276   7.906  0.4803  0.8469 -0.0008
 5872SOL    HW129075   1.119   0.247   7.815 -2.5722 -0.8534  0.0996
 5872SOL    HW229076   1.077   0.190   7.936 -3.0164  1.7899 -0.7222
 5873SOL     OW29077   1.657   3.865   7.206  0.5391  0.2744  0.0546
 5873SOL    HW129078   1.751   3.870   7.222  0.3428  0.3254  1.1732
 5873SOL    HW229079   1.641   3.958   7.218 -1.0699 -0.3218  2.4623
 5874SOL     OW29080   4.048   0.349  14.913  0.6141 -0.3297  0.0041
 5874SOL    HW129081   3.986   0.369  14.843  0.3500 -1.4290 -0.0774
 5874SOL    HW229082   4.128   0.340  14.861  1.2264  0.3868  0.8105
 5875SOL     OW29083   0.194   3.077   3.756 -0.5016  0.2536 -0.5474
 5875SOL    HW129084   0.147   3.116   3.682  1.1807  0.0411 -1.7316
 5875SOL    HW229085   0.260   3.145   3.764  2.2245 -2.3096 -1.2372
 5876SOL     OW29086   0.332   2.338   9.408  0.0216 -0.2628 -0.0990
 5876SOL    HW129087   0.293   2.392   9.339 -0.1617  0.5961  0.6797
 5876SOL    HW229088   0.260   2.281   9.434 -0.3853  0.2918 -0.0200
 5877SOL     OW29089   2.596   3.482   1.988  0.1733  0.1001  0.0425
 5877SOL    HW129090   2.522   3.481   1.927  3.0895  2.0273 -3.5311
 5877SOL    HW229091   2.664   3.535   1.946  0.0256  0.1668 -0.1116
 5878SOL     OW29092   1.272   3.112  17.251  0.3754  0.2154  0.4232
 5878SOL    HW129093   1.263   3.025  17.291  0.1756 -0.3277 -0.8097
 5878SOL    HW229094   1.234   3.169  17.318  0.0549 -0.3889  0.7499
 5879SOL     OW29095   4.136   2.352   5.320  0.1901 -0.0482 -0.1923
 5879SOL    HW129096   4.208   2.332   5.261 -1.7410  0.0143 -2.5442
 5879SOL    HW229097   4.113   2.444   5.303 -0.8795 -0.2247  0.3119
 5880SOL     OW29098   4.083   1.172   8.866  0.4599 -0.2575 -0.3316
 5880SOL    HW129099   4.157   1.231   8.877  0.6169 -0.6032  0.4725
 5880SOL    HW229100   4.126   1.089   8.844 -0.3496 -0.6319 -0.5221
 5881SOL     OW29101   1.141   2.913  14.078 -0.2178  0.1872 -0.1907
 5881SOL    HW129102   1.097   2.874  14.003  0.7551 -0.9674 -0.1756
 5881SOL    HW229103   1.148   3.004  14.050 -1.1482 -0.0559 -1.1760
 5882SOL     OW29104   3.166   2.159  14.124 -0.1995 -0.1364  0.5817
 5882SOL    HW129105   3.085   2.183  14.078  0.5656 -0.1223 -0.7764
 5882SOL    HW229106   3.132   2.115  14.202  1.2789 -1.8188  0.2672
 5883SOL     OW29107   1.005   1.420   3.026 -0.4246 -0.0249 -0.0576
 5883SOL    HW129108   0.971   1.439   2.938 -0.4648 -0.3679 -0.1185
 5883SOL    HW229109   1.031   1.329   3.011  1.7789  0.1712  2.7208
 5884SOL     OW29110   0.689   1.127   3.446 -0.1658  0.1300 -0.2009
 5884SOL    HW129111   0.658   1.212   3.414  1.7237  0.8861 -0.0409
 5884SOL    HW229112   0.769   1.131   3.394 -0.4586 -2.4408 -0.8220
 5885SOL     OW29113   3.064   1.617   2.277  0.2635 -0.1111  0.4645
 5885SOL    HW129114   2.995   1.636   2.340  0.2945  2.7845 -0.3858
 5885SOL    HW229115   3.146   1.653   2.312  0.7131 -1.1621  0.5163
 5886SOL     OW29116   2.299   2.882  15.459 -0.2576 -0.3410  0.3101
 5886SOL    HW129117   2.301   2.977  15.447  2.5192 -0.6604 -1.7695
 5886SOL    HW229118   2.297   2.859  15.366 -2.5874 -1.2833  0.5991
 5887SOL     OW29119   4.249   0.884   4.585 -0.3036 -0.5654 -0.8114
 5887SOL    HW129120   4.264   0.859   4.676 -1.6267 -0.5328 -0.5713
 5887SOL    HW229121   4.170   0.834   4.566 -1.5523  1.5264 -1.2145
 5888SOL     OW29122   4.367   3.820  15.597  0.1346  0.1361 -0.6698
 5888SOL    HW129123   4.405   3.907  15.592 -0.6986  0.3903 -2.4395
 5888SOL    HW229124   4.274   3.841  15.606 -0.2878 -1.7194 -0.5381
 5889SOL     OW29125   3.180   1.600  12.784  0.0562  0.1917 -0.0115
 5889SOL    HW129126   3.220   1.588  12.698 -0.4735 -1.5671 -0.0149
 5889SOL    HW229127   3.252   1.631  12.840 -1.3393  0.6907  1.5264
 5890SOL     OW29128   3.352   2.956   1.614  0.6124  0.5984 -0.4806
 5890SOL    HW129129   3.314   3.034   1.574  2.0505  0.3768 -2.2988
 5890SOL    HW229130   3.309   2.957   1.699  1.4504  0.9119 -0.0599
 5891SOL     OW29131   4.007   2.824   6.576 -0.4127 -0.0318  0.7189
 5891SOL    HW129132   4.067   2.792   6.509 -2.0103  1.6050 -1.5074
 5891SOL    HW229133   3.932   2.769   6.553  0.1197 -0.4724  0.0414
 5892SOL     OW29134   3.607   1.762   5.736 -0.6229  0.7481 -0.0016
 5892SOL    HW129135   3.629   1.826   5.803 -0.6610 -1.8283  2.4552
 5892SOL    HW229136   3.598   1.819   5.659  0.0288  1.0539  0.1454
 5893SOL     OW29137   3.030   3.199   6.429 -0.0673  0.0650 -0.2143
 5893SOL    HW129138   3.000   3.267   6.368  3.1266  1.2281 -0.4649
 5893SOL    HW229139   3.123   3.221   6.428 -0.0482 -0.0339 -0.5688
 5894SOL     OW29140   2.995   2.900   0.191  0.1650 -0.2310  0.2741
 5894SOL    HW129141   3.045   2.981   0.193 -0.5658  0.2054  0.7710
 5894SOL    HW229142   2.911   2.943   0.207  0.6827  0.9727 -0.2610
 5895SOL     OW29143   3.193   0.075   4.067 -0.1542  0.2765  0.1210
 5895SOL    HW129144   3.280   0.045   4.095  0.0109  0.4907 -0.1637
 5895SOL    HW229145   3.188   0.039   3.979  0.8537  0.6094 -0.0716
 5896SOL     OW29146   1.808   4.287  15.632 -0.1970  0.1364  0.0322
 5896SOL    HW129147   1.715   4.297  15.614 -0.4908  1.4930  2.3470
 5896SOL    HW229148   1.832   4.207  15.586 -0.2326  1.5852 -2.5258
 5897SOL     OW29149   2.746   0.740   7.175  0.3986  0.3781 -0.1620
 5897SOL    HW129150   2.797   0.661   7.157  0.5584 -0.1534  2.6218
 5897SOL    HW229151   2.764   0.748   7.269 -0.2092 -0.2720  0.0162
 5898SOL     OW29152   2.406   3.717   6.179  0.5072  0.3330 -0.7503
 5898SOL    HW129153   2.451   3.663   6.244  2.6477  0.9814 -1.6956
 5898SOL    HW229154   2.462   3.789   6.149 -0.3959 -0.0035 -3.2304
 5899SOL     OW29155   1.675   1.388   7.947  0.1537  0.6113  0.3403
 5899SOL    HW129156   1.707   1.318   8.005  1.2831  0.7126 -0.1507
 5899SOL    HW229157   1.693   1.343   7.865  3.0783 -0.9977  1.8642
 5900SOL     OW29158   2.778   4.118   5.618  0.1634 -0.2843  0.1071
 5900SOL    HW129159   2.812   4.197   5.575  2.8242 -2.9898 -2.7646
 5900SOL    HW229160   2.703   4.157   5.663  0.4571  0.2595  0.1243
 5901SOL     OW29161   3.484   4.106   6.017  0.4066 -0.7034 -0.0404
 5901SOL    HW129162   3.461   4.036   5.956  0.5220 -0.8688  0.1050
 5901SOL    HW229163   3.442   4.179   5.971 -1.4374 -1.7950 -0.1173
 5902SOL     OW29164   1.392   2.194   3.834 -0.3346  0.2557  0.6831
 5902SOL    HW129165   1.319   2.223   3.780 -1.1491 -2.6222  0.2198
 5902SOL    HW229166   1.388   2.275   3.885  2.5811  0.4458  0.6300
 5903SOL     OW29167   0.876   0.969   6.800 -0.2036  0.0396  0.0754
 5903SOL    HW129168   0.930   0.901   6.761  0.4950  0.8288 -0.3292
 5903SOL    HW229169   0.945   1.031   6.822 -1.3091  0.9230  1.0668
 5904SOL     OW29170   2.561   0.696   4.880  0.0233  0.0452 -0.1725
 5904SOL    HW129171   2.652   0.711   4.855  0.2604 -1.4432 -0.2266
 5904SOL    HW229172   2.541   0.630   4.813 -1.4895  0.7121 -0.3637
 5905SOL     OW29173   3.938   1.916   5.708 -0.0100  0.5136  0.1375
 5905SOL    HW129174   4.010   1.902   5.769 -1.7254 -0.5734  1.8952
 5905SOL    HW229175   3.864   1.928   5.768 -1.6547 -3.3822 -1.0983
 5906SOL     OW29176   1.546   0.584   4.881 -0.3651  0.4198  0.0381
 5906SOL    HW129177   1.469   0.635   4.906 -0.9496 -0.3433 -0.2186
 5906SOL    HW229178   1.612   0.651   4.863 -0.8395  0.3025 -2.0883
 5907SOL     OW29179   2.789   0.177   6.676 -0.2081  0.0980 -0.1940
 5907SOL    HW129180   2.710   0.193   6.625  0.0751  3.3993  0.3819
 5907SOL    HW229181   2.843   0.255   6.666 -0.6719  0.6256  1.3212
 5908SOL     OW29182   2.100   0.442  10.392 -0.2574  0.1124  0.0770
 5908SOL    HW129183   2.177   0.499  10.388  3.1827 -4.4669 -0.2599
 5908SOL    HW229184   2.027   0.504  10.392  0.2881  0.7510  1.1827
 5909SOL     OW29185   3.595   3.808  17.202 -0.1032 -0.4418  0.1342
 5909SOL    HW129186   3.519   3.766  17.161 -0.4236 -0.8486  1.1720
 5909SOL    HW229187   3.542   3.868  17.254 -1.1161 -2.7029  1.6906
 5910SOL     OW29188   1.495   4.152   7.524  0.1668  0.5151  0.3636
 5910SOL    HW129189   1.405   4.127   7.546  0.6927 -0.0312  1.8818
 5910SOL    HW229190   1.530   4.184   7.607  1.0055 -0.5254  0.4052
 5911SOL     OW29191   3.163   1.106  15.515 -0.0342 -0.0363 -0.4984
 5911SOL    HW129192   3.256   1.129  15.512 -0.6261  2.5659  0.3524
 5911SOL    HW229193   3.131   1.158  15.589  0.4396 -0.5463  0.0749
 5912SOL     OW29194   1.280   3.787  17.567  0.7534  0.1611 -0.4769
 5912SOL    HW129195   1.191   3.822  17.555 -0.3761 -1.5830  2.7332
 5912SOL    HW229196   1.298   3.744  17.484 -1.9109  0.7448 -1.3491
 5913SOL     OW29197   1.357   4.178   8.661 -0.1139 -0.3578 -0.1066
 5913SOL    HW129198   1.366   4.085   8.683 -1.5179 -0.6847 -0.9490
 5913SOL    HW229199   1.266   4.184   8.632 -1.0128  0.0585  2.8878
 5914SOL     OW29200   2.117   0.105   6.217  0.7523  0.0754 -0.0529
 5914SOL    HW129201   2.100   0.032   6.157  0.4217 -0.6211  0.8981
 5914SOL    HW229202   2.105   0.181   6.160  0.3368  0.8359  1.0404
 5915SOL     OW29203   1.653   4.092   5.453  0.4775  0.6966  0.3771
 5915SOL    HW129204   1.600   4.113   5.376  3.1422  1.2465 -1.2984
 5915SOL    HW229205   1.629   4.158   5.519  1.5467  1.1532  0.3026
 5916SOL     OW29206   4.220   2.576   8.664 -0.6253  0.3857  0.3174
 5916SOL    HW129207   4.276   2.649   8.691  0.7588 -0.8254  0.7341
 5916SOL    HW229208   4.229   2.511   8.734  2.9294 -1.6548 -2.0808
 5917SOL     OW29209   0.287   2.298  14.681  0.0198 -0.2724 -0.6091
 5917SOL    HW129210   0.366   2.351  14.687 -0.0294 -0.2949  0.2448
 5917SOL    HW229211   0.241   2.343  14.752 -1.4486 -0.7391 -1.2484
 5918SOL     OW29212   2.523   1.119  11.198 -0.3335 -0.2887  0.1589
 5918SOL    HW129213   2.557   1.041  11.153 -0.2726 -0.5841  0.7218
 5918SOL    HW229214   2.601   1.136  11.250 -0.6676  0.9917  0.2270
 5919SOL     OW29215   2.661   2.596  17.701 -0.4853 -0.6628 -0.0959
 5919SOL    HW129216   2.752   2.566   0.001 -1.1135 -2.7255 -1.1395
 5919SOL    HW229217   2.627   2.560  17.619 -2.7610 -2.4911  1.6682
 5920SOL     OW29218   1.517   2.474   4.720 -0.3631  0.1264  0.3929
 5920SOL    HW129219   1.575   2.423   4.662 -0.2459  1.0769 -0.3295
 5920SOL    HW229220   1.493   2.408   4.785 -1.3237  0.0947  0.0043
 5921SOL     OW29221   2.036   4.265   1.793 -0.3835 -0.2766 -0.0637
 5921SOL    HW129222   2.093   4.322   1.846 -2.2904  3.1327 -1.6742
 5921SOL    HW229223   2.067   4.283   1.704 -1.2199  0.4702 -0.2042
 5922SOL     OW29224   4.193   3.642   5.656  0.0384  0.2879  0.2970
 5922SOL    HW129225   4.212   3.681   5.741  0.9459 -2.5881  1.4116
 5922SOL    HW229226   4.282   3.644   5.620 -1.5043  1.0054 -3.4496
 5923SOL     OW29227   1.886   0.444   3.499 -0.2525  0.0359 -0.4918
 5923SOL    HW129228   1.821   0.514   3.492 -0.6771 -0.1529  1.6115
 5923SOL    HW229229   1.827   0.374   3.471 -0.4808  0.0283  0.0116
 5924SOL     OW29230   3.473   3.947   7.127  0.6710  0.2435  0.8807
 5924SOL    HW129231   3.418   3.871   7.147  1.1033 -0.8587 -2.1818
 5924SOL    HW229232   3.554   3.896   7.128  0.4060 -0.1863 -2.2977
 5925SOL     OW29233   1.363   1.620  11.388  0.2120 -0.7379 -0.2008
 5925SOL    HW129234   1.305   1.661  11.452  0.9158  1.1534 -0.7969
 5925SOL    HW229235   1.308   1.601  11.312 -0.5406  1.1946 -0.1260
 5926SOL     OW29236   4.184   1.283   3.938  0.0163  0.1160 -0.3398
 5926SOL    HW129237   4.114   1.246   3.991 -0.3372 -0.7594 -1.4032
 5926SOL    HW229238   4.182   1.376   3.960  0.8824 -0.1710  0.9664
 5927SOL     OW29239   1.403   1.161  16.155 -0.2353 -0.3574 -0.2025
 5927SOL    HW129240   1.439   1.161  16.244 -0.0703  2.2930 -0.2683
 5927SOL    HW229241   1.310   1.184  16.153 -0.2057 -0.1755  0.6650
 5928SOL     OW29242   3.396   3.778  13.767  0.1983 -1.0557  0.3849
 5928SOL    HW129243   3.385   3.737  13.681 -1.1463  1.6937 -0.7636
 5928SOL    HW229244   3.328   3.846  13.768 -0.8550 -2.0797 -1.8792
 5929SOL     OW29245   3.885   3.791  14.483  0.1648  0.4175 -0.4367
 5929SOL    HW129246   3.823   3.733  14.438 -0.5494  0.9728 -0.1788
 5929SOL    HW229247   3.859   3.875  14.445  0.4554  0.1018 -1.3247
 5930SOL     OW29248   0.205   4.355   6.573  0.1061  0.1049  1.0634
 5930SOL    HW129249   0.238   4.405   6.499 -1.1546  1.8673  1.6836
 5930SOL    HW229250   0.285   4.314   6.604  0.2885 -2.0153 -2.2375
 5931SOL     OW29251   2.966   1.890   3.893  0.5671 -1.0138 -0.0365
 5931SOL    HW129252   3.049   1.843   3.894  0.1155 -1.7938  0.8046
 5931SOL    HW229253   2.964   1.940   3.975  2.0916  0.8869 -1.1607
 5932SOL     OW29254   2.593   2.388   2.813  0.2400  0.2693 -0.4831
 5932SOL    HW129255   2.508   2.396   2.856 -0.1716  0.8283 -1.4211
 5932SOL    HW229256   2.557   2.360   2.729  0.5548 -1.2916 -0.1103
 5933SOL     OW29257   4.425   3.705   5.535 -0.3872 -0.3676 -0.3641
 5933SOL    HW129258   4.516   3.681   5.550  0.1856  0.8099 -1.9547
 5933SOL    HW229259   4.425   3.701   5.439 -1.5991  0.5287 -0.3953
 5934SOL     OW29260   1.476   0.832   7.153  0.4263 -0.2981 -0.3039
 5934SOL    HW129261   1.414   0.854   7.084 -1.9093 -0.2619  1.7938
 5934SOL    HW229262   1.550   0.876   7.112 -0.7794 -0.7962 -3.0488
 5935SOL     OW29263   4.595   4.606   2.084  0.2942  0.1070 -0.2077
 5935SOL    HW129264   4.580   4.681   2.026  1.7640  0.1983 -0.4720
 5935SOL    HW229265   4.594   4.652   2.169  1.1158  0.3586 -0.3373
 5936SOL     OW29266   0.094   0.251   5.115  0.2744 -0.5660 -0.0484
 5936SOL    HW129267   0.140   0.316   5.061 -0.9161  0.7019  0.4735
 5936SOL    HW229268   0.029   0.303   5.161 -0.1147 -2.3994  1.4383
 5937SOL     OW29269   4.337   3.109   1.802  0.1306 -0.2273 -0.1557
 5937SOL    HW129270   4.287   3.114   1.884  1.3460  0.5761  0.5437
 5937SOL    HW229271   4.404   3.177   1.806  1.3343 -1.4945  1.7101
 5938SOL     OW29272   3.718   3.344   6.622 -0.2423 -0.1272 -0.3291
 5938SOL    HW129273   3.639   3.333   6.676  0.5009 -1.8799  0.3916
 5938SOL    HW229274   3.777   3.273   6.643 -0.1234 -0.4092 -1.6178
 5939SOL     OW29275   4.693   3.860  10.866  0.2994 -0.3151  0.0497
 5939SOL    HW129276   0.036   3.796  10.887 -1.7894 -1.1930  4.2431
 5939SOL    HW229277   4.663   3.881  10.954  0.6618 -0.7611  0.2788
 5940SOL     OW29278   4.057   4.205   7.538 -0.5444  0.4414  0.8189
 5940SOL    HW129279   3.975   4.157   7.552 -0.0806  0.1447  2.5018
 5940SOL    HW229280   4.122   4.140   7.564 -0.7403 -0.1024 -0.0573
 5941SOL     OW29281   1.952   0.068   6.445 -0.1314  0.2975 -0.2455
 5941SOL    HW129282   1.993   4.708   6.455 -3.6465 -1.5977 -2.2034
 5941SOL    HW229283   1.987   0.098   6.361  2.1139  0.1555  0.6185
 5942SOL     OW29284   4.612   2.819  13.477  0.5545 -0.1736 -0.0974
 5942SOL    HW129285   4.676   2.814  13.405  0.4517  1.3414 -0.3062
 5942SOL    HW229286   4.637   2.905  13.511 -2.5238 -0.5964  3.1977
 5943SOL     OW29287   0.345   2.530  11.954 -0.4312 -0.3452  0.2502
 5943SOL    HW129288   0.291   2.451  11.946  0.5512 -1.1471  1.5098
 5943SOL    HW229289   0.432   2.500  11.979  0.2614  2.0009  0.6531
 5944SOL     OW29290   4.145   1.400   5.956 -0.3206 -0.3273  0.3091
 5944SOL    HW129291   4.116   1.333   5.895  0.5108 -0.4714  0.0836
 5944SOL    HW229292   4.161   1.484   5.913  1.1440 -0.4099  0.6846
 5945SOL     OW29293   3.036   1.670   5.702  0.5543  0.0644  0.1732
 5945SOL    HW129294   2.986   1.697   5.778  0.4310 -1.1272  0.5142
 5945SOL    HW229295   3.019   1.743   5.643  2.1258 -0.2467 -0.6704
 5946SOL     OW29296   2.053   1.870  15.790 -0.0974 -0.0224  0.5542
 5946SOL    HW129297   2.003   1.932  15.844 -0.6791 -0.7871  0.8978
 5946SOL    HW229298   2.045   1.908  15.702 -0.6238  0.3101  0.7423
 5947SOL     OW29299   2.983   4.594   3.415 -0.0858 -0.1931 -0.0450
 5947SOL    HW129300   2.979   4.531   3.342  1.4320 -2.6738  2.0158
 5947SOL    HW229301   2.889   4.599   3.435 -0.4528 -0.2792 -1.7393
 5948SOL     OW29302   0.472   0.988  13.635  0.0531 -0.7180 -0.2993
 5948SOL    HW129303   0.516   1.072  13.644 -0.0207 -0.7541  0.4491
 5948SOL    HW229304   0.483   0.971  13.542  1.0305 -0.5715 -0.2078
 5949SOL     OW29305   4.301   1.993  15.038  0.0554  0.3196 -0.2644
 5949SOL    HW129306   4.366   2.049  14.996  0.8737 -1.9969 -2.0378
 5949SOL    HW229307   4.287   2.024  15.128 -0.1177  1.3967 -0.6595
 5950SOL     OW29308   3.686   0.571   5.432 -0.7699 -0.1684  0.2578
 5950SOL    HW129309   3.771   0.599   5.469 -0.7354 -0.0341  0.0759
 5950SOL    HW229310   3.702   0.564   5.338  3.4528 -0.9448  1.0216
 5951SOL     OW29311   2.994   0.326  11.332 -0.0444 -0.4229  0.1584
 5951SOL    HW129312   3.056   0.274  11.383 -2.4715 -1.4655  2.0535
 5951SOL    HW229313   3.034   0.412  11.341 -0.8759  0.1790 -1.8482
 5952SOL     OW29314   4.073   2.956  12.809  0.3902 -0.2434 -0.3490
 5952SOL    HW129315   4.099   2.878  12.858 -0.1634 -0.4288 -0.3558
 5952SOL    HW229316   3.997   2.933  12.755  1.6180 -0.7112 -1.9148
 5953SOL     OW29317   4.506   1.739   8.595 -0.0544  0.3151  0.0421
 5953SOL    HW129318   4.466   1.652   8.589 -2.3036  1.2477  1.7883
 5953SOL    HW229319   4.422   1.784   8.594 -0.9337 -1.3172  1.3915
 5954SOL     OW29320   0.227   3.881   4.684  0.5696 -0.2132  0.2052
 5954SOL    HW129321   0.228   3.805   4.627  1.5456  1.2378 -1.7059
 5954SOL    HW229322   0.229   3.839   4.770  0.0062  3.1946  1.8806
 5955SOL     OW29323   1.129   1.430   5.291 -0.4249  0.1412  0.2390
 5955SOL    HW129324   1.046   1.383   5.299  0.5091 -1.3239  1.3881
 5955SOL    HW229325   1.190   1.362   5.321  1.0772  2.2997  2.0964
 5956SOL     OW29326   4.558   2.738   7.389 -0.5131 -0.0610  0.3280
 5956SOL    HW129327   4.634   2.684   7.411 -1.4868 -1.8450 -0.7421
 5956SOL    HW229328   4.515   2.679   7.327 -0.0859  1.4374 -1.3675
 5957SOL     OW29329   0.806   2.725   4.346  0.5779 -0.1816  0.1341
 5957SOL    HW129330   0.809   2.685   4.433 -0.1831  1.4348  0.8860
 5957SOL    HW229331   0.864   2.798   4.367  1.6160 -0.9461 -0.0839
 5958SOL     OW29332   1.640   2.765   8.947  0.3404 -0.2327 -0.4099
 5958SOL    HW129333   1.637   2.777   8.852  0.8859 -0.8593 -0.5036
 5958SOL    HW229334   1.550   2.746   8.974 -0.1320  0.8493 -1.2567
 5959SOL     OW29335   0.794   1.387   6.867  0.0486  0.6440 -0.4117
 5959SOL    HW129336   0.881   1.416   6.891  0.2120  1.4787 -2.0499
 5959SOL    HW229337   0.792   1.388   6.771  0.7889 -0.2719 -0.4412
 5960SOL     OW29338   2.438   2.627   2.150  0.4202  0.0274  0.1781
 5960SOL    HW129339   2.530   2.605   2.164  0.8040  2.3232  1.3175
 5960SOL    HW229340   2.415   2.535   2.160 -0.8180  0.2397 -0.7090
 5961SOL     OW29341   0.775   0.314   4.322  0.6331 -0.2160 -0.1664
 5961SOL    HW129342   0.697   0.262   4.337 -0.1671  0.4330 -2.0125
 5961SOL    HW229343   0.820   0.266   4.252 -0.2113 -1.0819 -0.1040
 5962SOL     OW29344   0.445   2.875   2.314  0.0179  1.0199 -0.1000
 5962SOL    HW129345   0.531   2.877   2.272  0.5364 -1.9826  0.8403
 5962SOL    HW229346   0.420   2.955   2.268 -1.1014  0.8123  0.1525
 5963SOL     OW29347   0.152   1.634   8.879 -0.6220  0.2419 -0.7399
 5963SOL    HW129348   0.122   1.723   8.894  0.9674  0.0328  3.6237
 5963SOL    HW229349   0.226   1.653   8.822  0.3512 -0.6757  0.2061
 5964SOL     OW29350   0.391   3.215   5.779 -0.3895  0.0837 -0.0881
 5964SOL    HW129351   0.374   3.309   5.788  2.5251  0.6067 -0.2376
 5964SOL    HW229352   0.301   3.189   5.801  0.5814 -1.7354  1.6906
 5965SOL     OW29353   3.754   3.521   5.260  0.4149  0.1564 -0.3333
 5965SOL    HW129354   3.785   3.607   5.289  0.7637 -1.2892  3.5469
 5965SOL    HW229355   3.674   3.550   5.217 -0.3308  1.8705  2.2238
 5966SOL     OW29356   2.479   1.257   3.819  0.6048  0.0051 -0.0320
 5966SOL    HW129357   2.421   1.307   3.876 -0.1087 -1.4982  0.5326
 5966SOL    HW229358   2.413   1.204   3.775 -0.1270  0.5275  0.4469
 5967SOL     OW29359   2.976   1.204   6.893  0.2571  0.2657  0.3545
 5967SOL    HW129360   3.042   1.238   6.833 -0.4850  0.3242 -0.4239
 5967SOL    HW229361   3.032   1.214   6.971  1.8917  0.2682 -0.8140
 5968SOL     OW29362   3.536   1.913   3.363 -0.1163  0.1099  0.0111
 5968SOL    HW129363   3.600   1.854   3.324 -1.1263 -0.7044 -0.4112
 5968SOL    HW229364   3.595   1.967   3.416  0.1052  0.2026 -0.3289
 5969SOL     OW29365   2.114   4.605   4.316 -0.3947  0.6895 -0.5270
 5969SOL    HW129366   2.132   4.534   4.378  0.8967  2.1508  0.7771
 5969SOL    HW229367   2.018   4.611   4.314 -0.3314  1.8479 -0.0531
 5970SOL     OW29368   4.069   0.486  12.458  0.0569  0.2553 -0.5614
 5970SOL    HW129369   4.037   0.515  12.544 -0.8094 -1.7621 -0.2169
 5970SOL    HW229370   3.985   0.451  12.428  0.5447 -0.9846 -0.4802
 5971SOL     OW29371   4.181   0.699   5.623 -0.0264 -0.2736 -0.5416
 5971SOL    HW129372   4.262   0.692   5.573 -0.8420 -1.2253 -1.7413
 5971SOL    HW229373   4.151   0.787   5.599 -1.9827 -0.6624  0.4527
 5972SOL     OW29374   2.179   1.872   9.325 -0.1661 -0.4976  0.1017
 5972SOL    HW129375   2.191   1.779   9.305 -2.6731 -0.4948 -1.4559
 5972SOL    HW229376   2.084   1.877   9.326 -0.3399 -3.6040 -0.1076
 5973SOL     OW29377   3.102   4.517   4.052  0.0206 -0.3754  0.0458
 5973SOL    HW129378   3.196   4.512   4.069  0.1091  0.2469 -0.2568
 5973SOL    HW229379   3.074   4.502   4.143  1.1627 -1.2932  0.2497
 5974SOL     OW29380   3.274   0.233  16.718  0.2118 -0.2790 -0.5446
 5974SOL    HW129381   3.340   0.187  16.665  1.6941 -0.1336  1.1349
 5974SOL    HW229382   3.277   0.186  16.802  1.2584 -2.4102 -1.7674
 5975SOL     OW29383   3.842   2.737   9.218  0.2469  0.1788  0.3127
 5975SOL    HW129384   3.798   2.655   9.240  0.6017  0.5435  2.3449
 5975SOL    HW229385   3.786   2.775   9.151  1.6631  2.3972  0.3936
 5976SOL     OW29386   3.739   1.633   8.950  0.5228 -0.0876 -0.0256
 5976SOL    HW129387   3.654   1.629   8.908  0.9195 -0.0747 -0.8324
 5976SOL    HW229388   3.752   1.542   8.978  1.5194  0.8710  2.7036
 5977SOL     OW29389   3.523   4.294   7.829 -0.4829 -0.5553  0.5010
 5977SOL    HW129390   3.568   4.296   7.745 -0.7825  2.1395  0.4212
 5977SOL    HW229391   3.575   4.232   7.881  1.2611 -0.5275 -1.1996
 5978SOL     OW29392   2.793   2.204   5.039  0.4197 -0.2015  0.2662
 5978SOL    HW129393   2.712   2.251   5.015 -0.3781 -2.4142 -1.3477
 5978SOL    HW229394   2.757   2.173   5.122 -0.8825 -0.0500 -0.2429
 5979SOL     OW29395   4.127   0.287   8.667 -0.1362 -0.2109  0.0154
 5979SOL    HW129396   4.167   0.358   8.616 -1.9439  0.5422 -0.3506
 5979SOL    HW229397   4.182   0.283   8.746 -0.1914  2.2829  0.1731
 5980SOL     OW29398   3.638   1.952   4.343 -0.2362  0.4577  0.1574
 5980SOL    HW129399   3.655   1.885   4.410 -2.7107  1.8939  2.2471
 5980SOL    HW229400   3.680   2.028   4.384 -0.3475  1.1377 -1.0044
 5981SOL     OW29401   0.723   1.499   5.944 -0.2330 -0.2745  0.1139
 5981SOL    HW129402   0.777   1.468   6.017 -1.0522  0.8733  1.2080
 5981SOL    HW229403   0.730   1.427   5.881  2.2485 -0.4646  0.6093
 5982SOL     OW29404   0.460   2.084   3.092 -0.3130  0.1557  0.2992
 5982SOL    HW129405   0.394   2.016   3.104 -0.4803  0.5972  1.9245
 5982SOL    HW229406   0.415   2.159   3.131  0.6361  0.1427  1.4283
 5983SOL     OW29407   2.885   1.510   2.950 -0.1061 -0.0090 -0.0678
 5983SOL    HW129408   2.938   1.553   3.017 -0.3922 -1.3521  1.0145
 5983SOL    HW229409   2.911   1.546   2.866 -1.3982  2.0106  0.3928
 5984SOL     OW29410   3.937   2.217   3.835  0.0146  0.0736  1.1387
 5984SOL    HW129411   3.888   2.217   3.917 -1.9512 -2.5157 -0.0337
 5984SOL    HW229412   4.001   2.152   3.860  0.3072 -1.2775 -3.0734
 5985SOL     OW29413   4.499   3.312  13.676 -0.3731 -0.1482 -0.6466
 5985SOL    HW129414   4.465   3.267  13.599 -0.4761  1.3038 -1.4512
 5985SOL    HW229415   4.460   3.399  13.666 -1.7743 -0.5144  1.6786
 5986SOL     OW29416   3.446   0.546  11.696 -0.1290  0.2768 -0.0255
 5986SOL    HW129417   3.540   0.550  11.713 -0.0796  1.4433 -0.6212
 5986SOL    HW229418   3.418   0.458  11.722 -0.7153 -0.7168 -4.1372
 5987SOL     OW29419   0.787   3.459  12.366 -0.1271 -0.3417 -0.2388
 5987SOL    HW129420   0.861   3.398  12.368  0.4405  0.3650  0.4466
 5987SOL    HW229421   0.818   3.524  12.430 -1.1259  1.0518 -1.1797
 5988SOL     OW29422   0.496   2.715   4.001 -0.1283  0.5947 -0.4870
 5988SOL    HW129423   0.429   2.782   4.014  0.1123  0.4043  1.8326
 5988SOL    HW229424   0.491   2.708   3.906  0.3952  0.3950 -0.4977
 5989SOL     OW29425   0.047   4.265   4.981  0.0059  0.3140 -0.3294
 5989SOL    HW129426   4.689   4.310   4.974  0.2560  0.4421 -2.5324
 5989SOL    HW229427   0.101   4.344   4.980 -0.0399  0.3456 -0.3183
 5990SOL     OW29428   1.231   4.243  16.757  0.4285  0.3051  0.1227
 5990SOL    HW129429   1.190   4.326  16.782 -0.1956 -0.4312  1.5625
 5990SOL    HW229430   1.296   4.271  16.692 -1.0278  0.7324 -1.1395
 5991SOL     OW29431   2.866   0.256   2.970  0.1909  0.0677  0.4164
 5991SOL    HW129432   2.943   0.298   3.007  0.6890  0.2441 -0.7967
 5991SOL    HW229433   2.900   0.219   2.888  1.1107 -0.1931  0.9190
 5992SOL     OW29434   2.901   0.595   5.669  0.2168 -0.2153  0.2489
 5992SOL    HW129435   2.981   0.577   5.620  0.7889  1.5534  0.5341
 5992SOL    HW229436   2.911   0.688   5.688 -1.9739  0.4380 -1.6863
 5993SOL     OW29437   2.498   1.866   5.554  0.9135  0.0876 -0.1540
 5993SOL    HW129438   2.423   1.911   5.515 -0.0504 -0.8459  0.6163
 5993SOL    HW229439   2.531   1.926   5.621 -0.3456  0.3633  0.2286
 5994SOL     OW29440   3.742   4.024  13.178  0.1607  0.0546  0.3790
 5994SOL    HW129441   3.675   3.974  13.133 -1.9994  1.8235  1.6159
 5994SOL    HW229442   3.765   3.962  13.248 -0.2187 -0.3463  0.1446
 5995SOL     OW29443   3.550   0.388   8.648 -0.4203 -0.6993  0.4335
 5995SOL    HW129444   3.486   0.447   8.690  1.8624  1.7015  0.5557
 5995SOL    HW229445   3.628   0.443   8.642 -1.5675  0.6550 -1.6108
 5996SOL     OW29446   0.092   3.015   7.554  0.3970 -0.0875 -0.6479
 5996SOL    HW129447   0.063   2.965   7.630  0.9101 -2.4882 -2.0013
 5996SOL    HW229448   0.088   3.108   7.577 -0.0118  0.0353 -1.2157
 5997SOL     OW29449   0.431   4.016   4.955 -0.3931  0.1819  0.0120
 5997SOL    HW129450   0.455   4.053   5.040 -0.4909  0.7406 -0.1996
 5997SOL    HW229451   0.489   4.063   4.894 -1.5553  1.4431 -0.1348
 5998SOL     OW29452   3.928   4.279   1.009  0.4128  0.4929  0.4503
 5998SOL    HW129453   4.008   4.234   0.984 -1.6765 -1.5877 -2.6146
 5998SOL    HW229454   3.903   4.250   1.097 -0.0539 -2.9221 -0.8047
 5999SOL     OW29455   1.832   2.328   1.175 -0.5426  0.0939 -0.0940
 5999SOL    HW129456   1.824   2.390   1.102  0.8570  1.0385  0.5670
 5999SOL    HW229457   1.751   2.276   1.176  0.6538 -1.8851 -3.1696
 6000SOL     OW29458   0.695   0.103   2.020  0.0006 -0.2074  0.2572
 6000SOL    HW129459   0.632   0.103   2.092  0.8875  1.1878  1.0187
 6000SOL    HW229460   0.691   0.193   1.988  2.6068 -0.2299 -0.1023
 6001SOL     OW29461   4.330   1.722  16.669  0.3837  0.7780  0.1872
 6001SOL    HW129462   4.386   1.646  16.683  0.7928  0.7879 -1.3643
 6001SOL    HW229463   4.391   1.778  16.621  0.3508 -0.6385 -1.5191
 6002SOL     OW29464   2.458   4.401   4.472  0.0592  0.5207  0.1820
 6002SOL    HW129465   2.489   4.485   4.506  2.6282 -0.4369  0.1601
 6002SOL    HW229466   2.480   4.407   4.380  1.5954  2.6061  0.6887
 6003SOL     OW29467   3.520   1.960  11.366 -0.1269 -0.2594 -0.3390
 6003SOL    HW129468   3.603   1.959  11.319 -0.3008  2.5885 -0.6731
 6003SOL    HW229469   3.533   1.880  11.418 -0.9300  0.8128  1.4918
 6004SOL     OW29470   0.891   0.300   2.671  0.1901 -0.2278  0.6672
 6004SOL    HW129471   0.852   0.349   2.598 -0.4442 -0.0324  1.1356
 6004SOL    HW229472   0.917   0.220   2.626  1.8116 -1.0537  3.0670
 6005SOL     OW29473   1.233   1.280   7.807  0.1521  0.2164  0.1084
 6005SOL    HW129474   1.266   1.297   7.719  1.1031  0.5685  0.5272
 6005SOL    HW229475   1.308   1.269   7.866  0.3378  0.3733 -0.0971
 6006SOL     OW29476   4.677   1.679  10.874 -0.0624 -0.0261 -0.1599
 6006SOL    HW129477   4.606   1.647  10.819  0.5423 -0.3143 -0.7691
 6006SOL    HW229478   0.017   1.706  10.810 -0.2121 -0.6665 -0.5814
 6007SOL     OW29479   0.977   0.882   3.379 -0.6625 -0.3819  0.2763
 6007SOL    HW129480   0.885   0.862   3.362 -0.8092  0.6355 -0.1696
 6007SOL    HW229481   1.012   0.796   3.401  2.9985  1.6381  2.4067
 6008SOL     OW29482   0.496   3.888   2.961 -0.3069  0.0871 -0.0013
 6008SOL    HW129483   0.420   3.925   2.915 -0.2224 -1.7955 -1.6949
 6008SOL    HW229484   0.483   3.795   2.940 -0.7331  0.3456 -0.8611
 6009SOL     OW29485   1.313   2.130   6.789 -0.2294  0.0899  0.8054
 6009SOL    HW129486   1.319   2.170   6.876 -0.4312  1.7909  0.0219
 6009SOL    HW229487   1.352   2.045   6.808 -0.7189 -0.1738  0.6441
 6010SOL     OW29488   2.213   1.486   0.423  0.2249 -0.2743  0.1976
 6010SOL    HW129489   2.294   1.513   0.378 -0.4471  1.0900 -0.1909
 6010SOL    HW229490   2.226   1.534   0.504  1.5674 -0.3209  0.0156
 6011SOL     OW29491   1.479   0.796   3.931 -0.2179 -0.4207 -0.4187
 6011SOL    HW129492   1.558   0.790   3.985 -0.1118 -0.1655 -0.5460
 6011SOL    HW229493   1.518   0.820   3.847  1.6346 -3.1950 -0.3741
 6012SOL     OW29494   3.668   0.258   7.178  0.5252  0.1943 -0.0579
 6012SOL    HW129495   3.742   0.238   7.121  1.4310  0.6180  0.9554
 6012SOL    HW229496   3.704   0.308   7.251  1.1605 -1.4824  0.7896
 6013SOL     OW29497   1.510   3.629   3.440 -0.2791  0.0617  0.2695
 6013SOL    HW129498   1.505   3.608   3.533 -1.2189 -3.2523 -0.5295
 6013SOL    HW229499   1.600   3.660   3.434  0.1591 -0.9750  1.5066
 6014SOL     OW29500   4.229   1.373  13.754 -0.3620 -0.3115  0.2206
 6014SOL    HW129501   4.248   1.350  13.663 -2.5179  1.3361 -0.6350
 6014SOL    HW229502   4.136   1.352  13.757 -0.9049  1.8549 -1.8954
 6015SOL     OW29503   0.087   0.212  16.453  0.0906 -0.0935 -0.2253
 6015SOL    HW129504   0.125   0.298  16.467  0.0730  0.0122 -0.8530
 6015SOL    HW229505   0.158   0.166  16.407 -0.9173 -0.2232 -1.6541
 6016SOL     OW29506   2.732   4.163   7.277 -0.0999  0.0445  0.2627
 6016SOL    HW129507   2.688   4.185   7.359  0.0726  1.5499 -0.0473
 6016SOL    HW229508   2.775   4.244   7.251 -1.1788  0.0547 -1.4521
 6017SOL     OW29509   1.981   1.880   8.394 -0.7147  0.1481 -0.4775
 6017SOL    HW129510   1.920   1.954   8.388 -1.3774 -0.4080 -0.5500
 6017SOL    HW229511   2.051   1.902   8.332  0.2912 -1.4619  0.0857
 6018SOL     OW29512   4.459   1.016   3.166  0.1569  0.2245 -0.4520
 6018SOL    HW129513   4.533   1.059   3.123  1.8162 -1.4913  0.6994
 6018SOL    HW229514   4.436   0.949   3.102 -2.1500 -0.0293  0.6131
 6019SOL     OW29515   0.827   4.209   8.456 -0.1236  0.2751 -0.0412
 6019SOL    HW129516   0.790   4.207   8.368 -3.2281  0.9686  1.2649
 6019SOL    HW229517   0.830   4.300   8.487 -0.6273  1.0842 -2.3907
 6020SOL     OW29518   2.930   2.233   9.570  0.2221  1.0109  0.2261
 6020SOL    HW129519   2.852   2.238   9.514  1.0538 -0.8568 -1.1009
 6020SOL    HW229520   2.900   2.185   9.647 -2.2262  0.0573 -1.3355
 6021SOL     OW29521   1.158   4.481  16.840 -0.0623 -0.0851  0.3106
 6021SOL    HW129522   1.166   4.516  16.929 -2.2114  0.7766  0.1849
 6021SOL    HW229523   1.176   4.559  16.787 -0.0690 -0.4652 -0.2461
 6022SOL     OW29524   2.513   3.292   4.151 -0.2050  0.3388  0.2493
 6022SOL    HW129525   2.534   3.267   4.241 -0.7609 -0.1369  0.2410
 6022SOL    HW229526   2.478   3.205   4.134 -1.9723  0.5622  2.7465
 6023SOL     OW29527   4.257   0.069  14.182 -0.0212 -0.1220 -0.0338
 6023SOL    HW129528   4.280   0.033  14.096 -0.0838 -1.0764  0.3438
 6023SOL    HW229529   4.166   0.082  14.157  0.1781  1.6983  0.2294
 6024SOL     OW29530   3.089   3.362   7.845 -0.2733 -0.8843 -0.0159
 6024SOL    HW129531   3.057   3.318   7.923 -1.6303  0.1479  0.0286
 6024SOL    HW229532   3.157   3.423   7.874 -0.0843 -1.3668  0.5422
 6025SOL     OW29533   1.270   4.306   6.294  0.3093  0.5065  0.0367
 6025SOL    HW129534   1.283   4.311   6.388 -1.1677  1.8409  0.1720
 6025SOL    HW229535   1.236   4.218   6.276 -0.7446  0.9455 -0.1190
 6026SOL     OW29536   2.492   1.644  17.141  0.1592 -0.3888  0.3826
 6026SOL    HW129537   2.527   1.710  17.200  1.9145 -1.7629  0.8674
 6026SOL    HW229538   2.495   1.687  17.056 -0.6098  0.7473  0.9259
 6027SOL     OW29539   4.138   4.639   3.221 -0.1898 -0.2193 -0.8209
 6027SOL    HW129540   4.189   4.717   3.243 -2.0757  0.9752 -0.6787
 6027SOL    HW229541   4.212   4.593   3.181  0.8525 -0.1782  1.0702
 6028SOL     OW29542   4.640   3.601   2.708  0.3349  0.0118 -0.1481
 6028SOL    HW129543   4.652   3.617   2.802  0.4105  1.6226 -0.4439
 6028SOL    HW229544   4.661   3.507   2.712  3.7704  0.7587 -0.1162
 6029SOL     OW29545   1.017   3.996  13.955  0.2945 -0.0100  0.2734
 6029SOL    HW129546   1.094   3.968  14.004 -0.0752 -1.9043 -0.2402
 6029SOL    HW229547   0.965   4.035  14.025 -0.2819  0.1285 -0.2287
 6030SOL     OW29548   1.535   0.941  16.558  0.8260 -0.4231  0.6705
 6030SOL    HW129549   1.462   1.002  16.571 -1.0271 -2.0379 -1.9111
 6030SOL    HW229550   1.496   0.854  16.546  1.0047 -0.3423 -0.5194
 6031SOL     OW29551   2.571   2.790   9.451 -0.3294 -0.3232 -0.3130
 6031SOL    HW129552   2.576   2.884   9.431  0.7242 -0.7397 -1.9514
 6031SOL    HW229553   2.499   2.794   9.515  0.0852  2.2433  0.0162
 6032SOL     OW29554   4.059   3.037   1.050 -0.4673  0.4223 -0.0805
 6032SOL    HW129555   4.069   3.126   1.085  2.0847  0.3133 -0.5346
 6032SOL    HW229556   3.965   3.040   1.031  0.0719  0.2441 -2.6806
 6033SOL     OW29557   0.989   1.415  11.020 -0.0940 -0.1537 -0.1339
 6033SOL    HW129558   1.072   1.379  10.989 -0.1275  0.9496 -1.4860
 6033SOL    HW229559   0.983   1.364  11.101 -1.0230 -0.3961 -0.3602
 6034SOL     OW29560   3.065   1.631   4.380  0.0389  0.1369  0.4458
 6034SOL    HW129561   3.119   1.596   4.450 -1.0045 -0.1987  1.0831
 6034SOL    HW229562   3.014   1.699   4.424 -1.4089  0.0279 -1.0491
 6035SOL     OW29563   3.532   1.809   7.298  0.1576 -0.2052  0.5271
 6035SOL    HW129564   3.578   1.887   7.329  2.9940 -0.6400 -2.5762
 6035SOL    HW229565   3.538   1.825   7.203  0.4161  2.0563  0.9134
 6036SOL     OW29566   1.963   2.669   8.404  0.0136  0.4458  0.0652
 6036SOL    HW129567   1.926   2.757   8.393  0.9052  0.9415  1.0454
 6036SOL    HW229568   1.889   2.611   8.385  1.0790 -1.4170  1.6039
 6037SOL     OW29569   2.481   4.144   3.794 -0.5094 -0.6205  0.1565
 6037SOL    HW129570   2.443   4.131   3.881 -2.4863  1.5695 -0.3502
 6037SOL    HW229571   2.473   4.053   3.767  1.4038 -0.5393 -0.6798
 6038SOL     OW29572   2.219   2.461   1.913  0.2807  0.3892 -0.2431
 6038SOL    HW129573   2.146   2.492   1.860  1.3654  0.5469 -1.6353
 6038SOL    HW229574   2.167   2.436   1.989  1.4375 -1.9181 -0.1865
 6039SOL     OW29575   2.212   2.650   8.527 -0.0944 -0.0637  0.1230
 6039SOL    HW129576   2.232   2.699   8.447  1.9431 -2.5589 -0.9391
 6039SOL    HW229577   2.118   2.667   8.522 -0.2511 -0.7679  0.6608
 6040SOL     OW29578   3.978   1.666   4.052  0.2904 -0.9658  0.6778
 6040SOL    HW129579   4.053   1.614   4.078  0.1099 -1.4451  0.2491
 6040SOL    HW229580   3.978   1.720   4.131 -2.0079  1.2852 -0.8449
 6041SOL     OW29581   3.930   2.633   8.655  0.1963  0.7232  0.7229
 6041SOL    HW129582   4.021   2.604   8.653  0.0937  0.4912 -0.2912
 6041SOL    HW229583   3.910   2.669   8.741  0.2496 -0.4230  1.2229
 6042SOL     OW29584   3.695   3.699  12.472  0.3079  0.3207 -0.0667
 6042SOL    HW129585   3.677   3.761  12.401 -0.4688  1.1215  0.8308
 6042SOL    HW229586   3.708   3.621  12.419 -1.2247  0.1302 -0.1787
 6043SOL     OW29587   1.255   4.518  11.307  0.4371  0.0207 -0.1074
 6043SOL    HW129588   1.288   4.505  11.218  1.8871  0.3448  0.3916
 6043SOL    HW229589   1.257   4.613  11.307  0.8539  0.0167 -0.5891
 6044SOL     OW29590   3.307   0.092  10.568 -0.7553  0.0500 -0.3361
 6044SOL    HW129591   3.220   0.086  10.607 -0.2640 -2.9541  0.3088
 6044SOL    HW229592   3.357   0.045  10.635 -0.1699  1.1729  0.0306
 6045SOL     OW29593   2.515   3.751   4.342  1.0023  0.3240  0.1961
 6045SOL    HW129594   2.445   3.687   4.344  2.4353 -1.2819 -1.2923
 6045SOL    HW229595   2.580   3.701   4.292 -0.0812 -0.1483 -0.7131
 6046SOL     OW29596   2.871   1.434   4.720 -0.5144  0.2729 -0.0107
 6046SOL    HW129597   2.937   1.430   4.651 -0.9739  0.0614 -0.4392
 6046SOL    HW229598   2.809   1.367   4.690 -0.3138  0.2427 -0.3490
 6047SOL     OW29599   0.881   1.500   5.539  0.0065  0.0266 -0.1220
 6047SOL    HW129600   0.832   1.568   5.585 -1.2753 -1.5863  0.9224
 6047SOL    HW229601   0.946   1.472   5.603 -0.5864 -1.5605 -0.2025
 6048SOL     OW29602   1.117   3.871   9.138  0.4050 -0.4489  0.7481
 6048SOL    HW129603   1.070   3.792   9.168 -0.8451 -0.0511 -0.1647
 6048SOL    HW229604   1.094   3.932   9.208  2.2091 -1.0889  1.8968
 6049SOL     OW29605   0.963   2.330   4.943  0.0724 -0.2789  0.1874
 6049SOL    HW129606   1.025   2.403   4.941  0.6912 -0.8952 -3.2359
 6049SOL    HW229607   0.959   2.316   5.037  0.6842 -1.3269  0.0519
 6050SOL     OW29608   1.601   1.040   8.244  0.0279 -0.2820 -0.3885
 6050SOL    HW129609   1.569   1.051   8.334 -1.9300  1.3602 -1.2923
 6050SOL    HW229610   1.693   1.027   8.267  0.2912  2.1578 -0.0620
 6051SOL     OW29611   1.337   0.410   4.196  0.5677 -0.0680 -0.4839
 6051SOL    HW129612   1.304   0.490   4.238  0.2158  0.1218 -1.1356
 6051SOL    HW229613   1.280   0.399   4.121  0.4041 -1.3957 -0.1548
 6052SOL     OW29614   4.429   3.766   6.424 -0.1073  0.0878  0.3452
 6052SOL    HW129615   4.392   3.850   6.398  1.7622  0.9908  0.5821
 6052SOL    HW229616   4.419   3.780   6.519  0.2063  0.6357  0.2983
 6053SOL     OW29617   3.976   0.057  17.390 -0.0913  0.0856  0.5411
 6053SOL    HW129618   4.058   0.040  17.438 -0.6395 -1.7993  0.8135
 6053SOL    HW229619   3.917   0.079  17.462 -2.2961  0.4508 -1.3795
 6054SOL     OW29620   1.736   3.339   7.788 -0.6486  0.4685  0.5465
 6054SOL    HW129621   1.750   3.431   7.811  0.2364  0.3065  0.6494
 6054SOL    HW229622   1.808   3.318   7.728  0.0507  1.8342  0.8997
 6055SOL     OW29623   0.938   4.060   8.189 -0.1541  0.0238 -0.6536
 6055SOL    HW129624   0.855   4.013   8.193 -0.0133 -0.2072 -0.4800
 6055SOL    HW229625   0.918   4.151   8.166  0.6676 -0.1693 -2.1938
 6056SOL     OW29626   2.828   0.415   7.798 -0.0478  0.3634 -0.0263
 6056SOL    HW129627   2.857   0.506   7.793  1.0019  0.1001  1.3119
 6056SOL    HW229628   2.756   0.420   7.860  0.5276 -0.2737  0.6956
 6057SOL     OW29629   2.196   3.230  10.001 -0.0336  0.2119 -0.1921
 6057SOL    HW129630   2.129   3.219   9.935 -0.6467  1.3032  0.2525
 6057SOL    HW229631   2.146   3.204  10.078 -1.9692 -1.7041 -2.1159
 6058SOL     OW29632   2.460   0.527   4.203 -0.6941  0.5403 -0.3706
 6058SOL    HW129633   2.465   0.499   4.295  0.1766 -2.4144 -1.3189
 6058SOL    HW229634   2.507   0.610   4.192 -0.1556  0.5795  2.0966
 6059SOL     OW29635   2.999   0.228   6.258  0.4095 -0.1828  0.5279
 6059SOL    HW129636   2.961   0.305   6.217  0.3149 -0.0271  0.9098
 6059SOL    HW229637   2.928   0.203   6.317 -0.9239 -0.5245 -1.2182
 6060SOL     OW29638   1.835   0.169   8.687  0.5930 -0.4510 -0.7746
 6060SOL    HW129639   1.766   0.188   8.751  1.9962 -0.1579  0.6421
 6060SOL    HW229640   1.887   0.096   8.719 -1.2123 -0.1724  2.8131
 6061SOL     OW29641   1.352   4.463   5.622 -0.1799 -0.8805  0.1285
 6061SOL    HW129642   1.298   4.436   5.696  0.8943 -1.8803  0.5419
 6061SOL    HW229643   1.341   4.557   5.635  0.4425 -0.8166  0.2097
 6062SOL     OW29644   0.856   1.517   4.556 -0.3624  0.7931  0.1722
 6062SOL    HW129645   0.894   1.511   4.644  0.8211  0.2189 -0.3689
 6062SOL    HW229646   0.935   1.501   4.504  0.5169  2.9301  0.8462
 6063SOL     OW29647   0.126   0.396   6.372  0.2288 -0.4875  0.5475
 6063SOL    HW129648   0.071   0.319   6.388  1.2310 -1.0755  1.1783
 6063SOL    HW229649   0.054   0.458   6.361  0.0039 -0.6766  0.9690
 6064SOL     OW29650   2.304   1.961   5.370 -0.1730 -0.3590 -0.7202
 6064SOL    HW129651   2.328   1.877   5.332 -0.3694  0.0257 -1.7082
 6064SOL    HW229652   2.324   2.020   5.298  1.4893 -0.1122 -0.0509
 6065SOL     OW29653   3.573   1.585   5.923 -0.2072  0.1299  0.3512
 6065SOL    HW129654   3.567   1.651   5.855  0.8589 -2.0560 -1.8697
 6065SOL    HW229655   3.521   1.512   5.889 -0.3829  0.8814 -0.9528
 6066SOL     OW29656   1.193   0.864   1.997 -0.5550  0.0559  0.0681
 6066SOL    HW129657   1.224   0.927   1.933  2.2396 -0.5708  0.7840
 6066SOL    HW229658   1.234   0.892   2.079  0.3756 -0.3648 -0.2488
 6067SOL     OW29659   2.325   2.713  15.682 -0.0096  0.6514 -0.0847
 6067SOL    HW129660   2.233   2.727  15.706 -1.0269 -1.3537 -2.7397
 6067SOL    HW229661   2.327   2.771  15.607  1.8944 -0.9544 -1.2752
 6068SOL     OW29662   4.485   2.024  10.959  0.0543  0.2477  0.4013
 6068SOL    HW129663   4.433   2.004  11.037 -0.0862 -1.0216 -0.0161
 6068SOL    HW229664   4.526   2.101  10.997  0.1062  1.1427 -1.4786
 6069SOL     OW29665   4.525   0.773   7.232 -0.1589  0.3597 -0.5394
 6069SOL    HW129666   4.481   0.857   7.232 -1.6593 -0.4302 -0.0370
 6069SOL    HW229667   4.608   0.783   7.185  1.6157  0.9501  2.7427
 6070SOL     OW29668   4.468   3.839   2.122  0.4024 -0.3967  0.2496
 6070SOL    HW129669   4.498   3.896   2.193  1.8879 -0.3907 -0.3763
 6070SOL    HW229670   4.374   3.851   2.113  1.0004  2.4299 -2.1364
 6071SOL     OW29671   1.103   2.137   8.067  0.7776  0.0473 -0.4876
 6071SOL    HW129672   1.113   2.047   8.037 -1.0377 -0.2339 -0.2426
 6071SOL    HW229673   1.026   2.124   8.122 -0.0340  1.9431 -1.1693
 6072SOL     OW29674   2.180   3.881  14.493 -0.5883  0.2514  0.5428
 6072SOL    HW129675   2.119   3.845  14.429  1.3467  0.3402 -1.3272
 6072SOL    HW229676   2.135   3.865  14.576 -0.1558 -0.6956  0.5850
 6073SOL     OW29677   3.361   1.844   5.484 -0.2665  0.0504 -0.3724
 6073SOL    HW129678   3.370   1.823   5.391 -1.2966  2.7893 -1.1079
 6073SOL    HW229679   3.451   1.869   5.502  0.1202  0.0820 -2.3624
 6074SOL     OW29680   4.647   1.648   4.946  0.0522 -0.0419  0.0146
 6074SOL    HW129681   4.558   1.678   4.926 -0.7496 -1.8912  0.8034
 6074SOL    HW229682   4.644   1.662   5.041 -1.2248 -0.7916  0.0835
 6075SOL     OW29683   3.973   2.326   0.082  0.8543  0.3088 -0.2328
 6075SOL    HW129684   3.885   2.346   0.049  0.9771 -2.1831 -2.1291
 6075SOL    HW229685   4.001   2.275   0.005 -2.0386  0.9131 -1.6963
 6076SOL     OW29686   3.870   0.218   6.334  0.3372 -0.1804  0.3558
 6076SOL    HW129687   3.783   0.198   6.367 -0.0703  3.2155  1.3909
 6076SOL    HW229688   3.913   0.241   6.417  1.1298  0.3194 -0.1877
 6077SOL     OW29689   3.830   3.861   2.212 -0.4539 -0.4543  0.1679
 6077SOL    HW129690   3.757   3.871   2.151  1.5557  1.7190 -1.9188
 6077SOL    HW229691   3.888   3.791   2.180  0.2859  0.8460 -1.3450
 6078SOL     OW29692   3.989   1.904   7.159  0.3026 -0.0571 -0.7770
 6078SOL    HW129693   4.078   1.873   7.144  1.1632  2.2954 -0.5296
 6078SOL    HW229694   3.972   1.850   7.235 -2.3713 -0.4036 -1.6062
 6079SOL     OW29695   1.745   3.869  17.263 -0.2261  0.3678  0.2420
 6079SOL    HW129696   1.686   3.797  17.284  2.5726 -1.6442  1.3699
 6079SOL    HW229697   1.680   3.923  17.219 -1.0349 -1.6450 -0.9888
 6080SOL     OW29698   0.861   3.444   3.082 -0.2884  0.5454  0.0834
 6080SOL    HW129699   0.945   3.449   3.128  0.4188 -0.5418 -1.0849
 6080SOL    HW229700   0.900   3.450   2.995  0.0927  0.3985  0.2427
 6081SOL     OW29701   3.887   0.695   5.282  0.8623 -0.2954 -0.7017
 6081SOL    HW129702   3.833   0.768   5.252 -0.2407 -0.5953  0.5204
 6081SOL    HW229703   3.932   0.748   5.348 -0.8564  0.8871 -0.4670
 6082SOL     OW29704   1.920   2.989   3.543 -0.5815  0.8629 -0.7359
 6082SOL    HW129705   1.852   2.981   3.610  1.1950  3.0852  1.3693
 6082SOL    HW229706   1.884   2.954   3.462 -0.9889 -0.8704  0.2010
 6083SOL     OW29707   4.018   4.672   2.951  0.1213 -0.2015 -0.2504
 6083SOL    HW129708   3.940   4.721   2.977 -0.1623 -0.2326 -1.0247
 6083SOL    HW229709   4.046   4.657   3.041 -2.1040 -0.9393  0.3306
 6084SOL     OW29710   1.454   0.877  12.316  0.2866  0.0115  0.1073
 6084SOL    HW129711   1.517   0.834  12.374  0.0991 -0.4801 -0.0498
 6084SOL    HW229712   1.508   0.953  12.293  0.5089  0.0077  0.6133
 6085SOL     OW29713   4.671   3.977   8.081 -0.2312 -0.1746 -0.6404
 6085SOL    HW129714   4.715   4.041   8.137  0.4627 -1.9112  0.8068
 6085SOL    HW229715   4.617   4.038   8.031 -2.5371 -0.8531  1.0028
 6086SOL     OW29716   3.613   1.314  17.081 -0.6843  0.6545  0.3114
 6086SOL    HW129717   3.553   1.288  17.151 -1.4591 -2.0900 -1.3684
 6086SOL    HW229718   3.673   1.240  17.083  0.6770  1.7777  1.1669
 6087SOL     OW29719   0.386   3.089   2.162  0.1399  0.2248  0.0669
 6087SOL    HW129720   0.453   3.150   2.132 -0.4487 -0.0109 -1.7218
 6087SOL    HW229721   0.304   3.138   2.155 -1.2738 -1.9352  1.5862
 6088SOL     OW29722   0.355   3.665   8.987 -0.4714  0.1850  0.0502
 6088SOL    HW129723   0.436   3.714   9.004  0.0249 -1.3933  2.3896
 6088SOL    HW229724   0.381   3.575   9.007  0.4872  0.3457 -0.4476
 6089SOL     OW29725   2.475   2.094   3.662 -0.3857 -0.3220  0.1585
 6089SOL    HW129726   2.406   2.126   3.604  2.3492  0.1252 -2.8185
 6089SOL    HW229727   2.537   2.065   3.595  1.7789  2.8604  0.7975
 6090SOL     OW29728   2.917   2.859   8.663  0.1274  0.2428 -0.6643
 6090SOL    HW129729   2.934   2.907   8.744  0.3336  4.0554 -2.9649
 6090SOL    HW229730   2.928   2.766   8.682  0.8288  0.7661  1.5426
 6091SOL     OW29731   4.118   2.413   8.033 -0.5566  0.5878 -0.1814
 6091SOL    HW129732   4.184   2.465   7.987  1.0834  0.2187  1.7010
 6091SOL    HW229733   4.170   2.378   8.106  0.9339  2.0980 -0.5072
 6092SOL     OW29734   2.156   2.245   2.268  0.2116 -0.1613 -0.3656
 6092SOL    HW129735   2.102   2.224   2.345 -2.5560  0.4556 -2.1109
 6092SOL    HW229736   2.157   2.160   2.223  0.8597 -0.3092 -0.0552
 6093SOL     OW29737   1.922   3.361   9.375 -0.2092 -0.3206  0.4237
 6093SOL    HW129738   1.859   3.343   9.446 -0.2160 -1.0288  0.2393
 6093SOL    HW229739   1.971   3.432   9.415  1.0611 -1.0015  0.0711
 6094SOL     OW29740   1.096   1.232  12.321  0.1305  0.1897  0.4966
 6094SOL    HW129741   1.109   1.246  12.228  0.0734 -1.1872  0.2749
 6094SOL    HW229742   1.182   1.249  12.360 -0.5450  3.2583  0.5770
 6095SOL     OW29743   1.851   2.147   5.624  0.1975 -0.2860 -0.1302
 6095SOL    HW129744   1.835   2.073   5.566 -1.0193  1.0877 -1.5551
 6095SOL    HW229745   1.921   2.190   5.575 -2.4674  0.8573 -2.9089
 6096SOL     OW29746   3.505   4.080   1.080  0.1248 -0.0635  0.0993
 6096SOL    HW129747   3.485   4.003   1.134  0.9224  0.2155  0.7956
 6096SOL    HW229748   3.586   4.046   1.040 -0.9406 -0.7528 -1.4669
 6097SOL     OW29749   1.156   2.495  11.768  0.1854  0.0167  0.1649
 6097SOL    HW129750   1.094   2.544  11.822  0.3784  0.8739 -0.4042
 6097SOL    HW229751   1.151   2.409  11.811  3.6673 -0.3516 -0.1546
 6098SOL     OW29752   0.428   3.635  12.734  0.5242 -0.1110 -0.2246
 6098SOL    HW129753   0.516   3.669  12.752  0.0416  0.8524  0.3084
 6098SOL    HW229754   0.443   3.592  12.650  2.4374  1.6250 -0.7787
 6099SOL     OW29755   0.652   2.119  12.070  0.0793  0.3143 -0.3153
 6099SOL    HW129756   0.731   2.163  12.100  0.0561 -0.3272  0.6988
 6099SOL    HW229757   0.690   2.073  11.995  1.1203  0.5023  0.0946
 6100SOL     OW29758   0.757   2.957  15.067 -0.2709 -0.4143 -0.3095
 6100SOL    HW129759   0.691   3.026  15.055  1.5029  1.0326 -1.8145
 6100SOL    HW229760   0.704   2.889  15.107  1.4796  0.3664  3.2849
 6101SOL     OW29761   3.548   0.821   4.968  0.5331 -0.6657 -0.6903
 6101SOL    HW129762   3.548   0.774   5.051 -0.3544 -4.1023 -2.6415
 6101SOL    HW229763   3.459   0.854   4.957 -0.1386 -2.2437 -0.0829
 6102SOL     OW29764   1.814   2.893   1.061 -0.1471  0.2874 -0.1659
 6102SOL    HW129765   1.873   2.819   1.050  0.2661  0.8443 -1.7973
 6102SOL    HW229766   1.773   2.887   0.974  1.4899  0.7186 -0.9751
 6103SOL     OW29767   3.897   2.163   6.881 -0.4927 -0.3957  0.1847
 6103SOL    HW129768   3.988   2.141   6.861  0.0672  1.1295  1.0492
 6103SOL    HW229769   3.897   2.249   6.840  1.4560 -0.3319  0.3433
 6104SOL     OW29770   4.149   1.009  14.484  0.2913 -0.1214  0.2443
 6104SOL    HW129771   4.076   1.070  14.493 -0.7336 -1.6343  2.1083
 6104SOL    HW229772   4.153   1.006  14.388  0.6669  3.0446  0.1648
 6105SOL     OW29773   1.671   1.847   8.752 -0.3032 -0.5249  0.5011
 6105SOL    HW129774   1.608   1.911   8.785 -1.2133 -1.2266  0.1109
 6105SOL    HW229775   1.743   1.903   8.721 -2.1594  1.9187  0.6383
 6106SOL     OW29776   1.360   3.837   4.951 -0.3735 -0.1495 -0.4944
 6106SOL    HW129777   1.397   3.749   4.952 -1.1411 -0.4702 -1.5576
 6106SOL    HW229778   1.436   3.883   4.915  1.7433 -3.8580 -0.6652
 6107SOL     OW29779   3.375   3.084   3.304 -0.7194 -0.2813 -0.2285
 6107SOL    HW129780   3.384   3.039   3.220 -1.9080 -1.4178  0.2714
 6107SOL    HW229781   3.301   3.031   3.331 -0.8042 -1.2144 -2.2711
 6108SOL     OW29782   1.138   3.279   3.427  0.1705  0.4233 -0.2379
 6108SOL    HW129783   1.226   3.242   3.439  0.6019  2.2437  2.2208
 6108SOL    HW229784   1.156   3.340   3.356  1.8233 -1.2943 -1.2914
 6109SOL     OW29785   2.354   1.982   1.315 -0.0652 -0.4154 -0.2294
 6109SOL    HW129786   2.298   2.057   1.333  1.2498  0.3296  0.7825
 6109SOL    HW229787   2.291   1.916   1.344 -0.7219  0.5419  0.5306
 6110SOL     OW29788   3.274   1.713  10.186 -0.2625  1.1167 -0.3153
 6110SOL    HW129789   3.241   1.747  10.102 -3.3915  0.4049  0.6368
 6110SOL    HW229790   3.367   1.729  10.170  0.5295 -2.4538  0.6669
 6111SOL     OW29791   4.710   0.109   0.050  0.5853 -0.1284  0.5563
 6111SOL    HW129792   0.077   0.132   0.048  0.7442 -0.7351  0.7009
 6111SOL    HW229793   4.718   0.016   0.029  0.1966  0.8652 -3.9893
 6112SOL     OW29794   2.098   2.358   5.937  0.0907 -0.0027  0.4910
 6112SOL    HW129795   2.188   2.341   5.964  1.0315 -0.3073 -2.8384
 6112SOL    HW229796   2.052   2.309   6.005  1.8589 -0.7776  1.1163
 6113SOL     OW29797   0.658   0.849   4.981  0.2953  0.0987 -0.9063
 6113SOL    HW129798   0.646   0.944   4.981 -0.6852 -0.0184  1.2456
 6113SOL    HW229799   0.752   0.843   4.996  0.5127  1.4167 -1.6875
 6114SOL     OW29800   0.066   1.530   4.517 -0.2285 -0.0457 -0.1404
 6114SOL    HW129801   0.151   1.573   4.518 -0.8113  1.0890  0.3764
 6114SOL    HW229802   0.093   1.439   4.533  1.2324  0.2395 -1.0932
 6115SOL     OW29803   0.568   3.851  13.106  0.5355  0.0888 -0.3399
 6115SOL    HW129804   0.631   3.782  13.085  1.2095  0.9385 -1.1460
 6115SOL    HW229805   0.525   3.818  13.184 -1.1621  0.2562 -1.2237
 6116SOL     OW29806   1.081   3.103   8.464 -0.0902  0.4247  0.6077
 6116SOL    HW129807   1.018   3.072   8.399  1.1848 -2.2322  0.6322
 6116SOL    HW229808   1.131   3.170   8.417 -0.7748 -0.6994 -1.7231
 6117SOL     OW29809   1.520   0.770   1.087  0.2340  0.1581  0.3469
 6117SOL    HW129810   1.606   0.732   1.103  0.5237  0.5301 -0.3469
 6117SOL    HW229811   1.536   0.845   1.030 -0.8413 -1.0252 -1.5207
 6118SOL     OW29812   4.047   3.912   1.072  0.0724  0.0242 -0.0863
 6118SOL    HW129813   4.133   3.896   1.111  0.3979 -1.3333 -1.3662
 6118SOL    HW229814   3.985   3.926   1.143 -2.2744  1.8551 -2.4918
 6119SOL     OW29815   1.754   4.586  15.540 -0.2531  0.6908  0.1178
 6119SOL    HW129816   1.756   4.496  15.507 -1.3226  1.1854 -1.2803
 6119SOL    HW229817   1.687   4.588  15.609 -0.8931 -0.2638 -0.4664
 6120SOL     OW29818   3.393   1.903   4.519 -0.2702 -0.2949  0.1218
 6120SOL    HW129819   3.314   1.883   4.570 -0.1430 -1.4478 -0.1183
 6120SOL    HW229820   3.436   1.952   4.588 -0.6987  0.8439 -0.4284
 6121SOL     OW29821   4.266   2.987  11.621  0.5741 -0.1181 -0.1021
 6121SOL    HW129822   4.215   2.972  11.701  2.6740 -1.3767  0.9791
 6121SOL    HW229823   4.243   2.917  11.560  2.3251 -0.3904 -0.4492
 6122SOL     OW29824   1.730   4.409  11.351  0.1768 -0.2809 -0.0152
 6122SOL    HW129825   1.817   4.435  11.322  0.5875 -2.7497 -0.9239
 6122SOL    HW229826   1.755   4.329  11.396  1.2115 -1.1819 -2.2195
 6123SOL     OW29827   4.716   0.957   7.899  0.2918 -0.4369 -0.0450
 6123SOL    HW129828   4.630   0.990   7.924 -1.4066 -3.6759 -1.5213
 6123SOL    HW229829   0.004   0.892   7.968  0.0937 -0.2443  0.1784
 6124SOL     OW29830   4.580   1.130   9.876 -0.0153 -0.0113  0.7049
 6124SOL    HW129831   4.663   1.116   9.831  0.7030  3.8723  0.7976
 6124SOL    HW229832   4.534   1.048   9.859  2.1391 -1.0439 -0.1318
 6125SOL     OW29833   2.029   0.028  11.194 -0.2542 -0.0741  0.9366
 6125SOL    HW129834   1.935   0.033  11.177 -0.1989  0.2809  0.7380
 6125SOL    HW229835   2.049   0.102  11.250  0.7963  1.0197 -0.8749
 6126SOL     OW29836   3.156   1.940   7.027  0.7365 -0.1317 -0.1849
 6126SOL    HW129837   3.090   1.979   7.085  0.0348 -1.2878 -0.2036
 6126SOL    HW229838   3.216   2.011   7.007 -0.4186  1.0952  0.7397
 6127SOL     OW29839   0.181   4.178   9.699 -0.2569  0.0807 -0.0272
 6127SOL    HW129840   0.186   4.082   9.694  0.3580  0.1011  0.2150
 6127SOL    HW229841   0.110   4.185   9.763  0.5673 -0.5202  0.9696
 6128SOL     OW29842   1.666   3.924   2.461 -0.5697 -0.3961  0.2157
 6128SOL    HW129843   1.606   3.851   2.479 -2.1676  0.9075  0.1355
 6128SOL    HW229844   1.605   3.988   2.425  1.2119 -0.1320 -2.3081
 6129SOL     OW29845   3.043   0.659  10.430 -0.3539  0.3556  0.4885
 6129SOL    HW129846   2.972   0.674  10.493 -0.8025 -1.4855  0.4195
 6129SOL    HW229847   3.068   0.751  10.422 -2.5554  0.8035 -1.1854
 6130SOL     OW29848   1.634   1.926   6.283 -0.0956 -0.3754 -0.2779
 6130SOL    HW129849   1.582   1.926   6.363  2.3157 -0.1518  1.2794
 6130SOL    HW229850   1.653   1.832   6.274 -3.5602 -1.1557  0.7323
 6131SOL     OW29851   1.065   0.227   9.788  0.0404  0.2158 -0.0686
 6131SOL    HW129852   1.153   0.258   9.809 -0.4517  0.8555  1.0499
 6131SOL    HW229853   1.046   0.178   9.868  0.7746 -1.3532 -0.8579
 6132SOL     OW29854   2.289   0.194  11.005 -0.0525  0.4464 -0.4090
 6132SOL    HW129855   2.299   0.211  11.099  0.2962  1.8469 -0.7025
 6132SOL    HW229856   2.364   0.137  10.991 -0.5239 -0.5627  1.1436
 6133SOL     OW29857   1.691   2.753   7.868 -0.3640 -0.1706  0.3299
 6133SOL    HW129858   1.669   2.834   7.823  0.2846  0.7603  1.6817
 6133SOL    HW229859   1.776   2.724   7.834  0.8076  4.7942 -0.8894
 6134SOL     OW29860   1.530   0.188  10.934 -0.1034  0.1101  0.1818
 6134SOL    HW129861   1.443   0.228  10.935 -0.6121 -0.9788 -0.7345
 6134SOL    HW229862   1.539   0.137  11.014 -0.1231 -0.5799 -0.2586
 6135SOL     OW29863   4.609   4.116  16.398 -0.5593  0.3458  0.3209
 6135SOL    HW129864   4.585   4.192  16.451 -0.9026 -0.1916  0.9449
 6135SOL    HW229865   4.588   4.035  16.444  1.2000  0.3831  1.1817
 6136SOL     OW29866   4.329   3.680   6.194 -0.4869  0.5413 -0.6893
 6136SOL    HW129867   4.303   3.760   6.148 -0.3462  2.7071  3.0909
 6136SOL    HW229868   4.382   3.703   6.270 -1.2378 -0.3894  0.1087
 6137SOL     OW29869   4.455   2.802   4.899 -0.1855 -0.2466  0.1409
 6137SOL    HW129870   4.368   2.839   4.885  0.0272  0.2503  0.1081
 6137SOL    HW229871   4.516   2.862   4.854  0.1138 -1.3139 -0.8729
 6138SOL     OW29872   4.308   1.024   8.190 -0.2250 -0.5664  0.2386
 6138SOL    HW129873   4.318   0.950   8.250  0.7566 -0.5289  0.1270
 6138SOL    HW229874   4.398   1.057   8.191 -0.8165  1.0648 -1.0437
 6139SOL     OW29875   3.866   2.918   4.992 -0.5809 -0.7044  0.1094
 6139SOL    HW129876   3.808   2.905   5.067  0.2635  0.7459  1.0462
 6139SOL    HW229877   3.931   2.980   5.026  0.1479 -1.2085 -0.3705
 6140SOL     OW29878   2.021   4.532   6.452 -0.5187 -0.6610 -0.2199
 6140SOL    HW129879   2.100   4.487   6.482 -1.4033 -1.4556  0.9118
 6140SOL    HW229880   1.955   4.498   6.512 -1.3481 -0.1265 -0.8147
 6141SOL     OW29881   2.899   4.457   8.182  0.2281 -0.1304 -0.1832
 6141SOL    HW129882   2.816   4.411   8.196  0.4649 -0.9281 -1.4005
 6141SOL    HW229883   2.887   4.543   8.223 -2.5923 -0.3211 -0.6175
 6142SOL     OW29884   2.288   3.144  15.428  0.0299 -0.4363 -0.3952
 6142SOL    HW129885   2.226   3.199  15.475  1.6076  0.5411  0.5605
 6142SOL    HW229886   2.296   3.195  15.348  2.5164  1.2695  0.9401
 6143SOL     OW29887   3.586   0.776   3.823  0.6987 -0.1644  0.3342
 6143SOL    HW129888   3.650   0.847   3.822 -0.1687  0.6424  2.8191
 6143SOL    HW229889   3.617   0.726   3.747 -0.7983  4.1064 -3.0701
 6144SOL     OW29890   0.072   4.129   8.444 -0.1270  0.7691 -0.0635
 6144SOL    HW129891   0.162   4.137   8.473  0.8609  0.7308 -3.1136
 6144SOL    HW229892   0.078   4.167   8.357  4.2569 -1.2888 -0.6408
 6145SOL     OW29893   0.556   4.371   5.313  0.3569 -0.0961 -0.2657
 6145SOL    HW129894   0.648   4.393   5.303  0.3196  0.5573  0.9002
 6145SOL    HW229895   0.518   4.440   5.259  0.9473 -0.1130 -0.7024
 6146SOL     OW29896   4.496   2.797   0.887 -0.0824 -0.2044 -0.5188
 6146SOL    HW129897   4.441   2.876   0.895 -0.9033 -0.8147 -0.1439
 6146SOL    HW229898   4.504   2.792   0.792 -0.1517 -2.4490 -0.4005
 6147SOL     OW29899   4.311   2.067   2.883  0.2435  0.3115 -0.1881
 6147SOL    HW129900   4.365   2.028   2.814 -0.1144 -0.2530 -0.1442
 6147SOL    HW229901   4.225   2.034   2.860  0.1121  0.8733 -0.5198
 6148SOL     OW29902   0.610   3.490   5.291 -0.0097 -0.0212  0.0769
 6148SOL    HW129903   0.694   3.520   5.258 -1.1075 -0.1086 -2.8060
 6148SOL    HW229904   0.558   3.550   5.238  0.1269 -1.1031 -1.2752
 6149SOL     OW29905   1.284   4.048   5.154 -0.4017  0.0533  0.5792
 6149SOL    HW129906   1.188   4.047   5.161 -0.4937 -1.3903 -0.8996
 6149SOL    HW229907   1.308   3.994   5.079  1.7578  1.7329  0.0714
 6150SOL     OW29908   3.342   1.143   8.735  0.4345  0.2344  0.2617
 6150SOL    HW129909   3.290   1.219   8.761 -0.2475  1.4411 -4.8135
 6150SOL    HW229910   3.299   1.080   8.794  2.6141 -1.5149  0.0254
 6151SOL     OW29911   0.537   3.617   2.359  0.2249 -0.4190  0.1809
 6151SOL    HW129912   0.503   3.648   2.275 -0.5046  0.8271  0.9412
 6151SOL    HW229913   0.630   3.628   2.342 -0.1274 -1.3601 -2.4434
 6152SOL     OW29914   2.569   3.437   3.080 -0.0858 -0.6608  0.7323
 6152SOL    HW129915   2.610   3.486   3.008 -0.9828  0.4611  0.9802
 6152SOL    HW229916   2.646   3.431   3.137 -0.7996 -2.0952  1.5381
 6153SOL     OW29917   0.222   1.631   1.779 -0.0908 -0.0148  0.1056
 6153SOL    HW129918   0.136   1.650   1.743 -0.4582  0.4542  1.2422
 6153SOL    HW229919   0.197   1.554   1.829  2.2011 -0.6092  0.3611
 6154SOL     OW29920   0.203   0.457   2.785 -0.1771 -0.5224 -0.0223
 6154SOL    HW129921   0.262   0.507   2.841 -0.8030  2.5145 -2.0944
 6154SOL    HW229922   0.266   0.412   2.729  1.0761  1.1133  0.0788
 6155SOL     OW29923   0.147   3.318   4.889 -0.0351 -0.0905 -0.0414
 6155SOL    HW129924   0.233   3.345   4.923 -1.3796  1.9708  1.7331
 6155SOL    HW229925   0.130   3.401   4.845  1.4633  0.6312  0.7218
 6156SOL     OW29926   2.207   3.758   7.684  0.0772 -0.3362  0.0643
 6156SOL    HW129927   2.136   3.695   7.700 -0.8609  0.8868  0.6908
 6156SOL    HW229928   2.165   3.812   7.617  0.6172  2.4563  1.9995
 6157SOL     OW29929   2.271   2.112   3.289  0.0965 -0.1462  0.4130
 6157SOL    HW129930   2.179   2.097   3.312  0.3171  1.7647  2.5030
 6157SOL    HW229931   2.294   2.025   3.255  0.1661 -0.3944  1.1051
 6158SOL     OW29932   2.939   4.284  11.457  0.4984  0.3693  0.1465
 6158SOL    HW129933   2.867   4.244  11.507  1.1790 -1.1622 -0.0865
 6158SOL    HW229934   2.904   4.265  11.370  0.2405  0.6552  0.1857
 6159SOL     OW29935   2.157   3.352   2.649  0.0690 -0.4704  0.3960
 6159SOL    HW129936   2.176   3.288   2.718 -1.5140  0.4386  1.7101
 6159SOL    HW229937   2.217   3.330   2.579  0.0982 -1.2371  0.6622
 6160SOL     OW29938   4.693   3.048   3.962  0.0946  0.1160 -0.2323
 6160SOL    HW129939   0.018   3.067   3.884 -0.4377  1.6638 -0.2101
 6160SOL    HW229940   4.689   2.953   3.950  1.0432 -0.0859  0.9835
 6161SOL     OW29941   1.028   0.703   3.960 -0.2387  0.3104 -0.3566
 6161SOL    HW129942   1.012   0.736   4.048  2.6857  0.1613  0.2353
 6161SOL    HW229943   1.092   0.770   3.938 -0.7921  1.2940  1.1041
 6162SOL     OW29944   2.913   4.111   4.789  0.1979  0.2650 -0.3133
 6162SOL    HW129945   2.872   4.183   4.741 -0.4855  1.3508  1.9184
 6162SOL    HW229946   3.007   4.127   4.785  0.5521 -1.5512  0.4604
 6163SOL     OW29947   1.154   3.489  13.572  0.0152  0.5944  0.0733
 6163SOL    HW129948   1.089   3.559  13.580 -0.2973  0.4875 -1.4708
 6163SOL    HW229949   1.168   3.498  13.477 -2.0712  2.1175 -0.0836
 6164SOL     OW29950   1.179   2.429   4.580 -0.1229  0.2613 -0.2074
 6164SOL    HW129951   1.262   2.409   4.537 -1.9931  0.2922 -3.8322
 6164SOL    HW229952   1.123   2.366   4.535 -2.9468  2.5321  0.1597
 6165SOL     OW29953   2.810   3.757   3.530 -0.0959  0.1242 -0.3600
 6165SOL    HW129954   2.805   3.719   3.442  1.1234 -0.4410 -0.1819
 6165SOL    HW229955   2.750   3.829   3.511 -1.1761 -0.8133 -0.5097
 6166SOL     OW29956   4.050   1.219   6.476 -0.7681 -0.4856 -0.2471
 6166SOL    HW129957   4.141   1.188   6.482 -1.4144 -2.3549  0.0257
 6166SOL    HW229958   4.050   1.268   6.395 -0.7056 -0.9990 -0.5574
 6167SOL     OW29959   2.845   0.924   0.207 -0.2587  0.2822 -0.0367
 6167SOL    HW129960   2.827   1.003   0.257 -1.6093 -1.1830  1.8116
 6167SOL    HW229961   2.867   0.959   0.121 -0.4059  1.7244  0.5285
 6168SOL     OW29962   0.196   0.105   0.721 -0.3763 -0.0401 -0.1154
 6168SOL    HW129963   0.107   0.081   0.747 -1.2780  3.0076 -0.4182
 6168SOL    HW229964   0.243   0.097   0.804  1.8608  0.7063 -1.2958
 6169SOL     OW29965   4.144   0.643   3.281  0.1037  0.0565 -0.0409
 6169SOL    HW129966   4.170   0.645   3.373 -0.2414  1.0544  0.0336
 6169SOL    HW229967   4.058   0.603   3.291  1.0954 -2.1521 -0.2599
 6170SOL     OW29968   0.242   2.322   6.730 -0.2288  0.6364  0.0090
 6170SOL    HW129969   0.275   2.300   6.643  1.5882 -1.7563  1.3017
 6170SOL    HW229970   0.307   2.277   6.785 -1.2482 -1.7200 -0.7147
 6171SOL     OW29971   4.189   3.037   4.129 -0.0775  0.1967 -0.3468
 6171SOL    HW129972   4.208   3.059   4.220 -1.4515  1.1867 -0.2996
 6171SOL    HW229973   4.272   3.045   4.081 -0.2300 -0.9655 -0.7945
 6172SOL     OW29974   3.781   3.036   2.126 -0.0513 -0.2561 -0.0309
 6172SOL    HW129975   3.869   3.033   2.162 -0.5477 -1.2361  1.1056
 6172SOL    HW229976   3.727   3.024   2.203  1.2204 -2.3814  0.5194
 6173SOL     OW29977   0.996   3.126   2.561 -0.2618  0.6733  0.2851
 6173SOL    HW129978   1.089   3.135   2.580  0.0797 -0.2971 -0.9689
 6173SOL    HW229979   0.969   3.214   2.535 -2.6022 -0.1206  0.0481
 6174SOL     OW29980   4.034   0.766  10.340  0.4308  0.7539 -0.0650
 6174SOL    HW129981   4.046   0.770  10.435 -0.7868  0.9629  0.0694
 6174SOL    HW229982   4.120   0.789  10.303  1.5053 -2.4526  0.4027
 6175SOL     OW29983   2.148   0.677   3.926  0.3513 -0.2225 -0.3272
 6175SOL    HW129984   2.228   0.655   3.878 -0.1318  0.2853 -1.3487
 6175SOL    HW229985   2.152   0.603   3.986 -0.0842 -1.1797 -1.4933
 6176SOL     OW29986   4.549   3.611  14.792 -0.3430  0.0249  0.0035
 6176SOL    HW129987   4.480   3.633  14.730 -0.5014 -0.8955 -0.1396
 6176SOL    HW229988   4.529   3.520  14.812  0.3100  0.0599  0.8441
 6177SOL     OW29989   0.762   1.089   5.323  0.5603 -0.2238  0.5687
 6177SOL    HW129990   0.694   1.114   5.262 -1.7632 -4.1288  1.5578
 6177SOL    HW229991   0.829   1.149   5.290 -0.5486  0.5311 -0.2937
 6178SOL     OW29992   0.084   2.106   3.302 -0.8007 -0.7812  0.2420
 6178SOL    HW129993   0.063   2.025   3.349 -0.6682 -0.6142  0.5942
 6178SOL    HW229994   0.026   2.099   3.227 -1.2101  0.6874  0.4407
 6179SOL     OW29995   0.271   4.434   6.135  0.2537  0.1843  0.2145
 6179SOL    HW129996   0.266   4.480   6.219  0.6314  2.2794 -0.9166
 6179SOL    HW229997   0.365   4.425   6.118  0.3379 -1.0883  1.3877
 6180SOL     OW29998   3.779   3.868  16.376 -0.0185  0.2779  0.0722
 6180SOL    HW129999   3.818   3.782  16.391 -0.0384  0.3877  0.7461
 6180SOL    HW230000   3.857   3.920  16.356  0.1772  0.7163  1.9587
 6181SOL     OW30001   1.888   1.651   0.782  0.6399  0.2480  0.2646
 6181SOL    HW130002   1.947   1.602   0.840  1.1355 -1.5382 -1.7719
 6181SOL    HW230003   1.949   1.694   0.722  0.4048 -0.4162 -0.4465
 6182SOL     OW30004   4.462   2.892   8.176  0.5045 -0.3485  0.6903
 6182SOL    HW130005   4.512   2.829   8.229  0.1864 -0.1740  1.1964
 6182SOL    HW230006   4.398   2.933   8.234  0.9169  1.4023 -0.0971
 6183SOL     OW30007   1.310   2.790   7.510  0.6243 -0.1082  0.4078
 6183SOL    HW130008   1.392   2.768   7.466  0.3150 -0.3777 -0.0312
 6183SOL    HW230009   1.254   2.822   7.440  1.6381  3.1071  1.0537
 6184SOL     OW30010   4.260   4.043  15.773  0.0368 -0.0783  0.9062
 6184SOL    HW130011   4.284   4.131  15.800  0.3044  0.4368 -0.9891
 6184SOL    HW230012   4.319   3.983  15.819 -1.3076 -2.0169  0.0916
 6185SOL     OW30013   0.337   1.343   8.022  0.0344 -0.0306  0.4352
 6185SOL    HW130014   0.306   1.353   8.112  2.3573 -0.2475  1.2393
 6185SOL    HW230015   0.289   1.265   7.992 -0.8970 -0.3818  2.8341
 6186SOL     OW30016   3.682   0.745   8.126  0.2185 -0.0464  0.4944
 6186SOL    HW130017   3.742   0.794   8.071 -1.3165  1.5640  0.2391
 6186SOL    HW230018   3.654   0.814   8.187  0.4885  1.5575 -1.1740
 6187SOL     OW30019   4.713   1.345   3.552  0.1193 -0.9488 -0.0338
 6187SOL    HW130020   0.034   1.382   3.627  0.0026  0.4663 -0.6625
 6187SOL    HW230021   4.689   1.262   3.594  0.8550 -0.3876  1.4805
 6188SOL     OW30022   1.550   1.461   4.062  0.4440  0.2449  0.1570
 6188SOL    HW130023   1.556   1.433   3.971 -0.9546 -1.7712  0.6937
 6188SOL    HW230024   1.493   1.536   4.047 -2.7058 -2.3429 -0.9167
 6189SOL     OW30025   3.776   3.798   7.757 -0.0713 -0.0447 -0.3347
 6189SOL    HW130026   3.683   3.800   7.780 -0.4914  0.5083 -2.0768
 6189SOL    HW230027   3.798   3.705   7.768  1.1035  0.2577 -0.1750
 6190SOL     OW30028   3.206   2.744   1.547 -0.1899 -0.0816  0.2723
 6190SOL    HW130029   3.247   2.826   1.576 -1.2150  0.8911 -1.0321
 6190SOL    HW230030   3.120   2.761   1.586 -0.6051  1.4672 -1.3019
 6191SOL     OW30031   1.759   3.348   1.341 -0.1563  0.1003  0.1844
 6191SOL    HW130032   1.805   3.273   1.379 -1.1471 -1.6705 -2.1591
 6191SOL    HW230033   1.827   3.415   1.339 -0.1332  0.0512 -0.7354
 6192SOL     OW30034   4.535   3.782   7.747  0.1912 -0.3600  0.1325
 6192SOL    HW130035   4.538   3.872   7.713  2.0085 -0.6545 -0.5323
 6192SOL    HW230036   4.481   3.757   7.671 -1.3492  2.1083  0.4329
 6193SOL     OW30037   0.900   1.535  15.877  0.2389 -0.2120  0.2329
 6193SOL    HW130038   0.925   1.466  15.938  0.0144  1.0307  1.7307
 6193SOL    HW230039   0.961   1.608  15.886  0.7522 -0.7937  1.5453
 6194SOL     OW30040   0.126   4.421   6.874 -0.4012  0.5692  0.3004
 6194SOL    HW130041   0.207   4.463   6.847  0.9139 -1.5209  1.0267
 6194SOL    HW230042   0.066   4.495   6.885 -2.6004 -1.1703  0.0698
 6195SOL     OW30043   2.702   2.185   1.726  0.4331 -0.2761  0.3755
 6195SOL    HW130044   2.642   2.162   1.797 -0.5988 -0.7594 -0.6452
 6195SOL    HW230045   2.786   2.144   1.743  1.1794  0.9705 -0.2654
 6196SOL     OW30046   2.573   0.400   1.353  0.3272 -0.2460  0.1685
 6196SOL    HW130047   2.539   0.482   1.316  1.3150 -0.7388 -1.8185
 6196SOL    HW230048   2.533   0.335   1.295  0.3666 -1.0790  1.0816
 6197SOL     OW30049   3.278   3.602  15.529 -0.4702 -0.6120  0.1553
 6197SOL    HW130050   3.303   3.533  15.591  1.2888 -0.8036 -0.7837
 6197SOL    HW230051   3.228   3.565  15.456 -0.6995  0.0331 -0.0117
 6198SOL     OW30052   0.313   0.553  13.861  0.6974 -0.1156 -0.2890
 6198SOL    HW130053   0.378   0.574  13.928 -0.7014 -1.6143  1.5450
 6198SOL    HW230054   0.317   0.635  13.813 -1.3413  0.3711  0.3765
 6199SOL     OW30055   2.742   0.322   3.649  0.0664 -0.0338  0.2062
 6199SOL    HW130056   2.782   0.257   3.591 -1.6270 -1.7508  0.9336
 6199SOL    HW230057   2.765   0.404   3.606  2.8907  0.0150  1.7848
 6200SOL     OW30058   2.310   0.492   8.615  0.7409  0.0265 -0.0760
 6200SOL    HW130059   2.309   0.399   8.638 -1.0188  0.5801  2.1576
 6200SOL    HW230060   2.224   0.505   8.574  0.5605 -1.2220 -0.1196
 6201SOL     OW30061   3.298   0.385   0.400  0.0497 -0.6157  0.2535
 6201SOL    HW130062   3.237   0.458   0.387 -0.8898 -1.0334  2.2644
 6201SOL    HW230063   3.377   0.438   0.387  0.3554 -1.2743 -0.5809
 6202SOL     OW30064   0.895   2.891   2.468 -0.3974  0.2129 -0.6005
 6202SOL    HW130065   0.954   2.953   2.511 -0.9794  0.3999 -0.0691
 6202SOL    HW230066   0.949   2.850   2.400  2.7422 -0.8483  2.5337
 6203SOL     OW30067   1.933   2.007   6.634 -0.3417  0.0632 -0.0409
 6203SOL    HW130068   1.860   2.007   6.695  0.0355  0.2465  0.4093
 6203SOL    HW230069   1.934   2.101   6.620  1.0248 -0.0917 -0.9817
 6204SOL     OW30070   2.305   3.771   8.569 -0.4565 -0.2293 -0.1270
 6204SOL    HW130071   2.386   3.726   8.544 -1.8577 -2.1804 -1.1010
 6204SOL    HW230072   2.267   3.687   8.594 -1.5047  0.5936  1.0061
 6205SOL     OW30073   2.602   1.807   5.286 -0.1441 -0.4138 -0.6572
 6205SOL    HW130074   2.509   1.800   5.263 -0.4217  0.8768  0.0640
 6205SOL    HW230075   2.602   1.782   5.378 -1.2909 -3.0558 -1.3736
 6206SOL     OW30076   1.048   2.499  10.856 -0.0806  0.1230 -0.1710
 6206SOL    HW130077   1.041   2.578  10.803  0.1971 -0.0089 -0.4049
 6206SOL    HW230078   1.143   2.493  10.864 -0.0768  1.7426  0.8448
 6207SOL     OW30079   2.176   1.238   8.194 -0.3888 -0.3390 -0.5304
 6207SOL    HW130080   2.157   1.304   8.127 -2.1628 -0.7938 -0.4711
 6207SOL    HW230081   2.183   1.292   8.273 -2.2213 -3.2420  1.6224
 6208SOL     OW30082   1.707   2.374   2.191  0.3308  0.1975  0.6936
 6208SOL    HW130083   1.783   2.431   2.204 -0.1980  1.0945 -0.1877
 6208SOL    HW230084   1.686   2.394   2.100 -1.1133  1.6012  1.3344
 6209SOL     OW30085   3.968   1.807   6.729  0.3072  1.1609 -0.3573
 6209SOL    HW130086   3.959   1.728   6.677 -1.0556 -0.2300  1.9895
 6209SOL    HW230087   4.019   1.860   6.668  3.5798  0.2577  1.6004
 6210SOL     OW30088   2.552   1.337   9.534  0.0287  0.0998 -0.4588
 6210SOL    HW130089   2.520   1.422   9.504  0.6589  0.7583  0.7309
 6210SOL    HW230090   2.585   1.364   9.620  0.7712 -0.3060 -0.6264
 6211SOL     OW30091   2.095   3.543   1.109 -0.2900  0.1246  0.1358
 6211SOL    HW130092   2.028   3.551   1.177 -0.3261  1.6316 -0.0804
 6211SOL    HW230093   2.175   3.541   1.163 -0.4572 -1.8703  0.3292
 6212SOL     OW30094   0.705   0.021   2.356  0.1392 -0.0555  0.3888
 6212SOL    HW130095   0.661   4.682   2.410  1.4119  0.3230  1.8656
 6212SOL    HW230096   0.640   0.026   2.286 -1.1520  0.3018  1.6450
 6213SOL     OW30097   0.297   0.075   0.966 -0.5993 -0.0533  0.1589
 6213SOL    HW130098   0.269   0.051   1.054  0.5249 -0.2074  0.4741
 6213SOL    HW230099   0.343   0.156   0.987  0.1146 -0.7123  1.1330
 6214SOL     OW30100   0.301   0.141  16.293  0.3004  0.0033 -0.1874
 6214SOL    HW130101   0.326   0.182  16.210  0.7690 -1.3403 -0.7102
 6214SOL    HW230102   0.386   0.107  16.319  0.9632  1.1443 -0.9138
 6215SOL     OW30103   3.096   2.818   5.425  0.6891 -0.6734 -0.3296
 6215SOL    HW130104   3.176   2.868   5.441 -0.9911  1.5076  1.2378
 6215SOL    HW230105   3.059   2.842   5.339  2.3463 -0.2360 -0.9251
 6216SOL     OW30106   3.381   2.135  14.284 -0.1525  0.2404 -0.7183
 6216SOL    HW130107   3.318   2.143  14.212  0.8742 -1.0972 -1.7752
 6216SOL    HW230108   3.432   2.214  14.265 -0.0403 -0.1613 -2.0959
 6217SOL     OW30109   1.776   1.623   9.255  0.1907  0.2403  0.0702
 6217SOL    HW130110   1.749   1.658   9.340  1.5010  0.4675  0.3959
 6217SOL    HW230111   1.710   1.655   9.193  1.0347  0.4868 -0.7121
 6218SOL     OW30112   0.690   2.554   9.231 -0.0342 -0.6609  0.4744
 6218SOL    HW130113   0.783   2.548   9.253  0.5319  1.6845 -1.2815
 6218SOL    HW230114   0.648   2.527   9.313  2.3101 -1.8782  1.2918
 6219SOL     OW30115   2.381   3.132  16.837  0.1098 -0.0320 -0.7604
 6219SOL    HW130116   2.414   3.042  16.843  1.4661  0.4164 -1.4835
 6219SOL    HW230117   2.293   3.127  16.798 -1.1634 -1.4417  2.3071
 6220SOL     OW30118   0.204   0.302   4.285  0.2350 -0.4328  0.3653
 6220SOL    HW130119   0.187   0.216   4.323 -0.2815 -0.6805 -0.4171
 6220SOL    HW230120   0.169   0.365   4.348  1.3911 -0.1716  0.7458
 6221SOL     OW30121   2.493   0.821   3.595  0.2086  0.4148  0.2415
 6221SOL    HW130122   2.556   0.883   3.632  1.0686  0.2314 -0.9382
 6221SOL    HW230123   2.499   0.837   3.501 -1.0865  0.0989  0.0987
 6222SOL     OW30124   2.004   1.526   6.471  0.0633 -0.0399 -0.0434
 6222SOL    HW130125   1.959   1.593   6.420 -0.4829  1.0488  1.8751
 6222SOL    HW230126   2.052   1.580   6.534 -1.1251  0.5505  0.3414
 6223SOL     OW30127   2.300   2.255   5.717  0.1165  0.2993 -0.6337
 6223SOL    HW130128   2.250   2.324   5.674 -2.6805 -1.5032 -0.2503
 6223SOL    HW230129   2.249   2.176   5.697 -0.0793  0.1675  0.3643
 6224SOL     OW30130   1.763   3.430   3.111  0.3734 -0.1887 -0.4679
 6224SOL    HW130131   1.800   3.455   3.196  0.8824 -0.3141 -0.6520
 6224SOL    HW230132   1.754   3.515   3.068 -1.5378 -1.5358 -2.7606
 6225SOL     OW30133   0.459   3.502   4.288  0.4564  0.0740 -0.1842
 6225SOL    HW130134   0.410   3.556   4.350  0.1892  1.1244 -1.3221
 6225SOL    HW230135   0.387   3.460   4.239 -0.1379  1.0966 -0.1752
 6226SOL     OW30136   0.681   3.949   3.993  0.3538  0.4994 -0.6113
 6226SOL    HW130137   0.589   3.930   3.977  0.5588 -0.6866 -0.3385
 6226SOL    HW230138   0.699   3.957   4.087  0.3470  0.9761 -0.6499
 6227SOL     OW30139   2.683   4.355   8.560  0.2190  0.2864 -0.7905
 6227SOL    HW130140   2.776   4.362   8.536  1.1218 -0.7912  2.4861
 6227SOL    HW230141   2.675   4.292   8.631  2.1461 -1.1240 -1.7906
 6228SOL     OW30142   2.178   4.239   6.159  0.1548  0.6404 -0.0416
 6228SOL    HW130143   2.233   4.273   6.089  1.5591  1.2799  1.3703
 6228SOL    HW230144   2.210   4.150   6.169  0.3556  0.6703 -0.4338
 6229SOL     OW30145   3.887   1.584  11.065 -0.2034  0.2624  0.1341
 6229SOL    HW130146   3.891   1.642  11.142 -0.0354  2.0658 -1.2433
 6229SOL    HW230147   3.928   1.508  11.106  1.9190 -0.0639 -2.6175
 6230SOL     OW30148   2.580   2.820  11.018  0.0367  0.2294  0.1488
 6230SOL    HW130149   2.640   2.818  11.092 -0.4867 -1.2379  0.5359
 6230SOL    HW230150   2.502   2.778  11.055 -0.8689  0.6992 -1.2390
 6231SOL     OW30151   3.811   4.501   8.999  0.2799 -0.0026 -0.0340
 6231SOL    HW130152   3.878   4.509   8.931  0.4815 -0.5669  0.1047
 6231SOL    HW230153   3.744   4.472   8.937  0.5196  0.7969 -0.6584
 6232SOL     OW30154   2.917   2.333   7.365  0.0851 -0.2565  0.0402
 6232SOL    HW130155   2.944   2.393   7.296 -1.6419  0.0119 -0.4089
 6232SOL    HW230156   2.976   2.350   7.439 -1.2666  2.2500  0.5299
 6233SOL     OW30157   3.727   1.463  11.827 -0.2135  0.0353 -0.0927
 6233SOL    HW130158   3.750   1.453  11.735 -2.0427  0.6178 -0.6200
 6233SOL    HW230159   3.678   1.546  11.823  2.8029  1.7265 -2.1950
 6234SOL     OW30160   0.853   2.882   4.684 -0.0962  0.8510  1.0511
 6234SOL    HW130161   0.867   2.830   4.763 -1.2723 -1.7489 -0.4574
 6234SOL    HW230162   0.765   2.913   4.705 -0.7451 -0.4438  0.2505
 6235SOL     OW30163   2.855   1.036   2.321  0.3758  0.1534  0.4735
 6235SOL    HW130164   2.909   1.094   2.374 -0.4175  0.1844  1.2443
 6235SOL    HW230165   2.778   1.041   2.377  0.4684 -0.6719  0.6721
 6236SOL     OW30166   4.305   0.523   9.422  0.7705  0.8997 -0.6123
 6236SOL    HW130167   4.300   0.558   9.511 -1.0073 -0.9900  0.0310
 6236SOL    HW230168   4.305   0.428   9.419  1.0400  0.9263 -1.5577
 6237SOL     OW30169   0.479   0.184   9.123 -0.3113 -0.1328  0.1867
 6237SOL    HW130170   0.489   0.094   9.093 -1.5358  0.6650 -2.6375
 6237SOL    HW230171   0.553   0.196   9.182  0.3483  1.0955 -0.9010
 6238SOL     OW30172   0.345   4.717   3.955  0.0765  0.1632 -0.0431
 6238SOL    HW130173   0.330   4.638   4.006  2.2274 -0.7459 -0.8026
 6238SOL    HW230174   0.273   4.712   3.892 -1.3738  2.8671  1.3856
 6239SOL     OW30175   3.536   3.840   1.239 -0.2466 -0.0320 -0.3939
 6239SOL    HW130176   3.499   3.793   1.314 -0.2880  2.1906  0.9615
 6239SOL    HW230177   3.599   3.774   1.208 -1.1186 -1.0208 -0.0875
 6240SOL     OW30178   0.122   1.329  14.077 -0.2078 -0.1034  0.5784
 6240SOL    HW130179   0.170   1.342  14.159  1.9889  2.6358 -1.1254
 6240SOL    HW230180   0.040   1.371  14.103  0.1667  0.1326  1.3623
 6241SOL     OW30181   1.261   2.277   8.787 -0.2034 -0.1374 -0.3017
 6241SOL    HW130182   1.348   2.238   8.781  1.0004  2.1767  1.9788
 6241SOL    HW230183   1.212   2.227   8.722 -0.8449 -0.2610  0.2779
 6242SOL     OW30184   4.187   0.557   0.027 -0.4541 -0.3156  0.1481
 6242SOL    HW130185   4.152   0.639   0.061  0.6734 -0.1397  0.8725
 6242SOL    HW230186   4.270   0.588  17.696 -0.2749  0.6110  1.3618
 6243SOL     OW30187   3.342   0.095  11.230  0.0960  0.2635 -0.0819
 6243SOL    HW130188   3.279   0.120  11.298  1.0356 -2.2630  1.6995
 6243SOL    HW230189   3.387   0.178  11.213 -0.9786  1.4749  2.8918
 6244SOL     OW30190   1.723   1.721   1.782 -0.5110  0.2076 -0.0300
 6244SOL    HW130191   1.774   1.716   1.862 -1.1913 -3.4912  0.1739
 6244SOL    HW230192   1.681   1.635   1.775 -0.7850  0.4137 -0.9866
 6245SOL     OW30193   4.219   1.555   9.043  0.3512  0.4591 -0.2213
 6245SOL    HW130194   4.136   1.566   9.090  0.8004 -0.6743  0.8405
 6245SOL    HW230195   4.285   1.553   9.113  1.8295  2.7494 -1.5497
 6246SOL     OW30196   0.824   1.739  17.325  0.6020 -1.0704 -0.1444
 6246SOL    HW130197   0.842   1.827  17.359 -2.1971 -0.0562 -1.3242
 6246SOL    HW230198   0.898   1.691  17.362 -0.8232 -1.6209  2.0198
 6247SOL     OW30199   3.060   0.569  10.785  0.4826 -0.0777 -0.8395
 6247SOL    HW130200   3.033   0.586  10.875 -1.1263 -0.1499 -1.3093
 6247SOL    HW230201   2.988   0.610  10.737  1.1153 -0.5549 -2.2045
 6248SOL     OW30202   1.412   1.141   3.928  0.4001 -0.1551  0.0708
 6248SOL    HW130203   1.426   1.124   4.021  2.0505  0.5159 -0.0553
 6248SOL    HW230204   1.372   1.228   3.929  0.6942 -0.0113 -1.4787
 6249SOL     OW30205   1.432   2.942   5.423 -0.5794 -0.1536  0.2340
 6249SOL    HW130206   1.406   3.032   5.402 -1.7822 -0.4355  0.5316
 6249SOL    HW230207   1.377   2.893   5.362 -0.9460  0.9389 -0.3159
 6250SOL     OW30208   3.670   1.804   2.236  0.2534 -1.1705 -0.2779
 6250SOL    HW130209   3.651   1.893   2.267  1.3300 -1.0726  0.1217
 6250SOL    HW230210   3.652   1.819   2.143 -2.1603 -0.9364  0.2414
 6251SOL     OW30211   0.928   2.964   4.418 -0.7614  0.0418 -0.1890
 6251SOL    HW130212   1.013   3.004   4.435 -0.7879  0.0586 -0.0964
 6251SOL    HW230213   0.915   2.919   4.502 -0.1777  3.9972  2.0044
 6252SOL     OW30214   3.483   4.584   7.792 -0.3678  0.6562  0.0059
 6252SOL    HW130215   3.409   4.580   7.732 -0.3477  0.6979 -0.0220
 6252SOL    HW230216   3.519   4.495   7.801  0.7222  0.9162 -1.7071
 6253SOL     OW30217   0.594   4.373  14.923 -0.2792 -0.4879 -0.4043
 6253SOL    HW130218   0.604   4.468  14.920 -2.8896 -0.2220 -0.4521
 6253SOL    HW230219   0.636   4.350  14.840 -0.6596 -1.2699 -0.3783
 6254SOL     OW30220   0.303   0.336   5.870  0.2045 -0.4419 -0.5663
 6254SOL    HW130221   0.284   0.253   5.826  1.2415 -1.7518  1.4695
 6254SOL    HW230222   0.399   0.335   5.871  0.1779  1.0776  2.3968
 6255SOL     OW30223   4.713   3.379   2.068  0.6113 -0.3204  0.0297
 6255SOL    HW130224   0.032   3.294   2.073 -0.0673 -0.6985 -0.3569
 6255SOL    HW230225   0.000   3.413   2.157  1.7958  0.1709 -0.3268
 6256SOL     OW30226   1.353   4.003   5.485  0.1830 -0.1758 -0.3319
 6256SOL    HW130227   1.444   4.029   5.498  0.9192 -1.5525 -2.7955
 6256SOL    HW230228   1.302   4.084   5.489  1.7373  0.7346  1.0668
 6257SOL     OW30229   4.056   1.246  14.963  0.1672 -0.9528  0.1086
 6257SOL    HW130230   4.048   1.213  15.053  0.4164 -1.3402 -0.0105
 6257SOL    HW230231   4.099   1.328  14.986  1.8799 -2.1069  1.0080
 6258SOL     OW30232   3.353   2.363   4.549  0.2430  0.3144 -0.0264
 6258SOL    HW130233   3.348   2.273   4.517  0.4515  0.2313  0.1836
 6258SOL    HW230234   3.436   2.364   4.595  0.3782 -0.2749 -0.2537
 6259SOL     OW30235   3.090   2.919   5.934  0.4399  0.3434 -0.2480
 6259SOL    HW130236   3.133   2.834   5.942 -0.7095 -0.1570  0.6813
 6259SOL    HW230237   3.172   2.965   5.916 -0.0552  1.5233  0.5310
 6260SOL     OW30238   2.981   1.291  17.513 -0.4227 -0.0259 -0.2919
 6260SOL    HW130239   2.975   1.340  17.431  2.6281  0.3973 -0.2532
 6260SOL    HW230240   3.032   1.219  17.474 -0.7653 -0.8311  0.7675
 6261SOL     OW30241   0.663   0.320  15.311  0.4710 -0.5113  0.1821
 6261SOL    HW130242   0.749   0.300  15.347  1.0835  1.3386 -0.2131
 6261SOL    HW230243   0.658   0.243  15.255  0.5309 -0.7895  0.5602
 6262SOL     OW30244   2.800   0.430   7.187  0.1638  0.1745 -0.1048
 6262SOL    HW130245   2.774   0.407   7.098  2.6821 -2.1482 -0.2152
 6262SOL    HW230246   2.895   0.425   7.185  0.1693 -0.3529  1.6260
 6263SOL     OW30247   4.334   2.057  10.740 -0.1128 -0.0116 -0.0477
 6263SOL    HW130248   4.302   1.968  10.754  0.9989 -0.6150 -1.2860
 6263SOL    HW230249   4.378   2.065  10.824 -2.0164 -0.4747  0.9891
 6264SOL     OW30250   1.294   0.515  12.790  0.0476 -0.5226 -0.1859
 6264SOL    HW130251   1.200   0.503  12.802  0.1040  0.0721  0.8479
 6264SOL    HW230252   1.310   0.606  12.816 -4.0550 -0.1571  0.9757
 6265SOL     OW30253   2.330   0.633  10.596  0.1513 -0.4698 -0.7113
 6265SOL    HW130254   2.350   0.636  10.503  0.2957  0.6886 -0.6485
 6265SOL    HW230255   2.402   0.585  10.638 -1.0910 -2.5333 -0.9407
 6266SOL     OW30256   2.283   0.291  10.672 -0.8447  0.2169 -0.2138
 6266SOL    HW130257   2.327   0.228  10.614  0.7515  0.4126  0.7848
 6266SOL    HW230258   2.350   0.357  10.655 -0.6784 -0.4435 -2.1766
 6267SOL     OW30259   3.993   2.614   5.287  0.6045 -0.7231  0.0597
 6267SOL    HW130260   3.954   2.572   5.210  0.4513 -1.0531  0.3138
 6267SOL    HW230261   4.072   2.656   5.253  0.2181  0.0755  0.1597
 6268SOL     OW30262   4.012   4.112  17.259 -0.3704  0.0094  0.1987
 6268SOL    HW130263   4.049   4.044  17.315 -0.0074  0.8734  1.0078
 6268SOL    HW230264   3.995   4.065  17.178  0.3947 -0.4979  0.3319
 6269SOL     OW30265   1.684   4.575   8.623  0.0107  0.2776  0.0942
 6269SOL    HW130266   1.606   4.526   8.651  0.1364 -0.3819 -0.7194
 6269SOL    HW230267   1.648   4.664   8.628 -1.7525 -0.3639 -1.5655
 6270SOL     OW30268   2.496   2.856  16.823 -0.3086  0.5275 -0.2914
 6270SOL    HW130269   2.590   2.871  16.817 -0.0001 -1.3707 -0.2211
 6270SOL    HW230270   2.456   2.842  16.737  1.8830 -0.6930 -1.1186
 6271SOL     OW30271   2.641   3.546   4.529  0.3922 -1.0190  0.0250
 6271SOL    HW130272   2.593   3.629   4.539  1.5076 -0.1244 -2.1070
 6271SOL    HW230273   2.727   3.575   4.499  0.6882 -0.5799  1.3140
 6272SOL     OW30274   2.266   2.234  14.690 -0.1627 -0.0043 -0.0253
 6272SOL    HW130275   2.313   2.197  14.764 -0.9731 -0.5048  0.2328
 6272SOL    HW230276   2.181   2.255  14.728  0.2562  1.0413  0.3447
 6273SOL     OW30277   4.037   1.726   4.937 -0.4702 -0.8334 -0.6797
 6273SOL    HW130278   3.964   1.787   4.926  1.0717  0.6383 -2.5690
 6273SOL    HW230279   3.991   1.646   4.965  1.6121 -1.6081  0.4890
 6274SOL     OW30280   3.549   2.047   2.351 -0.0922 -0.3283 -0.1779
 6274SOL    HW130281   3.455   2.058   2.363  0.1087  0.6788  0.5025
 6274SOL    HW230282   3.574   1.986   2.421  0.0563 -0.2889 -0.1953
 6275SOL     OW30283   3.816   3.792   5.285 -0.8919  0.5155 -0.5111
 6275SOL    HW130284   3.884   3.855   5.259  0.8741 -2.1033 -2.1443
 6275SOL    HW230285   3.757   3.857   5.324 -2.0712  0.6737 -2.5778
 6276SOL     OW30286   2.587   4.289  11.750 -0.1140  0.9456  0.0054
 6276SOL    HW130287   2.530   4.215  11.770  0.8996  0.3637  0.7220
 6276SOL    HW230288   2.569   4.345  11.825 -0.7344  1.5934 -0.6272
 6277SOL     OW30289   2.577   0.591  13.939 -0.0960  0.5622  0.3587
 6277SOL    HW130290   2.566   0.591  13.844 -1.7847 -0.5113  0.5499
 6277SOL    HW230291   2.536   0.506  13.955  1.5898 -0.4341 -0.6073
 6278SOL     OW30292   2.200   4.273  14.647 -0.6986 -0.2307  0.0893
 6278SOL    HW130293   2.138   4.239  14.583  1.2570 -1.3666 -1.1955
 6278SOL    HW230294   2.169   4.213  14.715  0.8188 -2.0765 -0.8328
 6279SOL     OW30295   1.862   3.483   3.346 -0.4484  0.3290  0.1799
 6279SOL    HW130296   1.845   3.572   3.376  2.0507  0.7852  0.2655
 6279SOL    HW230297   1.956   3.477   3.360 -0.1252  2.8557 -0.9235
 6280SOL     OW30298   2.067   1.380   3.589 -0.2870 -0.5295 -0.0150
 6280SOL    HW130299   2.082   1.287   3.603 -1.3428 -1.1994 -3.4379
 6280SOL    HW230300   1.996   1.376   3.653 -1.9233 -0.7729 -1.8485
 6281SOL     OW30301   0.101   2.030   8.879 -0.3078 -0.3615  0.5112
 6281SOL    HW130302   0.037   2.102   8.873  0.4776  0.3623  0.8324
 6281SOL    HW230303   0.041   1.956   8.872 -1.5446  0.7358 -0.6413
 6282SOL     OW30304   2.254   1.089   9.254 -0.1120 -0.4024  0.1317
 6282SOL    HW130305   2.302   1.064   9.175  1.5981  0.3547  0.9281
 6282SOL    HW230306   2.170   1.105   9.213  0.0909 -1.8554 -0.8630
 6283SOL     OW30307   2.277   3.574   8.982 -0.0235 -0.0586 -0.1836
 6283SOL    HW130308   2.215   3.506   8.955  1.7071 -1.4873 -0.5827
 6283SOL    HW230309   2.336   3.524   9.038  0.1742 -2.9765 -2.9492
 6284SOL     OW30310   3.730   2.452  10.359 -0.3581 -0.2969 -0.0605
 6284SOL    HW130311   3.813   2.475  10.402  0.1390 -1.3822 -0.4637
 6284SOL    HW230312   3.729   2.509  10.282 -0.0405  0.1557  0.2694
 6285SOL     OW30313   1.491   4.331   0.338  0.0321  0.2027 -0.5711
 6285SOL    HW130314   1.533   4.245   0.339 -0.0352  0.1926  1.7095
 6285SOL    HW230315   1.549   4.384   0.393 -1.4061  1.3099 -0.0949
 6286SOL     OW30316   2.087   2.436   7.683 -0.0377  0.0879  0.2638
 6286SOL    HW130317   2.093   2.342   7.663  0.3993  0.5447 -1.7131
 6286SOL    HW230318   2.149   2.436   7.756  0.2229  1.0197  0.0422
 6287SOL     OW30319   1.653   2.925   7.595 -0.3613 -0.2214 -0.0623
 6287SOL    HW130320   1.595   2.997   7.572 -1.8662 -1.6812 -0.8728
 6287SOL    HW230321   1.714   2.973   7.650 -0.5782  2.2329 -1.9983
 6288SOL     OW30322   4.627   1.838   8.844 -0.3495  0.5290 -0.1649
 6288SOL    HW130323   4.609   1.828   8.750  0.7051  3.7917 -0.6949
 6288SOL    HW230324   4.542   1.811   8.879  0.6638  1.5375  3.0690
 6289SOL     OW30325   4.235   0.277   2.807 -0.1040  0.3993  0.4251
 6289SOL    HW130326   4.233   0.306   2.898  1.9457  1.4974  0.1299
 6289SOL    HW230327   4.208   0.356   2.761 -0.7983 -0.3026 -0.3769
 6290SOL     OW30328   0.864   2.350  17.599  0.2341 -0.6112  0.5997
 6290SOL    HW130329   0.809   2.426  17.579  2.4185  1.2385  1.6125
 6290SOL    HW230330   0.942   2.354  17.543  0.7097 -0.6222  1.2512
 6291SOL     OW30331   4.260   2.420   5.983  0.3814 -0.3430  0.3202
 6291SOL    HW130332   4.213   2.464   5.912  0.7103  0.2354  0.4721
 6291SOL    HW230333   4.267   2.492   6.045 -2.1774  0.9765 -0.9447
 6292SOL     OW30334   2.200   1.300   4.560  0.1675  0.0756  0.1447
 6292SOL    HW130335   2.112   1.264   4.564  0.2099 -0.1601 -0.9652
 6292SOL    HW230336   2.237   1.253   4.634  0.3999  1.4372  0.8917
 6293SOL     OW30337   4.188   4.163   4.465 -0.3641 -0.4690  0.0056
 6293SOL    HW130338   4.202   4.231   4.530 -1.3351  0.7002 -1.0235
 6293SOL    HW230339   4.110   4.198   4.423 -1.5213 -3.5767 -0.4160
 6294SOL     OW30340   1.247   0.025   6.006 -0.4179 -0.3621 -1.2260
 6294SOL    HW130341   1.326   0.020   6.058 -0.9708  0.0896 -0.3514
 6294SOL    HW230342   1.193   0.080   6.062 -0.8339 -2.1028  0.0582
 6295SOL     OW30343   1.085   1.334   0.352  0.3277 -0.4230  0.1791
 6295SOL    HW130344   1.059   1.308   0.264  0.1805 -1.5950  0.5744
 6295SOL    HW230345   1.143   1.266   0.384  2.1977  1.2927  0.4658
 6296SOL     OW30346   3.319   1.231   6.072 -0.4385  0.0806  0.3817
 6296SOL    HW130347   3.293   1.322   6.056 -2.2400 -0.8397 -1.9665
 6296SOL    HW230348   3.351   1.238   6.162 -0.6759 -0.9035  0.5387
 6297SOL     OW30349   4.159   3.316   8.125  0.1308  0.5655 -0.4687
 6297SOL    HW130350   4.229   3.295   8.064 -0.4586 -3.8618  0.3888
 6297SOL    HW230351   4.091   3.257   8.092  0.3528  0.2306 -0.3276
 6298SOL     OW30352   3.490   1.487  10.069  0.0537 -0.8463 -0.3250
 6298SOL    HW130353   3.531   1.471   9.984  1.7351 -0.4914  0.4155
 6298SOL    HW230354   3.397   1.467  10.056 -0.0206 -2.1024  2.1646
 6299SOL     OW30355   2.868   3.582   3.894  0.2899  0.3317 -0.0352
 6299SOL    HW130356   2.864   3.677   3.884  1.6349  0.8562  4.4366
 6299SOL    HW230357   2.794   3.565   3.952  1.3681 -0.8178  1.0005
 6300SOL     OW30358   3.783   3.253   1.608  0.5600  0.3002 -0.3286
 6300SOL    HW130359   3.713   3.276   1.546 -0.4799  1.3810  1.2539
 6300SOL    HW230360   3.747   3.214   1.688  3.2158  0.7735  1.0793
 6301SOL     OW30361   2.355   3.134   0.145 -0.3562 -0.1017 -0.3049
 6301SOL    HW130362   2.278   3.164   0.098  0.6773 -0.7982 -2.4157
 6301SOL    HW230363   2.375   3.059   0.089  2.4080  0.9629 -0.7369
 6302SOL     OW30364   2.246   1.950   0.166  0.0489 -0.6047 -0.0239
 6302SOL    HW130365   2.307   1.876   0.173  1.0628  0.1776 -0.5705
 6302SOL    HW230366   2.231   1.943   0.072  3.2783  0.5956 -0.6205
 6303SOL     OW30367   1.546   2.516   7.891 -0.4181  0.4461  0.0146
 6303SOL    HW130368   1.477   2.555   7.838 -1.6644 -1.0600  0.5233
 6303SOL    HW230369   1.606   2.591   7.897 -0.3056  0.3426  0.1695
 6304SOL     OW30370   0.517   0.511   0.115  0.3767  0.1176 -0.3912
 6304SOL    HW130371   0.476   0.479   0.035  0.8746 -1.5601  0.0221
 6304SOL    HW230372   0.601   0.545   0.083  0.8521 -0.5269  0.1725
 6305SOL     OW30373   2.860   1.989   2.218 -0.3751  0.0095  0.0339
 6305SOL    HW130374   2.850   1.951   2.131 -3.1835  1.9896 -0.4929
 6305SOL    HW230375   2.774   2.031   2.225  0.2843  1.1302  1.4001
 6306SOL     OW30376   3.844   3.784   3.144  0.1274 -0.1428 -0.5964
 6306SOL    HW130377   3.792   3.722   3.195 -0.7268  1.8388  0.9324
 6306SOL    HW230378   3.893   3.735   3.078 -1.7848  0.7274 -2.6738
 6307SOL     OW30379   0.322   3.409   3.630 -0.0304  0.0199  0.2044
 6307SOL    HW130380   0.378   3.390   3.554 -0.2541  0.2636 -0.0193
 6307SOL    HW230381   0.383   3.410   3.704 -1.7735 -1.2820  1.6701
 6308SOL     OW30382   1.356   0.734   7.704 -0.5525  0.3178 -0.3651
 6308SOL    HW130383   1.419   0.693   7.645 -0.4811 -1.4011  0.8908
 6308SOL    HW230384   1.373   0.689   7.787  0.6846 -1.6096 -1.6880
 6309SOL     OW30385   1.586   3.168   3.682 -0.5602  0.0896  0.4398
 6309SOL    HW130386   1.552   3.234   3.743 -2.1809 -2.1912  2.0033
 6309SOL    HW230387   1.674   3.201   3.665 -1.2855  2.6131  1.5511
 6310SOL     OW30388   1.601   1.584   5.695 -0.1477  0.6515  0.3906
 6310SOL    HW130389   1.610   1.659   5.755  2.4289  1.0996 -0.5369
 6310SOL    HW230390   1.689   1.578   5.658 -0.9033  1.3314 -1.4952
 6311SOL     OW30391   2.260   2.523  10.704  0.1973  0.3474 -0.0423
 6311SOL    HW130392   2.233   2.432  10.694 -1.6742  0.9702 -0.8610
 6311SOL    HW230393   2.182   2.567  10.668  0.8228  0.4849 -1.2201
 6312SOL     OW30394   4.154   2.649   5.534 -0.2438 -0.2884  0.4443
 6312SOL    HW130395   4.095   2.656   5.460  0.6801  3.6042  0.0724
 6312SOL    HW230396   4.236   2.629   5.489 -1.0714 -1.7756 -0.3757
 6313SOL     OW30397   2.353   3.549   3.221  0.5875  0.7072 -0.8660
 6313SOL    HW130398   2.424   3.511   3.170  0.4371  1.2882 -1.5032
 6313SOL    HW230399   2.384   3.633   3.254  1.0984  0.6648 -1.2423
 6314SOL     OW30400   3.637   2.658  11.591 -0.1026  0.3446  0.1601
 6314SOL    HW130401   3.574   2.661  11.519 -1.0115 -3.2538  0.7715
 6314SOL    HW230402   3.717   2.651  11.538 -0.8458 -0.7874 -0.8319
 6315SOL     OW30403   1.709   3.569   4.994  0.8014  0.1132  0.3316
 6315SOL    HW130404   1.710   3.652   5.042 -3.8829 -0.2300  1.0242
 6315SOL    HW230405   1.615   3.551   4.998  1.0028 -0.9885  0.1414
 6316SOL     OW30406   4.017   1.519   8.696 -0.5971 -0.5964 -0.0927
 6316SOL    HW130407   3.983   1.431   8.710  0.3859 -1.2336 -1.7951
 6316SOL    HW230408   3.953   1.566   8.749  0.6710  1.2384 -0.1956
 6317SOL     OW30409   0.482   0.321  14.932  0.0262 -0.1540 -0.4215
 6317SOL    HW130410   0.464   0.243  14.985 -1.3158 -0.4240 -1.2718
 6317SOL    HW230411   0.427   0.392  14.966  1.5486  0.5252  0.5972
 6318SOL     OW30412   3.750   0.700   1.965 -0.0450 -0.5740 -0.4176
 6318SOL    HW130413   3.703   0.783   1.977 -1.5617 -1.5605  0.4390
 6318SOL    HW230414   3.685   0.645   1.922  1.0990 -1.0752 -1.5203
 6319SOL     OW30415   1.453   0.536   5.997  0.1093  0.5344 -0.2333
 6319SOL    HW130416   1.401   0.564   5.922  1.3962 -0.7602 -1.5830
 6319SOL    HW230417   1.467   0.619   6.043  2.3413 -1.9121  3.5669
 6320SOL     OW30418   0.007   4.673  10.854  0.2303  0.6333 -0.0037
 6320SOL    HW130419   0.058   4.704  10.779  0.8581  0.9688  0.5512
 6320SOL    HW230420   4.723   4.582  10.826  0.4189  0.6187 -0.0250
 6321SOL     OW30421   2.723   1.130  14.313  0.9201  0.0148  0.4300
 6321SOL    HW130422   2.695   1.117  14.403  0.5060  0.0865  0.3135
 6321SOL    HW230423   2.817   1.133  14.329  1.1326 -1.2090 -0.5843
 6322SOL     OW30424   1.224   3.152   5.762  0.1271 -1.0040  0.7753
 6322SOL    HW130425   1.165   3.208   5.711 -1.0074 -2.6051  0.3214
 6322SOL    HW230426   1.306   3.181   5.724 -1.0383  0.6713 -0.4776
 6323SOL     OW30427   0.705   2.079   3.227 -0.1114  0.1423 -0.5444
 6323SOL    HW130428   0.618   2.083   3.188 -0.5140  2.3481  0.5633
 6323SOL    HW230429   0.708   1.986   3.246  0.1756  0.2651  0.0143
 6324SOL     OW30430   3.449   1.870   8.376 -0.0823 -0.6564  0.8652
 6324SOL    HW130431   3.424   1.784   8.408  3.1130 -2.9334 -2.7334
 6324SOL    HW230432   3.423   1.921   8.453  1.6042  2.1189 -0.4080
 6325SOL     OW30433   4.334   4.216   7.794 -0.0696 -0.0796 -0.1609
 6325SOL    HW130434   4.299   4.160   7.724 -1.8547  1.1509 -0.2543
 6325SOL    HW230435   4.299   4.177   7.874 -2.7689  1.6950 -0.4724
 6326SOL     OW30436   4.198   2.366   1.386 -0.7608  0.2327  0.3918
 6326SOL    HW130437   4.117   2.330   1.421 -0.4942  0.6010  1.4062
 6326SOL    HW230438   4.256   2.295   1.415 -0.1901  1.1441  1.4934
 6327SOL     OW30439   3.121   2.811   6.837  0.2967  0.0792  0.0787
 6327SOL    HW130440   3.060   2.879   6.865 -1.5284 -1.0747 -1.0599
 6327SOL    HW230441   3.144   2.783   6.925 -1.3038  2.3711  1.2258
 6328SOL     OW30442   3.125   2.282  11.333 -0.3906 -0.1078  0.3157
 6328SOL    HW130443   3.048   2.228  11.316  0.0035 -0.9871  1.3091
 6328SOL    HW230444   3.192   2.216  11.312  0.5635  0.5698  1.2592
 6329SOL     OW30445   0.613   4.674   3.020  0.0508  0.2676  0.5656
 6329SOL    HW130446   0.615   0.004   2.943 -0.1716 -0.6970 -0.1364
 6329SOL    HW230447   0.612   4.591   2.972  1.0063 -0.8646  2.4802
 6330SOL     OW30448   1.226   2.736   8.113  0.1042  0.6793  0.4721
 6330SOL    HW130449   1.229   2.641   8.108 -3.9160  0.6031 -0.7046
 6330SOL    HW230450   1.263   2.737   8.202 -1.7912  0.8076  1.2566
 6331SOL     OW30451   1.078   1.558   3.405 -0.1053  0.9124  0.6289
 6331SOL    HW130452   1.004   1.546   3.465 -0.5441 -1.6658 -0.4353
 6331SOL    HW230453   1.109   1.467   3.409  1.3190  1.3527 -0.2478
 6332SOL     OW30454   3.368   4.716  12.316 -0.5056  0.3606  0.4255
 6332SOL    HW130455   3.326   4.639  12.355 -0.3054  0.0471  0.0330
 6332SOL    HW230456   3.313   4.719  12.238  2.0435 -0.2739 -1.4032
 6333SOL     OW30457   0.779   0.810   6.135  0.7091  0.0893 -0.0314
 6333SOL    HW130458   0.746   0.747   6.070 -0.0842 -0.4190  0.8566
 6333SOL    HW230459   0.781   0.887   6.079 -0.3477 -0.1626 -0.4189
 6334SOL     OW30460   2.132   4.543   7.935  0.2424  0.2910  0.3434
 6334SOL    HW130461   2.076   4.543   7.857  0.7701 -1.5942 -0.0475
 6334SOL    HW230462   2.131   4.635   7.961 -1.2632  0.2843  0.2769
 6335SOL     OW30463   4.173   2.779  14.825  0.2125 -0.5801  0.1780
 6335SOL    HW130464   4.233   2.707  14.804 -0.6214 -1.5324  1.0886
 6335SOL    HW230465   4.094   2.734  14.795  0.5353 -1.8680  1.2656
 6336SOL     OW30466   4.018   0.044  11.082  0.2507 -0.8677  0.3955
 6336SOL    HW130467   4.081   0.023  11.151  1.0467 -0.4257 -0.2050
 6336SOL    HW230468   4.013   4.679  11.050 -0.7307 -0.5624 -0.3305
 6337SOL     OW30469   2.075   1.003   0.642 -0.2224  0.2681 -1.0523
 6337SOL    HW130470   2.054   1.091   0.612 -2.0375  0.7292  1.6286
 6337SOL    HW230471   2.163   1.018   0.674 -0.8716  0.2359  0.7138
 6338SOL     OW30472   2.947   0.871  16.104  0.0970 -0.0457  0.5541
 6338SOL    HW130473   2.950   0.835  16.015  2.0120  2.0825 -0.2247
 6338SOL    HW230474   2.871   0.821  16.137  0.0961  0.4123  1.2544
 6339SOL     OW30475   1.611   2.645  11.575 -0.2121  0.5686  0.0817
 6339SOL    HW130476   1.530   2.624  11.622  1.4249 -2.2027  1.6607
 6339SOL    HW230477   1.614   2.739  11.560 -2.8362  0.8673  1.4743
 6340SOL     OW30478   2.269   1.715   0.938 -0.6857  0.2236 -0.1349
 6340SOL    HW130479   2.340   1.746   0.995 -0.4860 -3.2657  1.5253
 6340SOL    HW230480   2.305   1.722   0.850 -1.2900  0.7577 -0.3400
 6341SOL     OW30481   2.061   3.739   8.047  0.0164  0.1677 -0.3589
 6341SOL    HW130482   2.095   3.766   8.132  2.1923 -1.4071 -0.6976
 6341SOL    HW230483   2.107   3.799   7.988 -1.8426 -0.4118 -2.3731
 6342SOL     OW30484   2.242   4.315   6.526 -0.1804 -0.0620  0.2930
 6342SOL    HW130485   2.285   4.233   6.550 -2.6604 -1.6268 -0.5935
 6342SOL    HW230486   2.183   4.326   6.601 -0.2021  3.0631 -0.2108
 6343SOL     OW30487   0.139   1.978   8.581 -0.4991 -0.2874  0.1912
 6343SOL    HW130488   0.168   2.028   8.657 -1.7085 -1.8377  1.6541
 6343SOL    HW230489   0.212   1.991   8.521  1.5752  0.0010  2.7709
 6344SOL     OW30490   3.249   0.612   1.421 -0.0527  0.4344 -0.6578
 6344SOL    HW130491   3.191   0.566   1.361 -0.3247  1.9357 -1.5451
 6344SOL    HW230492   3.250   0.700   1.383 -0.6670  1.1317  0.9515
 6345SOL     OW30493   4.684   1.103  13.931  0.1127 -0.4382  0.6085
 6345SOL    HW130494   4.711   1.194  13.943  0.3201 -0.4136 -0.0030
 6345SOL    HW230495   0.028   1.079  13.871 -1.8124  0.7430 -2.1550
 6346SOL     OW30496   1.190   3.678   1.883  0.0401  0.5225 -0.0399
 6346SOL    HW130497   1.217   3.769   1.893  0.2869  0.4144  0.2801
 6346SOL    HW230498   1.259   3.615   1.906 -0.4554 -0.3255 -0.8941
 6347SOL     OW30499   3.891   4.035   6.331  0.6954  0.7190 -0.2589
 6347SOL    HW130500   3.855   3.963   6.382 -3.2591  3.2429  0.4900
 6347SOL    HW230501   3.818   4.058   6.274 -0.2646 -1.4426  0.1369
 6348SOL     OW30502   0.989   1.371   8.911 -0.0556  0.2703 -0.1158
 6348SOL    HW130503   1.014   1.454   8.870 -0.0909  0.7857  0.8954
 6348SOL    HW230504   0.913   1.342   8.860  0.8097 -0.6210 -0.8707
 6349SOL     OW30505   1.764   0.276  15.648  0.2422 -0.0999 -1.0958
 6349SOL    HW130506   1.745   0.218  15.575 -0.2187 -2.8310  1.2113
 6349SOL    HW230507   1.859   0.278  15.635  0.2264  3.0784 -0.7605
 6350SOL     OW30508   0.691   4.320   6.553  0.3485 -0.4141 -0.5799
 6350SOL    HW130509   0.767   4.267   6.576  0.1400 -1.2913 -1.9354
 6350SOL    HW230510   0.721   4.407   6.578 -0.5997 -0.1338 -0.4067
 6351SOL     OW30511   3.587   2.726   2.172  0.0832  0.6343  0.2857
 6351SOL    HW130512   3.561   2.639   2.142  1.3607 -0.0702  1.2167
 6351SOL    HW230513   3.680   2.706   2.168 -0.2693 -1.0744  0.8632
 6352SOL     OW30514   1.268   0.534   7.026 -0.0749  0.2913 -0.1725
 6352SOL    HW130515   1.361   0.545   7.045  0.0961 -1.0733 -0.2422
 6352SOL    HW230516   1.245   0.478   7.100  0.2670  1.8862  1.1520
 6353SOL     OW30517   0.906   1.843   6.057  0.1532  0.2030  0.1585
 6353SOL    HW130518   0.874   1.761   6.018  0.0390  0.9756 -1.3525
 6353SOL    HW230519   1.000   1.825   6.069  0.6450  0.5847 -3.1327
 6354SOL     OW30520   2.346   3.474  14.674  0.0474  0.4195 -0.2189
 6354SOL    HW130521   2.361   3.497  14.582  0.9132  0.9382  0.0520
 6354SOL    HW230522   2.415   3.412  14.694  0.9892  1.8974  1.0698
 6355SOL     OW30523   3.011   4.524   2.842  0.0091  0.3640  0.5794
 6355SOL    HW130524   3.089   4.544   2.894 -1.1078  0.7004  2.1600
 6355SOL    HW230525   2.968   4.451   2.887 -2.7784  1.4440 -0.2884
 6356SOL     OW30526   0.777   0.316   8.405 -0.1728 -0.4994 -0.3574
 6356SOL    HW130527   0.776   0.387   8.340 -0.2941  0.1919  0.3942
 6356SOL    HW230528   0.812   0.362   8.482 -0.7723  1.0030 -0.9701
 6357SOL     OW30529   1.467   3.593   3.902 -0.0470 -0.9384  0.3191
 6357SOL    HW130530   1.396   3.578   3.839 -0.4896 -0.5948  0.7326
 6357SOL    HW230531   1.455   3.684   3.930  1.8151 -0.3590 -0.7395
 6358SOL     OW30532   3.315   2.678   4.506 -0.1739  0.3431  0.2020
 6358SOL    HW130533   3.276   2.595   4.480 -2.4256  1.4092  0.1725
 6358SOL    HW230534   3.376   2.662   4.578  2.6987  0.5151 -2.1772
 6359SOL     OW30535   1.543   3.582   4.180  0.0744 -0.0889  0.0233
 6359SOL    HW130536   1.513   3.581   4.090  0.8895 -0.6162 -0.2435
 6359SOL    HW230537   1.530   3.492   4.211  1.3525 -0.1806  0.3058
 6360SOL     OW30538   1.679   4.178  13.618  0.0130  0.9665  0.2957
 6360SOL    HW130539   1.732   4.256  13.633  0.0107  0.7244  1.5195
 6360SOL    HW230540   1.661   4.193  13.525 -1.6056  0.7638  0.5690
 6361SOL     OW30541   1.181   3.959  13.463 -0.4158  0.4477 -0.4729
 6361SOL    HW130542   1.213   4.048  13.475 -0.4389  0.7382 -2.5598
 6361SOL    HW230543   1.136   3.935  13.544  0.0980  0.4260 -0.1961
 6362SOL     OW30544   4.025   3.834   2.604 -0.1278  0.4352 -0.1847
 6362SOL    HW130545   4.100   3.774   2.600 -1.1744 -0.7697 -1.6510
 6362SOL    HW230546   4.072   3.916   2.620 -1.9864  1.3477  0.5358
 6363SOL     OW30547   3.197   3.149   1.496  0.1605  0.0965  0.5234
 6363SOL    HW130548   3.175   3.232   1.539 -1.9784  0.1058 -0.5826
 6363SOL    HW230549   3.116   3.106   1.468  2.8373 -3.5058 -1.6195
 6364SOL     OW30550   4.358   2.583   1.438 -0.1154 -0.6261 -0.8260
 6364SOL    HW130551   4.316   2.507   1.397 -0.1116 -1.8956  1.4870
 6364SOL    HW230552   4.429   2.537   1.484  1.8793  1.7437 -1.5382
 6365SOL     OW30553   2.254   1.977   0.770  0.2932 -0.4265  0.2540
 6365SOL    HW130554   2.194   1.980   0.845  0.3587 -0.1637  0.2940
 6365SOL    HW230555   2.329   2.020   0.811  2.1918 -0.0958 -3.5452
 6366SOL     OW30556   2.334   2.542   8.858 -0.0198 -0.7247 -0.3599
 6366SOL    HW130557   2.330   2.503   8.945 -0.9863  0.0953 -0.0440
 6366SOL    HW230558   2.374   2.463   8.821 -1.4564 -1.5431 -0.1938
 6367SOL     OW30559   2.944   2.227  13.961  0.4002  0.5062 -0.4034
 6367SOL    HW130560   2.930   2.192  13.873 -0.6510 -1.4332  0.5372
 6367SOL    HW230561   2.899   2.310  13.948  1.1259  0.7475 -1.3849
 6368SOL     OW30562   0.725   4.196  11.468  0.0550  0.4421 -0.6354
 6368SOL    HW130563   0.722   4.127  11.534 -2.5468 -0.9434 -2.1849
 6368SOL    HW230564   0.651   4.251  11.495  0.0912  0.4222 -0.4941
 6369SOL     OW30565   1.132   1.492   8.176 -0.2870 -0.4332 -0.4301
 6369SOL    HW130566   1.102   1.553   8.109 -1.9116 -0.1593  0.5566
 6369SOL    HW230567   1.227   1.488   8.167 -0.5591 -5.2345 -1.1067
 6370SOL     OW30568   4.104   0.735   6.457  0.5009 -0.0983  0.1513
 6370SOL    HW130569   4.072   0.681   6.385  2.1344 -0.9437  0.0583
 6370SOL    HW230570   4.180   0.784   6.427  1.0333 -0.4875  0.8530
 6371SOL     OW30571   2.807   1.466   3.706  0.5804  0.1266  0.4202
 6371SOL    HW130572   2.834   1.534   3.768  4.0709 -0.2393 -0.7025
 6371SOL    HW230573   2.729   1.512   3.676  1.1217  1.8584  1.6722
 6372SOL     OW30574   2.601   0.156  16.350 -0.1566  0.3621  0.1266
 6372SOL    HW130575   2.566   0.093  16.412 -2.1396 -0.0678 -1.4597
 6372SOL    HW230576   2.526   0.211  16.329 -1.1009 -1.4699 -1.2406
 6373SOL     OW30577   1.851   3.917   6.186 -0.0748  0.1519 -0.1270
 6373SOL    HW130578   1.888   4.003   6.206  0.1836  0.7096 -3.0949
 6373SOL    HW230579   1.919   3.857   6.156 -0.5954 -0.9250  0.8591
 6374SOL     OW30580   1.580   2.001  16.334  0.0652 -0.2445  0.1872
 6374SOL    HW130581   1.657   1.978  16.283 -0.0832  1.9306 -1.0501
 6374SOL    HW230582   1.536   1.921  16.364  1.1829 -0.3051  1.6943
 6375SOL     OW30583   1.139   4.360  16.403  0.2425  0.6508  0.0370
 6375SOL    HW130584   1.180   4.313  16.330  1.3948 -2.2712  2.5433
 6375SOL    HW230585   1.196   4.424  16.443 -0.7324  1.3546  0.2975
 6376SOL     OW30586   4.517   1.599   3.719  0.2546  0.4023  0.1024
 6376SOL    HW130587   4.565   1.604   3.636 -1.0466  0.9316 -0.6140
 6376SOL    HW230588   4.583   1.551   3.768  1.6032 -0.1161 -2.2056
 6377SOL     OW30589   3.062   0.294   1.846 -0.1011 -0.5177 -0.7391
 6377SOL    HW130590   3.138   0.237   1.836  0.4134  0.1524 -0.6292
 6377SOL    HW230591   2.999   0.229   1.814 -0.4521 -1.6724  2.2549
 6378SOL     OW30592   0.007   4.224   8.207 -0.9466 -0.2193 -0.2572
 6378SOL    HW130593   4.669   4.287   8.241 -0.7803  0.0823 -0.5070
 6378SOL    HW230594   0.011   4.265   8.121 -2.1304  0.4595  0.0088
 6379SOL     OW30595   3.458   4.493   6.884 -0.3406 -0.1241 -0.0794
 6379SOL    HW130596   3.422   4.554   6.948 -0.0720 -1.4312  1.3053
 6379SOL    HW230597   3.539   4.476   6.933 -2.3564  2.0194  4.0066
 6380SOL     OW30598   2.084   3.837   9.913 -0.4470 -0.1726  0.1778
 6380SOL    HW130599   2.076   3.783   9.991 -0.5184 -1.4076 -0.6670
 6380SOL    HW230600   2.155   3.897   9.934  0.0585 -0.3795 -0.9333
 6381SOL     OW30601   2.101   1.093  12.687 -0.3161 -0.1030  0.2890
 6381SOL    HW130602   2.035   1.094  12.756 -1.2965 -3.3677 -0.5944
 6381SOL    HW230603   2.052   1.099  12.605  0.5085  0.6307 -0.1565
 6382SOL     OW30604   2.872   1.816   4.501  0.7691  0.1105 -0.3458
 6382SOL    HW130605   2.842   1.891   4.450  2.0704  0.4848 -0.5524
 6382SOL    HW230606   2.864   1.852   4.590 -0.2127 -2.2800  0.5374
 6383SOL     OW30607   3.631   2.412  17.395 -0.7998 -0.9650  0.4182
 6383SOL    HW130608   3.604   2.504  17.402 -0.6965 -0.9627  0.7725
 6383SOL    HW230609   3.554   2.379  17.349 -1.6622  1.5733  0.0529
 6384SOL     OW30610   1.354   4.709   5.725  0.4571 -0.2866 -0.0769
 6384SOL    HW130611   1.300   4.724   5.803 -1.4693 -2.3379 -1.0290
 6384SOL    HW230612   1.367   0.073   5.693  0.7467 -0.5281 -0.6527
 6385SOL     OW30613   3.534   3.056   8.360 -0.0984  0.2316  0.4134
 6385SOL    HW130614   3.474   3.129   8.375  0.3727  0.6153  0.4211
 6385SOL    HW230615   3.517   2.989   8.426  0.2085 -0.4655 -0.2143
 6386SOL     OW30616   0.421   4.137  16.850  0.0137  0.0336 -0.3742
 6386SOL    HW130617   0.460   4.057  16.885 -0.9138  0.3724  1.4799
 6386SOL    HW230618   0.438   4.127  16.757 -0.8983  0.7261 -0.6192
 6387SOL     OW30619   4.219   0.171   6.634  0.5325  0.3180 -0.7805
 6387SOL    HW130620   4.176   0.087   6.654 -1.3017  1.5013  0.2671
 6387SOL    HW230621   4.175   0.192   6.551  2.4927  1.1617 -1.5968
 6388SOL     OW30622   4.149   0.189  10.729 -0.3383 -0.2812 -0.3925
 6388SOL    HW130623   4.155   0.262  10.791  0.2266 -1.9579  1.5520
 6388SOL    HW230624   4.079   0.128  10.754 -0.7874 -0.2700 -1.6396
 6389SOL     OW30625   3.565   3.486   3.664 -0.0767  0.7773  0.5744
 6389SOL    HW130626   3.495   3.421   3.659 -1.7948  2.6901  0.0486
 6389SOL    HW230627   3.581   3.482   3.570  0.2600  2.4831  0.5630
 6390SOL     OW30628   0.188   3.102   4.138  0.5520  0.0889 -0.5428
 6390SOL    HW130629   0.108   3.107   4.086 -0.2804 -0.2957  0.6903
 6390SOL    HW230630   0.215   3.193   4.146  0.3675  0.3987 -3.4666
 6391SOL     OW30631   2.818   2.568   2.532  0.5478  0.8307  0.5323
 6391SOL    HW130632   2.912   2.582   2.535  0.8679 -1.1911  0.0331
 6391SOL    HW230633   2.796   2.612   2.450  1.6744  1.1500  0.4101
 6392SOL     OW30634   4.722   4.164   8.752 -0.4848 -0.1815  0.3969
 6392SOL    HW130635   4.679   4.078   8.757 -2.2766  0.5985 -1.5762
 6392SOL    HW230636   0.086   4.137   8.772  0.5878  2.8633 -0.3864
 6393SOL     OW30637   1.048   0.712   6.971  0.6112  0.1898 -0.0782
 6393SOL    HW130638   1.075   0.785   6.915 -1.4602  0.7095 -0.3845
 6393SOL    HW230639   1.108   0.644   6.941 -1.1548 -0.8865 -1.1289
 6394SOL     OW30640   4.506   1.142   7.920 -0.6833 -0.1503 -0.9283
 6394SOL    HW130641   4.431   1.195   7.943 -0.9876 -0.3596 -1.4325
 6394SOL    HW230642   4.478   1.127   7.829 -3.3686  1.1863 -0.2933
 6395SOL     OW30643   1.361   4.176   2.647 -0.5449 -0.3990  0.1458
 6395SOL    HW130644   1.391   4.107   2.706  0.4191  0.4375  0.6441
 6395SOL    HW230645   1.393   4.258   2.686 -1.2585 -0.4650  0.8713
 6396SOL     OW30646   2.027   3.648  12.192  0.0937  0.4873 -0.1086
 6396SOL    HW130647   2.092   3.641  12.261 -0.6049  0.0995  0.5014
 6396SOL    HW230648   1.944   3.620  12.229 -0.6833  0.6494 -1.6952
 6397SOL     OW30649   2.688   0.745  11.027  0.7021  0.1935 -0.2000
 6397SOL    HW130650   2.739   0.664  11.038 -0.4476 -0.8118 -2.3294
 6397SOL    HW230651   2.732   0.812  11.079 -0.9988  0.4567  0.8707
 6398SOL     OW30652   1.861   2.026  15.927 -0.1306 -0.2606  0.1415
 6398SOL    HW130653   1.784   1.972  15.944 -1.9527  2.7753  1.4223
 6398SOL    HW230654   1.820   2.110  15.907  0.0205  0.1861  1.6830
 6399SOL     OW30655   2.432   0.867  12.473 -0.4109  0.2103  0.7307
 6399SOL    HW130656   2.511   0.918  12.462 -0.9785  1.0438  0.5429
 6399SOL    HW230657   2.466   0.797  12.529  2.6926  0.3754 -0.9741
 6400SOL     OW30658   3.887   0.915   8.034  0.0837  0.2748  0.0382
 6400SOL    HW130659   3.905   0.958   8.118 -1.3548 -1.9657  1.5033
 6400SOL    HW230660   3.967   0.939   7.988  0.2161  0.8026  0.5514
 6401SOL     OW30661   3.220   1.473   6.012 -0.2873 -0.0707  0.0672
 6401SOL    HW130662   3.270   1.478   5.930 -3.1467 -0.2255 -1.7169
 6401SOL    HW230663   3.203   1.564   6.036  0.1280  1.0057 -3.6218
 6402SOL     OW30664   2.727   0.321  15.953 -0.0214  0.3289  0.1029
 6402SOL    HW130665   2.645   0.363  15.976  0.7307  1.9428 -0.2056
 6402SOL    HW230666   2.766   0.383  15.892 -1.7283 -2.4408 -3.8234
 6403SOL     OW30667   3.335   3.139   8.547  0.0443  0.0837 -0.2157
 6403SOL    HW130668   3.381   3.061   8.576 -3.0798 -0.9716  1.9502
 6403SOL    HW230669   3.316   3.176   8.634 -3.4418 -1.9260 -0.1105
 6404SOL     OW30670   2.215   0.764   4.828 -0.3417  0.1688  0.7269
 6404SOL    HW130671   2.185   0.772   4.918  0.2963  1.6094  0.8045
 6404SOL    HW230672   2.280   0.833   4.835 -1.3235  1.4090 -2.2693
 6405SOL     OW30673   0.529   3.800   4.746  0.5429  0.2799 -0.3154
 6405SOL    HW130674   0.618   3.764   4.741  1.2875  1.9272  1.5193
 6405SOL    HW230675   0.547   3.893   4.759 -3.0991  0.9771 -0.4541
 6406SOL     OW30676   3.873   1.481   1.897 -0.8717  0.5627 -0.1490
 6406SOL    HW130677   3.961   1.490   1.860 -0.2786  0.7548  1.3177
 6406SOL    HW230678   3.831   1.479   1.811 -2.5052  0.0041  0.6584
 6407SOL     OW30679   4.574   4.723   3.937  0.4376 -0.1001  0.5889
 6407SOL    HW130680   4.598   4.694   4.025 -1.7645 -2.0344  0.5512
 6407SOL    HW230681   4.574   0.092   3.951  0.0814  0.2001 -1.4015
 6408SOL     OW30682   3.008   2.191  17.019 -0.1923 -0.0025 -0.1526
 6408SOL    HW130683   3.018   2.103  16.982  0.9397 -0.1240  0.4476
 6408SOL    HW230684   3.097   2.209  17.051 -1.1472  1.1936  1.7908
 6409SOL     OW30685   1.261   0.785   8.515 -0.1086 -0.1114  0.4145
 6409SOL    HW130686   1.257   0.862   8.458  2.2059 -0.3257 -0.0406
 6409SOL    HW230687   1.330   0.739   8.466 -1.0864 -0.5000 -0.5859
 6410SOL     OW30688   3.387   0.969   1.494 -0.0724  0.2534  0.6203
 6410SOL    HW130689   3.387   0.960   1.589 -2.3022 -0.0639  0.6012
 6410SOL    HW230690   3.452   0.899   1.479 -0.3263  0.3851 -1.1560
 6411SOL     OW30691   3.865   1.224   7.646 -0.6969  0.1044  0.0947
 6411SOL    HW130692   3.865   1.129   7.633 -2.0872  0.1796 -0.4589
 6411SOL    HW230693   3.902   1.230   7.734  0.5822 -1.3977 -0.3486
 6412SOL     OW30694   2.812   1.687   8.596 -0.7559 -0.5855  0.1362
 6412SOL    HW130695   2.854   1.607   8.627 -1.6250 -0.9300  0.4436
 6412SOL    HW230696   2.734   1.644   8.560 -1.2451  0.6924 -0.3222
 6413SOL     OW30697   0.585   1.242  14.324  0.5627  0.2124 -0.1544
 6413SOL    HW130698   0.614   1.308  14.386 -0.0519  1.7997 -1.5611
 6413SOL    HW230699   0.546   1.296  14.256 -0.5149 -0.0700  0.2436
 6414SOL     OW30700   3.881   2.972  16.888 -0.0827  0.5077 -0.3657
 6414SOL    HW130701   3.961   2.930  16.920  0.0297  2.5569  1.9855
 6414SOL    HW230702   3.922   3.045  16.841 -0.5495  0.5020 -0.7927
 6415SOL     OW30703   2.065   2.972   1.594  0.8046 -0.0009 -0.6787
 6415SOL    HW130704   2.096   2.969   1.504 -1.3541 -0.0381 -1.4360
 6415SOL    HW230705   2.034   3.063   1.598 -0.2414 -0.3728 -0.4013
 6416SOL     OW30706   2.289   0.059  11.427 -0.6148 -0.3302  0.0236
 6416SOL    HW130707   2.229   0.117  11.380  0.0125 -0.5517 -1.0376
 6416SOL    HW230708   2.234   4.708  11.438 -0.2429 -0.6229 -0.1901
 6417SOL     OW30709   2.518   1.056   1.918  0.4754 -0.3267  0.1370
 6417SOL    HW130710   2.510   1.087   2.008 -1.7865 -1.1106  0.2152
 6417SOL    HW230711   2.477   1.121   1.860  0.1493 -0.5636  0.1003
 6418SOL     OW30712   2.658   0.932   7.763 -0.5679  0.2378 -0.2769
 6418SOL    HW130713   2.618   1.015   7.788 -1.8621 -0.9584  1.6185
 6418SOL    HW230714   2.746   0.953   7.732 -0.3737  1.0887  0.8554
 6419SOL     OW30715   2.897   3.771   1.235 -0.3173  0.0567  0.1159
 6419SOL    HW130716   2.822   3.805   1.187 -1.0613  1.7021  2.4680
 6419SOL    HW230717   2.866   3.694   1.284 -2.2997  0.8648  0.1271
 6420SOL     OW30718   2.598   3.162   6.240 -0.2336  0.3180 -0.1441
 6420SOL    HW130719   2.509   3.194   6.228 -1.0266 -0.9418  2.5835
 6420SOL    HW230720   2.641   3.235   6.194  0.2876  0.3158  0.3446
 6421SOL     OW30721   4.226   3.806  16.480 -0.4481  0.2506  0.1359
 6421SOL    HW130722   4.243   3.879  16.421  1.6362 -0.1676  0.2224
 6421SOL    HW230723   4.313   3.792  16.516  0.4333  0.6054 -1.8938
 6422SOL     OW30724   3.829   1.301   7.395  0.0282 -0.5327 -0.2092
 6422SOL    HW130725   3.864   1.295   7.484 -0.4578 -2.0454 -0.1235
 6422SOL    HW230726   3.879   1.372   7.353  0.2345 -2.5306 -3.3207
 6423SOL     OW30727   1.461   1.330  12.083 -0.0499  0.7521 -0.0551
 6423SOL    HW130728   1.432   1.297  11.998 -1.8263  1.6062  0.2366
 6423SOL    HW230729   1.398   1.402  12.092  0.1820  1.0567 -0.7665
 6424SOL     OW30730   2.837   3.429   1.653  0.2792  0.7193 -0.3974
 6424SOL    HW130731   2.802   3.381   1.728 -0.5450  1.8401 -0.0620
 6424SOL    HW230732   2.759   3.431   1.597  0.6079 -1.4508 -0.9444
 6425SOL     OW30733   2.389   1.519  12.907 -0.1743  0.0359 -0.0972
 6425SOL    HW130734   2.326   1.514  12.835 -0.0498  1.1716 -0.2928
 6425SOL    HW230735   2.444   1.586  12.865  1.6893 -1.7434 -0.4935
 6426SOL     OW30736   4.203   0.329   9.175 -0.5402 -0.1771  0.2737
 6426SOL    HW130737   4.263   0.296   9.241 -0.4838  0.5547  0.5829
 6426SOL    HW230738   4.126   0.282   9.206 -0.3613 -0.3135  0.5074
 6427SOL     OW30739   2.882   0.294  12.700  0.9892  0.3550 -0.4254
 6427SOL    HW130740   2.921   0.279  12.786 -0.9102  1.2696  0.6032
 6427SOL    HW230741   2.950   0.350  12.662  1.2511  1.8604  2.2606
 6428SOL     OW30742   0.129   2.992  13.016 -0.1283  0.4424 -0.0534
 6428SOL    HW130743   0.215   3.018  13.047 -0.5237  0.1170  1.3286
 6428SOL    HW230744   0.139   3.001  12.921  1.3280  1.1779  0.1786
 6429SOL     OW30745   2.604   0.506   1.749  0.2958  0.0852  0.0693
 6429SOL    HW130746   2.519   0.471   1.722 -0.2513  2.1767 -0.8393
 6429SOL    HW230747   2.661   0.451   1.696  0.4270 -0.4028  0.7179
 6430SOL     OW30748   1.419   1.269  11.825  0.5142  0.1860  0.6560
 6430SOL    HW130749   1.323   1.273  11.824  0.6313  2.2542 -1.9571
 6430SOL    HW230750   1.444   1.309  11.742 -1.3223  0.3650  0.1737
 6431SOL     OW30751   3.853   1.125  13.134  0.3474  0.0177 -0.7533
 6431SOL    HW130752   3.809   1.063  13.192  2.5488  0.5261  1.4500
 6431SOL    HW230753   3.944   1.123  13.164 -0.2886  0.0862  1.2028
 6432SOL     OW30754   3.579   1.303   4.063  0.3456  0.0470  0.1852
 6432SOL    HW130755   3.652   1.364   4.064 -0.1695  0.6927 -1.6490
 6432SOL    HW230756   3.511   1.370   4.052 -0.3492 -0.5921  0.5591
 6433SOL     OW30757   2.866   3.974   3.230  0.1660  0.0668  0.1124
 6433SOL    HW130758   2.796   4.040   3.226  1.2395  1.2266  0.5117
 6433SOL    HW230759   2.935   4.020   3.278 -1.0859  0.7373  1.2806
 6434SOL     OW30760   4.323   4.284   8.286 -0.1922  0.3162  0.2955
 6434SOL    HW130761   4.381   4.335   8.230 -1.2199  2.1094  0.8591
 6434SOL    HW230762   4.379   4.271   8.363 -1.3129 -0.1215  1.0466
 6435SOL     OW30763   1.734   2.279   6.985  0.1357  1.0413 -0.4637
 6435SOL    HW130764   1.639   2.291   6.980  0.3949  2.9891 -0.7962
 6435SOL    HW230765   1.762   2.349   6.926 -0.2682  0.6015 -1.1756
 6436SOL     OW30766   3.024   0.821   3.268  0.2780  0.0822  0.3333
 6436SOL    HW130767   3.017   0.730   3.238  2.8684 -0.4223  1.2505
 6436SOL    HW230768   3.097   0.817   3.330  0.7098 -2.0948 -0.2932
 6437SOL     OW30769   0.734   4.176   3.130 -0.4995  0.6117  0.0622
 6437SOL    HW130770   0.674   4.145   3.198  0.4597 -1.1493  0.0855
 6437SOL    HW230771   0.670   4.180   3.059 -1.6932 -0.5274  1.0786
 6438SOL     OW30772   1.348   4.165  10.551  0.4291 -0.0835 -0.4031
 6438SOL    HW130773   1.369   4.075  10.526 -2.5945 -1.1348  0.7756
 6438SOL    HW230774   1.380   4.163  10.641 -1.8410  2.3809  0.4476
 6439SOL     OW30775   1.640   1.854   8.172 -0.0799  0.2112 -0.9928
 6439SOL    HW130776   1.695   1.788   8.129  0.2433 -0.8884  1.1097
 6439SOL    HW230777   1.566   1.803   8.205 -0.1434 -0.1906 -1.7464
 6440SOL     OW30778   2.024   1.571   5.166 -0.4186 -0.1494  0.1369
 6440SOL    HW130779   2.084   1.593   5.094  0.9321 -1.5945  0.8316
 6440SOL    HW230780   1.944   1.576   5.113 -1.0359 -2.1554  0.8981
 6441SOL     OW30781   4.517   4.028  10.518 -0.2273 -0.2231 -0.5066
 6441SOL    HW130782   4.560   3.952  10.479  1.6183  0.5429  0.0671
 6441SOL    HW230783   4.444   3.989  10.567 -1.3795  3.0409  0.3960
 6442SOL     OW30784   0.826   0.627   1.810  0.2451  0.1277 -1.0797
 6442SOL    HW130785   0.894   0.588   1.754  2.0356  2.1072 -0.2833
 6442SOL    HW230786   0.774   0.669   1.742 -3.0338 -1.1625  0.6503
 6443SOL     OW30787   4.192   3.088   2.234  0.0611  0.0042 -0.2378
 6443SOL    HW130788   4.266   3.129   2.189 -0.9153 -2.6375 -4.2709
 6443SOL    HW230789   4.127   3.157   2.227 -0.3023 -0.2609  0.4729
 6444SOL     OW30790   3.918   4.514   8.083  0.6073 -0.2530  0.1058
 6444SOL    HW130791   3.928   4.421   8.104 -0.0151 -0.3531 -0.0394
 6444SOL    HW230792   3.943   4.508   7.990  3.5003  0.4591  0.8348
 6445SOL     OW30793   0.728   4.265   2.229 -0.2734 -0.2596 -0.2414
 6445SOL    HW130794   0.703   4.211   2.154  0.9484 -1.8042  0.4658
 6445SOL    HW230795   0.648   4.282   2.280 -0.9241 -1.2010 -0.9500
 6446SOL     OW30796   2.673   3.412   5.574  0.1977 -0.5750  0.0399
 6446SOL    HW130797   2.580   3.431   5.563  0.4897  1.0532  0.4398
 6446SOL    HW230798   2.688   3.336   5.518 -0.9447 -0.6525 -0.1655
 6447SOL     OW30799   2.540   2.805   7.029 -0.0676 -0.2824  0.2949
 6447SOL    HW130800   2.626   2.808   6.987 -0.1099  0.3402  0.2457
 6447SOL    HW230801   2.502   2.892   7.014  2.4695  0.6026 -0.9969
 6448SOL     OW30802   4.064   1.498   8.252  0.2706  0.2719 -0.2928
 6448SOL    HW130803   3.986   1.500   8.309 -1.3039  1.3521 -2.4950
 6448SOL    HW230804   4.123   1.442   8.303  0.6261  0.7754 -0.1467
 6449SOL     OW30805   1.981   3.977   2.213  0.2603 -0.3390 -0.7131
 6449SOL    HW130806   2.014   3.890   2.191 -1.5392 -1.2169  0.0679
 6449SOL    HW230807   1.895   3.992   2.172 -0.4739  1.4312  1.5041
 6450SOL     OW30808   3.309   2.286   8.034  0.0272  0.2902 -0.3663
 6450SOL    HW130809   3.329   2.264   8.126 -0.4018  1.1519 -0.0719
 6450SOL    HW230810   3.391   2.289   7.987 -0.4812 -1.0184 -1.3338
 6451SOL     OW30811   1.812   1.953   5.883 -0.5271  0.1414 -0.0468
 6451SOL    HW130812   1.781   2.007   5.956 -0.7612  0.8137 -0.6402
 6451SOL    HW230813   1.900   1.988   5.872  1.1264 -3.4081  1.8553
 6452SOL     OW30814   4.384   0.295   0.048  0.2562  0.4520 -0.1026
 6452SOL    HW130815   4.374   0.389   0.030 -0.8237  0.5255  0.8412
 6452SOL    HW230816   4.371   0.294   0.143 -1.5389  1.5911 -0.3213
 6453SOL     OW30817   3.936   1.438   1.568 -0.1604 -0.9809 -0.1549
 6453SOL    HW130818   3.862   1.383   1.541  0.3263 -1.7948  0.1526
 6453SOL    HW230819   4.005   1.373   1.584  0.0483 -1.5971 -3.3897
 6454SOL     OW30820   4.355   1.729  14.934  0.0029  0.7329  0.8192
 6454SOL    HW130821   4.321   1.789  15.000 -0.9500  0.4694  0.5783
 6454SOL    HW230822   4.448   1.752  14.940 -0.0062  1.2848 -1.0295
 6455SOL     OW30823   3.740   4.707   5.206  0.1431  0.5002 -0.5124
 6455SOL    HW130824   3.771   4.655   5.280  1.2327  1.0555 -0.5812
 6455SOL    HW230825   3.700   4.638   5.153 -3.4159  1.0419  1.4832
 6456SOL     OW30826   2.684   3.326   0.746 -0.0559 -0.0943  0.2252
 6456SOL    HW130827   2.712   3.243   0.708 -2.9381 -1.0881  0.2957
 6456SOL    HW230828   2.604   3.356   0.702 -2.0168 -1.0035  3.2177
 6457SOL     OW30829   2.409   0.244   2.938 -0.1854 -0.0878 -0.0294
 6457SOL    HW130830   2.381   0.249   3.030 -1.1340  1.3274 -0.3934
 6457SOL    HW230831   2.323   0.267   2.901 -0.7647 -0.0754  1.3091
 6458SOL     OW30832   2.822   0.882   6.207  0.4395  0.5234 -0.4483
 6458SOL    HW130833   2.752   0.898   6.270  0.5820 -2.0219  0.3751
 6458SOL    HW230834   2.895   0.883   6.270  1.5261  1.5094 -1.7281
 6459SOL     OW30835   2.905   1.003   7.643  0.1943 -0.0254 -0.8712
 6459SOL    HW130836   2.994   0.996   7.678 -0.6335  0.0553  1.2466
 6459SOL    HW230837   2.918   0.961   7.559  1.1663 -1.2151 -0.1242
 6460SOL     OW30838   1.919   1.208  16.572 -0.1572  0.3266 -0.1024
 6460SOL    HW130839   1.960   1.248  16.649  0.8780 -1.0083  0.0464
 6460SOL    HW230840   1.910   1.283  16.513 -2.3018  1.7336  2.0056
 6461SOL     OW30841   1.753   1.043   7.323 -0.3309 -0.2657  0.1183
 6461SOL    HW130842   1.728   0.987   7.396 -0.6255  1.1329  1.0844
 6461SOL    HW230843   1.841   1.005   7.318 -0.4258 -0.4994  0.2243
 6462SOL     OW30844   1.833   3.902   5.484  0.2730  0.7763 -0.0290
 6462SOL    HW130845   1.785   3.984   5.478  1.1552  1.2997  0.0968
 6462SOL    HW230846   1.840   3.884   5.391  1.9196 -0.4074  0.3184
 6463SOL     OW30847   3.311   2.864   8.878  0.3870 -0.0189  0.6355
 6463SOL    HW130848   3.252   2.888   8.949  1.1674  0.7827  1.0067
 6463SOL    HW230849   3.362   2.943   8.860  0.3392 -0.3191 -0.8271
 6464SOL     OW30850   4.381   0.591  14.836  0.1756 -0.2142  0.3825
 6464SOL    HW130851   4.465   0.607  14.880 -0.3181 -0.2431  1.3237
 6464SOL    HW230852   4.390   0.503  14.800  1.1342  1.4501 -3.4362
 6465SOL     OW30853   4.529   0.061  13.947  0.1223  0.0425 -0.0869
 6465SOL    HW130854   4.577   0.029  13.870 -0.7042  2.4997 -1.6319
 6465SOL    HW230855   4.449   0.008  13.944  0.3197 -0.3365  1.5658
 6466SOL     OW30856   2.431   2.302   3.144 -0.1585 -0.3689 -0.5640
 6466SOL    HW130857   2.370   2.376   3.145 -0.5186 -0.6737  1.1955
 6466SOL    HW230858   2.375   2.230   3.174  1.9496 -0.7508  2.4290
 6467SOL     OW30859   2.806   2.008  17.298  0.2650  0.0744 -0.1951
 6467SOL    HW130860   2.820   2.100  17.319  0.9153 -0.1475  0.3504
 6467SOL    HW230861   2.881   1.974  17.347 -1.4148 -0.6113  1.9046
 6468SOL     OW30862   2.131   4.400   8.938 -0.5831  0.3440  0.1497
 6468SOL    HW130863   2.142   4.356   8.854 -0.0730 -0.8499  0.8291
 6468SOL    HW230864   2.170   4.484   8.913  0.7345 -0.0384  0.8991
 6469SOL     OW30865   1.750   1.158  13.205  0.2041 -0.1944  0.7290
 6469SOL    HW130866   1.722   1.137  13.116  0.7539  0.8436  0.3044
 6469SOL    HW230867   1.668   1.158  13.254 -0.6686  2.3522 -0.7009
 6470SOL     OW30868   2.552   0.977  16.238  0.2928  0.0823  0.1376
 6470SOL    HW130869   2.459   0.998  16.249  0.2403  0.5665 -1.2275
 6470SOL    HW230870   2.568   1.012  16.150 -1.3794 -1.2040 -0.6921
 6471SOL     OW30871   2.328   3.647  12.049 -0.1340  0.6673  0.1329
 6471SOL    HW130872   2.375   3.565  12.065  0.9475  1.0285 -1.2310
 6471SOL    HW230873   2.243   3.610  12.025  0.1176  0.6732 -0.7606
 6472SOL     OW30874   3.237   2.576   4.877  0.6346 -0.1228 -0.3173
 6472SOL    HW130875   3.178   2.641   4.840  0.4638  0.5229  1.0819
 6472SOL    HW230876   3.187   2.547   4.954 -1.5651  0.1730 -1.6311
 6473SOL     OW30877   2.520   2.917   6.607  0.4923 -0.0298 -0.2133
 6473SOL    HW130878   2.540   3.004   6.574 -0.2045  0.8462  1.6397
 6473SOL    HW230879   2.448   2.928   6.670 -1.2450  2.7858 -2.7016
 6474SOL     OW30880   2.849   1.283   5.344 -0.7581 -0.6075 -0.1010
 6474SOL    HW130881   2.776   1.336   5.313 -1.7458 -2.1278 -0.3733
 6474SOL    HW230882   2.842   1.205   5.289  0.0962 -0.5709 -0.2682
 6475SOL     OW30883   2.362   2.942  13.366  0.5330  0.1053 -0.1548
 6475SOL    HW130884   2.323   3.026  13.389  0.1742 -0.0812 -0.0737
 6475SOL    HW230885   2.455   2.961  13.361  0.3186  0.3357 -2.9141
 6476SOL     OW30886   2.531   4.381   3.228 -0.2473  0.1708 -0.5200
 6476SOL    HW130887   2.469   4.443   3.267  1.4951  0.2793  2.1093
 6476SOL    HW230888   2.543   4.415   3.139  0.5420  1.9339  0.2405
 6477SOL     OW30889   1.034   3.531   3.531  0.2128  0.2608  0.1084
 6477SOL    HW130890   1.070   3.464   3.473  1.8687  0.6690  0.6510
 6477SOL    HW230891   1.109   3.585   3.555 -1.8156  2.4353  1.6291
 6478SOL     OW30892   0.150   4.268   2.514  0.1871 -0.2290 -0.8702
 6478SOL    HW130893   0.140   4.348   2.462  0.2766  1.1391  1.2308
 6478SOL    HW230894   0.138   4.212   2.437  0.3349  1.2737 -1.9867
 6479SOL     OW30895   3.308   4.201   8.458  0.1709 -0.6269 -0.3990
 6479SOL    HW130896   3.243   4.255   8.414 -1.2641 -1.4254  0.7484
 6479SOL    HW230897   3.250   4.125   8.462 -0.5368  0.0032  1.3924
 6480SOL     OW30898   3.449   4.501   4.445  0.0629  0.1227 -0.0690
 6480SOL    HW130899   3.474   4.514   4.537 -3.5281 -0.9733  1.0836
 6480SOL    HW230900   3.502   4.424   4.424  2.8378  1.7706  0.8385
 6481SOL     OW30901   3.944   0.357   6.561  1.0254 -0.2046 -0.2282
 6481SOL    HW130902   3.930   0.349   6.655  0.6114  1.2683 -0.1606
 6481SOL    HW230903   4.007   0.430   6.566  1.2805 -0.4732  0.4690
 6482SOL     OW30904   1.104   0.670   2.690  0.1996  0.1662  0.5671
 6482SOL    HW130905   1.066   0.588   2.660 -2.3328  1.1701  1.0434
 6482SOL    HW230906   1.185   0.666   2.638  1.2556 -0.6350  2.2811
 6483SOL     OW30907   0.240   3.282   0.966 -0.0221 -0.2704 -0.0855
 6483SOL    HW130908   0.313   3.290   1.026  0.5578  3.4079 -1.2862
 6483SOL    HW230909   0.282   3.242   0.890 -0.8507 -1.1590 -0.0841
 6484SOL     OW30910   1.698   1.502   8.744  0.0977  0.0408 -0.3605
 6484SOL    HW130911   1.760   1.569   8.774  0.1802 -1.3214  2.5624
 6484SOL    HW230912   1.744   1.420   8.765  0.5043  0.7570  1.5142
 6485SOL     OW30913   1.670   4.701  14.024 -0.4628  0.2239 -0.2840
 6485SOL    HW130914   1.631   4.645  14.091  0.6167  2.2698  2.0694
 6485SOL    HW230915   1.649   4.653  13.944 -0.1150  0.2997 -0.4214
 6486SOL     OW30916   3.610   3.433   2.679  0.1818 -0.3852 -0.8969
 6486SOL    HW130917   3.631   3.525   2.662 -1.7590  0.2952  0.3926
 6486SOL    HW230918   3.591   3.429   2.773  1.2197 -0.6899 -0.6951
 6487SOL     OW30919   1.953   4.220   9.146  0.1832  0.2572  0.0638
 6487SOL    HW130920   1.951   4.288   9.079  2.1770  0.1022 -0.1477
 6487SOL    HW230921   1.868   4.227   9.190  0.7680 -2.3305  1.6011
 6488SOL     OW30922   3.595   4.327   2.505 -0.5557  0.3722 -0.4517
 6488SOL    HW130923   3.545   4.250   2.480  1.9100 -2.0201  1.9037
 6488SOL    HW230924   3.671   4.322   2.447  0.0311 -0.5219  0.3868
 6489SOL     OW30925   0.194   2.366   1.954  0.5978  0.1755  0.8898
 6489SOL    HW130926   0.212   2.347   2.046 -3.8991 -0.5247  1.6486
 6489SOL    HW230927   0.274   2.377   1.903  0.2861  1.5931  0.7188
 6490SOL     OW30928   3.049   3.220  10.638  0.0763  0.6083  0.3447
 6490SOL    HW130929   2.974   3.160  10.645  0.1322  0.2652 -2.1134
 6490SOL    HW230930   3.017   3.258  10.556  0.2765 -0.7124 -0.3552
 6491SOL     OW30931   2.195   0.797   9.302  0.0141  0.0825 -0.3200
 6491SOL    HW130932   2.242   0.791   9.385 -0.9517  1.5197  0.3175
 6491SOL    HW230933   2.205   0.889   9.276 -1.9152  0.2226 -0.5485
 6492SOL     OW30934   4.391   3.535   5.043  0.1430 -0.5466 -0.3711
 6492SOL    HW130935   4.297   3.531   5.061 -0.0558  1.9184 -0.8197
 6492SOL    HW230936   4.389   3.610   4.983  0.7111 -0.6812 -0.5583
 6493SOL     OW30937   0.663   4.173  12.327  0.5308  0.7547 -0.2585
 6493SOL    HW130938   0.671   4.191  12.233 -0.4005 -1.6074 -0.7901
 6493SOL    HW230939   0.749   4.141  12.354  0.4823 -0.3847 -1.4298
 6494SOL     OW30940   1.010   3.644   9.225  0.5417  0.6087 -0.2802
 6494SOL    HW130941   0.960   3.679   9.299  0.3571  0.4806 -0.3448
 6494SOL    HW230942   0.967   3.562   9.204  0.2539  0.4433  0.9866
 6495SOL     OW30943   3.734   2.788   6.086  0.0195 -0.4538  0.0046
 6495SOL    HW130944   3.639   2.785   6.097  0.1164  0.3949  1.0533
 6495SOL    HW230945   3.762   2.878   6.104 -0.9994 -0.5256  1.9822
 6496SOL     OW30946   0.681   3.247   9.355 -0.2714  0.2874 -0.3636
 6496SOL    HW130947   0.659   3.340   9.365 -2.0405 -0.4649  2.6585
 6496SOL    HW230948   0.611   3.227   9.294  1.6445  0.4622 -2.6128
 6497SOL     OW30949   2.301   2.378   7.043  0.0208 -0.1058  0.4307
 6497SOL    HW130950   2.280   2.446   7.107 -2.0955  0.0923 -0.4749
 6497SOL    HW230951   2.390   2.366   7.077  0.1296 -0.9939 -0.1756
 6498SOL     OW30952   3.610   0.630   1.749  0.0018  0.2230  0.2193
 6498SOL    HW130953   3.643   0.555   1.699  0.9546  0.1177  1.0149
 6498SOL    HW230954   3.589   0.691   1.678 -0.7951 -2.5279 -1.9098
 6499SOL     OW30955   1.899   4.200   6.271  0.1559 -0.0181 -0.8153
 6499SOL    HW130956   1.860   4.229   6.353  0.9038  0.2419 -0.5559
 6499SOL    HW230957   1.991   4.225   6.279 -0.0840  0.8207 -0.6877
 6500SOL     OW30958   0.517   1.237   3.193  0.1313 -0.4020 -0.0733
 6500SOL    HW130959   0.492   1.160   3.244  0.4537 -1.4090 -1.4340
 6500SOL    HW230960   0.450   1.237   3.125  0.7990 -2.4973 -0.7238
 6501SOL     OW30961   3.098   2.026   0.902 -0.4856 -0.4419  0.3363
 6501SOL    HW130962   3.050   2.029   0.984 -1.1297 -3.2465  0.0527
 6501SOL    HW230963   3.093   1.933   0.880 -1.0688 -0.5650  0.9950
 6502SOL     OW30964   3.481   3.954   8.184 -0.2364  0.3217  0.0249
 6502SOL    HW130965   3.488   3.911   8.270  1.7273  1.0310  0.2128
 6502SOL    HW230966   3.438   4.036   8.209  0.1655  0.5143  0.0860
 6503SOL     OW30967   4.378   2.703  13.431  0.1173 -0.2506  0.6902
 6503SOL    HW130968   4.447   2.768  13.417  1.0325 -1.2247  0.6070
 6503SOL    HW230969   4.388   2.702  13.526  0.6348  0.4119  0.6435
 6504SOL     OW30970   2.329   2.097   6.108 -0.3138  0.2176  0.3135
 6504SOL    HW130971   2.376   2.118   6.189  1.2732 -0.5891 -0.3984
 6504SOL    HW230972   2.331   2.002   6.107  1.4862  0.2718 -1.2057
 6505SOL     OW30973   0.464   4.627   5.286 -0.1987 -0.3125  0.2733
 6505SOL    HW130974   0.532   4.677   5.241 -2.3085  1.7291 -0.6431
 6505SOL    HW230975   0.384   4.660   5.245  0.3958  0.3275 -0.3579
 6506SOL     OW30976   1.133   1.148   2.034  0.4195 -0.3219  0.3030
 6506SOL    HW130977   1.186   1.088   2.087 -0.4101 -1.1695  0.1773
 6506SOL    HW230978   1.050   1.140   2.083  0.2964  2.4576  0.5340
 6507SOL     OW30979   3.779   1.525   7.763 -0.5490 -0.3988  0.2792
 6507SOL    HW130980   3.717   1.453   7.768 -0.5406 -0.2247  3.2659
 6507SOL    HW230981   3.797   1.546   7.855  0.4697 -0.5450  0.1186
 6508SOL     OW30982   0.029   3.043  14.962 -0.2001 -0.0671  0.5305
 6508SOL    HW130983   4.686   2.987  14.997  1.1087 -2.0158  0.0241
 6508SOL    HW230984   0.010   3.131  14.995 -0.9019 -0.0440  0.0723
 6509SOL     OW30985   1.332   3.994  12.864 -0.1210 -0.3454  0.3763
 6509SOL    HW130986   1.302   4.082  12.885 -0.9205 -0.5380  0.0614
 6509SOL    HW230987   1.358   4.009  12.773  1.2012 -1.5181  0.5496
 6510SOL     OW30988   1.904   3.225  13.948  0.1324 -0.4335 -0.3524
 6510SOL    HW130989   1.901   3.163  14.021  0.3676  0.6880  0.6173
 6510SOL    HW230990   1.922   3.308  13.993  1.0557  0.0725 -1.6308
 6511SOL     OW30991   4.354   1.574   4.989  0.0201 -0.8605  0.7492
 6511SOL    HW130992   4.284   1.639   4.981 -0.5620 -1.4917  0.7363
 6511SOL    HW230993   4.319   1.521   5.061 -0.7110  0.3603  1.2856
 6512SOL     OW30994   2.645   2.138   3.088 -0.2570  0.4460 -0.0570
 6512SOL    HW130995   2.602   2.218   3.118 -1.3305 -1.3262  3.1096
 6512SOL    HW230996   2.582   2.110   3.022 -0.0791 -0.3347  0.0944
 6513SOL     OW30997   3.773   4.704  15.737  0.2069  0.3230  0.2648
 6513SOL    HW130998   3.805   0.050  15.683 -0.9181 -0.4297 -1.4220
 6513SOL    HW230999   3.783   4.629  15.678 -1.2936 -1.1749  1.8625
 6514SOL     OW31000   4.598   2.086   5.480  0.5112 -0.0076  0.0405
 6514SOL    HW131001   4.555   2.046   5.556 -1.5729  0.4304 -0.9077
 6514SOL    HW231002   4.688   2.064   5.505  1.5016  1.8593 -1.8216
 6515SOL     OW31003   2.392   3.612   8.322 -0.1332  0.2568  0.0197
 6515SOL    HW131004   2.373   3.524   8.289 -0.8684 -0.2791  1.8719
 6515SOL    HW231005   2.376   3.666   8.244 -0.0262  2.0789  1.2735
 6516SOL     OW31006   3.533   0.357   9.017 -0.9479  0.1292 -0.1412
 6516SOL    HW131007   3.509   0.443   8.982 -2.1183 -1.0759 -2.2801
 6516SOL    HW231008   3.501   0.366   9.106  1.6392 -2.6343  1.0889
 6517SOL     OW31009   1.929   3.186   1.196  0.4407 -0.1701 -0.1593
 6517SOL    HW131010   1.990   3.130   1.149  1.6154  0.4458  0.6383
 6517SOL    HW231011   1.881   3.210   1.116 -0.4914 -1.1204  0.1224
 6518SOL     OW31012   2.438   1.759  15.372 -0.2627  0.7225  0.2836
 6518SOL    HW131013   2.399   1.757  15.284  0.4476 -1.2106  0.0160
 6518SOL    HW231014   2.501   1.830  15.359 -1.1607  1.2431 -1.3196
 6519SOL     OW31015   0.399   0.271   9.973  0.6689 -0.0370  0.6076
 6519SOL    HW131016   0.322   0.226  10.008  2.0919 -1.1444  2.3321
 6519SOL    HW231017   0.457   0.207   9.932  3.1096  1.8931  1.0305
 6520SOL     OW31018   1.160   2.074  17.438 -0.0041 -0.3154 -0.0660
 6520SOL    HW131019   1.171   2.070  17.533  1.1799  0.6440 -0.1644
 6520SOL    HW231020   1.236   2.131  17.425 -2.3189  2.5560 -0.9336
 6521SOL     OW31021   0.629   4.424   0.439  0.3638  0.3262 -0.4832
 6521SOL    HW131022   0.571   4.362   0.482 -1.1655  1.7767 -0.4168
 6521SOL    HW231023   0.708   4.411   0.490 -0.6401  3.3545  1.8927
 6522SOL     OW31024   2.202   0.662   6.295  0.3176  0.0107  0.2524
 6522SOL    HW131025   2.149   0.700   6.225  2.3136  0.1967 -1.1770
 6522SOL    HW231026   2.187   0.568   6.285  0.3930  0.1462 -1.0960
 6523SOL     OW31027   3.157   0.769   0.688  0.2461  0.0956 -0.3196
 6523SOL    HW131028   3.234   0.714   0.703  0.3975  0.7617  1.3473
 6523SOL    HW231029   3.098   0.719   0.744  0.3956 -1.5874 -1.6403
 6524SOL     OW31030   0.936   0.725   0.015  0.6400 -0.0181  0.0216
 6524SOL    HW131031   0.931   0.819  17.700  2.3393  0.0639  0.0199
 6524SOL    HW231032   0.937   0.722   0.111 -1.4208  0.3522  0.0725
 6525SOL     OW31033   2.489   1.380   6.896  0.1419 -0.5403  0.2474
 6525SOL    HW131034   2.529   1.384   6.983 -1.3391  1.3322  0.8292
 6525SOL    HW231035   2.562   1.356   6.839 -0.6425  0.5652 -1.2215
 6526SOL     OW31036   0.639   1.205  11.377  0.1375 -0.6713 -0.0075
 6526SOL    HW131037   0.685   1.289  11.375 -1.4123  0.1983  0.8294
 6526SOL    HW231038   0.679   1.156  11.306  2.2785  0.9193  0.1080
 6527SOL     OW31039   3.734   0.346   3.645  0.3943 -0.1426 -0.0299
 6527SOL    HW131040   3.757   0.375   3.733  0.6312 -0.2692 -0.0499
 6527SOL    HW231041   3.767   0.257   3.634 -2.1367 -0.8144 -1.9784
 6528SOL     OW31042   3.199   4.023   6.163  0.4358 -0.6352 -0.7568
 6528SOL    HW131043   3.255   4.098   6.141 -2.1749  1.0910 -1.5884
 6528SOL    HW231044   3.187   3.967   6.087 -1.1340 -2.5049  0.8693
 6529SOL     OW31045   0.755   2.210   4.288  0.0375  0.1501  0.1621
 6529SOL    HW131046   0.781   2.283   4.344  0.2548 -0.7582  1.2502
 6529SOL    HW231047   0.675   2.244   4.249  0.1532 -0.9369 -0.9970
 6530SOL     OW31048   1.825   2.951   7.388 -0.0425 -0.8270 -0.4408
 6530SOL    HW131049   1.849   2.900   7.310 -1.5201 -0.9593 -0.7950
 6530SOL    HW231050   1.771   2.896   7.444  2.4753 -1.3065  1.5271
 6531SOL     OW31051   3.787   0.168  12.320  0.6968 -0.6571 -0.6706
 6531SOL    HW131052   3.712   0.200  12.270  0.1810  1.9429  1.7368
 6531SOL    HW231053   3.784   0.227  12.396  0.0976 -0.3496 -0.9399
 6532SOL     OW31054   0.809   2.120   5.380  0.3596 -0.2771  0.0358
 6532SOL    HW131055   0.848   2.129   5.468 -2.1163 -0.1982  1.1204
 6532SOL    HW231056   0.785   2.028   5.377  1.3158 -0.5478  0.6434
 6533SOL     OW31057   1.204   2.825   4.492  0.0954 -0.2500  0.1955
 6533SOL    HW131058   1.253   2.907   4.500 -0.8837  0.4356 -0.6417
 6533SOL    HW231059   1.209   2.793   4.402  3.9209 -0.3633  0.4626
 6534SOL     OW31060   0.407   3.598   3.256  0.0567  0.4296  0.1156
 6534SOL    HW131061   0.480   3.587   3.195  0.5790  1.6471  0.5246
 6534SOL    HW231062   0.419   3.524   3.316  2.1681  2.2806  1.9977
 6535SOL     OW31063   2.823   2.670   1.500 -0.4477 -0.7526  0.0762
 6535SOL    HW131064   2.736   2.636   1.520 -1.6238 -0.5394 -4.8663
 6535SOL    HW231065   2.881   2.601   1.533  1.3641  1.1824  0.9698
 6536SOL     OW31066   0.879   2.680   4.953 -0.7854  0.2654 -0.0106
 6536SOL    HW131067   0.930   2.752   4.990  0.1631  0.1039 -1.0288
 6536SOL    HW231068   0.947   2.631   4.908 -1.6793 -0.2327 -0.7965
 6537SOL     OW31069   1.688   3.125   6.986 -0.2743 -0.1115 -0.1347
 6537SOL    HW131070   1.733   3.200   7.024 -1.4555  0.6732 -0.2994
 6537SOL    HW231071   1.650   3.163   6.907 -0.3772  1.8798  0.8844
 6538SOL     OW31072   2.031   4.624  15.678 -0.0733 -0.2485 -0.5594
 6538SOL    HW131073   2.066   4.551  15.626 -0.4107 -0.7589 -0.0756
 6538SOL    HW231074   1.969   4.663  15.617  0.0901  1.0282  0.0968
 6539SOL     OW31075   3.770   4.208   0.744  0.0160 -0.3767  0.4969
 6539SOL    HW131076   3.822   4.242   0.817  0.5496 -1.5155  0.6492
 6539SOL    HW231077   3.850   4.184   0.697 -1.0026 -1.0041 -0.9029
 6540SOL     OW31078   3.047   3.195   0.094  0.2017  0.4071  0.4357
 6540SOL    HW131079   2.978   3.242   0.141 -1.6419 -1.4140 -0.4533
 6540SOL    HW231080   3.003   3.155   0.019  2.3143 -0.5058 -0.2983
 6541SOL     OW31081   4.675   2.399   4.992  0.0457  0.4431  0.7602
 6541SOL    HW131082   4.716   2.332   5.047  0.7128  1.0522  1.0022
 6541SOL    HW231083   4.723   2.394   4.909 -3.3383 -0.7297 -1.0968
 6542SOL     OW31084   0.909   2.926   4.136 -0.0306 -0.7190 -0.1938
 6542SOL    HW131085   0.946   2.954   4.219  0.3146 -1.3713 -0.1321
 6542SOL    HW231086   0.828   2.890   4.171  0.8974 -0.2495  2.4358
 6543SOL     OW31087   0.241   0.661   4.709 -0.1590  0.1422  0.0496
 6543SOL    HW131088   0.323   0.664   4.759  0.8370 -3.9188 -1.3765
 6543SOL    HW231089   0.246   0.742   4.657  2.4656 -0.2439 -0.2899
 6544SOL     OW31090   1.037   2.721  10.709  0.1658 -0.2350 -0.0702
 6544SOL    HW131091   0.963   2.772  10.675  1.1787  1.1893 -0.1154
 6544SOL    HW231092   1.088   2.796  10.739 -0.6276  0.5112 -0.5572
 6545SOL     OW31093   3.680   0.620   8.992 -0.2816  0.6106  0.1090
 6545SOL    HW131094   3.690   0.714   8.978  0.2040  0.6612  0.7857
 6545SOL    HW231095   3.736   0.608   9.069 -0.8144 -1.2589  0.2100
 6546SOL     OW31096   1.815   2.420   8.374 -0.1527 -0.1450  0.2061
 6546SOL    HW131097   1.735   2.387   8.332  0.0618 -0.3884 -0.0068
 6546SOL    HW231098   1.791   2.409   8.466  2.1985  0.3562  0.8842
 6547SOL     OW31099   0.451   1.112  12.917 -0.1801 -0.1438  0.7159
 6547SOL    HW131100   0.410   1.139  12.999 -1.9826 -0.7534  0.0351
 6547SOL    HW231101   0.433   1.018  12.915 -2.5811  0.3163  0.4605
 6548SOL     OW31102   2.559   3.825   5.241  0.1856  0.4453 -0.2500
 6548SOL    HW131103   2.546   3.897   5.179 -0.5221 -2.8261 -3.8930
 6548SOL    HW231104   2.628   3.855   5.300 -0.6354  0.9278  0.4705
 6549SOL     OW31105   3.272   0.170   6.265 -0.3857 -0.1775  0.3702
 6549SOL    HW131106   3.177   0.178   6.260 -0.2039  1.6458 -0.2822
 6549SOL    HW231107   3.297   0.219   6.187 -1.4626  1.1165  0.8364
 6550SOL     OW31108   3.029   0.998   0.608 -0.1779  0.1338  0.1917
 6550SOL    HW131109   3.007   1.000   0.701 -0.5679 -0.1054  0.1052
 6550SOL    HW231110   3.090   0.924   0.621  0.8043  1.2431  1.9824
 6551SOL     OW31111   0.766   0.510  17.682 -0.9089  0.1299 -0.0388
 6551SOL    HW131112   0.784   0.468   0.061  1.1382  0.2639 -0.4131
 6551SOL    HW231113   0.829   0.581  17.698  1.5029 -2.3616  1.4967
 6552SOL     OW31114   1.537   2.636   2.274  0.1270  0.6990  0.2490
 6552SOL    HW131115   1.593   2.587   2.214 -1.8225  0.3574 -1.2779
 6552SOL    HW231116   1.560   2.580   2.348  1.3356  2.4847  1.2132
 6553SOL     OW31117   3.295   2.612  11.675  0.8467 -0.7778  0.0300
 6553SOL    HW131118   3.356   2.551  11.633  0.8408 -0.6984 -0.0946
 6553SOL    HW231119   3.348   2.688  11.698  1.5769 -1.3025  0.0885
 6554SOL     OW31120   1.637   0.477  14.426  0.1871  0.1428  0.0977
 6554SOL    HW131121   1.716   0.426  14.406 -1.4158 -1.5632 -1.8648
 6554SOL    HW231122   1.641   0.466  14.521 -0.4002  0.0941  0.1168
 6555SOL     OW31123   1.494   0.213  11.669  0.0024 -0.0242 -0.1519
 6555SOL    HW131124   1.420   0.172  11.714  0.2524  1.6495  1.7810
 6555SOL    HW231125   1.522   0.261  11.747 -0.1728 -1.5836  0.8795
 6556SOL     OW31126   1.719   0.871   6.973 -0.1437  0.1756 -0.5749
 6556SOL    HW131127   1.742   0.860   6.881 -0.0431 -0.6621 -0.4460
 6556SOL    HW231128   1.763   0.955   6.987  0.4787  0.0908 -2.0304
 6557SOL     OW31129   3.085   3.071   3.147 -0.0461  0.1123 -0.2509
 6557SOL    HW131130   3.124   3.001   3.199 -2.6276 -0.6415  0.6754
 6557SOL    HW231131   3.108   3.035   3.061  1.1971  0.9288 -0.2640
 6558SOL     OW31132   1.838   2.908   7.074 -0.2086  0.1225 -0.1717
 6558SOL    HW131133   1.917   2.960   7.093 -0.6069  0.7097 -0.1180
 6558SOL    HW231134   1.779   2.972   7.034  0.6887  1.8242  1.1928
 6559SOL     OW31135   3.654   0.472   1.380 -0.1220 -0.1252  0.2464
 6559SOL    HW131136   3.736   0.424   1.390 -0.3787 -0.2828  1.7133
 6559SOL    HW231137   3.590   0.402   1.371  0.2976 -0.8636  2.8528
 6560SOL     OW31138   0.698   4.580   7.829  0.3314  0.5815  0.1538
 6560SOL    HW131139   0.653   4.512   7.879 -1.1382  2.3350  1.2054
 6560SOL    HW231140   0.629   4.615   7.772 -1.8179 -2.1861  1.0360
 6561SOL     OW31141   3.470   2.746   6.196 -0.3722  0.2441  0.1171
 6561SOL    HW131142   3.385   2.711   6.224  0.0607  0.8458  2.1422
 6561SOL    HW231143   3.534   2.680   6.223  0.3092  0.8510 -0.0189
 6562SOL     OW31144   2.493   1.771   6.340  0.2509  0.1736  0.4023
 6562SOL    HW131145   2.489   1.809   6.428 -2.9073 -0.3270  0.4728
 6562SOL    HW231146   2.539   1.688   6.352  0.7883  0.0982 -2.2288
 6563SOL     OW31147   0.738   2.663  12.665 -0.7032  0.1254  0.4149
 6563SOL    HW131148   0.696   2.716  12.732 -0.5623  0.4827  0.2180
 6563SOL    HW231149   0.667   2.600  12.650  0.3976 -0.9077 -0.4822
 6564SOL     OW31150   0.901   1.406   2.770  0.5634 -0.2792 -0.3760
 6564SOL    HW131151   0.826   1.452   2.731  1.7994 -1.3335 -3.9815
 6564SOL    HW231152   0.895   1.322   2.725  0.1663  0.4887 -1.7605
 6565SOL     OW31153   3.615   1.696  14.455  0.6621  0.1537 -0.3574
 6565SOL    HW131154   3.533   1.651  14.436  0.0037  1.6462 -1.0444
 6565SOL    HW231155   3.590   1.785  14.479  0.9276  0.5132 -1.4342
 6566SOL     OW31156   3.661   1.560  14.704  0.3499 -0.0807 -0.8657
 6566SOL    HW131157   3.659   1.622  14.631 -1.3607  0.4942 -0.3297
 6566SOL    HW231158   3.739   1.511  14.679  0.9816 -0.3172  1.5780
 6567SOL     OW31159   1.379   3.356   7.508  0.1954 -0.0363 -0.1406
 6567SOL    HW131160   1.407   3.446   7.525  0.9723 -0.5987  1.5031
 6567SOL    HW231161   1.469   3.326   7.500  0.5608  0.2819  2.9224
 6568SOL     OW31162   1.360   3.384  12.253  0.1247 -0.4900  0.1910
 6568SOL    HW131163   1.394   3.391  12.342  1.2730 -0.7089 -0.2250
 6568SOL    HW231164   1.419   3.319  12.216 -1.6626 -1.8233 -0.3165
 6569SOL     OW31165   4.367   0.125  15.802  0.2578  0.9403  0.4520
 6569SOL    HW131166   4.420   0.081  15.868 -0.9225 -0.8932  0.1842
 6569SOL    HW231167   4.286   0.074  15.799  1.1834 -0.3656 -2.1218
 6570SOL     OW31168   3.646   4.110   6.254 -0.1003 -0.0213 -0.1496
 6570SOL    HW131169   3.609   4.119   6.166 -0.2798  1.1643  0.0406
 6570SOL    HW231170   3.672   4.202   6.266 -1.2911  0.1819  0.7275
 6571SOL     OW31171   2.862   2.591   6.415  0.6923 -0.3995 -0.1738
 6571SOL    HW131172   2.937   2.572   6.471 -1.5764 -1.8098  2.3855
 6571SOL    HW231173   2.805   2.519   6.444  1.5764 -1.2502 -0.5739
 6572SOL     OW31174   3.194   1.609   8.195 -0.2288  0.2765 -0.5450
 6572SOL    HW131175   3.174   1.685   8.250 -2.5363  1.1974 -2.6835
 6572SOL    HW231176   3.229   1.545   8.258  1.3471  0.6076 -1.0922
 6573SOL     OW31177   2.603   4.547   5.012 -0.1506  0.3327 -0.2317
 6573SOL    HW131178   2.619   4.632   4.971  0.6564 -0.5165 -1.6819
 6573SOL    HW231179   2.684   4.499   4.991  0.3190 -0.1879  2.8115
 6574SOL     OW31180   1.380   3.624   1.205  0.1962 -0.5377  0.1141
 6574SOL    HW131181   1.360   3.531   1.194  1.3960 -0.5945 -1.5408
 6574SOL    HW231182   1.454   3.614   1.265 -1.8819  1.8056  3.0435
 6575SOL     OW31183   1.213   0.428  16.809 -0.1473 -0.7327 -0.0362
 6575SOL    HW131184   1.134   0.398  16.855  0.1099  0.0014  0.8950
 6575SOL    HW231185   1.283   0.414  16.872  0.8471  1.2970 -0.6954
 6576SOL     OW31186   3.909   1.157   4.632  0.0885 -0.4731  0.1465
 6576SOL    HW131187   3.825   1.148   4.677 -0.6481  2.5754 -0.5872
 6576SOL    HW231188   3.878   1.147   4.542 -1.0123 -1.7629  0.6679
 6577SOL     OW31189   3.802   3.060   6.199 -0.6094 -0.6459 -0.4870
 6577SOL    HW131190   3.761   3.018   6.274 -0.2479 -2.1561 -1.1158
 6577SOL    HW231191   3.827   3.146   6.231  1.5598 -1.4014 -0.1171
 6578SOL     OW31192   4.575   4.102   4.369 -0.0875 -0.5920 -0.3695
 6578SOL    HW131193   4.651   4.066   4.323 -0.0311 -1.6235  0.5360
 6578SOL    HW231194   4.585   4.059   4.453 -2.1382  0.5400  0.4439
 6579SOL     OW31195   4.683   0.558  12.847  0.0606  0.2869  0.3094
 6579SOL    HW131196   4.690   0.598  12.933  0.5419  0.7373  0.0641
 6579SOL    HW231197   0.050   0.548  12.823 -0.3192 -0.3047 -0.9116
 6580SOL     OW31198   3.685   0.885   8.902 -0.0976  0.2229 -0.2956
 6580SOL    HW131199   3.651   0.891   8.813 -1.3484 -0.9388  0.0951
 6580SOL    HW231200   3.609   0.893   8.961  0.3289  1.6532  0.0587
 6581SOL     OW31201   2.645   0.719   1.315  0.2712 -0.4683 -0.3125
 6581SOL    HW131202   2.683   0.666   1.245 -0.8111 -1.4151 -0.1808
 6581SOL    HW231203   2.664   0.809   1.287 -0.6060 -0.1189  0.2255
 6582SOL     OW31204   2.181   0.336   3.765 -0.0913  0.7149 -0.1064
 6582SOL    HW131205   2.164   0.425   3.734  0.9353  0.3894 -1.5519
 6582SOL    HW231206   2.265   0.314   3.727 -0.8803  0.3464 -1.6266
 6583SOL     OW31207   2.461   1.652  13.351  0.0566 -0.1296  0.0444
 6583SOL    HW131208   2.457   1.567  13.308  2.7843 -0.0500 -0.3525
 6583SOL    HW231209   2.505   1.698  13.279 -0.4385 -1.0109 -0.8225
 6584SOL     OW31210   2.465   2.836   1.809 -0.0238 -0.3054 -0.2447
 6584SOL    HW131211   2.383   2.886   1.817  0.3747  0.3434 -0.1485
 6584SOL    HW231212   2.482   2.863   1.719 -1.5368 -0.1269 -0.4648
 6585SOL     OW31213   0.506   3.225   9.899 -0.0102 -0.3398  0.8868
 6585SOL    HW131214   0.601   3.221   9.894  0.1494 -0.7144  3.7595
 6585SOL    HW231215   0.486   3.209   9.807  2.7922 -0.6110  0.3376
 6586SOL     OW31216   1.652   1.997   3.590  0.1646 -0.3813 -0.3308
 6586SOL    HW131217   1.620   1.938   3.658  0.0743 -0.6204 -0.5840
 6586SOL    HW231218   1.720   2.052   3.630 -0.3769  0.6807 -0.8658
 6587SOL     OW31219   3.600   3.022  13.449  0.4846 -0.7950 -0.5299
 6587SOL    HW131220   3.526   3.025  13.389 -0.8934 -3.0916  1.0450
 6587SOL    HW231221   3.548   2.983  13.519 -2.0412  0.8280 -1.5124
 6588SOL     OW31222   1.265   1.893   7.012  0.7273  0.5475 -0.1158
 6588SOL    HW131223   1.320   1.956   7.058 -0.2929  1.7605 -0.5508
 6588SOL    HW231224   1.301   1.867   6.927 -1.9904 -2.1700 -0.4045
 6589SOL     OW31225   2.111   2.494   1.486 -0.6073  0.5317  0.1054
 6589SOL    HW131226   2.045   2.425   1.476 -0.6203  0.6727 -0.8262
 6589SOL    HW231227   2.191   2.449   1.458 -0.0065  2.1384 -0.7250
 6590SOL     OW31228   3.595   4.362   6.642 -0.5431  1.0025 -0.3870
 6590SOL    HW131229   3.534   4.419   6.689 -0.7980 -1.2855  2.0542
 6590SOL    HW231230   3.621   4.437   6.589 -3.9844  1.6387 -1.1691
 6591SOL     OW31231   4.569   0.128   7.657  0.5698 -0.1240 -0.1341
 6591SOL    HW131232   4.635   0.103   7.593 -0.0313 -2.7116  0.2702
 6591SOL    HW231233   4.506   0.063   7.626  0.1533  0.1394  0.1534
 6592SOL     OW31234   4.180   0.859   7.951  0.6138  0.0737  0.4347
 6592SOL    HW131235   4.254   0.818   7.905 -1.2416 -0.3210 -2.1970
 6592SOL    HW231236   4.227   0.915   8.013  2.7318 -0.4033 -0.7230
 6593SOL     OW31237   0.390   3.087  11.841  0.0852  0.0804  0.4231
 6593SOL    HW131238   0.341   3.006  11.825  0.2588  0.0231  0.1842
 6593SOL    HW231239   0.483   3.064  11.839 -0.4865 -1.9516 -2.6364
 6594SOL     OW31240   4.677   0.496   7.809  0.0142  0.1150  0.2433
 6594SOL    HW131241   0.016   0.543   7.863  2.8335 -0.4864 -2.6275
 6594SOL    HW231242   4.698   0.406   7.836 -1.3444  0.3092  1.9667
 6595SOL     OW31243   3.468   3.990   0.367  0.0396 -0.3123  0.4118
 6595SOL    HW131244   3.535   3.948   0.313  0.1089  2.3633 -1.5686
 6595SOL    HW231245   3.495   4.080   0.350 -0.3762 -0.3602 -0.5107
 6596SOL     OW31246   2.719   2.539   7.122 -0.6074 -0.0458 -0.6110
 6596SOL    HW131247   2.808   2.542   7.156 -1.9799  3.0056  2.8209
 6596SOL    HW231248   2.714   2.623   7.077 -2.0824  0.6392  0.8164
 6597SOL     OW31249   4.107   3.774   3.598  0.4125  0.0833 -0.3238
 6597SOL    HW131250   4.027   3.775   3.652 -0.7429 -0.1741 -2.0412
 6597SOL    HW231251   4.143   3.690   3.628 -2.8825 -0.9392  0.8255
 6598SOL     OW31252   4.457   0.212   3.490 -0.1846 -0.0415 -0.3060
 6598SOL    HW131253   4.540   0.244   3.455  0.0564  0.5242  0.7904
 6598SOL    HW231254   4.461   0.263   3.570 -1.8240 -2.0249  1.0407
 6599SOL     OW31255   3.905   0.425   0.064 -0.1142  0.2656  0.1712
 6599SOL    HW131256   3.889   0.429   0.159  1.7720 -2.5489  0.5960
 6599SOL    HW231257   3.995   0.454   0.055  0.1176 -1.0863 -1.9047
 6600SOL     OW31258   3.572   1.324   7.325 -0.5144 -0.0148 -0.7818
 6600SOL    HW131259   3.654   1.287   7.356 -0.7689 -1.7037 -2.1110
 6600SOL    HW231260   3.602   1.413   7.306  0.0659  0.2451  1.3304
 6601SOL     OW31261   1.324   3.928   4.474  0.3589  0.0916  0.0311
 6601SOL    HW131262   1.298   3.872   4.548  0.4843 -1.1757 -0.8734
 6601SOL    HW231263   1.310   3.860   4.408  0.7111  1.1097 -1.0863
 6602SOL     OW31264   0.382   3.697   8.622 -0.5121  0.0202 -0.6006
 6602SOL    HW131265   0.450   3.715   8.557 -0.1803  2.1322  0.3356
 6602SOL    HW231266   0.417   3.610   8.644 -0.4668 -0.3392 -2.0875
 6603SOL     OW31267   3.685   3.905   0.879 -0.9807  0.3131 -0.0860
 6603SOL    HW131268   3.656   3.911   0.788  0.4553  4.3161 -0.2908
 6603SOL    HW231269   3.781   3.899   0.874 -1.0732  0.1924 -1.6110
 6604SOL     OW31270   4.568   2.432   1.536  0.1863 -0.2673 -0.5696
 6604SOL    HW131271   4.640   2.441   1.598 -0.9936 -1.2090  0.9364
 6604SOL    HW231272   4.617   2.403   1.459  1.2461  2.5444 -0.9282
 6605SOL     OW31273   2.403   3.280   3.418  0.0863 -0.1889  0.4463
 6605SOL    HW131274   2.376   3.371   3.426 -1.1648 -0.5793  0.7254
 6605SOL    HW231275   2.410   3.261   3.511  2.0040  0.7813  0.4941
 6606SOL     OW31276   3.940   4.188   3.239 -0.0394 -0.1216 -0.0194
 6606SOL    HW131277   4.027   4.162   3.210  0.3692  0.1360  0.9690
 6606SOL    HW231278   3.887   4.127   3.188  0.6248 -0.4714 -0.2958
 6607SOL     OW31279   2.374   2.388   6.002  0.3037  0.1227 -0.1462
 6607SOL    HW131280   2.375   2.311   6.058 -2.1589  0.6839  0.6683
 6607SOL    HW231281   2.440   2.368   5.936  0.9051 -0.7087  0.7092
 6608SOL     OW31282   2.569   0.208   4.404 -0.1602  0.1682  0.0223
 6608SOL    HW131283   2.640   0.255   4.361  0.2740 -0.6548 -0.1605
 6608SOL    HW231284   2.601   0.221   4.494 -0.0938 -2.3201  0.3596
 6609SOL     OW31285   1.774   1.820  17.248 -0.1883 -0.0040 -0.1588
 6609SOL    HW131286   1.719   1.830  17.326 -2.0260  1.3416 -1.6143
 6609SOL    HW231287   1.760   1.904  17.205  0.5536  0.8952  1.3756
 6610SOL     OW31288   4.139   0.559   2.398 -0.0902  0.0259  0.7220
 6610SOL    HW131289   4.183   0.508   2.330 -2.2618 -0.7176 -0.1543
 6610SOL    HW231290   4.053   0.517   2.390  0.2327 -0.4707 -0.1466
 6611SOL     OW31291   2.376   0.758   8.720 -0.1508  0.5317  1.3233
 6611SOL    HW131292   2.438   0.708   8.773  2.1700  2.8442  0.7694
 6611SOL    HW231293   2.323   0.685   8.687  0.6490 -0.2507  1.7710
 6612SOL     OW31294   3.807   2.696   7.636  0.0055  0.8474  0.0280
 6612SOL    HW131295   3.861   2.629   7.596 -2.6690 -1.1074 -0.3069
 6612SOL    HW231296   3.843   2.775   7.597 -1.6846  1.0026 -1.2095
 6613SOL     OW31297   1.813   0.330   7.404 -0.2362 -0.2091 -0.5801
 6613SOL    HW131298   1.838   0.307   7.315 -0.8621  1.8448 -1.2893
 6613SOL    HW231299   1.720   0.305   7.403 -0.2532 -0.2423  0.8284
 6614SOL     OW31300   2.505   3.498   7.734 -0.1268 -0.2151  0.3662
 6614SOL    HW131301   2.501   3.593   7.722  0.1901 -0.6556 -3.2232
 6614SOL    HW231302   2.505   3.498   7.830 -2.1983  2.7563  0.3670
 6615SOL     OW31303   0.079   2.419   3.121  0.6054  0.4245  0.0229
 6615SOL    HW131304   4.718   2.453   3.100  0.1890 -0.2357  0.7038
 6615SOL    HW231305   0.094   2.354   3.053  1.1570  1.3593 -0.7509
 6616SOL     OW31306   1.998   3.793  15.454  0.0157  0.1960 -0.4170
 6616SOL    HW131307   2.093   3.785  15.453 -0.0371 -0.4298 -0.4921
 6616SOL    HW231308   1.973   3.716  15.402 -3.3201  2.0556 -1.5460
 6617SOL     OW31309   4.100   3.415  16.327  0.3635 -0.6082  0.0732
 6617SOL    HW131310   4.132   3.330  16.298 -1.7392 -2.0980  2.1246
 6617SOL    HW231311   4.187   3.455  16.321  0.0094 -0.0552 -1.3520
 6618SOL     OW31312   1.064   0.968   1.450 -0.0325 -0.0806  0.0696
 6618SOL    HW131313   1.030   1.055   1.433 -1.2847 -0.5266  0.2896
 6618SOL    HW231314   1.080   0.940   1.360 -1.9589  0.1512 -0.3479
 6619SOL     OW31315   3.536   1.624   1.568  0.5013  0.0742 -0.0394
 6619SOL    HW131316   3.620   1.579   1.576  0.4836  0.0919  0.2619
 6619SOL    HW231317   3.479   1.583   1.633 -0.8846  2.2844  0.1519
 6620SOL     OW31318   3.650   2.299   2.341 -0.3009  0.2876  0.3993
 6620SOL    HW131319   3.631   2.318   2.433  2.3546  1.5135  0.7074
 6620SOL    HW231320   3.623   2.207   2.342  1.9197 -0.3449  2.1927
 6621SOL     OW31321   0.848   3.336   3.706  0.5944  0.0368 -0.1998
 6621SOL    HW131322   0.944   3.339   3.712  0.7414 -0.0008 -2.6631
 6621SOL    HW231323   0.827   3.429   3.697 -0.0442 -0.2124 -1.1959
 6622SOL     OW31324   1.122   3.631   8.306  0.3550  0.1884  0.0041
 6622SOL    HW131325   1.140   3.724   8.314 -0.8342  0.6345 -2.4887
 6622SOL    HW231326   1.173   3.598   8.232 -2.3112 -4.1872  0.0892
 6623SOL     OW31327   0.501   1.183   7.076 -0.2175  0.0340 -0.0438
 6623SOL    HW131328   0.544   1.266   7.055  1.3071 -0.7173  0.0989
 6623SOL    HW231329   0.530   1.125   7.006 -0.6369  0.1556 -0.3200
 6624SOL     OW31330   4.402   1.204   1.679  0.0472  0.5906 -0.0002
 6624SOL    HW131331   4.478   1.239   1.633  0.5087 -1.2592 -0.6347
 6624SOL    HW231332   4.447   1.199   1.763  1.1728 -1.8770 -0.7757
 6625SOL     OW31333   2.888   4.061   6.027  0.2265 -0.1450 -0.0386
 6625SOL    HW131334   2.950   4.045   6.099 -0.3395  0.6106  0.6069
 6625SOL    HW231335   2.938   4.028   5.952  0.6497 -0.1946  0.2610
 6626SOL     OW31336   0.459   0.720   6.917 -0.1897 -0.3677  0.0586
 6626SOL    HW131337   0.496   0.808   6.907 -1.3564  0.2136  0.8718
 6626SOL    HW231338   0.542   0.675   6.926  0.6083  1.3604  1.3150
 6627SOL     OW31339   4.320   3.612   8.311 -0.5499 -0.1241 -0.0252
 6627SOL    HW131340   4.369   3.535   8.340  0.0575  0.5200  0.6585
 6627SOL    HW231341   4.291   3.642   8.397 -0.8301  1.3451 -0.6333
 6628SOL     OW31342   1.509   3.476   5.789  0.3389  0.3735 -0.3438
 6628SOL    HW131343   1.588   3.516   5.825  1.2079 -0.6894 -1.0728
 6628SOL    HW231344   1.444   3.545   5.800  0.7346  0.3079  2.4288
 6629SOL     OW31345   4.060   2.818  17.427  0.0585 -0.0173  0.0151
 6629SOL    HW131346   3.992   2.813  17.360 -0.0332  3.1415 -0.1058
 6629SOL    HW231347   4.017   2.784  17.506 -1.8237  1.6573 -0.3065
 6630SOL     OW31348   1.632   4.265   6.925  0.4910  0.1527  0.1518
 6630SOL    HW131349   1.553   4.220   6.956  0.2362 -0.7463 -1.7881
 6630SOL    HW231350   1.603   4.352   6.895  0.4274  0.2165  0.4030
 6631SOL     OW31351   3.539   3.150   6.016 -0.2147  0.1182  0.4642
 6631SOL    HW131352   3.577   3.220   5.963  0.1024 -0.2250  0.2303
 6631SOL    HW231353   3.601   3.140   6.088 -0.2029  1.9485  0.7075
 6632SOL     OW31354   3.031   0.521  12.592  0.3212 -0.2168  0.2404
 6632SOL    HW131355   3.045   0.610  12.624 -0.9280  0.2568 -0.5446
 6632SOL    HW231356   3.115   0.518  12.547 -0.9170  1.6036 -2.1469
 6633SOL     OW31357   2.004   1.155  13.275 -0.4481 -0.4016  0.2934
 6633SOL    HW131358   1.914   1.179  13.254 -0.7385 -2.3157 -0.6307
 6633SOL    HW231359   1.998   1.063  13.248 -0.2754 -0.8598  1.8532
 6634SOL     OW31360   3.273   0.065   9.137 -0.0183 -0.0531  0.2479
 6634SOL    HW131361   3.263   4.702   9.104  0.8960  0.2698 -0.9023
 6634SOL    HW231362   3.347   0.049   9.196  0.6204 -0.4501 -0.6471
 6635SOL     OW31363   2.949   4.538   5.191 -0.0132  0.4363  0.1327
 6635SOL    HW131364   2.918   4.627   5.210  1.7071  0.8954  0.7629
 6635SOL    HW231365   3.041   4.559   5.177 -0.0422  1.1458  0.9617
 6636SOL     OW31366   1.879   1.072   8.392 -0.0406 -0.0422 -0.2652
 6636SOL    HW131367   1.961   1.055   8.347  0.3148 -0.0106  0.3816
 6636SOL    HW231368   1.882   1.009   8.464 -0.6921  0.9586  0.6417
 6637SOL     OW31369   3.454   2.004  10.209  0.6649  0.0136 -0.2246
 6637SOL    HW131370   3.377   2.060  10.204  0.2599 -0.4332  1.0522
 6637SOL    HW231371   3.516   2.075  10.228  0.1590 -0.1387  1.9479
 6638SOL     OW31372   3.507   2.210   1.977  0.0882 -0.5544 -0.3863
 6638SOL    HW131373   3.588   2.241   2.016 -0.1635 -0.5936  0.1730
 6638SOL    HW231374   3.511   2.115   1.993  2.5409 -0.4690 -0.4970
 6639SOL     OW31375   3.544   4.707   5.458  0.1201 -0.1203 -0.0252
 6639SOL    HW131376   3.458   4.675   5.431  0.3008 -1.8779  1.4739
 6639SOL    HW231377   3.600   4.699   5.381  2.1169 -0.9321  1.5145
 6640SOL     OW31378   2.046   4.725   2.746 -0.5626 -0.5080 -0.3042
 6640SOL    HW131379   2.067   0.090   2.764  0.7885 -0.6280 -1.3120
 6640SOL    HW231380   1.954   0.002   2.718 -1.1006 -0.9035  1.4123
 6641SOL     OW31381   0.522   1.219   5.203 -0.2755  0.3270 -0.2573
 6641SOL    HW131382   0.573   1.222   5.123 -1.8999 -0.0623 -1.3057
 6641SOL    HW231383   0.456   1.284   5.181  1.6476  1.5238 -2.4661
 6642SOL     OW31384   0.734   3.646  13.123  0.1555 -0.2711 -0.1229
 6642SOL    HW131385   0.685   3.573  13.161  0.2600  0.5081  1.4945
 6642SOL    HW231386   0.807   3.658  13.183 -1.7387  2.5209  1.5970
 6643SOL     OW31387   1.697   1.729   7.140  0.0295  0.2103  0.6752
 6643SOL    HW131388   1.751   1.694   7.211 -2.2994 -1.2859  1.7110
 6643SOL    HW231389   1.763   1.786   7.099 -0.8520 -0.1531 -1.2588
 6644SOL     OW31390   2.305   0.947   6.805  0.0994  0.9547 -0.2082
 6644SOL    HW131391   2.336   0.900   6.728  0.0457  1.9237 -0.8128
 6644SOL    HW231392   2.388   0.953   6.851 -0.3214 -0.5770  0.7694
 6645SOL     OW31393   3.388   3.588   4.532 -0.3232  0.6662 -0.3452
 6645SOL    HW131394   3.320   3.553   4.475 -2.4898  1.6051  1.6659
 6645SOL    HW231395   3.466   3.580   4.477 -0.2706  2.8812 -0.6160
 6646SOL     OW31396   3.867   1.097  15.269 -0.3754  0.2913 -0.3571
 6646SOL    HW131397   3.813   1.158  15.320 -1.3843 -0.7163 -0.2160
 6646SOL    HW231398   3.951   1.142  15.261  0.2594 -0.9956 -0.9777
 6647SOL     OW31399   0.640   2.953   3.498 -0.3516  0.7018 -0.5200
 6647SOL    HW131400   0.672   2.996   3.577 -2.1516 -1.0058  1.1515
 6647SOL    HW231401   0.560   2.922   3.542 -0.3052 -1.4385 -1.9152
 6648SOL     OW31402   3.406   2.980  17.682 -0.8150  0.4932 -0.0508
 6648SOL    HW131403   3.400   3.005   0.069  1.0716 -1.3210  0.5531
 6648SOL    HW231404   3.434   3.064  17.645  2.8589 -0.3204  0.9279
 6649SOL     OW31405   3.848   1.049   7.255  0.4070 -0.2349 -0.0422
 6649SOL    HW131406   3.839   1.128   7.308 -0.1831  0.2232 -0.8034
 6649SOL    HW231407   3.911   1.075   7.188 -0.8684  1.0367 -0.7667
 6650SOL     OW31408   2.248   0.472   6.594  0.0281 -0.0976 -0.2193
 6650SOL    HW131409   2.215   0.457   6.683 -1.1027  0.4866 -0.5319
 6650SOL    HW231410   2.169   0.463   6.541  1.7140  2.3542 -3.1238
 6651SOL     OW31411   0.621   1.026   6.883 -0.6051 -0.2225  0.0870
 6651SOL    HW131412   0.597   1.078   6.807  0.7740  0.2819  0.0010
 6651SOL    HW231413   0.709   0.997   6.861 -1.0501 -2.6667  1.4882
 6652SOL     OW31414   0.739   0.549   2.834 -0.4071 -0.0690 -0.0625
 6652SOL    HW131415   0.714   0.521   2.746 -0.1161 -1.0437  0.1615
 6652SOL    HW231416   0.736   0.645   2.830 -0.6737 -0.1056 -0.7563
 6653SOL     OW31417   1.895   3.019   8.100 -0.0498 -0.4759  0.1070
 6653SOL    HW131418   1.817   3.069   8.078 -1.5051 -2.5165  0.6253
 6653SOL    HW231419   1.960   3.077   8.061  0.1984 -1.1676 -0.5188
 6654SOL     OW31420   0.169   1.854   4.378  0.4768  0.2261 -0.1464
 6654SOL    HW131421   0.124   1.914   4.318  0.2064  0.9500  0.7876
 6654SOL    HW231422   0.183   1.780   4.319 -0.5393 -1.2059  1.3906
 6655SOL     OW31423   1.015   4.549   7.120 -0.5193  0.2823  0.1979
 6655SOL    HW131424   1.105   4.523   7.138 -0.7096 -1.0858 -0.8733
 6655SOL    HW231425   0.984   4.557   7.211 -1.8583  0.4632 -0.2724
 6656SOL     OW31426   0.400   1.961   5.949 -0.1537  0.6710  1.0334
 6656SOL    HW131427   0.423   2.054   5.942  1.1215  0.2277 -0.7266
 6656SOL    HW231428   0.407   1.958   6.044  2.1791  0.5571  0.8595
 6657SOL     OW31429   0.644   3.713   7.399  0.1159  0.1230 -0.5827
 6657SOL    HW131430   0.587   3.723   7.323 -1.7916  1.2701  1.0184
 6657SOL    HW231431   0.733   3.718   7.364  0.6668 -0.0998  0.7971
 6658SOL     OW31432   4.695   2.618   7.032  0.3519 -0.3815 -0.7320
 6658SOL    HW131433   4.701   2.527   7.061 -1.2284 -0.3395 -0.2890
 6658SOL    HW231434   0.051   2.636   6.986  0.9751  1.6263  1.1958
 6659SOL     OW31435   2.541   4.455  11.964  0.3067 -0.1794 -0.2686
 6659SOL    HW131436   2.548   4.534  11.910  2.1904 -0.2351 -0.1047
 6659SOL    HW231437   2.568   4.476  12.053 -1.2570 -0.7173  0.3344
 6660SOL     OW31438   0.890   0.426   6.708 -0.2331  0.3800 -0.3643
 6660SOL    HW131439   0.877   0.426   6.803 -1.2589  1.6485 -0.5013
 6660SOL    HW231440   0.972   0.474   6.703  0.9860 -1.7548 -0.6869
 6661SOL     OW31441   0.676   3.857   5.200 -0.0600  0.1541  0.1473
 6661SOL    HW131442   0.693   3.909   5.279 -1.7771 -1.2810  1.4483
 6661SOL    HW231443   0.592   3.817   5.223 -1.2692 -0.0886 -4.9010
 6662SOL     OW31444   4.600   1.460   2.204  0.7265  0.4719 -0.1894
 6662SOL    HW131445   4.594   1.524   2.134 -6.0522 -0.8527 -0.8444
 6662SOL    HW231446   4.564   1.383   2.160 -0.2288  0.5180  0.4977
 6663SOL     OW31447   2.914   0.942   6.462 -0.5557 -0.3215 -0.0742
 6663SOL    HW131448   2.899   1.035   6.449  2.8716 -0.1715 -2.8955
 6663SOL    HW231449   3.005   0.936   6.492 -0.0771 -0.6322 -1.5642
 6664SOL     OW31450   1.836   0.855  11.062 -0.2847  0.2892  0.0081
 6664SOL    HW131451   1.843   0.890  11.151  0.8966  3.0248 -1.1799
 6664SOL    HW231452   1.800   0.772  11.095  0.6842 -0.7469 -1.5453
 6665SOL     OW31453   3.782   4.580  15.499  0.2090 -0.6577 -0.4031
 6665SOL    HW131454   3.786   4.501  15.444 -0.9002 -0.8319 -0.2213
 6665SOL    HW231455   3.780   4.648  15.432  0.9859 -0.5401 -0.3135
 6666SOL     OW31456   0.310   2.257   5.796  0.0972 -0.4709  0.1332
 6666SOL    HW131457   0.266   2.342   5.794  0.1421 -0.4511  0.0095
 6666SOL    HW231458   0.364   2.286   5.869 -0.5048  1.0992 -0.0405
 6667SOL     OW31459   3.886   4.391   2.879  0.9452  0.2180  0.4875
 6667SOL    HW131460   3.805   4.443   2.876  0.6653 -0.1710  1.2414
 6667SOL    HW231461   3.920   4.412   2.966  0.3967 -4.2606  1.7721
 6668SOL     OW31462   2.167   1.202  13.069  0.3536  0.3797 -0.5465
 6668SOL    HW131463   2.113   1.209  12.990  0.4612 -1.4907 -0.7982
 6668SOL    HW231464   2.104   1.179  13.137  1.7049  1.5168  1.1020
 6669SOL     OW31465   0.818   2.104   2.963 -0.4607 -0.6056 -0.2347
 6669SOL    HW131466   0.774   2.135   3.042 -0.7053 -1.5183 -0.0137
 6669SOL    HW231467   0.807   2.009   2.970 -0.2236 -0.7245 -1.4481
 6670SOL     OW31468   1.262   1.331   3.668  0.0521 -0.1916 -0.6116
 6670SOL    HW131469   1.166   1.329   3.660  0.0337 -1.9270  0.1256
 6670SOL    HW231470   1.288   1.271   3.598  1.0854 -0.3195 -0.1057
 6671SOL     OW31471   3.693   0.922   7.051  0.1990  0.2647 -0.0786
 6671SOL    HW131472   3.730   0.962   7.129  1.5938  0.6310 -0.9191
 6671SOL    HW231473   3.627   0.982   7.018  0.7402  1.2540  0.6517
 6672SOL     OW31474   4.607   2.999   4.736 -0.7069  0.0680 -0.5907
 6672SOL    HW131475   4.582   2.994   4.644 -1.8496  0.5901 -0.3001
 6672SOL    HW231476   4.701   2.980   4.731 -0.4397  0.7687  1.5390
 6673SOL     OW31477   2.632   2.322   0.116 -0.1273 -0.0007 -0.0549
 6673SOL    HW131478   2.624   2.257   0.046  2.1400  0.0710 -0.3720
 6673SOL    HW231479   2.596   2.401   0.076 -1.8821 -1.1228 -0.7217
 6674SOL     OW31480   0.594   0.123   7.727 -0.3062 -0.5031 -0.2074
 6674SOL    HW131481   0.512   0.132   7.678 -0.7462 -2.1361  0.2220
 6674SOL    HW231482   0.557   0.088   7.808  0.2855  0.4119  0.4658
 6675SOL     OW31483   4.216   1.666  13.818  0.1416  0.8293 -0.0900
 6675SOL    HW131484   4.261   1.583  13.835 -1.2952  0.1237  0.2023
 6675SOL    HW231485   4.198   1.673  13.724  3.8648  0.7361 -0.8328
 6676SOL     OW31486   1.244   4.427  15.001  0.3834 -0.3471  0.1975
 6676SOL    HW131487   1.160   4.469  14.981  0.0471 -1.5496 -0.8665
 6676SOL    HW231488   1.219   4.335  15.007  0.2776 -0.2359  1.6106
 6677SOL     OW31489   0.506   1.107   7.342 -0.5562 -0.1630  0.0937
 6677SOL    HW131490   0.572   1.048   7.306  0.1846  0.4381  0.4646
 6677SOL    HW231491   0.505   1.158   7.261 -1.3613  0.3189  0.3984
 6678SOL     OW31492   3.375   0.129   6.495  0.6873 -0.3069  0.2211
 6678SOL    HW131493   3.347   0.136   6.404  0.3783  0.0077  0.3394
 6678SOL    HW231494   3.296   0.082   6.521 -0.8730  0.7198 -2.6182
 6679SOL     OW31495   3.689   0.667   7.148 -0.1077 -0.3892  0.1074
 6679SOL    HW131496   3.687   0.750   7.101  1.2867 -0.4544 -0.0682
 6679SOL    HW231497   3.781   0.651   7.129 -0.0789 -0.0986  0.0107
 6680SOL     OW31498   4.054   0.606   1.985 -0.0059 -0.8620 -0.2975
 6680SOL    HW131499   4.031   0.653   1.905  1.0554  1.1059  0.5621
 6680SOL    HW231500   4.118   0.543   1.952 -0.0810  0.0220 -2.0898
 6681SOL     OW31501   4.003   4.570   7.240 -0.3029  0.1247 -0.3229
 6681SOL    HW131502   4.068   4.511   7.280  1.4675  1.3182 -1.4383
 6681SOL    HW231503   4.058   4.592   7.165  1.0272 -0.2450  0.5331
 6682SOL     OW31504   4.628   1.575   6.670 -0.3218 -0.0040 -0.1950
 6682SOL    HW131505   4.628   1.671   6.666  0.8183 -0.0594 -1.2611
 6682SOL    HW231506   4.712   1.562   6.714 -0.7532 -0.8221  0.3865
 6683SOL     OW31507   1.486   3.251   5.655  0.3540 -0.3777  0.2814
 6683SOL    HW131508   1.511   3.323   5.713 -1.3880  0.5059 -0.0500
 6683SOL    HW231509   1.568   3.230   5.609  0.3191  0.4483 -0.1664
 6684SOL     OW31510   2.156   4.536  16.452  0.6932  0.6564  0.3006
 6684SOL    HW131511   2.139   4.630  16.447 -1.8171  0.1212 -1.1487
 6684SOL    HW231512   2.187   4.518  16.364 -1.0909  1.7094 -0.5499
 6685SOL     OW31513   0.483   4.248   0.571 -0.0755  0.0992 -0.4295
 6685SOL    HW131514   0.405   4.247   0.628  0.3819 -2.9864  0.1260
 6685SOL    HW231515   0.541   4.205   0.634 -1.5971 -0.4717  0.5997
 6686SOL     OW31516   1.491   4.157   9.098 -0.4807 -0.1557 -0.2768
 6686SOL    HW131517   1.454   4.090   9.156 -1.1192  0.8077  0.4463
 6686SOL    HW231518   1.527   4.214   9.166 -1.1417 -0.8461  0.6548
 6687SOL     OW31519   1.969   0.530   0.857 -0.4603  0.1462 -0.0669
 6687SOL    HW131520   1.977   0.616   0.816 -0.8007 -0.3717 -1.1965
 6687SOL    HW231521   1.883   0.507   0.822  0.8493  0.5080 -3.4854
 6688SOL     OW31522   1.672   2.365   1.911 -0.0044 -0.2656 -0.5626
 6688SOL    HW131523   1.642   2.419   1.838  0.3127 -0.2372 -0.6751
 6688SOL    HW231524   1.767   2.360   1.897  0.0399 -2.1568  0.3534
 6689SOL     OW31525   3.842   2.214   0.336  0.5016  0.3243 -0.0600
 6689SOL    HW131526   3.896   2.248   0.264  0.7060  0.3103  0.0886
 6689SOL    HW231527   3.875   2.125   0.349 -3.2684 -1.3117 -1.5485
 6690SOL     OW31528   0.526   0.240   4.089  0.0268  0.0304 -0.2138
 6690SOL    HW131529   0.596   0.179   4.112  0.9507  0.6912 -1.2622
 6690SOL    HW231530   0.454   0.188   4.123  0.0611 -0.8749 -1.5426
 6691SOL     OW31531   4.281   0.606   9.684  0.0978 -0.4674 -0.0775
 6691SOL    HW131532   4.203   0.568   9.724  0.6064  0.3978  1.7438
 6691SOL    HW231533   4.258   0.699   9.684 -0.3186 -0.5687 -0.0886
 6692SOL     OW31534   3.313   3.190   5.715 -0.1515 -0.0950 -0.2972
 6692SOL    HW131535   3.329   3.283   5.733  1.9466 -0.7061  0.9499
 6692SOL    HW231536   3.325   3.190   5.620  1.1135 -3.4155 -0.1555
 6693SOL     OW31537   2.055   1.934  11.057 -0.2815  0.3269 -0.1921
 6693SOL    HW131538   2.022   1.981  11.133  1.8812 -1.7026  2.0233
 6693SOL    HW231539   1.976   1.930  11.003 -0.4043  3.4225 -0.2368
 6694SOL     OW31540   0.054   0.798   7.155  0.1810 -0.3406 -0.4987
 6694SOL    HW131541   0.139   0.836   7.130 -0.4967  0.5648 -1.4372
 6694SOL    HW231542   0.037   0.756   7.070 -2.2273  0.9353 -0.6359
 6695SOL     OW31543   2.801   3.912   8.592  0.2268 -0.1154  0.2229
 6695SOL    HW131544   2.813   3.817   8.583  0.5842  0.0137 -0.6723
 6695SOL    HW231545   2.772   3.924   8.682  2.3520 -0.6841  0.9651
 6696SOL     OW31546   4.150   1.624   3.299 -0.5440  0.0712  0.1135
 6696SOL    HW131547   4.150   1.708   3.253  1.4770 -0.0212 -0.0345
 6696SOL    HW231548   4.125   1.654   3.386 -0.3070  0.2921  0.1041
 6697SOL     OW31549   2.294   3.370   6.971  0.5290  0.6317 -0.1989
 6697SOL    HW131550   2.384   3.397   6.993  0.1994  2.2642 -0.8402
 6697SOL    HW231551   2.264   3.457   6.944 -4.1693 -0.7070  0.7788
 6698SOL     OW31552   4.372   1.758   8.894  0.3614  0.4141  0.3513
 6698SOL    HW131553   4.325   1.712   8.964 -1.1266  0.9952 -0.2624
 6698SOL    HW231554   4.306   1.767   8.826  0.2502 -2.4558  0.0706
 6699SOL     OW31555   1.916   1.471   4.535 -0.3613  0.2039 -0.4928
 6699SOL    HW131556   1.947   1.512   4.615  2.7603 -0.6613 -1.2864
 6699SOL    HW231557   1.857   1.403   4.569 -0.1818  0.1609 -0.2728
 6700SOL     OW31558   4.389   4.615   4.841 -0.0298 -0.0790 -0.8805
 6700SOL    HW131559   4.342   4.604   4.758  0.5059 -0.6368 -1.1102
 6700SOL    HW231560   4.336   4.566   4.903 -1.2536  2.0027 -0.2907
 6701SOL     OW31561   0.605   3.849   6.820  0.0273  0.8666 -0.8434
 6701SOL    HW131562   0.649   3.884   6.742  0.7276  2.3806  0.2329
 6701SOL    HW231563   0.541   3.789   6.783  2.9639 -1.9043 -1.4184
 6702SOL     OW31564   2.163   3.958   6.117  0.5154 -0.1238  0.6788
 6702SOL    HW131565   2.136   4.015   6.045 -0.1299 -1.2698  0.0129
 6702SOL    HW231566   2.195   3.880   6.071 -2.9057  0.0208 -1.9184
 6703SOL     OW31567   3.858   1.463  13.385  0.2503 -0.0453 -0.1348
 6703SOL    HW131568   3.779   1.503  13.421  0.4304 -0.0031  0.2160
 6703SOL    HW231569   3.904   1.480  13.468  1.4246  1.3997 -1.0740
 6704SOL     OW31570   2.000   2.029   2.473  0.3232  0.0655 -0.5496
 6704SOL    HW131571   1.963   2.117   2.470 -0.3759 -0.2677 -1.9191
 6704SOL    HW231572   1.954   1.994   2.396 -0.4396  0.5958 -0.3269
 6705SOL     OW31573   1.700   3.968   2.101 -0.3421 -0.2535 -0.3254
 6705SOL    HW131574   1.639   4.012   2.159 -0.7866 -0.6601 -0.4825
 6705SOL    HW231575   1.721   4.037   2.038  0.3249  0.8191  1.0799
 6706SOL     OW31576   0.566   0.593   9.174 -0.4171  0.1909  0.3633
 6706SOL    HW131577   0.550   0.658   9.243 -2.1339 -0.6034  0.7125
 6706SOL    HW231578   0.483   0.547   9.189  0.0787 -1.0738 -0.8583
 6707SOL     OW31579   3.535   1.087  16.918  0.5463 -0.1240  0.1268
 6707SOL    HW131580   3.573   1.163  16.873  0.9142  1.2115  2.6845
 6707SOL    HW231581   3.606   1.076  16.981  0.5993  2.8140  0.5785
 6708SOL     OW31582   2.693   0.856   6.930  0.2575 -0.0283  0.4770
 6708SOL    HW131583   2.787   0.875   6.933 -0.2396  1.8439  4.0291
 6708SOL    HW231584   2.680   0.806   7.011 -1.4963 -1.0181 -0.4112
 6709SOL     OW31585   4.483   1.182   4.370 -0.3104  0.1313  0.2880
 6709SOL    HW131586   4.417   1.130   4.325 -0.1696  0.1090  0.1032
 6709SOL    HW231587   4.460   1.184   4.463  2.7187 -3.3612  1.1586
 6710SOL     OW31588   1.872   0.167   2.102 -0.1232  0.1012  0.0315
 6710SOL    HW131589   1.870   0.263   2.101 -2.7259  0.0243 -0.4295
 6710SOL    HW231590   1.783   0.148   2.130  0.1843  0.9078  1.5681
 6711SOL     OW31591   3.302   0.608  17.173  0.2150  0.1319  0.7579
 6711SOL    HW131592   3.278   0.525  17.132  1.0344 -0.7217  2.0065
 6711SOL    HW231593   3.278   0.677  17.111  1.3101 -0.4787 -0.3453
 6712SOL     OW31594   4.006   1.361   6.241  0.7784 -0.2594  0.3481
 6712SOL    HW131595   4.075   1.389   6.181  0.4976 -1.1494 -0.4128
 6712SOL    HW231596   3.930   1.408   6.206 -1.7532 -2.1185  3.3699
 6713SOL     OW31597   0.906   3.985   6.315  0.2728  0.3525  0.1203
 6713SOL    HW131598   0.837   3.947   6.260  0.2728  2.1555 -1.1366
 6713SOL    HW231599   0.873   4.075   6.306  0.5810  0.2952 -1.5791
 6714SOL     OW31600   4.290   1.064   6.204  0.1497 -0.6173 -0.3116
 6714SOL    HW131601   4.353   1.014   6.152  2.1828  1.5628  0.0192
 6714SOL    HW231602   4.318   1.154   6.183 -2.0785  0.0902 -0.1977
 6715SOL     OW31603   1.807   1.374   9.510 -0.5006 -0.1852 -0.1583
 6715SOL    HW131604   1.831   1.457   9.468  0.6475 -0.6142 -0.3725
 6715SOL    HW231605   1.857   1.306   9.464  1.4703  0.8898  0.3633
 6716SOL     OW31606   3.698   3.205  11.809  0.3419  0.6439  0.1496
 6716SOL    HW131607   3.787   3.222  11.778  0.9767 -0.8775  1.1354
 6716SOL    HW231608   3.660   3.223  11.723  2.7424  1.2018 -0.8042
 6717SOL     OW31609   3.571   4.581   7.470  0.3974 -0.4438  0.3609
 6717SOL    HW131610   3.608   4.658   7.512  1.5093 -1.7262  1.7303
 6717SOL    HW231611   3.624   4.578   7.390  0.6021 -1.2328  0.5252
 6718SOL     OW31612   3.824   3.595   7.533  0.2692 -0.0246 -0.5062
 6718SOL    HW131613   3.887   3.629   7.469  1.6008 -0.3196  0.6536
 6718SOL    HW231614   3.756   3.661   7.519  1.5425  1.3422 -0.3119
 6719SOL     OW31615   4.696   0.614   0.717 -0.5423  0.1326 -0.5020
 6719SOL    HW131616   4.616   0.659   0.744 -0.3939 -0.5858  1.1460
 6719SOL    HW231617   4.675   0.597   0.626 -0.1710 -0.3722 -0.4941
 6720SOL     OW31618   2.191   3.863   8.282  0.0883  0.6728  0.5075
 6720SOL    HW131619   2.263   3.908   8.238 -0.3247  0.0149 -0.8475
 6720SOL    HW231620   2.225   3.818   8.359  0.6093 -1.8587 -1.1966
 6721SOL     OW31621   2.955   2.226   9.050 -0.2910 -0.3590 -0.3718
 6721SOL    HW131622   2.974   2.254   8.961 -0.4336  1.7165  0.2482
 6721SOL    HW231623   2.861   2.243   9.054 -0.2758 -0.2728 -0.3803
 6722SOL     OW31624   2.559   0.601   8.848 -0.0226 -0.6064 -0.0144
 6722SOL    HW131625   2.630   0.645   8.801 -2.3119  2.8176 -0.2194
 6722SOL    HW231626   2.569   0.643   8.933 -0.0237 -1.0915  0.2259
 6723SOL     OW31627   0.778   1.337   8.572  0.1988  0.3108  0.0517
 6723SOL    HW131628   0.865   1.346   8.532 -0.1002 -0.9561 -0.8545
 6723SOL    HW231629   0.765   1.244   8.553 -1.5367  0.4559  0.5528
 6724SOL     OW31630   3.359   4.050   5.049  0.4155 -0.3214 -0.6633
 6724SOL    HW131631   3.369   4.043   4.954 -3.3633  0.1065 -1.0822
 6724SOL    HW231632   3.450   4.045   5.079 -0.0077 -0.6305  0.5758
 6725SOL     OW31633   2.383   3.153   7.212 -0.0694 -0.4133 -0.0914
 6725SOL    HW131634   2.417   3.179   7.126 -0.5247  0.9817  0.1471
 6725SOL    HW231635   2.453   3.095   7.242 -0.1808 -1.4024 -1.7612
 6726SOL     OW31636   4.498   1.571  10.681 -0.0148 -0.6210 -0.2490
 6726SOL    HW131637   4.457   1.572  10.594 -1.5153  0.0252  0.4617
 6726SOL    HW231638   4.474   1.483  10.711  0.0187  0.4363  2.8811
 6727SOL     OW31639   3.129   4.081   2.396 -0.0093 -0.8796 -0.0340
 6727SOL    HW131640   3.124   4.135   2.475  2.4158 -0.1006 -0.4274
 6727SOL    HW231641   3.075   4.004   2.419 -1.7979  1.2853  3.0477
 6728SOL     OW31642   3.025   4.554   7.949 -0.0847  0.4357 -0.2176
 6728SOL    HW131643   2.985   4.509   8.023 -0.6050  2.0103  0.4651
 6728SOL    HW231644   3.083   4.618   7.990  0.5895 -0.3626  0.0765
 6729SOL     OW31645   0.276   4.287   2.762  0.4537  0.1688  0.7989
 6729SOL    HW131646   0.227   4.290   2.680 -0.9140  0.0116  1.6178
 6729SOL    HW231647   0.310   4.198   2.770 -0.6348 -0.1813  1.4707
 6730SOL     OW31648   4.596   0.110  15.607 -0.1522  0.6411  0.3999
 6730SOL    HW131649   4.513   0.104  15.654 -0.4500  1.7333  0.0118
 6730SOL    HW231650   4.576   0.106  15.513 -0.6577 -1.6921  0.6315
 6731SOL     OW31651   4.676   1.308  17.148 -0.0723 -0.0043  0.0094
 6731SOL    HW131652   4.620   1.372  17.105 -1.9110 -0.2388  2.0420
 6731SOL    HW231653   4.655   1.328  17.239 -0.4368 -0.1468 -0.0415
 6732SOL     OW31654   2.249   3.511   5.813 -0.3739  0.2822  0.1693
 6732SOL    HW131655   2.192   3.496   5.737 -0.1427 -1.4629  0.3307
 6732SOL    HW231656   2.270   3.423   5.844  1.5470  1.1164  1.1774
 6733SOL     OW31657   2.409   1.707   4.096 -0.3565  0.3645  0.4744
 6733SOL    HW131658   2.477   1.677   4.035  0.9611 -2.5071  3.3717
 6733SOL    HW231659   2.361   1.767   4.039  2.1177  2.4010  0.5452
 6734SOL     OW31660   0.732   0.068   4.153  0.3714  0.3177 -0.3211
 6734SOL    HW131661   0.729   4.714   4.100  1.0121  0.9410 -1.3048
 6734SOL    HW231662   0.765   0.032   4.235 -0.3562 -0.3700 -0.3345
 6735SOL     OW31663   1.083   1.504   6.626 -0.1128  0.0565  0.4761
 6735SOL    HW131664   1.087   1.486   6.720 -0.0392 -0.9310  0.2843
 6735SOL    HW231665   1.077   1.418   6.584  0.0675 -0.9123  2.3987
 6736SOL     OW31666   4.422   3.827  14.354 -0.0702  0.0975  0.0805
 6736SOL    HW131667   4.438   3.736  14.380  1.8316  0.5888  0.6175
 6736SOL    HW231668   4.464   3.877  14.425 -1.0350  1.9642 -0.6624
 6737SOL     OW31669   2.508   0.244  10.127  0.3439  0.2250  0.1186
 6737SOL    HW131670   2.438   0.205  10.180 -0.3228 -0.2238 -1.0980
 6737SOL    HW231671   2.539   0.317  10.182  0.4582  1.6484 -1.8560
 6738SOL     OW31672   2.955   4.524   9.202 -0.6786  0.1258 -0.2986
 6738SOL    HW131673   3.009   4.491   9.273 -0.9281 -0.3121 -0.3154
 6738SOL    HW231674   2.905   4.599   9.236  2.0341  0.8345  2.1162
 6739SOL     OW31675   3.589   3.706   6.915  0.5469 -0.5007  0.3027
 6739SOL    HW131676   3.557   3.646   6.982 -1.5597  0.6297  0.2810
 6739SOL    HW231677   3.678   3.726   6.944  0.0594  1.8727  0.1552
 6740SOL     OW31678   0.883   2.419   6.293 -0.6928  0.2437  0.1968
 6740SOL    HW131679   0.942   2.370   6.351 -1.2166 -0.7771 -0.1499
 6740SOL    HW231680   0.815   2.445   6.355 -1.4125 -2.4005  0.5010
 6741SOL     OW31681   3.861   3.802  17.210 -0.4090 -0.5785  0.1293
 6741SOL    HW131682   3.882   3.837  17.123  0.8922  1.0710  1.1242
 6741SOL    HW231683   3.766   3.811  17.203 -0.4890 -1.2414  0.4016
 6742SOL     OW31684   2.176   1.602   5.665  0.3796 -0.1910 -0.0738
 6742SOL    HW131685   2.204   1.686   5.703 -1.4836  0.9612 -1.2684
 6742SOL    HW231686   2.188   1.543   5.739  0.3460  0.1381  0.1936
 6743SOL     OW31687   2.679   1.900  15.380 -0.3435  0.5956 -0.1186
 6743SOL    HW131688   2.719   1.974  15.425  1.6736 -1.0390  0.7824
 6743SOL    HW231689   2.691   1.922  15.288  3.7309 -0.6080  0.1134
 6744SOL     OW31690   4.166   4.669  14.398  0.6954  0.1577  0.0236
 6744SOL    HW131691   4.203   4.693  14.483 -0.0518  0.4740  0.2562
 6744SOL    HW231692   4.231   4.704  14.337 -0.7812  0.8465 -1.1628
 6745SOL     OW31693   3.812   2.593   3.788 -0.0112  0.2092 -0.1562
 6745SOL    HW131694   3.784   2.524   3.849 -0.7203 -0.3838 -1.1475
 6745SOL    HW231695   3.849   2.540   3.717  1.3449 -0.6276  1.1770
 6746SOL     OW31696   3.174   2.191   0.545  0.2367  1.0584 -0.1560
 6746SOL    HW131697   3.244   2.224   0.488  1.7127 -1.8574 -0.0065
 6746SOL    HW231698   3.220   2.126   0.599 -1.0835 -0.8655 -1.3701
 6747SOL     OW31699   3.472   0.130  17.242  0.6911 -0.9628 -0.7270
 6747SOL    HW131700   3.447   0.055  17.297  0.2781  0.8292  1.5108
 6747SOL    HW231701   3.535   0.085  17.185  2.7683 -0.6994  1.3884
 6748SOL     OW31702   1.262   0.872   6.399  0.5298  0.3598  0.2031
 6748SOL    HW131703   1.200   0.868   6.326  1.3268  0.7933 -0.5022
 6748SOL    HW231704   1.259   0.965   6.419 -1.6121  0.4889 -0.8167
 6749SOL     OW31705   0.699   4.525  17.703  0.7194 -0.4276 -0.0090
 6749SOL    HW131706   0.648   4.459  17.656  0.1372 -1.9312  2.7447
 6749SOL    HW231707   0.630   4.554   0.058 -0.0279 -1.9021 -0.1507
 6750SOL     OW31708   3.784   3.893   2.481  0.4286  0.0458 -0.2304
 6750SOL    HW131709   3.803   3.883   2.387 -0.2482  0.6789 -0.4300
 6750SOL    HW231710   3.870   3.878   2.521  0.8413  1.3950 -0.6322
 6751SOL     OW31711   3.611   1.278  13.220  0.2685 -0.2578 -0.0491
 6751SOL    HW131712   3.588   1.361  13.178 -0.0971 -0.2320  0.2018
 6751SOL    HW231713   3.697   1.263  13.180 -0.5768 -2.0911 -1.1701
 6752SOL     OW31714   1.860   1.276   8.700  0.5355 -0.3190  0.3319
 6752SOL    HW131715   1.928   1.215   8.729  0.5142 -1.2289 -1.5552
 6752SOL    HW231716   1.878   1.304   8.611 -1.7076 -0.5078 -0.1967
 6753SOL     OW31717   2.751   2.080   5.277 -0.2376 -0.2232  0.0741
 6753SOL    HW131718   2.826   2.039   5.319  0.1446  1.0535  0.6475
 6753SOL    HW231719   2.699   2.001   5.262 -0.2349 -0.2036 -0.0335
 6754SOL     OW31720   3.199   0.678   6.401  1.3643  0.1248 -0.4610
 6754SOL    HW131721   3.238   0.689   6.314  3.9157 -1.4616  0.4499
 6754SOL    HW231722   3.120   0.628   6.382  1.7571 -1.4032  1.7608
 6755SOL     OW31723   1.078   3.408   9.817 -0.0166 -0.3973 -0.2929
 6755SOL    HW131724   1.091   3.326   9.863  0.4324 -0.3298 -0.3065
 6755SOL    HW231725   1.070   3.478   9.882  0.3926 -1.0742  0.4729
 6756SOL     OW31726   4.390   0.017   3.189 -0.6768 -0.1391  0.7599
 6756SOL    HW131727   4.456   4.696   3.137 -0.2362  0.6060  0.6379
 6756SOL    HW231728   4.446   0.089   3.218 -0.5814  0.5789 -1.1694
 6757SOL     OW31729   2.233   3.873   2.413  0.3674 -0.0399 -0.5361
 6757SOL    HW131730   2.322   3.852   2.383  1.3277  0.9954  1.6078
 6757SOL    HW231731   2.230   3.966   2.433 -0.0607  0.2878 -2.1150
 6758SOL     OW31732   1.368   0.924   1.555 -0.0580 -0.2513  0.7049
 6758SOL    HW131733   1.294   0.863   1.548  1.2148 -1.8070  0.8680
 6758SOL    HW231734   1.376   0.941   1.461  0.5954 -1.2062  0.5892
 6759SOL     OW31735   0.233   4.665  10.390  0.3312  0.0053  0.4776
 6759SOL    HW131736   0.276   4.628  10.468  0.4276 -2.7202 -0.8687
 6759SOL    HW231737   0.206   4.584  10.347  1.2896 -0.4235  0.6862
 6760SOL     OW31738   2.096   2.921   7.673  0.6823  0.9080  0.7181
 6760SOL    HW131739   2.090   2.844   7.617 -2.6902  0.0415  2.2446
 6760SOL    HW231740   2.087   2.876   7.757  1.3665 -0.8093 -0.1371
 6761SOL     OW31741   0.592   2.514   5.353 -0.6163  0.3091 -0.3288
 6761SOL    HW131742   0.616   2.586   5.411  0.2939  0.8282 -1.3615
 6761SOL    HW231743   0.648   2.536   5.278  0.6309  1.9018  1.0755
 6762SOL     OW31744   3.258   0.903   5.065 -0.5691  0.6838  0.4033
 6762SOL    HW131745   3.270   0.852   5.145  1.2143  0.8565  0.2378
 6762SOL    HW231746   3.183   0.859   5.025  2.1776 -2.7674 -0.9123
 6763SOL     OW31747   3.099   0.266   9.144  0.3366  0.2197 -0.1027
 6763SOL    HW131748   3.171   0.206   9.128 -1.3221 -1.8307  0.1843
 6763SOL    HW231749   3.061   0.232   9.225 -0.6053  0.7069 -0.3405
 6764SOL     OW31750   4.329   1.156  17.229 -0.4678  0.0211 -0.0542
 6764SOL    HW131751   4.251   1.106  17.254  1.9600 -2.3321  2.7950
 6764SOL    HW231752   4.298   1.247  17.233 -1.7982 -0.3454 -2.1016
 6765SOL     OW31753   0.310   2.426   7.494  0.2718 -0.3319 -0.8147
 6765SOL    HW131754   0.396   2.440   7.455  1.3140 -2.1327  0.8431
 6765SOL    HW231755   0.315   2.477   7.574 -0.4006  1.0086 -1.6333
 6766SOL     OW31756   1.185   2.739   9.446  0.3858 -0.4180 -0.3172
 6766SOL    HW131757   1.156   2.817   9.494  1.3627 -0.3775  0.2153
 6766SOL    HW231758   1.190   2.680   9.522  2.0442  0.3371  0.1584
 6767SOL     OW31759   4.334   2.054   4.439 -0.4242  0.4118 -0.0844
 6767SOL    HW131760   4.341   1.959   4.435  0.2925  0.4541  0.1733
 6767SOL    HW231761   4.290   2.068   4.355 -1.2810  0.8951  0.4330
 6768SOL     OW31762   4.293   2.221  10.537 -0.0732  0.4040  0.7502
 6768SOL    HW131763   4.314   2.180  10.620 -2.1304  0.3256  1.2309
 6768SOL    HW231764   4.272   2.138  10.494  0.5910  0.5499  0.1616
 6769SOL     OW31765   1.500   1.638   1.533  0.4470  0.0302  0.1758
 6769SOL    HW131766   1.441   1.691   1.586  3.4784  3.1089  0.4893
 6769SOL    HW231767   1.587   1.679   1.538  1.9000 -2.9608 -0.6017
 6770SOL     OW31768   3.132   2.957   9.044 -0.5314  0.2850 -0.2984
 6770SOL    HW131769   3.064   2.986   8.984 -1.5919  2.3655  1.9017
 6770SOL    HW231770   3.122   3.024   9.112 -1.0670 -2.4419  2.3056
 6771SOL     OW31771   1.178   2.223   5.609 -0.0351  0.4584  0.3750
 6771SOL    HW131772   1.178   2.301   5.665 -0.5173  0.6144  0.1583
 6771SOL    HW231773   1.250   2.229   5.547 -0.5235  0.0875 -0.2259
 6772SOL     OW31774   3.981   3.718  16.631 -0.5736  1.3964  0.2945
 6772SOL    HW131775   4.048   3.758  16.576 -0.7100  2.4431  0.8899
 6772SOL    HW231776   3.941   3.671  16.558  0.2516  1.7598 -0.4015
 6773SOL     OW31777   3.428   3.035  11.620  0.3343  0.4931  0.2604
 6773SOL    HW131778   3.446   3.007  11.530 -1.2111 -1.4200  0.5429
 6773SOL    HW231779   3.488   3.109  11.618  1.0461 -0.1585 -2.4015
 6774SOL     OW31780   2.571   4.654   2.262  0.1184  0.3405 -0.5026
 6774SOL    HW131781   2.631   4.675   2.190  0.4922 -0.6793 -0.4861
 6774SOL    HW231782   2.488   4.675   2.220 -0.3240  0.2980  0.3533
 6775SOL     OW31783   4.514   0.401  14.508 -0.0909 -0.5680  0.8670
 6775SOL    HW131784   4.606   0.408  14.534  0.4382  0.5560 -1.2206
 6775SOL    HW231785   4.528   0.408  14.413  1.7750 -1.0603  1.1140
 6776SOL     OW31786   1.672   1.163   2.817 -0.9116  0.8239 -0.2768
 6776SOL    HW131787   1.651   1.111   2.739  2.1689  1.5974 -1.6126
 6776SOL    HW231788   1.693   1.088   2.872 -0.1131  0.1316 -1.5271
 6777SOL     OW31789   0.260   0.077  15.871  0.0804  0.0662  1.2660
 6777SOL    HW131790   0.296   0.006  15.819  1.8988 -0.5759  3.3795
 6777SOL    HW231791   0.342   0.111  15.907  1.1434 -2.5049  1.2746
 6778SOL     OW31792   2.143   3.470  15.427  0.0761  0.1978 -0.3141
 6778SOL    HW131793   2.196   3.448  15.350  0.3614  1.1700 -0.3994
 6778SOL    HW231794   2.213   3.499  15.485 -0.8299  1.8763 -0.0504
 6779SOL     OW31795   3.142   0.785   3.850  0.2468  0.0997 -0.1644
 6779SOL    HW131796   3.125   0.695   3.878 -0.8381  0.0505 -1.0022
 6779SOL    HW231797   3.075   0.802   3.783  0.1570 -0.6007 -0.2508
 6780SOL     OW31798   4.218   1.501   6.824 -0.0699  0.2113  0.3922
 6780SOL    HW131799   4.149   1.448   6.785  0.2142  0.2815 -0.2126
 6780SOL    HW231800   4.161   1.541   6.889 -1.2979 -0.9701  0.0195
 6781SOL     OW31801   2.296   4.143   8.404 -0.3199  0.1762  0.3128
 6781SOL    HW131802   2.207   4.123   8.432 -0.4972 -0.4206 -0.6915
 6781SOL    HW231803   2.304   4.093   8.323  1.4452 -0.6480  0.9948
 6782SOL     OW31804   3.072   4.388  17.133 -0.3774 -0.1920 -0.2277
 6782SOL    HW131805   3.032   4.470  17.164 -2.8246 -1.6236  0.4068
 6782SOL    HW231806   2.991   4.339  17.117 -0.3204  0.4255 -2.4552
 6783SOL     OW31807   3.770   0.814  10.406 -0.3176 -0.5092 -0.0861
 6783SOL    HW131808   3.859   0.814  10.371  0.8418  2.8455  2.8239
 6783SOL    HW231809   3.728   0.734  10.373  1.2980 -2.4903  2.7492
 6784SOL     OW31810   2.403   4.533   3.930  0.3526 -0.1796 -0.1377
 6784SOL    HW131811   2.446   4.509   3.848  0.4278 -1.3375  0.2416
 6784SOL    HW231812   2.324   4.482   3.946 -0.8438  1.3106 -1.1849
 6785SOL     OW31813   3.172   3.096  16.428 -0.2491  0.5806 -0.4799
 6785SOL    HW131814   3.244   3.135  16.478 -0.5045  1.0400 -0.4733
 6785SOL    HW231815   3.119   3.166  16.391 -1.4371  0.2596  0.6249
 6786SOL     OW31816   2.704   0.076  15.849  0.7386  0.0172  0.3016
 6786SOL    HW131817   2.689   0.159  15.895  0.3300  1.1142 -1.8140
 6786SOL    HW231818   2.669   0.020  15.919  0.3555 -0.0728  0.0369
 6787SOL     OW31819   1.104   2.846   6.655  0.0339  0.3186  0.0180
 6787SOL    HW131820   1.044   2.894   6.597 -0.2078  0.2082  0.1747
 6787SOL    HW231821   1.086   2.892   6.737  1.7559 -0.9065  1.0826
 6788SOL     OW31822   4.285   1.868   3.540 -0.2871 -0.5141  0.8090
 6788SOL    HW131823   4.354   1.802   3.530 -0.0818 -0.0455 -0.7878
 6788SOL    HW231824   4.339   1.936   3.581  2.2295 -1.3148 -1.1686
 6789SOL     OW31825   3.657   0.373   4.912  0.4103  0.3537  0.2212
 6789SOL    HW131826   3.687   0.297   4.963 -1.4943 -0.9683 -0.6091
 6789SOL    HW231827   3.742   0.393   4.873 -0.1389 -0.9905 -1.7191
 6790SOL     OW31828   3.846   0.851  17.567 -0.3354 -0.3997 -0.4461
 6790SOL    HW131829   3.824   0.808  17.485  2.5836 -2.1902 -0.2711
 6790SOL    HW231830   3.918   0.797  17.597 -0.5283  0.2257  1.1810
 6791SOL     OW31831   2.582   3.724   4.938 -0.1139  0.0670  0.2370
 6791SOL    HW131832   2.580   3.815   4.909 -0.1094  0.2381  0.7724
 6791SOL    HW231833   2.517   3.685   4.880  1.0421 -2.5768  0.7503
 6792SOL     OW31834   4.202   2.028   8.021 -0.0290  0.1882 -0.1588
 6792SOL    HW131835   4.139   2.099   8.005  0.2108  0.5215  0.3752
 6792SOL    HW231836   4.149   1.976   8.081  0.5848 -1.3151 -0.9188
 6793SOL     OW31837   3.350   2.657   8.154  0.1469  0.2616 -0.1319
 6793SOL    HW131838   3.382   2.591   8.092  1.6848  1.3532 -0.5030
 6793SOL    HW231839   3.374   2.604   8.231  3.0609  1.0931 -0.4560
 6794SOL     OW31840   2.315   3.585   9.862  0.8211  0.3164 -0.1738
 6794SOL    HW131841   2.381   3.592   9.794 -1.9628 -0.2376 -2.9169
 6794SOL    HW231842   2.245   3.546   9.810  0.0815  1.5103 -0.0849
 6795SOL     OW31843   1.356   2.252   3.492  1.0569 -0.2686  0.5753
 6795SOL    HW131844   1.301   2.296   3.557  0.7619  1.6919 -0.9926
 6795SOL    HW231845   1.444   2.264   3.529  1.6135 -2.7720  0.0790
 6796SOL     OW31846   4.444   0.088   6.329 -0.1450 -0.2278 -0.0486
 6796SOL    HW131847   4.391   0.095   6.250  0.6604  0.9043 -0.4843
 6796SOL    HW231848   4.478   4.724   6.319 -3.1274 -1.5541  1.8073
 6797SOL     OW31849   3.391   3.547   5.942  0.0704 -0.2790  0.5437
 6797SOL    HW131850   3.365   3.530   5.851  1.7520 -3.9780  0.7685
 6797SOL    HW231851   3.362   3.462   5.975 -1.3626  0.0532  0.1297
 6798SOL     OW31852   4.654   2.503   2.059 -0.4915 -0.0054 -0.7229
 6798SOL    HW131853   0.018   2.470   2.048 -0.5983 -0.2018 -1.0001
 6798SOL    HW231854   4.632   2.456   2.140  0.7431  1.4892  0.4680
 6799SOL     OW31855   0.858   4.439   5.652  0.0718 -0.0604  0.2479
 6799SOL    HW131856   0.780   4.488   5.679 -1.2363 -1.7680 -0.3934
 6799SOL    HW231857   0.926   4.498   5.684 -1.0346  2.2013 -1.5524
 6800SOL     OW31858   2.827   3.872  15.220 -0.5095  0.5332  0.5404
 6800SOL    HW131859   2.880   3.914  15.288 -0.5165  2.1728 -0.4489
 6800SOL    HW231860   2.894   3.838  15.162  0.2190 -2.6163  3.2461
 6801SOL     OW31861   2.260   1.286   8.935  0.3848  0.3096  0.2355
 6801SOL    HW131862   2.341   1.257   8.893 -0.3745  0.3186 -1.2315
 6801SOL    HW231863   2.251   1.367   8.885 -0.5332  0.2533  0.3177
 6802SOL     OW31864   0.525   2.396   7.991 -0.9352  0.0481 -0.5223
 6802SOL    HW131865   0.620   2.411   7.993 -1.1364  1.4010 -1.4190
 6802SOL    HW231866   0.499   2.470   8.045  0.9473  0.8574 -0.7065
 6803SOL     OW31867   0.797   2.350  15.572  0.4072  0.8126  0.2557
 6803SOL    HW131868   0.707   2.319  15.584  0.6238  0.6014  1.3938
 6803SOL    HW231869   0.803   2.376  15.481  0.8709 -1.2118 -0.3082
 6804SOL     OW31870   3.474   3.934   8.476  0.1341 -0.4436 -0.5689
 6804SOL    HW131871   3.521   3.889   8.546  0.0503 -0.9318 -0.8268
 6804SOL    HW231872   3.428   3.995   8.533 -0.4545 -2.1420  0.7830
 6805SOL     OW31873   2.131   0.662   5.561 -0.5814  0.2635  0.0461
 6805SOL    HW131874   2.060   0.726   5.565 -0.3057  0.5454  0.3896
 6805SOL    HW231875   2.133   0.618   5.646  2.5664  0.0258 -0.1456
 6806SOL     OW31876   3.595   0.987   4.529 -0.4294 -0.1957  0.0448
 6806SOL    HW131877   3.509   0.944   4.520 -0.4988 -0.5002  2.0984
 6806SOL    HW231878   3.597   1.052   4.459 -3.6105 -0.2824 -0.1300
 6807SOL     OW31879   0.141   3.571  10.763 -0.2198 -0.2167 -0.3074
 6807SOL    HW131880   0.081   3.587  10.836 -0.6617  0.6614 -0.8629
 6807SOL    HW231881   0.220   3.593  10.811 -0.1389 -0.8839 -0.1271
 6808SOL     OW31882   4.385   4.194   2.935 -0.4211 -0.2646  0.3993
 6808SOL    HW131883   4.435   4.271   2.908 -0.7167 -0.2692 -0.1622
 6808SOL    HW231884   4.452   4.138   2.975  1.2866  2.4930  1.3967
 6809SOL     OW31885   0.354   0.935  15.127 -0.7199  0.0427  0.3520
 6809SOL    HW131886   0.351   0.863  15.064 -1.6418 -0.8443  1.4028
 6809SOL    HW231887   0.422   0.991  15.090  0.5812 -2.2325 -0.7496
 6810SOL     OW31888   2.629   0.874   5.640  0.5143 -0.1961 -0.3940
 6810SOL    HW131889   2.612   0.788   5.678 -0.0970  0.3881  0.6406
 6810SOL    HW231890   2.657   0.929   5.713 -2.7346  0.3186  0.4474
 6811SOL     OW31891   2.160   1.120   2.018  0.2027  0.1561  0.2460
 6811SOL    HW131892   2.198   1.128   1.931  1.5211  2.7917  1.0662
 6811SOL    HW231893   2.213   1.049   2.055  2.4089  1.6713 -0.0199
 6812SOL     OW31894   3.824   2.271   3.016 -0.3646  0.0422 -0.1022
 6812SOL    HW131895   3.817   2.232   3.103  0.0712 -0.7827 -0.4393
 6812SOL    HW231896   3.778   2.354   3.026  0.0674 -0.0037  2.2943
 6813SOL     OW31897   4.421   4.000   4.747 -0.2356 -0.6890  0.2741
 6813SOL    HW131898   4.384   3.926   4.700  1.0126  0.2104 -2.1425
 6813SOL    HW231899   4.492   3.957   4.795 -1.1611 -1.8263  0.6065
 6814SOL     OW31900   3.343   1.155   5.135  0.4664  0.2016  0.5589
 6814SOL    HW131901   3.317   1.064   5.123  1.1053  0.5475 -3.4849
 6814SOL    HW231902   3.255   1.190   5.147  0.9471  1.3775  0.6981
 6815SOL     OW31903   4.466   0.580   4.215  0.1152 -0.1215  0.4420
 6815SOL    HW131904   4.422   0.579   4.300  0.8978 -0.5900  0.8412
 6815SOL    HW231905   4.526   0.506   4.217  4.9004  3.6213 -2.1192
 6816SOL     OW31906   0.791   2.668  14.756 -0.0314  0.5184 -0.2120
 6816SOL    HW131907   0.859   2.604  14.735  0.1135  0.7782 -0.5374
 6816SOL    HW231908   0.842   2.727  14.810  0.8155 -0.7638  0.3922
 6817SOL     OW31909   0.462   2.300   2.880 -0.0361 -0.1059 -0.4476
 6817SOL    HW131910   0.456   2.234   2.949  0.6867 -1.7303 -1.9223
 6817SOL    HW231911   0.374   2.293   2.842 -0.1816  0.2048 -0.1648
 6818SOL     OW31912   3.870   3.772  11.894 -0.5574 -0.2512 -0.3326
 6818SOL    HW131913   3.939   3.767  11.959 -0.8838  0.0690  0.0399
 6818SOL    HW231914   3.879   3.865  11.873  0.0214 -0.1067  0.5926
 6819SOL     OW31915   2.785   4.633   5.706 -0.5289 -0.6272  0.2244
 6819SOL    HW131916   2.809   4.563   5.767  1.0907 -0.0479  0.2459
 6819SOL    HW231917   2.744   4.695   5.767 -0.1247 -0.3608  0.2214
 6820SOL     OW31918   2.133   2.208   7.475  0.4364  0.1618  0.3903
 6820SOL    HW131919   2.194   2.258   7.420 -0.2520 -0.7486 -1.1921
 6820SOL    HW231920   2.193   2.178   7.544 -0.0462  1.1440  1.2334
 6821SOL     OW31921   1.686   4.624  11.830  0.2279 -0.1556 -0.2059
 6821SOL    HW131922   1.747   4.569  11.879  0.4545  0.6787  0.4454
 6821SOL    HW231923   1.616   4.644  11.891 -0.2447 -0.5006 -0.6346
 6822SOL     OW31924   4.717   1.753   6.246 -0.3378  0.5189 -0.1028
 6822SOL    HW131925   0.079   1.726   6.273  1.2284  1.5442 -4.1492
 6822SOL    HW231926   0.021   1.811   6.176 -2.3523  0.9834 -0.5739
 6823SOL     OW31927   3.981   1.462  13.144 -0.0215  0.0343  0.4153
 6823SOL    HW131928   3.898   1.447  13.100 -1.8910 -1.1454  4.4023
 6823SOL    HW231929   3.961   1.429  13.232 -1.0753  0.2735  0.2585
 6824SOL     OW31930   4.264   0.242   8.159 -0.6109  0.4512  0.0512
 6824SOL    HW131931   4.232   0.247   8.069 -0.7189 -1.9616 -0.0431
 6824SOL    HW231932   4.187   0.203   8.199 -0.5036  0.9541  0.7567
 6825SOL     OW31933   0.651   0.901   7.651  0.0093  0.0654 -0.3777
 6825SOL    HW131934   0.605   0.863   7.576  1.8534 -1.1388 -0.9093
 6825SOL    HW231935   0.737   0.910   7.609  0.4625 -0.3773  0.4450
 6826SOL     OW31936   2.625   4.080  16.357  0.1330 -0.0302 -0.6712
 6826SOL    HW131937   2.693   4.040  16.410 -0.4502 -0.9534 -0.6151
 6826SOL    HW231938   2.613   4.013  16.289  0.3819 -0.1261 -0.6177
 6827SOL     OW31939   1.189   2.238  12.835 -0.5936  0.1378  0.2973
 6827SOL    HW131940   1.197   2.253  12.741  0.1673  0.2392  0.3812
 6827SOL    HW231941   1.101   2.200  12.844 -0.1336 -1.4422 -1.7306
 6828SOL     OW31942   0.845   0.533   3.684  0.1027 -0.0575  0.1443
 6828SOL    HW131943   0.830   0.478   3.762  0.6066  0.1028  0.3504
 6828SOL    HW231944   0.898   0.470   3.635  1.7684  1.0721  0.4978
 6829SOL     OW31945   3.059   0.184  11.078 -0.4191  0.0777  0.2634
 6829SOL    HW131946   3.067   0.254  11.143  3.1931 -1.3547  1.3286
 6829SOL    HW231947   3.142   0.139  11.093 -0.5893 -0.1841  0.4208
 6830SOL     OW31948   0.307   4.630   6.865  0.2427 -0.1324  0.0760
 6830SOL    HW131949   0.224   4.658   6.825  1.1415  0.3363 -1.4948
 6830SOL    HW231950   0.376   4.660   6.806  1.7378 -2.1659  0.7995
 6831SOL     OW31951   3.853   2.457   2.677 -0.5383 -0.3583 -0.2422
 6831SOL    HW131952   3.867   2.403   2.599  0.1303  0.8239 -0.9473
 6831SOL    HW231953   3.799   2.526   2.637  1.0112  1.5196  0.9392
 6832SOL     OW31954   4.095   3.850   4.910 -0.0113  0.1636  0.3685
 6832SOL    HW131955   4.067   3.925   4.858  0.6680 -1.3241 -2.1402
 6832SOL    HW231956   4.017   3.794   4.916  1.1263 -1.4439  0.0419
 6833SOL     OW31957   0.376   0.700   8.000  0.8849 -0.3134  0.1738
 6833SOL    HW131958   0.326   0.668   8.075  1.2485  0.3373  0.6974
 6833SOL    HW231959   0.399   0.788   8.029  1.8395 -0.7832  0.8534
 6834SOL     OW31960   0.068   0.827  11.789 -0.6106  0.0878 -0.2475
 6834SOL    HW131961   0.044   0.914  11.756 -0.7847  0.5110  0.9749
 6834SOL    HW231962   0.110   0.785  11.714  1.3868  0.1892  0.8021
 6835SOL     OW31963   0.838   4.004   7.496 -0.1966  0.4012 -0.5001
 6835SOL    HW131964   0.747   3.989   7.521 -0.3654  0.8951 -0.8215
 6835SOL    HW231965   0.828   4.096   7.472 -0.7207  0.9148  1.6774
 6836SOL     OW31966   3.256   4.200   2.707  0.8773  1.0327  0.8607
 6836SOL    HW131967   3.346   4.170   2.699  0.7373  0.5963  0.9120
 6836SOL    HW231968   3.250   4.279   2.653  1.3244 -0.6594 -1.6680
 6837SOL     OW31969   3.436   0.975   6.554 -0.4446 -0.0931  0.0108
 6837SOL    HW131970   3.475   1.059   6.579 -1.6950  0.4133  0.2191
 6837SOL    HW231971   3.498   0.921   6.603 -0.8152 -0.4761  0.0580
 6838SOL     OW31972   3.249   4.718   3.824 -0.4862  0.1331  0.6429
 6838SOL    HW131973   3.290   4.632   3.836  0.4390  0.2462 -1.5093
 6838SOL    HW231974   3.279   0.020   3.737 -0.0922  0.2604  0.8228
 6839SOL     OW31975   3.170   0.856  13.513  0.3098  0.5536 -0.4029
 6839SOL    HW131976   3.252   0.811  13.494  0.8812  1.7957 -0.8825
 6839SOL    HW231977   3.105   0.808  13.462  0.2151 -0.0936  0.3355
 6840SOL     OW31978   3.549   3.733  11.211 -0.3044 -0.1269  0.6229
 6840SOL    HW131979   3.583   3.645  11.229  1.3943  0.4987  0.4594
 6840SOL    HW231980   3.629   3.786  11.215  0.2079 -0.6503 -2.4758
 6841SOL     OW31981   2.084   4.403  16.705  0.6670  0.0869 -0.3694
 6841SOL    HW131982   2.098   4.446  16.622 -0.3348  2.3563  0.6322
 6841SOL    HW231983   1.996   4.433  16.730  0.7450 -1.2620  1.5900
 6842SOL     OW31984   0.788   2.275   4.010 -0.5272 -0.0616  0.0197
 6842SOL    HW131985   0.782   2.349   4.070  0.3809  1.3230 -1.6258
 6842SOL    HW231986   0.722   2.282   3.941  0.5180 -1.2877 -1.0913
 6843SOL     OW31987   3.565   1.928   0.080  0.0160  0.0750  0.0108
 6843SOL    HW131988   3.549   1.855   0.140  0.8394  0.1660  0.3456
 6843SOL    HW231989   3.661   1.925   0.078  0.0037  0.3408 -0.7493
 6844SOL     OW31990   2.168   0.829   1.417 -0.1058 -0.5699  0.0667
 6844SOL    HW131991   2.115   0.769   1.470  0.4202 -0.6247  0.5362
 6844SOL    HW231992   2.103   0.847   1.350  0.7310 -1.3060 -0.9520
 6845SOL     OW31993   3.416   1.351  15.319  0.5011 -0.2338  0.6271
 6845SOL    HW131994   3.442   1.413  15.251 -0.2396 -0.0075  0.5465
 6845SOL    HW231995   3.391   1.278  15.262  0.6249 -0.4816  0.8893
 6846SOL     OW31996   3.236   4.484   3.563 -0.1502 -0.3863 -0.6465
 6846SOL    HW131997   3.151   4.439   3.568 -1.4099  2.0928  0.1388
 6846SOL    HW231998   3.213   4.551   3.499 -0.4614 -0.1837 -0.3231
 6847SOL     OW31999   0.363   3.958   7.776  0.3003 -0.5531  0.1517
 6847SOL    HW132000   0.273   3.984   7.791  0.5886  0.2831  0.4642
 6847SOL    HW232001   0.369   3.871   7.816 -0.5379 -0.8533 -0.3940
 6848SOL     OW32002   1.845   4.137   2.474 -0.1509  0.3228  0.2322
 6848SOL    HW132003   1.791   4.069   2.434 -0.9441  0.5853  0.8566
 6848SOL    HW232004   1.912   4.143   2.405 -0.3596  1.1605  0.0962
 6849SOL     OW32005   1.385   0.278  13.397  0.0085 -0.3501  0.5478
 6849SOL    HW132006   1.475   0.267  13.365  0.3976  0.2776  1.4236
 6849SOL    HW232007   1.383   0.208  13.461  0.8834 -1.0014 -0.1370
 6850SOL     OW32008   4.589   1.126  16.718  0.0182 -0.4812 -0.4095
 6850SOL    HW132009   4.612   1.215  16.691 -1.9692  0.6581  1.6802
 6850SOL    HW232010   4.496   1.111  16.700  0.4382 -0.2294 -2.8003
 6851SOL     OW32011   2.926   3.440   8.921  0.2104  0.4204 -0.3722
 6851SOL    HW132012   2.891   3.356   8.951  1.4094 -0.9994 -2.9453
 6851SOL    HW232013   2.961   3.467   9.006  2.6410 -0.2407 -1.1606
 6852SOL     OW32014   3.509   2.350   7.862 -0.2159  0.6924  0.4139
 6852SOL    HW132015   3.549   2.436   7.851 -0.6996  0.9274  0.4940
 6852SOL    HW232016   3.469   2.320   7.781  0.7752  3.8730 -1.2471
 6853SOL     OW32017   1.274   2.435   2.344 -0.1363 -0.2512  0.5228
 6853SOL    HW132018   1.221   2.358   2.362  1.5683 -1.3996  0.6810
 6853SOL    HW232019   1.322   2.409   2.266  0.1825 -2.2455  1.3809
 6854SOL     OW32020   0.515   0.912   9.628 -0.0292  0.4355  0.5083
 6854SOL    HW132021   0.594   0.906   9.681  2.2490 -1.0312 -3.0184
 6854SOL    HW232022   0.509   1.005   9.606  2.3671  1.0192  2.2903
 6855SOL     OW32023   3.340   2.613  16.476 -0.3857  0.1320 -0.6327
 6855SOL    HW132024   3.385   2.563  16.409  0.0595  0.3134 -0.4699
 6855SOL    HW232025   3.319   2.690  16.423 -1.5738  0.4399  0.2748
 6856SOL     OW32026   2.553   1.095  17.679  0.4140 -0.6578  0.6971
 6856SOL    HW132027   2.646   1.072  17.673  0.5088  0.1317 -0.7798
 6856SOL    HW232028   2.517   1.037   0.042 -0.9131 -0.0300  0.5238
 6857SOL     OW32029   3.188   3.912  14.758  0.4502  0.5355  0.2513
 6857SOL    HW132030   3.206   3.937  14.849  0.5534  2.0149 -0.1625
 6857SOL    HW232031   3.093   3.917  14.755  0.3579 -0.5730  1.4368
 6858SOL     OW32032   2.525   0.818   2.220  0.1494  0.5984  0.1349
 6858SOL    HW132033   2.490   0.768   2.146 -0.3436  0.2252  0.6325
 6858SOL    HW232034   2.456   0.878   2.247 -0.2136  0.7140 -1.0497
 6859SOL     OW32035   2.937   1.269   0.940  0.0529 -0.0909  0.1312
 6859SOL    HW132036   2.919   1.180   0.911  2.4405 -0.8222  0.9242
 6859SOL    HW232037   3.029   1.261   0.965  0.1583  2.6041  0.6142
 6860SOL     OW32038   2.633   3.970  10.312  0.0052 -0.5293  0.1384
 6860SOL    HW132039   2.600   3.884  10.289 -1.5381 -0.0508  0.5568
 6860SOL    HW232040   2.668   4.011  10.232  1.9618 -0.4072  1.0464
 6861SOL     OW32041   0.072   1.211   8.454 -0.3638  0.0281  0.6325
 6861SOL    HW132042   0.090   1.117   8.450 -0.4212  0.1635 -3.2540
 6861SOL    HW232043   0.084   1.224   8.548  1.9348  0.1758  0.3102
 6862SOL     OW32044   3.467   0.437  10.461 -0.2685 -0.6626  0.6384
 6862SOL    HW132045   3.385   0.479  10.488 -1.1196  0.0673 -3.0857
 6862SOL    HW232046   3.522   0.442  10.539  0.7709 -0.0315 -0.1410
 6863SOL     OW32047   2.835   2.903   4.011  0.4012 -0.0965 -0.7262
 6863SOL    HW132048   2.886   2.885   4.089  0.4914 -1.2561 -1.0514
 6863SOL    HW232049   2.837   2.816   3.969  0.5167  0.2323 -1.4050
 6864SOL     OW32050   1.371   4.525   6.536 -0.3361 -0.0405 -0.6608
 6864SOL    HW132051   1.366   4.589   6.465 -1.9969 -0.2932 -0.7680
 6864SOL    HW232052   1.298   4.560   6.586 -1.6390 -2.7411 -0.6585
 6865SOL     OW32053   1.125   1.558   0.501 -0.1191 -0.0221  0.3736
 6865SOL    HW132054   1.123   1.499   0.576 -1.4447 -1.6745 -0.9741
 6865SOL    HW232055   1.141   1.498   0.429  4.0039 -0.4463  1.6323
 6866SOL     OW32056   2.456   3.405   7.402  0.2338 -0.5504  0.4001
 6866SOL    HW132057   2.367   3.372   7.392 -0.0279  0.4700 -0.6053
 6866SOL    HW232058   2.511   3.341   7.357  0.4975  0.4691 -0.7104
 6867SOL     OW32059   1.576   4.294   4.739 -0.1359  0.7656  0.5859
 6867SOL    HW132060   1.646   4.297   4.804  0.0805  2.1999  0.2695
 6867SOL    HW232061   1.586   4.206   4.702 -1.4828 -0.8878  4.1388
 6868SOL     OW32062   3.698   2.565   7.853  0.2958 -0.5767  0.5281
 6868SOL    HW132063   3.770   2.606   7.902  0.8909 -1.2973  0.2479
 6868SOL    HW232064   3.714   2.593   7.763  0.1883 -0.7712  0.4511
 6869SOL     OW32065   2.329   0.440  14.884  0.4102 -0.3762  0.3558
 6869SOL    HW132066   2.378   0.412  14.961 -1.5925 -0.5704  1.5551
 6869SOL    HW232067   2.280   0.359  14.870 -1.6672  0.8771  0.5001
 6870SOL     OW32068   2.626   1.539  15.218  0.2210 -0.3909  0.8844
 6870SOL    HW132069   2.686   1.586  15.275 -1.6548  0.7687  1.9340
 6870SOL    HW232070   2.549   1.542  15.275  0.0318 -1.0063  0.6628
 6871SOL     OW32071   0.665   0.076   8.431 -0.5166  0.1176  0.3930
 6871SOL    HW132072   0.645   0.066   8.338  0.1407 -0.9192  0.3541
 6871SOL    HW232073   0.701   0.163   8.416  0.4850 -0.4870 -0.7870
 6872SOL     OW32074   1.090   0.774   8.210 -0.3548 -0.2519 -0.2506
 6872SOL    HW132075   1.040   0.785   8.291  1.0659  0.3749  0.5544
 6872SOL    HW232076   1.173   0.822   8.222  0.2562 -1.3931  0.1028
 6873SOL     OW32077   1.454   3.259   2.355  0.1128  0.4877 -0.4976
 6873SOL    HW132078   1.514   3.252   2.429 -0.6226  0.8377  0.1360
 6873SOL    HW232079   1.459   3.172   2.316  0.3474  0.2576  0.0551
 6874SOL     OW32080   3.216   2.771   2.747 -0.2974  0.1430 -0.5749
 6874SOL    HW132081   3.150   2.742   2.685  0.6974  0.3172 -1.7058
 6874SOL    HW232082   3.282   2.702   2.747 -0.2586  0.1878 -1.9661
 6875SOL     OW32083   2.977   2.417   1.881 -0.5068 -0.1185  0.1489
 6875SOL    HW132084   2.898   2.369   1.856 -1.7984  2.5170 -0.7677
 6875SOL    HW232085   3.028   2.340   1.908 -0.0960  0.5188  1.1935
 6876SOL     OW32086   1.384   1.242   9.690  0.6498 -0.0710 -0.0539
 6876SOL    HW132087   1.404   1.329   9.724  0.9572  1.1824 -3.3831
 6876SOL    HW232088   1.358   1.271   9.602  0.7355  0.7496  0.1924
 6877SOL     OW32089   0.284   4.475   0.055 -0.0363  0.7610  0.1271
 6877SOL    HW132090   0.367   4.520   0.070 -0.7825  2.3417 -0.5142
 6877SOL    HW232091   0.322   4.398   0.013 -0.3625 -0.1802  1.5554
 6878SOL     OW32092   3.341   0.438   1.639  0.6223 -0.7018  0.1802
 6878SOL    HW132093   3.280   0.475   1.575  1.3672 -2.2686 -1.4396
 6878SOL    HW232094   3.321   0.502   1.707 -0.0955 -1.5235  0.7519
 6879SOL     OW32095   0.066   3.226  13.705  0.3485 -0.0902 -0.4098
 6879SOL    HW132096   0.146   3.260  13.745  0.5302 -1.1369  0.0945
 6879SOL    HW232097   0.044   3.302  13.650  0.6684  0.8148  0.7190
 6880SOL     OW32098   1.568   2.754  12.494 -0.4219  0.0694 -0.0382
 6880SOL    HW132099   1.582   2.679  12.437 -1.3405 -1.2337  1.4463
 6880SOL    HW232100   1.595   2.830  12.443  0.8356 -0.3661  0.0014
 6881SOL     OW32101   0.737   2.878   6.260  0.0634  0.2088  0.0744
 6881SOL    HW132102   0.761   2.790   6.230  1.0884  0.4912  0.0464
 6881SOL    HW232103   0.768   2.932   6.187  1.3268 -0.0329  0.4297
 6882SOL     OW32104   0.696   2.934  12.999 -0.4388  0.2927 -0.0302
 6882SOL    HW132105   0.694   3.018  13.046  2.9129  1.7846 -2.5923
 6882SOL    HW232106   0.614   2.932  12.949  0.9153 -0.0894 -2.2099
 6883SOL     OW32107   0.189   2.359  13.405  0.2446  0.6265 -0.1702
 6883SOL    HW132108   0.137   2.437  13.387  0.7797  0.6259 -1.7668
 6883SOL    HW232109   0.118   2.294  13.400 -0.5528  1.5950 -1.2707
 6884SOL     OW32110   2.193   4.493   6.853  0.3828  0.0354  0.1696
 6884SOL    HW132111   2.237   4.574   6.830 -0.6205  1.4125  3.1579
 6884SOL    HW232112   2.268   4.438   6.830 -0.0680 -0.6848  0.3885
 6885SOL     OW32113   0.010   1.176   6.114 -0.2535 -0.2073  0.5092
 6885SOL    HW132114   4.719   1.268   6.131 -0.3356  0.0521 -1.0013
 6885SOL    HW232115   0.018   1.141   6.203  1.6697  3.5256  1.8109
 6886SOL     OW32116   3.828   0.640   6.514 -0.1595  0.4260  0.1906
 6886SOL    HW132117   3.897   0.654   6.579 -0.2916  2.3002 -0.0856
 6886SOL    HW232118   3.877   0.612   6.437  2.5876  0.9011  1.7580
 6887SOL     OW32119   2.407   0.365  16.336  0.0881 -0.2613 -0.1616
 6887SOL    HW132120   2.325   0.335  16.376 -0.6274  1.5970 -0.2523
 6887SOL    HW232121   2.420   0.438  16.396 -0.3472  0.8634 -1.4522
 6888SOL     OW32122   4.490   0.806   0.736 -0.0392 -0.1871 -0.2072
 6888SOL    HW132123   4.479   0.882   0.678 -3.3773 -0.5747 -0.0585
 6888SOL    HW232124   4.433   0.833   0.808  0.1346  0.6021 -0.3574
 6889SOL     OW32125   0.609   0.825   4.551  0.0689  0.1770 -0.4226
 6889SOL    HW132126   0.616   0.734   4.524  1.1353  0.4959 -1.2291
 6889SOL    HW232127   0.517   0.841   4.528 -0.3613 -0.8457  0.5937
 6890SOL     OW32128   2.289   4.104   3.138  0.4846  0.7019 -0.1848
 6890SOL    HW132129   2.234   4.182   3.132  1.0753  1.1088 -0.2912
 6890SOL    HW232130   2.374   4.118   3.094 -0.4795 -0.5209 -2.4540
 6891SOL     OW32131   0.477   2.124   2.392 -0.0018  0.1666 -0.0225
 6891SOL    HW132132   0.393   2.153   2.427  0.1619 -1.3976  1.6199
 6891SOL    HW232133   0.518   2.210   2.377 -2.3784  1.1439 -0.9873
 6892SOL     OW32134   2.624   1.555   6.421 -0.0080 -0.1491 -0.0757
 6892SOL    HW132135   2.607   1.461   6.415  1.1282 -0.2232 -2.1376
 6892SOL    HW232136   2.682   1.568   6.496  0.5902 -0.3849 -0.5009
 6893SOL     OW32137   3.980   0.460   5.165  0.1092 -0.1322  0.4592
 6893SOL    HW132138   3.921   0.518   5.213 -0.5315 -0.9243  0.6456
 6893SOL    HW232139   3.921   0.438   5.092  1.3720  0.2943 -0.6791
 6894SOL     OW32140   0.339   3.554   6.136  0.5068 -0.4373 -0.2571
 6894SOL    HW132141   0.282   3.536   6.061 -0.7165  2.8320 -0.1217
 6894SOL    HW232142   0.334   3.471   6.185  3.0197 -0.4284 -0.0011
 6895SOL     OW32143   4.371   3.040  14.936  0.2158 -0.5661  0.2905
 6895SOL    HW132144   4.440   3.032  15.002 -1.0609 -0.3041  1.6256
 6895SOL    HW232145   4.416   2.996  14.863  1.5609 -0.2120  0.9040
 6896SOL     OW32146   2.979   1.226   2.438  0.4754  0.1538  0.1000
 6896SOL    HW132147   3.029   1.269   2.507 -0.1270  0.6724  0.2161
 6896SOL    HW232148   3.036   1.252   2.365  0.8387 -2.2238 -0.4645
 6897SOL     OW32149   0.469   2.277   8.424  0.5887 -0.1937 -0.1106
 6897SOL    HW132150   0.435   2.220   8.494  0.3355 -0.0099 -0.0850
 6897SOL    HW232151   0.554   2.278   8.469 -0.1150 -2.7039  1.2977
 6898SOL     OW32152   2.756   2.931   1.544  0.1843  0.8496  0.1788
 6898SOL    HW132153   2.791   2.849   1.508 -0.6511  1.4688 -2.0449
 6898SOL    HW232154   2.796   2.924   1.631  0.1146  0.4531  0.1796
 6899SOL     OW32155   0.878   0.646   0.336  0.1327 -0.3209  0.1817
 6899SOL    HW132156   0.880   0.552   0.319  1.0450 -0.5811  1.6932
 6899SOL    HW232157   0.788   0.649   0.368  0.4060  1.7998  0.6871
 6900SOL     OW32158   2.555   3.163   6.526 -0.3620 -0.1337 -0.2152
 6900SOL    HW132159   2.629   3.205   6.569 -0.2564  1.0918 -1.5662
 6900SOL    HW232160   2.580   3.168   6.434  2.7874 -1.2213  0.6057
 6901SOL     OW32161   0.287   1.933  11.824 -0.6867 -0.7112 -0.2371
 6901SOL    HW132162   0.340   1.948  11.902 -1.5738 -2.3504  0.6884
 6901SOL    HW232163   0.318   2.003  11.767  0.0610 -0.6998  0.1889
 6902SOL     OW32164   2.167   1.772   4.721 -0.2169 -0.4451  0.0036
 6902SOL    HW132165   2.222   1.696   4.704  0.2200 -0.0959 -0.1553
 6902SOL    HW232166   2.093   1.735   4.769 -0.2537  0.3761  0.5845
 6903SOL     OW32167   2.558   2.578   9.234 -0.3219 -0.1359 -0.5711
 6903SOL    HW132168   2.640   2.536   9.262  0.5989  2.0162 -0.0289
 6903SOL    HW232169   2.554   2.657   9.288  1.4321 -1.0448  0.8896
 6904SOL     OW32170   4.014   4.107   0.685  0.5894 -0.2354  0.2325
 6904SOL    HW132171   4.049   4.110   0.596 -2.5666 -0.9779 -1.0476
 6904SOL    HW232172   4.099   4.115   0.728  2.2769  1.1407 -3.3421
 6905SOL     OW32173   4.077   0.677   0.811  0.0891  0.5164  0.3234
 6905SOL    HW132174   4.068   0.766   0.775  0.1237  0.1840 -0.5121
 6905SOL    HW232175   4.126   0.626   0.747 -0.1395 -0.4238  0.9107
 6906SOL     OW32176   0.089   0.080   7.525 -0.5443  0.3591 -0.2751
 6906SOL    HW132177   0.177   0.050   7.550 -0.9658  1.1627  2.2203
 6906SOL    HW232178   0.105   0.168   7.491  1.4953  0.3887  0.7103
 6907SOL     OW32179   1.201   0.762   1.002 -0.4010 -0.2484 -0.1326
 6907SOL    HW132180   1.143   0.695   0.968  0.4933 -1.1175  0.0636
 6907SOL    HW232181   1.280   0.744   0.951  0.2110 -2.6595  1.6644
 6908SOL     OW32182   3.820   3.551  17.012  0.0725 -0.0851 -0.0957
 6908SOL    HW132183   3.859   3.471  16.976  0.3795  0.1722 -0.3354
 6908SOL    HW232184   3.885   3.614  16.980 -0.7600  0.2052 -1.2147
 6909SOL     OW32185   2.188   0.973   2.960 -0.4775  0.4318 -0.6760
 6909SOL    HW132186   2.234   1.056   2.977 -0.2546  0.3895 -1.0767
 6909SOL    HW232187   2.186   0.971   2.865 -2.4450  0.6165 -0.6231
 6910SOL     OW32188   3.200   3.961   6.928 -0.0871  0.1633  0.1809
 6910SOL    HW132189   3.245   4.046   6.929  1.5145 -0.6998  1.1636
 6910SOL    HW232190   3.273   3.911   6.893  1.9504  2.3959  1.2362
 6911SOL     OW32191   1.789   4.201   0.667 -0.3766  0.6015 -0.3810
 6911SOL    HW132192   1.725   4.211   0.738 -0.9725  0.7198 -0.9356
 6911SOL    HW232193   1.727   4.192   0.595 -1.4816 -0.3637  0.6836
 6912SOL     OW32194   0.541   2.890   5.389  0.3862 -0.1715  0.0923
 6912SOL    HW132195   0.508   2.954   5.452  2.3854 -0.1012  1.0606
 6912SOL    HW232196   0.469   2.827   5.381  0.0766  0.1178  0.6562
 6913SOL     OW32197   3.673   3.578  17.447  0.0181 -0.7292  0.6515
 6913SOL    HW132198   3.608   3.511  17.427 -0.5117 -0.3647  1.1685
 6913SOL    HW232199   3.671   3.620  17.360 -1.1758  0.0168  1.0457
 6914SOL     OW32200   2.604   1.277   9.151 -0.8554  0.5876  0.2648
 6914SOL    HW132201   2.549   1.239   9.083  0.9996 -1.1487 -0.2760
 6914SOL    HW232202   2.533   1.318   9.200 -1.9722 -0.8842 -0.0933
 6915SOL     OW32203   0.390   1.676   7.148 -0.4446 -0.4925 -0.0923
 6915SOL    HW132204   0.303   1.664   7.110 -0.2279 -0.4677 -0.5989
 6915SOL    HW232205   0.441   1.600   7.119  1.9932  0.9674  0.3623
 6916SOL     OW32206   2.446   1.676   4.370 -0.4798 -0.0183  0.0852
 6916SOL    HW132207   2.424   1.696   4.279  0.7118 -0.4835 -0.3085
 6916SOL    HW232208   2.542   1.671   4.375 -0.6739 -2.3581  1.2828
 6917SOL     OW32209   0.596   2.245   2.661  0.4651 -0.4640  0.0152
 6917SOL    HW132210   0.581   2.264   2.754 -2.0263 -2.1595 -0.0251
 6917SOL    HW232211   0.506   2.219   2.638 -0.7507  1.6898  2.3536
 6918SOL     OW32212   1.912   2.861   2.620 -0.0280 -0.6290  0.2997
 6918SOL    HW132213   1.915   2.797   2.691 -1.3947  0.8328  1.6809
 6918SOL    HW232214   1.930   2.809   2.542 -0.8677  5.2844 -3.8080
 6919SOL     OW32215   4.610   0.916   7.645 -0.3371 -0.4336 -0.1140
 6919SOL    HW132216   4.642   0.896   7.733 -0.5307 -0.6818 -0.0978
 6919SOL    HW232217   4.683   0.965   7.609  2.4172 -4.1390  0.3640
 6920SOL     OW32218   2.607   2.154   2.235 -0.3943 -0.3416 -0.5352
 6920SOL    HW132219   2.670   2.184   2.301 -0.7538  0.8168 -0.7173
 6920SOL    HW232220   2.539   2.221   2.235  0.0531  0.1135 -0.4730
 6921SOL     OW32221   4.609   4.520   7.182 -0.4170 -0.8562 -0.6519
 6921SOL    HW132222   4.521   4.544   7.150  0.5876 -0.2395 -2.9647
 6921SOL    HW232223   4.651   4.594   7.138  0.4878  0.1194  1.8516
 6922SOL     OW32224   4.335   1.091  16.581  1.1244 -0.2727 -0.2015
 6922SOL    HW132225   4.303   1.181  16.570  0.7768 -0.4034 -0.2419
 6922SOL    HW232226   4.262   1.045  16.540  0.4551  0.0269  0.6568
 6923SOL     OW32227   0.201   0.491   4.498 -0.4847  0.3709  0.4537
 6923SOL    HW132228   0.163   0.549   4.432  0.3911 -2.5923 -2.6653
 6923SOL    HW232229   0.193   0.558   4.566 -0.8088  0.6161  0.1755
 6924SOL     OW32230   4.042   0.544  10.877  0.4640  0.1978  0.1529
 6924SOL    HW132231   4.067   0.467  10.929  2.1248  1.6218  1.4257
 6924SOL    HW232232   4.055   0.525  10.784 -0.9672 -0.9637  0.1861
 6925SOL     OW32233   3.212   4.397   3.148  0.1839  0.2360 -0.2275
 6925SOL    HW132234   3.240   4.305   3.141 -0.9885 -0.1216 -0.1659
 6925SOL    HW232235   3.261   4.439   3.077 -0.8361 -0.4694 -1.3434
 6926SOL     OW32236   1.652   1.587  16.168 -0.0690  0.1603  0.1883
 6926SOL    HW132237   1.584   1.537  16.213  2.0527 -0.9974  2.1231
 6926SOL    HW232238   1.640   1.574  16.074  0.8365 -2.9553  0.4790
 6927SOL     OW32239   4.129   1.856   8.703 -0.1160  0.4008  0.2813
 6927SOL    HW132240   4.048   1.838   8.750 -1.3781  3.8427 -0.5373
 6927SOL    HW232241   4.094   1.879   8.617 -1.2099 -1.8525  0.1311
 6928SOL     OW32242   4.141   4.532   3.959  0.3601  0.2043 -0.4353
 6928SOL    HW132243   4.080   4.535   3.886 -0.0118 -1.2634 -0.1905
 6928SOL    HW232244   4.213   4.475   3.933 -0.4293 -1.1378  0.3147
 6929SOL     OW32245   2.253   1.223   6.878 -0.4302  0.0185  0.0283
 6929SOL    HW132246   2.296   1.137   6.882  0.1190  0.2899  0.0072
 6929SOL    HW232247   2.322   1.279   6.840 -0.4501  0.3154  0.4307
 6930SOL     OW32248   0.237   0.024   5.166 -0.0032 -0.0745 -0.2031
 6930SOL    HW132249   0.153   0.066   5.151 -0.8674 -1.7048  0.0675
 6930SOL    HW232250   0.298   0.090   5.132 -0.2629  0.4965  0.4462
 6931SOL     OW32251   0.052   4.680   6.792 -0.8582  0.2683 -0.0131
 6931SOL    HW132252   0.002   4.624   6.732  2.0920 -2.6053  0.1967
 6931SOL    HW232253   4.714   0.025   6.796 -0.5641  0.4531  1.4715
 6932SOL     OW32254   3.157   3.907   6.414  0.0236 -0.0331 -0.2460
 6932SOL    HW132255   3.250   3.903   6.437 -0.5549 -1.0553  1.9255
 6932SOL    HW232256   3.161   3.966   6.339  2.7644 -1.3411 -1.1107
 6933SOL     OW32257   1.513   3.804  12.941 -0.7524 -0.5592 -0.2237
 6933SOL    HW132258   1.584   3.859  12.907 -0.4783 -1.1089 -0.5355
 6933SOL    HW232259   1.445   3.866  12.915 -1.6216 -1.5011 -0.1604
 6934SOL     OW32260   1.583   3.419   9.029 -0.5518  0.9050  0.1202
 6934SOL    HW132261   1.543   3.411   9.116 -0.0682 -2.9145  0.0097
 6934SOL    HW232262   1.528   3.478   8.977 -4.1522 -0.9724  1.7979
 6935SOL     OW32263   4.249   3.870   6.906  0.4552 -0.1937  0.0732
 6935SOL    HW132264   4.289   3.870   6.992 -1.7709 -0.3529  1.1022
 6935SOL    HW232265   4.217   3.780   6.905  1.2662 -0.5112  3.3069
 6936SOL     OW32266   2.101   1.114   2.433 -0.5290 -0.0524  0.0606
 6936SOL    HW132267   2.052   1.033   2.419 -1.3301  0.5337 -0.5705
 6936SOL    HW232268   2.048   1.154   2.502 -1.6202 -1.4321  0.0314
 6937SOL     OW32269   0.826   3.219   4.311 -1.1054 -0.4071  0.2221
 6937SOL    HW132270   0.876   3.147   4.349  2.3925  1.6978 -0.3749
 6937SOL    HW232271   0.823   3.185   4.222  0.9598 -2.0499  0.7804
 6938SOL     OW32272   2.345   4.654   9.767 -0.1152  0.3365  0.5903
 6938SOL    HW132273   2.292   4.626   9.842  0.0989  1.0185  1.0001
 6938SOL    HW232274   2.376   4.569   9.735 -1.1490  0.1573  0.0893
 6939SOL     OW32275   1.971   1.261  12.880  0.2021  0.5536 -0.4558
 6939SOL    HW132276   1.947   1.353  12.890 -1.2527  0.2032 -0.7472
 6939SOL    HW232277   1.882   1.232  12.902  0.2193 -0.3334 -1.5706
 6940SOL     OW32278   1.452   4.280  10.101  0.3830 -0.3928  0.5583
 6940SOL    HW132279   1.422   4.285  10.010 -0.7279 -1.5834  0.8512
 6940SOL    HW232280   1.371   4.257  10.146 -1.2424  1.5594 -1.3575
 6941SOL     OW32281   3.042   0.201   8.595  0.0259 -0.1629  0.4794
 6941SOL    HW132282   3.014   0.280   8.549  0.7868 -0.3912 -0.3744
 6941SOL    HW232283   3.137   0.191   8.583  0.1024 -0.7089  1.5025
 6942SOL     OW32284   1.417   0.477  13.616 -0.0514  0.3142 -0.1945
 6942SOL    HW132285   1.371   0.561  13.617  1.4215  1.1299 -1.6340
 6942SOL    HW232286   1.396   0.430  13.535 -1.5178  1.9814 -0.7877
 6943SOL     OW32287   2.361   1.666   7.771 -0.4962 -0.1283 -0.1338
 6943SOL    HW132288   2.331   1.603   7.706 -0.6548 -0.5637  0.3633
 6943SOL    HW232289   2.411   1.724   7.713 -1.3783  0.7623  0.0143
 6944SOL     OW32290   3.151   3.080  15.971 -0.1162  0.3637  0.0773
 6944SOL    HW132291   3.118   2.994  15.947 -2.4693  0.4056  3.1535
 6944SOL    HW232292   3.178   3.069  16.062 -2.0670  0.9947  0.7322
 6945SOL     OW32293   1.153   0.756   5.948  0.7493  0.1300  0.1891
 6945SOL    HW132294   1.118   0.822   5.889  0.0638 -0.7172 -0.3590
 6945SOL    HW232295   1.213   0.710   5.889  0.8055 -0.8865  1.0358
 6946SOL     OW32296   3.077   0.114   3.321  0.8820 -0.6436 -0.1785
 6946SOL    HW132297   3.079   0.188   3.381 -1.4316  1.3154 -2.5473
 6946SOL    HW232298   3.010   0.062   3.366 -1.1191  0.6324 -1.7371
 6947SOL     OW32299   0.788   0.713   6.900 -0.1147 -0.2860  1.1157
 6947SOL    HW132300   0.862   0.663   6.934 -0.5196 -1.4141  0.3536
 6947SOL    HW232301   0.826   0.798   6.921  0.3492 -0.1996 -0.0946
 6948SOL     OW32302   0.998   1.670   4.036 -0.1613  0.3263 -0.4004
 6948SOL    HW132303   1.081   1.683   4.081  0.9473  0.0532 -2.3636
 6948SOL    HW232304   1.002   1.740   3.971 -3.3019  0.8994  0.0227
 6949SOL     OW32305   1.833   1.335   7.301 -0.3662  0.2816 -1.0379
 6949SOL    HW132306   1.757   1.343   7.244  0.3775  0.2534 -2.0426
 6949SOL    HW232307   1.834   1.242   7.320  0.6568  0.7612  1.2265
 6950SOL     OW32308   1.660   2.722   4.265 -0.5208 -0.1156 -0.6790
 6950SOL    HW132309   1.605   2.728   4.343 -1.5167  0.4123 -1.4128
 6950SOL    HW232310   1.744   2.747   4.303 -0.0742 -3.1201  0.2828
 6951SOL     OW32311   0.076   3.372   6.653  0.2512  0.1314  0.3989
 6951SOL    HW132312   0.144   3.419   6.701  1.0987 -0.1417 -0.5418
 6951SOL    HW232313   0.030   3.311   6.711 -2.6692  2.7890  0.8635
 6952SOL     OW32314   2.575   3.665  15.127 -0.1185  0.4534  0.1843
 6952SOL    HW132315   2.545   3.624  15.208 -0.8715  1.4595  0.4025
 6952SOL    HW232316   2.659   3.621  15.113 -0.1437  0.4663 -0.0153
 6953SOL     OW32317   3.466   2.601   6.860 -0.3115  0.1786  0.2117
 6953SOL    HW132318   3.558   2.620   6.845  0.4888 -0.4810  4.1759
 6953SOL    HW232319   3.464   2.618   6.954  0.6880 -0.0007  0.2704
 6954SOL     OW32320   3.063   2.761   4.767  0.0521 -0.2097  0.2787
 6954SOL    HW132321   3.007   2.802   4.701  0.3408  0.8956  0.7200
 6954SOL    HW232322   3.048   2.816   4.843 -0.7762  0.5235 -0.4070
 6955SOL     OW32323   4.285   1.372   5.146  0.0949  0.1209  0.3505
 6955SOL    HW132324   4.248   1.284   5.155 -1.3912  0.8268  1.2039
 6955SOL    HW232325   4.369   1.364   5.192 -0.4638 -0.3078  1.2978
 6956SOL     OW32326   4.149   2.327  16.980  0.6816 -0.5014  0.5697
 6956SOL    HW132327   4.135   2.328  17.075 -0.7489  1.2629  0.3471
 6956SOL    HW232328   4.061   2.318  16.943  0.6250 -0.8538  0.7900
 6957SOL     OW32329   2.479   0.486   7.931 -0.3005  0.5092 -0.3170
 6957SOL    HW132330   2.526   0.535   7.864 -2.6621  0.5422 -1.9614
 6957SOL    HW232331   2.425   0.559   7.963 -0.2081  1.0318 -1.3638
 6958SOL     OW32332   2.276   4.600  13.614 -0.0376 -0.1885 -0.3598
 6958SOL    HW132333   2.247   4.620  13.703  0.6657  0.2227 -0.2178
 6958SOL    HW232334   2.363   4.634  13.637 -0.3888 -0.0435  0.7678
 6959SOL     OW32335   0.531   0.846   6.267  0.3607  0.6247 -0.4155
 6959SOL    HW132336   0.615   0.868   6.229  0.7395 -0.6386 -0.3025
 6959SOL    HW232337   0.535   0.869   6.360 -0.8883 -0.6888 -0.0242
 6960SOL     OW32338   3.665   1.069   1.790 -0.4731  0.5416 -0.2245
 6960SOL    HW132339   3.595   1.081   1.726 -0.2505 -1.6200 -0.8782
 6960SOL    HW232340   3.676   1.153   1.835  0.3222  0.8559 -0.9962
 6961SOL     OW32341   0.401   2.634  10.461 -0.0562 -0.1336  0.8236
 6961SOL    HW132342   0.409   2.606  10.370 -2.8502  1.6454  0.0242
 6961SOL    HW232343   0.365   2.556  10.503  2.0768 -1.9596 -0.7502
 6962SOL     OW32344   1.491   2.154   3.255  0.4642  0.2653 -0.1157
 6962SOL    HW132345   1.421   2.202   3.299  0.3287  0.2561 -0.3204
 6962SOL    HW232346   1.442   2.084   3.212 -0.0167  2.3635 -2.9884
 6963SOL     OW32347   3.665   3.821   8.942 -0.3799  0.4002 -0.1515
 6963SOL    HW132348   3.596   3.836   8.877 -1.9450 -1.2097  1.1357
 6963SOL    HW232349   3.712   3.901   8.918 -0.8238  0.8963  0.6568
 6964SOL     OW32350   4.407   1.782   2.240  0.6067 -1.2170  0.1194
 6964SOL    HW132351   4.417   1.870   2.202 -2.4923 -1.2375 -0.7086
 6964SOL    HW232352   4.436   1.725   2.169  0.1112 -0.6681 -0.5299
 6965SOL     OW32353   0.030   3.771   0.141 -0.3438 -0.2912  0.6381
 6965SOL    HW132354   0.075   3.687   0.152 -3.1622 -1.7777  0.7894
 6965SOL    HW232355   0.111   3.821   0.146  0.3652 -1.5936  1.9803
 6966SOL     OW32356   0.188   0.409   8.070  0.1857 -0.0852  0.1567
 6966SOL    HW132357   0.181   0.496   8.110 -4.3244 -0.0539 -0.7402
 6966SOL    HW232358   0.129   0.356   8.124 -0.2356  1.5800  1.3357
 6967SOL     OW32359   2.244   0.277   7.539 -0.0536 -0.5213 -0.9763
 6967SOL    HW132360   2.190   0.259   7.463 -2.5522  1.7364  0.2676
 6967SOL    HW232361   2.312   0.332   7.501  0.9973 -1.4943 -0.5325
 6968SOL     OW32362   4.347   3.204   7.950  0.5504  0.6640 -0.1593
 6968SOL    HW132363   4.365   3.111   7.936  1.7162  0.9642 -0.6755
 6968SOL    HW232364   4.427   3.246   7.918  0.2994  1.0220 -0.3120
 6969SOL     OW32365   4.082   1.419   3.578 -0.2080  0.1760  0.2010
 6969SOL    HW132366   4.146   1.462   3.634 -0.2065  0.7796 -0.2667
 6969SOL    HW232367   4.005   1.472   3.599 -0.2017 -0.6052  2.1094
 6970SOL     OW32368   1.979   4.158   6.930  0.2771 -0.2497  0.0605
 6970SOL    HW132369   1.959   4.188   7.019  0.6956  2.3109 -0.7221
 6970SOL    HW232370   1.895   4.125   6.898  0.1588 -0.3852  0.5072
 6971SOL     OW32371   1.856   4.465  10.359  0.4293 -0.6118  0.4028
 6971SOL    HW132372   1.804   4.543  10.337  0.6165 -0.1268  1.7095
 6971SOL    HW232373   1.849   4.467  10.454  0.1843 -1.2155  0.3915
 6972SOL     OW32374   0.885   2.715   7.349  0.1844  0.7744  0.3539
 6972SOL    HW132375   0.941   2.711   7.427  0.0202  1.5589  0.5164
 6972SOL    HW232376   0.878   2.810   7.340  0.1548  0.6601 -0.8836
 6973SOL     OW32377   0.541   0.175   5.833  0.0627  0.1456 -0.0107
 6973SOL    HW132378   0.594   0.152   5.757  1.2779 -0.2654  0.9694
 6973SOL    HW232379   0.488   0.095   5.844 -1.4411  1.0326 -0.7945
 6974SOL     OW32380   0.373   3.691   3.929  0.4231  0.1099 -0.5347
 6974SOL    HW132381   0.298   3.653   3.884 -0.1134  0.3272  0.1670
 6974SOL    HW232382   0.446   3.638   3.898 -0.3499 -1.4137  0.2389
 6975SOL     OW32383   3.999   3.991  15.735 -0.2191 -0.0162  0.0813
 6975SOL    HW132384   4.016   3.914  15.682 -1.1399  0.4435 -0.8787
 6975SOL    HW232385   4.092   4.013  15.738 -0.2119 -0.3048  2.1823
 6976SOL     OW32386   3.238   0.678   6.120 -0.3504  0.2405 -1.4226
 6976SOL    HW132387   3.222   0.592   6.081 -0.3660 -0.8070  0.8885
 6976SOL    HW232388   3.273   0.731   6.048  0.4027  2.7646  0.7548
 6977SOL     OW32389   2.562   4.631   9.552 -0.4195  0.3842  0.1790
 6977SOL    HW132390   2.561   4.587   9.637 -1.7604 -0.6209 -0.3405
 6977SOL    HW232391   2.555   4.552   9.498 -0.3592 -1.5244  2.9374
 6978SOL     OW32392   1.942   1.400  10.589 -0.1616  0.0751  0.1188
 6978SOL    HW132393   1.904   1.470  10.535  0.7588  0.3704 -0.1522
 6978SOL    HW232394   1.884   1.329  10.562  1.9858 -1.0505 -1.5129
 6979SOL     OW32395   2.992   3.284  16.366  0.1533 -0.2663  0.2545
 6979SOL    HW132396   2.905   3.248  16.346  0.2813  0.9357 -2.4025
 6979SOL    HW232397   2.965   3.330  16.446 -1.8517  0.1574 -0.6684
 6980SOL     OW32398   3.096   1.458   5.373  0.4493 -0.0530 -0.4295
 6980SOL    HW132399   3.039   1.530   5.347  2.5370  1.6581 -0.2901
 6980SOL    HW232400   3.041   1.383   5.354  1.1398 -0.3576 -1.2390
 6981SOL     OW32401   3.459   3.313   6.766  0.4929  0.7122 -0.2437
 6981SOL    HW132402   3.388   3.362   6.807  1.2288  1.6266 -0.0605
 6981SOL    HW232403   3.457   3.234   6.820  1.0955  0.8659 -0.0006
 6982SOL     OW32404   0.336   2.418  10.619  0.3488  0.2309 -0.4013
 6982SOL    HW132405   0.355   2.452  10.706 -2.8979  1.3758 -0.1482
 6982SOL    HW232406   0.355   2.325  10.631 -0.8557 -0.0349 -0.5627
 6983SOL     OW32407   3.440   1.823   6.796  0.2000  0.4007 -0.1111
 6983SOL    HW132408   3.466   1.732   6.813  0.0421  0.2673 -0.5736
 6983SOL    HW232409   3.404   1.805   6.710  1.6811  1.3398 -0.9179
 6984SOL     OW32410   4.635   4.211   5.948  0.9115  0.0196  0.0568
 6984SOL    HW132411   4.682   4.251   5.875 -1.4266  2.9446  0.1942
 6984SOL    HW232412   4.707   4.201   6.011 -0.6568 -1.6877  1.6053
 6985SOL     OW32413   4.655   0.284  15.276 -0.0404 -0.0654  0.5358
 6985SOL    HW132414   0.018   0.254  15.296  0.1531  0.6530  0.7351
 6985SOL    HW232415   4.606   0.203  15.293  1.7156 -0.8745  1.6959
 6986SOL     OW32416   4.418   1.519   8.040 -1.0486  0.0281  0.1148
 6986SOL    HW132417   4.391   1.610   8.024 -1.3846  0.3593  2.5621
 6986SOL    HW232418   4.511   1.518   8.022 -1.0903 -0.0486 -0.0911
 6987SOL     OW32419   4.386   4.396   8.649  0.3328  0.0065  0.1614
 6987SOL    HW132420   4.438   4.333   8.599  1.7491  0.3828  1.1581
 6987SOL    HW232421   4.313   4.337   8.666  0.3136 -0.0004  0.0541
 6988SOL     OW32422   1.579   0.032   9.152  0.2085 -0.3430 -0.3935
 6988SOL    HW132423   1.622   4.685   9.108  0.0696  0.1873 -1.4002
 6988SOL    HW232424   1.490   0.020   9.117  0.5093  0.8360 -1.5479
 6989SOL     OW32425   0.068   0.696   2.687  0.1375 -0.0737  0.1125
 6989SOL    HW132426   0.127   0.626   2.712 -0.8581 -0.9969 -0.1117
 6989SOL    HW232427   0.080   0.686   2.592  0.2529  2.1254 -0.1161
 6990SOL     OW32428   2.872   1.321  10.732 -0.6626 -0.3620  0.4524
 6990SOL    HW132429   2.820   1.377  10.790  2.4343  3.6803 -0.7017
 6990SOL    HW232430   2.843   1.341  10.643  2.9151 -0.1930 -0.6637
 6991SOL     OW32431   2.323   2.832   8.353 -0.3293  0.2134 -0.7465
 6991SOL    HW132432   2.346   2.906   8.297  0.1360  1.8585  1.6595
 6991SOL    HW232433   2.317   2.760   8.290  1.4056 -2.9414  2.6759
 6992SOL     OW32434   2.626   2.223   1.431  0.0355 -0.2945  0.0956
 6992SOL    HW132435   2.676   2.206   1.510  0.5077 -0.9518 -0.3479
 6992SOL    HW232436   2.694   2.230   1.364 -0.6154  0.0574 -0.5362
 6993SOL     OW32437   4.531   4.446   4.339  0.1720 -0.6875 -1.1612
 6993SOL    HW132438   4.536   4.482   4.250  1.0597 -2.4997 -1.8400
 6993SOL    HW232439   4.487   4.363   4.322 -0.8359 -0.1530 -1.1602
 6994SOL     OW32440   3.391   2.656   1.362 -0.5117 -0.1297  0.5816
 6994SOL    HW132441   3.325   2.699   1.417 -1.6029 -2.3856  1.0612
 6994SOL    HW232442   3.358   2.566   1.359  0.0731 -0.2927 -0.9783
 6995SOL     OW32443   3.372   2.306   4.912  0.5710  0.1394  0.0298
 6995SOL    HW132444   3.365   2.325   5.005 -0.3084 -1.3121  0.2582
 6995SOL    HW232445   3.318   2.371   4.866 -0.9717 -0.7338  0.6163
 6996SOL     OW32446   1.702   0.866   3.602 -0.4205  0.4299 -0.1541
 6996SOL    HW132447   1.797   0.870   3.608 -0.4891  0.1768  1.1284
 6996SOL    HW232448   1.670   0.948   3.642  2.4369  1.7818 -0.6662
 6997SOL     OW32449   4.104   3.461   5.192 -0.1528 -0.0571 -0.2732
 6997SOL    HW132450   4.118   3.503   5.277 -1.5505 -0.7238  0.2914
 6997SOL    HW232451   4.009   3.469   5.182 -0.5755 -2.5492  1.6483
 6998SOL     OW32452   1.154   3.907   8.312 -0.2128 -0.0757  0.4113
 6998SOL    HW132453   1.121   3.962   8.241 -0.4756 -3.2962 -1.9581
 6998SOL    HW232454   1.153   3.975   8.378  2.5322 -2.0107  2.4525
 6999SOL     OW32455   1.928   1.351   6.187  0.7182  0.3299  0.5273
 6999SOL    HW132456   1.965   1.312   6.267 -3.7498  0.7936  2.8254
 6999SOL    HW232457   1.982   1.309   6.120  0.6091  1.1669 -0.0865
 7000SOL     OW32458   1.413   1.018  12.961  0.1815 -0.0551  0.4601
 7000SOL    HW132459   1.336   1.073  12.978 -0.6007 -0.0958 -2.8553
 7000SOL    HW232460   1.460   1.078  12.903 -0.6483 -0.7314 -0.9406
 7001SOL     OW32461   4.129   2.734   4.260 -0.0396 -0.0564  0.0835
 7001SOL    HW132462   4.211   2.765   4.298 -1.8995  1.4297  2.9844
 7001SOL    HW232463   4.100   2.815   4.217  1.0171  0.5463  0.5004
 7002SOL     OW32464   4.536   0.851  13.998 -0.7631  0.3211 -0.7281
 7002SOL    HW132465   4.620   0.822  13.960 -1.0522 -0.2364 -0.9415
 7002SOL    HW232466   4.563   0.942  14.008 -2.2291  0.9116 -2.1801
 7003SOL     OW32467   3.418   4.455   0.711  0.6248 -0.2777  0.1090
 7003SOL    HW132468   3.436   4.384   0.771 -1.7346 -1.8191 -1.0118
 7003SOL    HW232469   3.504   4.486   0.682  0.4517  1.7330  1.7735
 7004SOL     OW32470   0.822   1.509  16.268 -0.2076  0.7594 -0.6918
 7004SOL    HW132471   0.827   1.556  16.185 -0.7937 -1.0457 -1.7513
 7004SOL    HW232472   0.825   1.586  16.325 -0.7065  0.0742  0.2592
 7005SOL     OW32473   2.632   3.727   3.736  0.0900 -0.1640  0.0458
 7005SOL    HW132474   2.662   3.696   3.650  0.0934 -0.3665  0.1211
 7005SOL    HW232475   2.620   3.642   3.778 -0.1344 -0.3182 -0.3247
 7006SOL     OW32476   2.566   3.084  16.464  0.4838  0.3083 -0.5827
 7006SOL    HW132477   2.617   3.143  16.408 -0.4352  0.0825 -1.6542
 7006SOL    HW232478   2.489   3.142  16.469  0.6238  0.4274  0.2568
 7007SOL     OW32479   3.078   1.951   2.384  0.4271 -0.1221 -0.4258
 7007SOL    HW132480   3.034   2.011   2.444 -1.3547 -2.2347  0.3900
 7007SOL    HW232481   3.016   1.939   2.313 -0.7188  0.5098  0.4664
 7008SOL     OW32482   3.990   0.885   5.408  0.6890 -0.2021  0.4283
 7008SOL    HW132483   4.077   0.918   5.430  0.7164  0.1460 -0.2079
 7008SOL    HW232484   3.936   0.944   5.461  1.1866 -0.5172  1.2923
 7009SOL     OW32485   3.373   2.099   8.585 -0.2515  0.2377  0.1291
 7009SOL    HW132486   3.395   2.190   8.604 -0.1083  0.5248 -1.4235
 7009SOL    HW232487   3.445   2.060   8.635 -1.2308 -0.8770  0.6667
 7010SOL     OW32488   2.126   2.906   9.727  0.2872 -0.2556 -0.0411
 7010SOL    HW132489   2.159   2.902   9.817 -1.3276 -0.6403  0.5478
 7010SOL    HW232490   2.106   2.999   9.714 -1.0643 -0.7119 -1.1642
 7011SOL     OW32491   2.077   0.264   7.777 -0.6374 -0.3876  0.3621
 7011SOL    HW132492   2.095   0.318   7.701  0.3889 -1.8452 -0.4399
 7011SOL    HW232493   1.994   0.223   7.755  0.1923 -0.6259 -2.3566
 7012SOL     OW32494   1.717   3.786  15.452 -0.6503 -0.2269 -0.4096
 7012SOL    HW132495   1.810   3.803  15.461 -1.2755  1.9346  2.0809
 7012SOL    HW232496   1.697   3.879  15.464 -2.5010 -0.5354 -1.0322
 7013SOL     OW32497   2.991   4.036   7.881  0.5975  0.3627 -0.5814
 7013SOL    HW132498   3.010   4.130   7.871  0.8853  0.2588 -1.0090
 7013SOL    HW232499   3.055   3.977   7.841 -0.4725 -0.6538 -0.7917
 7014SOL     OW32500   1.574   0.311   6.792  0.1334  0.2626 -0.4103
 7014SOL    HW132501   1.599   0.230   6.836  1.0563  0.8492  0.1287
 7014SOL    HW232502   1.647   0.369   6.814  1.3381 -0.7580 -1.7423
 7015SOL     OW32503   4.694   0.562   5.126  0.7363  0.3984  0.6250
 7015SOL    HW132504   4.696   0.597   5.215 -0.1453  1.4337  0.2364
 7015SOL    HW232505   0.027   0.622   5.082  3.6145 -1.3493  2.0865
 7016SOL     OW32506   3.630   0.135   2.553  0.2748  0.5123  0.5409
 7016SOL    HW132507   3.587   0.055   2.523  0.9108  0.4762 -0.2676
 7016SOL    HW232508   3.609   0.139   2.646  0.0450 -0.1418  0.5139
 7017SOL     OW32509   0.948   0.852  16.121 -0.0644  0.3197  0.0893
 7017SOL    HW132510   1.036   0.889  16.117 -0.5437  1.3159 -1.2083
 7017SOL    HW232511   0.899   0.913  16.066  3.1338  1.6014 -1.3091
 7018SOL     OW32512   2.510   0.055   5.654 -0.4032  0.0593 -0.4153
 7018SOL    HW132513   2.569   0.123   5.684  0.5493 -0.8409 -0.2555
 7018SOL    HW232514   2.545   0.028   5.569 -2.2675  0.4985 -1.3187
 7019SOL     OW32515   2.911   4.681   8.694 -0.5495  0.3131 -0.0575
 7019SOL    HW132516   2.940   0.014   8.624 -0.5019  0.4781  0.1016
 7019SOL    HW232517   2.949   4.725   8.770 -0.1571  2.2521 -1.3722
 7020SOL     OW32518   4.331   1.753   2.511  0.2468  0.0392 -1.0891
 7020SOL    HW132519   4.367   1.666   2.525  0.3494  0.1699 -0.5341
 7020SOL    HW232520   4.348   1.765   2.418  1.9961  3.8411 -0.2962
 7021SOL     OW32521   0.193   4.011   4.319  0.1439  0.6111 -0.0692
 7021SOL    HW132522   0.272   4.011   4.372 -0.1179  2.5682  0.3420
 7021SOL    HW232523   0.220   3.934   4.270 -2.3463 -0.1606 -0.2091
 7022SOL     OW32524   4.172   4.709  15.931 -0.0483 -0.6348  0.4099
 7022SOL    HW132525   4.200   4.716  16.022 -1.7621 -1.8827  1.0320
 7022SOL    HW232526   4.078   4.694  15.943 -0.0132 -0.5086  0.8323
 7023SOL     OW32527   0.230   2.027   2.892 -0.0862 -0.4368 -0.8341
 7023SOL    HW132528   0.174   1.954   2.865  0.3418 -1.2766  0.5613
 7023SOL    HW232529   0.289   2.038   2.817 -1.4190 -0.0818 -1.8467
 7024SOL     OW32530   4.525   1.673   7.483  0.2898 -0.4751  0.5276
 7024SOL    HW132531   4.616   1.667   7.452 -0.9792  1.5126 -3.6612
 7024SOL    HW232532   4.525   1.625   7.565 -0.7167 -1.3129  0.0350
 7025SOL     OW32533   3.830   3.338   8.992  0.0261  0.3201  0.1744
 7025SOL    HW132534   3.806   3.406   8.929 -0.8373 -2.2405 -2.2271
 7025SOL    HW232535   3.833   3.399   9.067 -1.3665 -0.7831  1.1302
 7026SOL     OW32536   2.689   3.996  12.626  0.4148 -0.2440 -0.7235
 7026SOL    HW132537   2.752   4.064  12.651 -0.7229  0.8697 -0.8700
 7026SOL    HW232538   2.612   4.046  12.598 -0.8897 -1.9287 -0.1171
 7027SOL     OW32539   1.214   0.924   2.732 -0.4613  0.0482 -0.1212
 7027SOL    HW132540   1.142   0.970   2.774 -1.4157  0.5253 -2.2447
 7027SOL    HW232541   1.193   0.830   2.725  0.4409 -0.3392  2.2964
 7028SOL     OW32542   2.967   0.858   5.704 -0.5543 -0.1961 -0.2781
 7028SOL    HW132543   2.891   0.910   5.677  0.5829  1.2801 -0.6350
 7028SOL    HW232544   2.990   0.902   5.785  0.8777 -1.4366 -0.0054
 7029SOL     OW32545   0.869   1.034   5.562  0.1672  0.0605 -0.2824
 7029SOL    HW132546   0.887   0.940   5.564 -0.0287  0.0706  1.9615
 7029SOL    HW232547   0.833   1.036   5.473  2.1688  1.2230 -1.0653
 7030SOL     OW32548   0.895   3.709  13.315  0.1143  0.1230  0.2127
 7030SOL    HW132549   0.916   3.710  13.408  0.9628 -1.7497  0.0387
 7030SOL    HW232550   0.821   3.770  13.321  0.8275  0.7210  2.8621
 7031SOL     OW32551   3.952   1.197   7.902 -0.3155 -0.2683 -0.0756
 7031SOL    HW132552   3.958   1.199   7.997  1.1678 -1.0267 -0.1489
 7031SOL    HW232553   4.039   1.162   7.882  0.5387  1.1975  1.0950
 7032SOL     OW32554   1.791   2.047   4.517 -0.0798 -0.2335  0.1984
 7032SOL    HW132555   1.715   2.011   4.470 -1.1891  2.9205 -0.4086
 7032SOL    HW232556   1.817   1.961   4.550 -2.7839 -0.8932  0.6463
 7033SOL     OW32557   2.439   1.620   9.522 -0.6298  0.2020 -0.0287
 7033SOL    HW132558   2.381   1.571   9.582 -1.0238  2.1153  1.1573
 7033SOL    HW232559   2.523   1.621   9.567 -0.2335 -3.3093 -0.7192
 7034SOL     OW32560   4.628   1.349   4.681  0.2328 -0.5799  0.1391
 7034SOL    HW132561   4.594   1.323   4.767 -0.3373  0.1823  0.1407
 7034SOL    HW232562   4.684   1.277   4.653  2.0039  0.8663 -0.0604
 7035SOL     OW32563   2.047   3.130   7.473  0.2810 -0.0429 -0.3126
 7035SOL    HW132564   2.062   3.071   7.547  1.5104 -0.4674 -0.9135
 7035SOL    HW232565   1.997   3.065   7.424 -0.1665 -0.6744  0.9606
 7036SOL     OW32566   2.828   3.890  16.262 -0.0988 -0.2405 -0.9083
 7036SOL    HW132567   2.796   3.843  16.185  0.2080 -2.3676  0.2679
 7036SOL    HW232568   2.918   3.907  16.234 -0.4515 -1.0337 -2.5087
 7037SOL     OW32569   0.024   3.081   6.198  0.4127  0.1734 -0.8215
 7037SOL    HW132570   0.007   3.088   6.292 -0.4425  0.0665 -0.9655
 7037SOL    HW232571   0.023   2.988   6.179  1.5644  0.6013 -2.9772
 7038SOL     OW32572   0.662   2.076   6.929  0.0066  0.3785 -0.1165
 7038SOL    HW132573   0.596   2.007   6.928 -2.7640  2.9887  1.9890
 7038SOL    HW232574   0.678   2.065   7.023  2.8510  4.4988 -0.1476
 7039SOL     OW32575   2.685   4.702   4.351 -0.3626 -0.5255  0.0149
 7039SOL    HW132576   2.748   0.042   4.323  1.8414 -2.5414  0.2700
 7039SOL    HW232577   2.612   0.035   4.371  0.0663  0.3200 -0.9375
 7040SOL     OW32578   1.460   1.901   3.767 -0.1299 -0.5417 -0.6487
 7040SOL    HW132579   1.400   1.911   3.693  0.0135  0.4743 -0.6328
 7040SOL    HW232580   1.450   1.986   3.811  1.3432 -1.5104  1.5483
 7041SOL     OW32581   2.495   2.819   0.912  0.4888 -0.3683 -0.1444
 7041SOL    HW132582   2.576   2.790   0.870  0.7224 -1.4963  1.0515
 7041SOL    HW232583   2.491   2.911   0.889  0.0395 -0.1073  0.9606
 7042SOL     OW32584   4.709   3.635   6.591 -0.0315 -0.0925  0.2615
 7042SOL    HW132585   0.034   3.554   6.587 -0.8815 -0.6513  0.9444
 7042SOL    HW232586   4.629   3.613   6.638  0.0402 -1.4713 -0.2790
 7043SOL     OW32587   0.219   0.152  17.509 -0.3433  0.1398 -0.5858
 7043SOL    HW132588   0.285   0.191  17.452  1.0514 -1.9949 -0.4407
 7043SOL    HW232589   0.213   0.064  17.471  0.7761  0.9389 -2.5946
 7044SOL     OW32590   3.237   2.471   1.038  0.5649 -0.0612 -0.1404
 7044SOL    HW132591   3.253   2.379   1.019 -0.4271 -0.0472 -1.0642
 7044SOL    HW232592   3.221   2.466   1.133 -0.2959  0.7834 -0.2343
 7045SOL     OW32593   0.734   4.490   8.492 -0.7278 -0.4512  0.7129
 7045SOL    HW132594   0.713   4.460   8.403 -0.2438 -1.8098  1.0655
 7045SOL    HW232595   0.717   4.584   8.482  0.5751 -0.3958 -0.9858
 7046SOL     OW32596   1.285   3.648   6.072  0.6443 -0.0618  0.5272
 7046SOL    HW132597   1.377   3.630   6.055  0.9714  2.5303 -0.5549
 7046SOL    HW232598   1.274   3.687   5.985 -1.9925  0.2680  1.0098
 7047SOL     OW32599   2.667   3.036   0.468 -0.4032  0.1960 -0.1641
 7047SOL    HW132600   2.601   3.053   0.535 -0.1302 -1.0783  0.4392
 7047SOL    HW232601   2.704   2.956   0.507 -1.4943 -0.4103 -0.3620
 7048SOL     OW32602   0.349   3.521   0.579 -0.5710 -0.0082  0.2247
 7048SOL    HW132603   0.254   3.531   0.577 -0.3733  1.6132 -1.3618
 7048SOL    HW232604   0.350   3.520   0.674 -0.7912  0.6835  0.2371
 7049SOL     OW32605   1.003   0.906  16.654 -0.2085 -0.2554 -0.0798
 7049SOL    HW132606   1.095   0.889  16.672 -0.6550 -1.1149  1.4068
 7049SOL    HW232607   0.975   0.814  16.646  2.3613 -1.1147  0.8979
 7050SOL     OW32608   2.784   0.954   1.171 -0.2484 -0.2290 -0.1328
 7050SOL    HW132609   2.749   1.036   1.137 -0.0190 -0.8100 -1.7517
 7050SOL    HW232610   2.872   0.974   1.203 -0.3008  0.5227 -0.4807
 7051SOL     OW32611   3.729   0.412   7.409 -0.5823 -0.2799 -0.1486
 7051SOL    HW132612   3.654   0.470   7.425  0.5090  1.0648  0.1589
 7051SOL    HW232613   3.805   0.464   7.435 -0.4570 -0.7482  0.4269
 7052SOL     OW32614   1.059   2.689  15.749  0.3913 -0.4163 -0.2671
 7052SOL    HW132615   0.974   2.704  15.707  0.3146 -0.0796  0.0044
 7052SOL    HW232616   1.051   2.605  15.794 -1.8949 -0.8204 -1.4062
 7053SOL     OW32617   1.176   3.274  16.594 -0.1085  0.0437 -0.1133
 7053SOL    HW132618   1.151   3.355  16.550  1.3717 -1.0477 -2.9373
 7053SOL    HW232619   1.132   3.276  16.679  0.3197  0.4719  0.0922
 7054SOL     OW32620   2.241   0.235   8.761 -0.0242  0.5827  0.1367
 7054SOL    HW132621   2.312   0.238   8.826  0.4742  0.1196 -0.3870
 7054SOL    HW232622   2.158   0.226   8.806 -0.7282  1.9968 -0.8593
 7055SOL     OW32623   1.618   0.012   1.712 -0.1906 -0.0589 -0.2003
 7055SOL    HW132624   1.702   4.722   1.756  0.1999 -1.1211 -1.3318
 7055SOL    HW232625   1.563   0.036   1.786  1.0389 -1.5372  1.1970
 7056SOL     OW32626   1.336   1.001   6.733  1.8636 -0.0825 -0.0322
 7056SOL    HW132627   1.398   1.034   6.668  1.8904 -1.4026 -0.6874
 7056SOL    HW232628   1.391   0.944   6.787  0.9835  1.5580  2.6007
 7057SOL     OW32629   2.516   2.672  15.918  0.4661  0.3329  0.3259
 7057SOL    HW132630   2.459   2.692  15.844  0.0710  0.0665  0.5537
 7057SOL    HW232631   2.495   2.752  15.966  0.4846 -0.3713  1.5264
 7058SOL     OW32632   3.447   3.606   7.648  0.4003  0.4097  0.6675
 7058SOL    HW132633   3.485   3.620   7.734  0.3990 -0.3075  0.7867
 7058SOL    HW232634   3.490   3.680   7.605  0.0765 -0.7730 -1.6923
 7059SOL     OW32635   2.364   2.394   8.491  0.7061  0.2119  0.1808
 7059SOL    HW132636   2.307   2.469   8.510  0.5764  0.2820 -0.4847
 7059SOL    HW232637   2.372   2.349   8.575  1.2801  1.3329  0.7345
 7060SOL     OW32638   1.332   3.421  10.620 -0.0423  0.2543  0.0523
 7060SOL    HW132639   1.272   3.489  10.589 -0.2078 -0.6432 -1.5545
 7060SOL    HW232640   1.355   3.392  10.533 -0.3562 -1.9149  0.6990
 7061SOL     OW32641   0.436   0.337   4.484 -0.3983 -0.1069 -0.1394
 7061SOL    HW132642   0.360   0.393   4.463 -0.0883  0.3807  0.0301
 7061SOL    HW232643   0.405   0.289   4.561  0.1418 -2.9317 -1.7164
 7062SOL     OW32644   2.016   3.090  13.564  0.2467  0.0512 -0.0394
 7062SOL    HW132645   2.036   3.115  13.474  0.0290  0.8817  0.1386
 7062SOL    HW232646   2.097   3.051  13.595  0.0156  0.5046  1.1412
 7063SOL     OW32647   4.119   2.449   7.024 -0.2784  0.3354 -0.5282
 7063SOL    HW132648   4.140   2.542   7.014 -1.0152  0.5173 -0.3583
 7063SOL    HW232649   4.194   2.413   7.072 -0.3799  0.5050 -0.2451
 7064SOL     OW32650   3.717   2.484  11.811  0.3344  0.0582 -0.0588
 7064SOL    HW132651   3.685   2.507  11.723  1.8538  1.9554 -0.1045
 7064SOL    HW232652   3.670   2.535  11.876 -1.7018 -1.6597 -0.1820
 7065SOL     OW32653   3.941   0.688   8.575 -0.2111  0.3298  0.3189
 7065SOL    HW132654   3.952   0.782   8.561  0.3517  0.1288 -0.5957
 7065SOL    HW232655   4.028   0.656   8.552 -0.2294  1.7873 -1.8046
 7066SOL     OW32656   0.908   1.819   7.696  0.1757  0.2835 -0.1170
 7066SOL    HW132657   0.886   1.775   7.778 -2.0521  1.7637  0.0628
 7066SOL    HW232658   0.876   1.751   7.636 -0.1657  0.1738  0.1938
 7067SOL     OW32659   0.217   0.135  10.141  0.7793  0.0109  1.0023
 7067SOL    HW132660   0.237   0.086  10.221  1.5533 -0.3406  0.6040
 7067SOL    HW232661   0.140   0.185  10.164  0.6204 -0.5625  1.7290
 7068SOL     OW32662   1.699   0.763   4.159 -0.3408 -0.3884 -0.0431
 7068SOL    HW132663   1.793   0.783   4.153 -0.4378 -0.4884 -1.8195
 7068SOL    HW232664   1.696   0.672   4.188 -1.6946  1.3198  5.1805
 7069SOL     OW32665   0.917   2.271  16.223  0.1861 -0.2026  0.0054
 7069SOL    HW132666   0.874   2.283  16.138  0.6737  1.7529  0.0303
 7069SOL    HW232667   0.965   2.195  16.191  0.9178 -0.0397  0.7048
 7070SOL     OW32668   0.460   4.005  16.577 -0.2569  0.0528  0.0825
 7070SOL    HW132669   0.381   4.040  16.535  1.3279  0.1698 -2.8069
 7070SOL    HW232670   0.521   4.067  16.537 -1.4260 -0.5008 -2.5566
 7071SOL     OW32671   2.104   4.137   9.361 -0.8629 -0.0555 -0.6338
 7071SOL    HW132672   2.031   4.148   9.301 -0.3646  1.6357 -0.9231
 7071SOL    HW232673   2.057   4.111   9.440 -0.5975  1.6824  0.0858
 7072SOL     OW32674   2.418   0.167  12.194  0.2043  0.2308  0.0619
 7072SOL    HW132675   2.377   0.207  12.271  1.1980  1.7799 -0.1989
 7072SOL    HW232676   2.389   0.236  12.134  0.4660  0.0264 -0.2999
 7073SOL     OW32677   1.643   4.611  10.767 -0.2442 -0.5242 -0.3483
 7073SOL    HW132678   1.678   4.522  10.770 -0.1957 -0.4617  0.7110
 7073SOL    HW232679   1.588   4.602  10.845  1.7673  1.6111  1.2806
 7074SOL     OW32680   1.868   2.311   1.725  0.0852 -0.0833  0.1075
 7074SOL    HW132681   1.923   2.384   1.752  0.5691 -0.8245  1.1363
 7074SOL    HW232682   1.870   2.314   1.630 -3.2759 -1.6622 -0.0201
 7075SOL     OW32683   2.872   2.546  17.215  0.1111 -0.0812  0.3224
 7075SOL    HW132684   2.872   2.540  17.311 -2.1700  0.7746  0.3675
 7075SOL    HW232685   2.941   2.609  17.193 -0.5122  0.1205 -1.0125
 7076SOL     OW32686   1.722   0.336   4.725  0.3212 -0.0849 -0.0393
 7076SOL    HW132687   1.665   0.413   4.724 -0.5978 -0.7801 -0.5409
 7076SOL    HW232688   1.772   0.357   4.804  1.2202  0.7552 -0.8425
 7077SOL     OW32689   2.240   3.395   1.528 -0.1532  0.4081 -0.3713
 7077SOL    HW132690   2.298   3.328   1.490  1.7474  1.3510  0.8702
 7077SOL    HW232691   2.223   3.361   1.616  1.4199 -1.1968 -0.6780
 7078SOL     OW32692   4.041   2.890   8.478  0.5334  0.3305  0.3277
 7078SOL    HW132693   4.118   2.841   8.448  0.1044  0.3075 -0.7495
 7078SOL    HW232694   4.070   2.922   8.563 -0.1945  2.0128 -0.0585
 7079SOL     OW32695   1.099   0.705   7.241 -0.0324 -0.6284 -0.1875
 7079SOL    HW132696   1.181   0.660   7.224  0.8730  2.2491 -3.2711
 7079SOL    HW232697   1.066   0.700   7.151 -0.5756 -0.2256 -0.0161
 7080SOL     OW32698   0.146   2.699   6.841 -0.1849 -0.3138 -0.2483
 7080SOL    HW132699   0.175   2.702   6.750  1.0026 -1.1228  0.1194
 7080SOL    HW232700   0.201   2.754   6.897 -1.1587 -0.3523  0.7498
 7081SOL     OW32701   2.129   3.092  17.658  0.7603  0.2384 -0.0821
 7081SOL    HW132702   2.110   3.002  17.684  2.5351  0.6450  2.5580
 7081SOL    HW232703   2.053   3.133  17.702  0.0128 -1.9745  0.6774
 7082SOL     OW32704   0.602   1.358   4.113  0.0165 -0.1856 -0.0380
 7082SOL    HW132705   0.553   1.438   4.092 -0.1389  0.0266  1.1476
 7082SOL    HW232706   0.691   1.386   4.092 -0.2579  0.3228 -0.5472
 7083SOL     OW32707   3.920   1.810   4.267  0.3175 -0.0675  0.1699
 7083SOL    HW132708   3.941   1.878   4.332 -1.2611  2.0976 -1.6018
 7083SOL    HW232709   3.831   1.777   4.279 -0.1334  0.4837 -1.7464
 7084SOL     OW32710   1.739   1.169   7.794  0.0594  0.2088 -0.1388
 7084SOL    HW132711   1.701   1.090   7.830  0.7462  0.8275  1.9446
 7084SOL    HW232712   1.833   1.150   7.788 -0.1126 -0.4315 -0.7260
 7085SOL     OW32713   3.969   2.872   6.843  0.2553  0.0790 -0.2992
 7085SOL    HW132714   3.988   2.852   6.751  0.4903  1.7981 -0.6259
 7085SOL    HW232715   4.060   2.878   6.872  0.9568 -0.1920 -2.3851
 7086SOL     OW32716   3.774   3.036   9.875 -0.1304  0.2995 -0.1970
 7086SOL    HW132717   3.847   3.019   9.816  0.4793 -1.4581  1.0850
 7086SOL    HW232718   3.707   3.069   9.814  1.6481  0.9434 -1.8215
 7087SOL     OW32719   1.449   1.205   0.585 -0.4550  0.0342  0.9010
 7087SOL    HW132720   1.375   1.167   0.538 -0.8843  1.4358  0.4421
 7087SOL    HW232721   1.404   1.286   0.608 -2.4087  0.0064 -2.7924
 7088SOL     OW32722   4.394   0.862  10.601 -0.3113 -0.1037  0.3128
 7088SOL    HW132723   4.417   0.793  10.538  1.6139  0.2989  0.5548
 7088SOL    HW232724   4.478   0.873  10.645 -0.8760 -0.8225  1.5569
 7089SOL     OW32725   3.553   2.299   3.599  0.0883  0.4300 -0.2877
 7089SOL    HW132726   3.642   2.282   3.630  0.4217 -2.0239 -2.5074
 7089SOL    HW232727   3.510   2.223   3.640 -0.1090  0.3816 -0.5805
 7090SOL     OW32728   1.495   3.547  10.797  0.6187  0.2348 -0.0319
 7090SOL    HW132729   1.536   3.474  10.843 -1.2262 -1.0557 -0.4408
 7090SOL    HW232730   1.419   3.506  10.756  1.3823 -0.7462 -0.4614
 7091SOL     OW32731   0.853   3.315  13.375 -0.2101  0.0949 -0.3575
 7091SOL    HW132732   0.778   3.374  13.367  0.5190  1.0854  0.0752
 7091SOL    HW232733   0.845   3.293  13.468  3.1428 -0.5224 -0.2311
 7092SOL     OW32734   3.737   2.702   6.546 -0.6764 -0.0828 -0.1549
 7092SOL    HW132735   3.732   2.633   6.613  1.0218 -1.3061 -1.2974
 7092SOL    HW232736   3.703   2.655   6.470  0.9011 -1.5692  0.0693
 7093SOL     OW32737   2.865   1.983   1.052 -0.2950 -0.3359 -0.0327
 7093SOL    HW132738   2.814   2.055   1.015  0.4899 -0.6972 -1.8080
 7093SOL    HW232739   2.837   1.981   1.144  0.2353  2.1357  0.1847
 7094SOL     OW32740   2.424   4.333   6.838  0.2765 -0.2525 -0.1920
 7094SOL    HW132741   2.455   4.343   6.928  1.2251  3.3492 -0.9232
 7094SOL    HW232742   2.396   4.242   6.846  0.6015 -0.5314 -2.2894
 7095SOL     OW32743   2.814   0.502   2.225 -0.2431 -0.0238  0.0878
 7095SOL    HW132744   2.790   0.525   2.135 -1.6011  4.2698  1.5855
 7095SOL    HW232745   2.772   0.416   2.222 -0.6822  0.1169  2.1614
 7096SOL     OW32746   3.909   4.456   3.179  0.0168  0.7028 -0.5795
 7096SOL    HW132747   3.922   4.376   3.231  1.8060  2.1073  1.1188
 7096SOL    HW232748   3.986   4.507   3.205 -0.2965  1.3558 -0.9417
 7097SOL     OW32749   4.298   2.559  12.430 -0.3927 -0.5856  0.1104
 7097SOL    HW132750   4.226   2.617  12.406  1.1936  1.2468 -0.2086
 7097SOL    HW232751   4.238   2.485  12.438 -0.5074 -0.0523  4.2524
 7098SOL     OW32752   3.829   0.700   5.627 -0.2107  0.1814 -0.4001
 7098SOL    HW132753   3.874   0.766   5.574 -0.1500 -0.3886 -1.0594
 7098SOL    HW232754   3.768   0.752   5.679 -0.5971 -0.9980  0.3468
 7099SOL     OW32755   0.807   0.150   7.957 -0.2932  0.2803 -0.0115
 7099SOL    HW132756   0.765   0.090   7.896 -0.1121 -0.1112  0.2457
 7099SOL    HW232757   0.884   0.101   7.986 -0.6777 -0.2542  0.1035
 7100SOL     OW32758   1.727   0.269   0.315  0.0907 -0.1756 -0.6082
 7100SOL    HW132759   1.672   0.268   0.394 -1.7497 -1.0626 -1.9014
 7100SOL    HW232760   1.801   0.320   0.346 -1.2239  0.7948  0.9166
 7101SOL     OW32761   3.287   4.439   2.261 -0.6394 -0.7524 -0.0648
 7101SOL    HW132762   3.215   4.437   2.198  0.1553 -2.2448 -0.9315
 7101SOL    HW232763   3.349   4.385   2.212 -0.7225 -1.0680  0.1720
 7102SOL     OW32764   4.617   1.373  17.395 -0.3031  0.1492  0.3569
 7102SOL    HW132765   4.648   1.360  17.484  0.0677  0.1926  0.2363
 7102SOL    HW232766   4.555   1.443  17.411  0.7810  1.8901 -3.1350
 7103SOL     OW32767   0.064   1.891  17.479 -0.2180  0.3652 -0.0691
 7103SOL    HW132768   0.158   1.898  17.460 -0.0563  2.3024  1.3241
 7103SOL    HW232769   0.059   1.796  17.466 -1.4819  0.5067 -0.5900
 7104SOL     OW32770   0.445   0.178   5.500  0.4265  0.6021  0.5274
 7104SOL    HW132771   0.420   0.177   5.592 -1.0713  1.2445  0.1347
 7104SOL    HW232772   0.363   0.136   5.473  0.9058 -0.0052  0.0049
 7105SOL     OW32773   1.974   0.908  13.160  0.2593  0.3052 -0.4357
 7105SOL    HW132774   1.907   0.906  13.228  0.3388  0.7919 -0.3456
 7105SOL    HW232775   1.919   0.910  13.083  0.2772 -1.8731 -0.5266
 7106SOL     OW32776   4.531   3.469   9.396 -0.7818 -0.0623  0.2089
 7106SOL    HW132777   4.512   3.391   9.343 -1.8539  0.0672  0.3916
 7106SOL    HW232778   4.448   3.476   9.445 -0.8985  0.7627 -0.1106
 7107SOL     OW32779   2.472   2.614   8.183  0.2683  0.2819  0.1829
 7107SOL    HW132780   2.481   2.707   8.160 -0.9425 -0.0120 -1.5356
 7107SOL    HW232781   2.560   2.582   8.164 -0.4907 -1.8751  0.3002
 7108SOL     OW32782   1.227   1.334  10.946  0.5216  0.2734 -0.1977
 7108SOL    HW132783   1.249   1.299  10.859  2.2392  0.5507  0.1237
 7108SOL    HW232784   1.298   1.291  10.993 -0.2664 -1.0720 -0.2262
 7109SOL     OW32785   4.703   3.253   8.316 -0.3479  0.8098 -0.4220
 7109SOL    HW132786   0.022   3.184   8.365  0.5727  0.7634 -1.3405
 7109SOL    HW232787   0.049   3.311   8.291 -1.5654  2.4895 -0.0336
 7110SOL     OW32788   3.366   0.326   7.265 -0.0224 -0.1228 -0.7646
 7110SOL    HW132789   3.326   0.348   7.181 -3.3002 -0.4099  0.7614
 7110SOL    HW232790   3.426   0.259   7.232 -0.2138 -1.7300  2.2124
 7111SOL     OW32791   2.178   2.048   5.593 -0.6520  0.1377  0.6143
 7111SOL    HW132792   2.229   2.036   5.513  0.4670 -2.1744  1.6642
 7111SOL    HW232793   2.195   1.964   5.635  0.5065 -0.4037 -0.9443
 7112SOL     OW32794   3.078   1.947  11.971 -0.5029  1.2173 -0.0975
 7112SOL    HW132795   3.031   2.030  11.988  0.5467  1.9455 -0.7555
 7112SOL    HW232796   3.011   1.894  11.927  0.4356 -2.3800  2.9383
 7113SOL     OW32797   2.657   0.730  10.415 -0.0231  0.3565 -0.4566
 7113SOL    HW132798   2.637   0.648  10.461 -0.4867  0.1368 -1.0432
 7113SOL    HW232799   2.594   0.729  10.343  0.6335  1.6948 -1.0475
 7114SOL     OW32800   1.561   2.036   1.379 -0.1825  0.5341 -0.0396
 7114SOL    HW132801   1.569   2.125   1.345 -0.6143  0.3970 -0.4936
 7114SOL    HW232802   1.467   2.021   1.370  0.0529  0.1334 -1.7148
 7115SOL     OW32803   0.725   1.149   3.033 -0.0629 -0.1712  0.1968
 7115SOL    HW132804   0.695   1.222   3.088 -0.9305  0.1651 -0.7172
 7115SOL    HW232805   0.671   1.083   3.076  0.0212 -0.6789 -0.4745
 7116SOL     OW32806   3.159   4.352  11.657 -0.2756  0.1161 -0.2740
 7116SOL    HW132807   3.123   4.269  11.624 -0.3554 -0.8345  2.1567
 7116SOL    HW232808   3.230   4.373  11.596 -0.8901  1.9092 -0.3555
 7117SOL     OW32809   2.818   4.238  17.188  0.3438  0.4024  0.0482
 7117SOL    HW132810   2.845   4.148  17.205  0.6912  0.2451 -1.2780
 7117SOL    HW232811   2.796   4.275  17.273 -0.8670 -0.1790 -0.0169
 7118SOL     OW32812   1.650   4.339   2.355  0.6822 -0.2935 -0.1752
 7118SOL    HW132813   1.741   4.308   2.357  0.2670 -1.2375  2.9969
 7118SOL    HW232814   1.641   4.387   2.437  0.7796 -0.0695 -0.2966
 7119SOL     OW32815   3.581   2.274   3.334 -0.2892  0.3702  0.2560
 7119SOL    HW132816   3.513   2.207   3.331  0.7145 -0.6767  0.8932
 7119SOL    HW232817   3.574   2.288   3.428  0.3360 -0.6008  0.4511
 7120SOL     OW32818   4.201   3.018   2.741  0.1921  0.3474 -0.4672
 7120SOL    HW132819   4.196   2.926   2.767 -0.1424  1.4584  3.3667
 7120SOL    HW232820   4.209   3.021   2.645 -1.7495  1.5711 -0.5994
 7121SOL     OW32821   2.900   2.197   0.573  0.1517  0.4121  0.1850
 7121SOL    HW132822   2.886   2.279   0.525 -2.4223 -0.1093  0.0287
 7121SOL    HW232823   2.993   2.180   0.557 -0.1550 -0.2861 -0.8371
 7122SOL     OW32824   2.844   4.253   2.375 -0.2589  0.1381  0.0077
 7122SOL    HW132825   2.895   4.172   2.383  0.6257  0.6077 -0.9793
 7122SOL    HW232826   2.877   4.299   2.452 -0.5991  0.3628  0.0205
 7123SOL     OW32827   3.978   0.203   1.069  0.1244  0.4830  0.2084
 7123SOL    HW132828   3.942   0.257   0.998  0.8610  0.0242 -0.5177
 7123SOL    HW232829   3.911   0.217   1.136  0.9323  0.2287  1.0671
 7124SOL     OW32830   4.065   1.730   0.829  0.4867  0.0564  0.1301
 7124SOL    HW132831   4.157   1.713   0.811  0.2935  0.4196 -1.2092
 7124SOL    HW232832   4.053   1.664   0.896  1.5548  0.5037  0.7468
 7125SOL     OW32833   2.652   2.571  16.698  0.2776  0.2274 -0.9167
 7125SOL    HW132834   2.679   2.650  16.650  0.8416 -0.5421 -1.8651
 7125SOL    HW232835   2.589   2.531  16.638 -0.1537 -0.8287  0.2481
 7126SOL     OW32836   3.902   4.315  16.125  0.2389  0.0460 -0.4286
 7126SOL    HW132837   3.815   4.347  16.105  0.2890  0.8578  0.6405
 7126SOL    HW232838   3.940   4.313  16.037  1.8135  0.9479  0.2203
 7127SOL     OW32839   2.284   1.565  17.688 -0.2728 -0.0423 -0.3062
 7127SOL    HW132840   2.191   1.545  17.677 -0.8179  2.4793 -0.3832
 7127SOL    HW232841   2.330   1.483  17.670  1.3909  0.8498 -0.1464
 7128SOL     OW32842   4.648   4.205   9.837  0.1098  0.1560  0.2110
 7128SOL    HW132843   4.586   4.135   9.817 -2.3700  2.1681  0.9101
 7128SOL    HW232844   4.637   4.219   9.931  1.7986 -1.1280  0.6078
 7129SOL     OW32845   2.127   3.309   0.369 -0.4298  0.5070  0.6583
 7129SOL    HW132846   2.166   3.363   0.301 -0.9826  0.6985  0.4927
 7129SOL    HW232847   2.105   3.375   0.435 -2.9225 -0.9000  1.2349
 7130SOL     OW32848   1.237   3.546   1.542 -0.0002 -0.2170  0.6362
 7130SOL    HW132849   1.325   3.576   1.520 -0.6724 -0.1556 -1.8953
 7130SOL    HW232850   1.238   3.457   1.508  0.1133  0.0548 -0.0766
 7131SOL     OW32851   1.598   1.870   4.737  0.6904 -0.1137 -0.1176
 7131SOL    HW132852   1.522   1.921   4.766  0.2557  1.1473 -3.5121
 7131SOL    HW232853   1.661   1.885   4.808 -0.3723  0.2168  0.7603
 7132SOL     OW32854   4.296   3.825   5.087 -0.1958 -0.2802  0.2459
 7132SOL    HW132855   4.212   3.837   5.043 -0.0392  2.3705  0.6669
 7132SOL    HW232856   4.321   3.917   5.092  3.3574 -1.2517  0.2899
 7133SOL     OW32857   3.555   2.252  11.407  0.3748 -0.0395  0.4126
 7133SOL    HW132858   3.603   2.280  11.329 -1.8538  2.9192  0.1121
 7133SOL    HW232859   3.505   2.179  11.371 -0.4058  1.0333 -0.7156
 7134SOL     OW32860   1.267   3.146   2.603 -0.3110  0.0370 -0.6653
 7134SOL    HW132861   1.324   3.195   2.662  0.5256  1.1791 -2.3909
 7134SOL    HW232862   1.314   3.130   2.521  0.6946 -2.2174  0.3448
 7135SOL     OW32863   2.021   3.723   1.586 -0.6517 -0.1626  0.3038
 7135SOL    HW132864   2.029   3.807   1.632 -0.2272  0.0209 -0.1062
 7135SOL    HW232865   1.953   3.682   1.641 -0.9636  1.3166  1.0299
 7136SOL     OW32866   3.897   3.896   1.335 -0.1527 -0.1075 -0.2601
 7136SOL    HW132867   3.864   3.813   1.302 -0.2311  0.2308 -1.0292
 7136SOL    HW232868   3.915   3.870   1.425  0.4281  0.2983 -0.2630
 7137SOL     OW32869   3.043   4.445   4.754 -0.2998 -0.0331  0.0597
 7137SOL    HW132870   3.107   4.426   4.823  1.0388 -0.8577 -1.4122
 7137SOL    HW232871   3.080   4.406   4.675 -1.9786  1.5661 -1.4948
 7138SOL     OW32872   0.215   1.313   2.306 -0.4021 -0.5339  0.0337
 7138SOL    HW132873   0.267   1.276   2.235 -0.6782 -0.5216 -0.1742
 7138SOL    HW232874   0.161   1.379   2.262 -0.2343 -0.8890 -0.6929
 7139SOL     OW32875   0.820   2.871   0.830 -1.0206 -0.1819  0.2628
 7139SOL    HW132876   0.887   2.849   0.894 -0.1000 -0.0972 -0.6765
 7139SOL    HW232877   0.735   2.835   0.858 -1.3966  0.3686 -0.1723
 7140SOL     OW32878   1.477   1.396   5.109  0.1939 -0.4236 -0.2056
 7140SOL    HW132879   1.483   1.490   5.127  1.8873 -0.4690 -0.5344
 7140SOL    HW232880   1.441   1.394   5.020  1.4751  2.4146 -0.7803
 7141SOL     OW32881   3.139   1.064   4.710 -0.0132 -0.2822 -0.3390
 7141SOL    HW132882   3.118   1.150   4.674 -2.3738 -0.6765  0.1074
 7141SOL    HW232883   3.053   1.051   4.750 -0.2867  0.6023 -0.6449
 7142SOL     OW32884   0.381   2.069  12.049 -0.0614 -0.3878 -0.6941
 7142SOL    HW132885   0.361   2.098  12.139  0.5516  2.8304 -1.5796
 7142SOL    HW232886   0.476   2.082  12.047 -0.1809  0.8465  1.1300
 7143SOL     OW32887   0.814   1.036  15.985 -0.2931 -0.4074 -0.3238
 7143SOL    HW132888   0.731   1.067  16.021  0.3797  1.7904 -0.7063
 7143SOL    HW232889   0.811   1.082  15.901  1.5413 -0.8081 -0.6145
 7144SOL     OW32890   3.106   0.398   3.050 -1.1974  0.3905  0.5058
 7144SOL    HW132891   3.166   0.464   3.013 -2.2663 -0.1248 -2.1363
 7144SOL    HW232892   3.168   0.327   3.070 -0.1812  1.0229 -0.3390
 7145SOL     OW32893   0.513   0.754   5.762  0.1770 -0.2160  0.2406
 7145SOL    HW132894   0.471   0.705   5.691 -0.3605  0.0033  0.4082
 7145SOL    HW232895   0.572   0.813   5.715  0.6715 -0.5453  0.4480
 7146SOL     OW32896   2.623   1.226   7.869  0.0599  1.1562  0.1582
 7146SOL    HW132897   2.639   1.228   7.963  0.9856  1.1741 -0.0025
 7146SOL    HW232898   2.688   1.289   7.838  0.5584  0.1927 -0.7760
 7147SOL     OW32899   2.075   1.707   6.094  0.0507  0.0207 -0.5884
 7147SOL    HW132900   2.114   1.620   6.088  0.8249  0.3293 -0.0719
 7147SOL    HW232901   2.017   1.713   6.018 -2.0798  0.3394  1.0511
 7148SOL     OW32902   3.960   4.690  11.361  0.1675  0.9598 -0.8016
 7148SOL    HW132903   4.048   4.721  11.336  0.1409  0.5681 -1.3844
 7148SOL    HW232904   3.970   4.659  11.451  2.3389 -0.5402 -1.5428
 7149SOL     OW32905   1.182   3.298  17.090 -0.7682 -0.8952  0.3727
 7149SOL    HW132906   1.222   3.226  17.139  0.9996 -2.1590 -2.8820
 7149SOL    HW232907   1.178   3.261  17.001 -2.5046 -1.2795  0.6025
 7150SOL     OW32908   4.535   0.617   2.932  0.3644 -0.0991  0.2777
 7150SOL    HW132909   4.612   0.665   2.965  0.2676 -0.1636  0.6012
 7150SOL    HW232910   4.567   0.564   2.859 -0.0665  0.6272 -0.4401
 7151SOL     OW32911   0.535   0.187   3.438 -0.0087  0.0642  0.3944
 7151SOL    HW132912   0.483   0.208   3.361  0.4648 -1.7030 -0.3937
 7151SOL    HW232913   0.521   0.095   3.458 -1.4028 -0.4853 -3.1342
 7152SOL     OW32914   2.574   3.204  13.126  0.9839 -0.5204 -0.9008
 7152SOL    HW132915   2.496   3.249  13.093  0.8391  1.1163  1.6691
 7152SOL    HW232916   2.645   3.253  13.087  1.0094  0.2683  0.1362
 7153SOL     OW32917   3.346   3.753   6.795  0.3959 -0.2925  0.0728
 7153SOL    HW132918   3.322   3.660   6.797 -1.7911  0.3338  3.0371
 7153SOL    HW232919   3.410   3.760   6.866  2.0213 -2.3747 -1.2027
 7154SOL     OW32920   1.779   0.423   6.467  0.0081  0.5316 -0.4053
 7154SOL    HW132921   1.736   0.348   6.426  1.4485 -2.3948  3.4290
 7154SOL    HW232922   1.707   0.475   6.503 -1.5809 -0.0676 -2.6730
 7155SOL     OW32923   2.780   4.380   4.298  0.1308  0.2175  0.4060
 7155SOL    HW132924   2.697   4.421   4.275 -0.4138 -1.6385 -0.9133
 7155SOL    HW232925   2.832   4.448   4.256  1.7221 -1.1111  0.2063
 7156SOL     OW32926   4.214   1.527   4.070  0.7348  0.1829  0.0012
 7156SOL    HW132927   4.253   1.462   4.129  1.9304 -0.8462 -1.9087
 7156SOL    HW232928   4.265   1.604   4.096  2.4766  0.0302 -2.9800
 7157SOL     OW32929   0.081   4.544   7.399 -0.6219 -0.3698  0.1101
 7157SOL    HW132930   0.009   4.556   7.337  1.9920 -0.0480 -2.8481
 7157SOL    HW232931   0.099   4.632   7.431 -0.5476  0.2944 -1.8122
 7158SOL     OW32932   2.115   0.091   6.834  0.1384  0.4828  0.4992
 7158SOL    HW132933   2.169   0.039   6.776  2.0939  2.2392  0.7348
 7158SOL    HW232934   2.027   0.069   6.805  0.2938  1.1033 -0.4322
 7159SOL     OW32935   2.564   2.213   0.530  0.4407 -0.0183  0.0760
 7159SOL    HW132936   2.584   2.220   0.437 -3.9648  0.5647 -0.8384
 7159SOL    HW232937   2.526   2.301   0.541 -2.5310 -1.0667 -1.7465
 7160SOL     OW32938   2.941   3.023   8.898 -0.8266  0.2909  0.4806
 7160SOL    HW132939   2.888   2.948   8.926 -1.2464  1.5721  3.0988
 7160SOL    HW232940   2.873   3.089   8.891 -1.8732 -0.5035  3.0454
 7161SOL     OW32941   1.456   1.534  15.953 -0.2361 -0.0723 -0.6805
 7161SOL    HW132942   1.390   1.490  16.008 -3.0286  1.5600 -2.7190
 7161SOL    HW232943   1.510   1.460  15.925  0.0992  0.5157 -1.5718
 7162SOL     OW32944   1.018   4.120   5.161 -0.1125 -0.6709  0.2162
 7162SOL    HW132945   0.972   4.095   5.241 -0.9212  0.0661 -0.0305
 7162SOL    HW232946   0.948   4.130   5.097  1.8623  1.2771 -1.6329
 7163SOL     OW32947   0.278   0.179   6.660  0.4437 -0.0209  0.1033
 7163SOL    HW132948   0.208   0.230   6.700  2.9867  2.3632  1.4487
 7163SOL    HW232949   0.278   0.205   6.568  0.0635  1.7703  0.6224
 7164SOL     OW32950   1.584   3.223  12.130 -0.4648  0.5502 -0.0378
 7164SOL    HW132951   1.659   3.235  12.071 -0.1446  0.4048  0.3426
 7164SOL    HW232952   1.557   3.139  12.093 -0.6794  0.1905  0.9374
 7165SOL     OW32953   3.000   3.433   6.293 -0.2056  0.0431  0.2784
 7165SOL    HW132954   2.966   3.475   6.214  1.1542  0.4565 -0.0890
 7165SOL    HW232955   3.086   3.474   6.300  0.1858 -1.2699  3.1992
 7166SOL     OW32956   2.311   2.697   6.920  0.1985 -0.5319  0.1359
 7166SOL    HW132957   2.396   2.683   6.963  0.5343 -0.6133 -0.5532
 7166SOL    HW232958   2.325   2.771   6.862  2.3538  0.8026  2.3030
 7167SOL     OW32959   1.747   3.354   9.557  0.5364 -0.1039  0.0317
 7167SOL    HW132960   1.686   3.428   9.560 -1.8040 -2.0918  1.0016
 7167SOL    HW232961   1.680   3.287   9.569  1.6823 -1.0528  1.1052
 7168SOL     OW32962   3.704   2.299   4.003 -0.1813  0.3854  0.3526
 7168SOL    HW132963   3.650   2.370   3.969 -3.4353 -1.1835  2.2723
 7168SOL    HW232964   3.765   2.344   4.061  0.5911  0.1330 -0.2633
 7169SOL     OW32965   4.083   4.108   2.028 -0.0072 -0.2251  0.5735
 7169SOL    HW132966   4.050   4.102   2.118  1.8276 -3.5547  1.0270
 7169SOL    HW232967   4.167   4.153   2.039 -0.7941  0.8447  2.2719
 7170SOL     OW32968   4.570   4.707   6.019  0.6494  0.4812 -0.3612
 7170SOL    HW132969   4.515   4.714   5.940  0.5873  0.3210 -0.3339
 7170SOL    HW232970   4.513   4.666   6.084  0.9085 -1.8796 -1.5936
 7171SOL     OW32971   4.234   1.296  16.222  0.2343  0.1520 -0.1117
 7171SOL    HW132972   4.193   1.303  16.136 -0.5730  1.0858  0.3405
 7171SOL    HW232973   4.324   1.320  16.202 -0.4781  1.9321 -1.1440
 7172SOL     OW32974   0.056   2.475   0.212 -0.4251  0.0184 -0.6639
 7172SOL    HW132975   0.103   2.440   0.288  1.3524 -0.2288 -1.8891
 7172SOL    HW232976   0.101   2.557   0.195 -0.6287 -0.1046 -1.8017
 7173SOL     OW32977   2.254   2.808   7.277 -0.2882 -0.3433 -0.2412
 7173SOL    HW132978   2.206   2.802   7.194 -0.7948  1.6710 -0.0981
 7173SOL    HW232979   2.345   2.823   7.251 -0.9707 -0.4571 -2.6796
 7174SOL     OW32980   3.583   2.424   7.510 -0.1228 -0.0957 -0.4601
 7174SOL    HW132981   3.541   2.351   7.555  1.8727 -0.5623  0.6720
 7174SOL    HW232982   3.675   2.398   7.515 -0.3149 -0.9914 -1.6146
 7175SOL     OW32983   0.424   0.506  15.815  0.3272 -0.1861 -0.3359
 7175SOL    HW132984   0.437   0.560  15.893  1.1284  0.0232 -0.6107
 7175SOL    HW232985   0.337   0.474  15.838 -0.3213  0.8764 -1.3077
 7176SOL     OW32986   1.871   0.193   9.189 -0.4033  0.3574 -0.3702
 7176SOL    HW132987   1.938   0.186   9.257 -0.8933  0.0286  0.0863
 7176SOL    HW232988   1.791   0.224   9.232 -0.2743 -0.5533  0.5421
 7177SOL     OW32989   1.275   1.705   5.395 -0.7457  0.3344 -0.2138
 7177SOL    HW132990   1.236   1.791   5.411  0.0674  0.9539 -1.5521
 7177SOL    HW232991   1.220   1.677   5.322  3.2082  1.6140 -3.6602
 7178SOL     OW32992   3.133   0.160   5.046 -0.1422  0.4584 -0.4420
 7178SOL    HW132993   3.146   0.076   5.089  0.4603  1.0447  0.5291
 7178SOL    HW232994   3.187   0.148   4.968  0.5717 -0.8194  0.2664
 7179SOL     OW32995   0.276   3.260  11.308 -0.2751 -0.4736  0.2343
 7179SOL    HW132996   0.206   3.263  11.243  0.5720 -0.5705 -0.6871
 7179SOL    HW232997   0.258   3.332  11.369  1.1322 -0.7520  0.9908
 7180SOL     OW32998   4.646   3.561   5.637 -0.4453  0.0046  0.6108
 7180SOL    HW132999   0.013   3.561   5.613 -0.1958 -0.3464  1.6149
 7180SOL    HW233000   4.622   3.469   5.635 -1.9362  0.4029  0.3128
 7181SOL     OW33001   2.851   3.135   3.919 -0.5816 -0.1802  0.0579
 7181SOL    HW133002   2.907   3.173   3.987 -1.2513  0.9633 -0.0080
 7181SOL    HW233003   2.823   3.050   3.951  1.4583 -0.5729  0.7709
 7182SOL     OW33004   3.960   1.983  10.148 -0.6567  0.3693  0.3243
 7182SOL    HW133005   3.888   1.923  10.130 -1.1158  0.2487  2.5527
 7182SOL    HW233006   3.932   2.031  10.226 -1.5168  0.0734  0.1965
 7183SOL     OW33007   3.019   0.174   2.747  0.4720  0.2281 -0.1849
 7183SOL    HW133008   3.051   0.264   2.757  2.0170 -0.3455  0.0455
 7183SOL    HW233009   3.102   0.136   2.775 -1.7403 -4.9797 -0.6958
 7184SOL     OW33010   3.762   3.181   5.722  0.4559  0.0116  0.1984
 7184SOL    HW133011   3.816   3.126   5.778 -1.6910 -0.7746  1.4718
 7184SOL    HW233012   3.780   3.267   5.761  2.4453 -1.0925  1.6655
 7185SOL     OW33013   0.915   3.093  11.015 -0.2462  0.3940 -0.2608
 7185SOL    HW133014   0.871   3.054  11.091 -1.1117 -0.1614 -1.0494
 7185SOL    HW233015   0.858   3.066  10.943 -0.7990 -2.0240  1.0777
 7186SOL     OW33016   3.000   4.331   3.658  0.5936 -0.1336  0.5948
 7186SOL    HW133017   3.048   4.251   3.680 -0.5507  0.0840  3.8455
 7186SOL    HW233018   2.938   4.335   3.730 -1.0445  2.0690 -0.9268
 7187SOL     OW33019   2.922   3.906   2.501 -0.4673 -0.0762 -0.1959
 7187SOL    HW133020   2.838   3.881   2.463 -1.0267  0.2134  0.8353
 7187SOL    HW233021   2.896   3.961   2.576  2.3786  0.9221  0.0436
 7188SOL     OW33022   1.621   0.243   7.208  0.0584  0.2194  0.0958
 7188SOL    HW133023   1.651   0.163   7.165  2.3619  1.1555 -0.0165
 7188SOL    HW233024   1.551   0.208   7.265  0.2569 -0.0212  0.1918
 7189SOL     OW33025   4.049   1.665   7.774  0.0345  0.5035  0.0585
 7189SOL    HW133026   4.131   1.615   7.770 -1.3565 -1.7673 -0.0022
 7189SOL    HW233027   3.982   1.599   7.758 -1.1725  1.7122  0.1261
 7190SOL     OW33028   3.681   1.393  11.209  0.0495 -0.2640  0.8169
 7190SOL    HW133029   3.752   1.404  11.273  0.7153  0.4049 -0.0401
 7190SOL    HW233030   3.713   1.307  11.179  0.8049  0.4463 -0.4260
 7191SOL     OW33031   0.543   1.475   2.145 -0.8220  0.3015 -0.0239
 7191SOL    HW133032   0.625   1.507   2.106 -1.5112  0.0387 -1.6547
 7191SOL    HW233033   0.542   1.388   2.105 -1.7705 -0.0329  0.7502
 7192SOL     OW33034   0.820   3.672   2.328  0.1146  0.4714  0.4198
 7192SOL    HW133035   0.834   3.684   2.422  1.9428  0.0667  0.2101
 7192SOL    HW233036   0.897   3.720   2.298  1.0944 -1.4045 -0.0887
 7193SOL     OW33037   4.438   1.662   5.755  0.4230  0.4973  0.1158
 7193SOL    HW133038   4.501   1.590   5.751 -1.4931 -1.1271 -0.6444
 7193SOL    HW233039   4.356   1.616   5.776 -0.4520  1.4626 -1.1779
 7194SOL     OW33040   3.803   4.212   8.336  0.1342  0.2979  0.0144
 7194SOL    HW133041   3.708   4.201   8.338  0.0253  1.3469  0.6194
 7194SOL    HW233042   3.826   4.285   8.393 -1.6483  1.2213 -0.4765
 7195SOL     OW33043   4.254   2.260   4.216 -0.1990  0.2108  0.2823
 7195SOL    HW133044   4.225   2.322   4.283 -2.2562  0.7663 -1.1532
 7195SOL    HW233045   4.299   2.318   4.155  1.4903 -2.8983 -1.4381
 7196SOL     OW33046   2.086   3.124   2.835  0.4725 -0.0045  0.4046
 7196SOL    HW133047   2.124   3.060   2.895  0.8476 -0.4837 -0.3457
 7196SOL    HW233048   2.069   3.199   2.892  0.1054 -0.5189  0.9756
 7197SOL     OW33049   2.050   0.515   3.279  0.0628 -0.5528 -0.2545
 7197SOL    HW133050   1.976   0.523   3.218  1.3776  2.8910 -1.3571
 7197SOL    HW233051   2.002   0.484   3.357  1.4313  0.9991  1.2043
 7198SOL     OW33052   4.478   1.881   2.722  0.5146 -0.4371 -0.6267
 7198SOL    HW133053   4.481   1.968   2.682  0.0782  0.5344  1.4828
 7198SOL    HW233054   4.423   1.842   2.654 -1.0369  0.7186 -0.0160
 7199SOL     OW33055   1.664   2.173   2.830 -0.0061  0.5531  0.3977
 7199SOL    HW133056   1.571   2.150   2.833  0.1550 -0.2929 -1.2985
 7199SOL    HW233057   1.689   2.171   2.922 -0.8334 -1.6023  0.5869
 7200SOL     OW33058   1.710   4.431  10.024 -0.0094 -0.1256 -0.3030
 7200SOL    HW133059   1.652   4.364  10.059 -0.8585  1.1426  0.7225
 7200SOL    HW233060   1.680   4.514  10.060 -2.4571 -1.3228  0.3926
 7201SOL     OW33061   2.121   2.853   5.350  0.3035  0.5268 -0.4240
 7201SOL    HW133062   2.138   2.934   5.399 -0.4501  2.2033 -2.9066
 7201SOL    HW233063   2.187   2.792   5.384  0.7816  0.0255 -2.2829
 7202SOL     OW33064   2.771   2.335  17.073  0.2601 -0.7682 -0.0197
 7202SOL    HW133065   2.852   2.284  17.063  0.6977 -0.3360  1.3104
 7202SOL    HW233066   2.806   2.409  17.121  2.2323 -1.3666 -0.5154
 7203SOL     OW33067   0.697   1.054   4.364  0.0899 -0.6469  0.4242
 7203SOL    HW133068   0.727   1.046   4.273  0.0729 -0.2704  0.3858
 7203SOL    HW233069   0.674   0.968   4.398  1.3809 -1.4235 -0.6635
 7204SOL     OW33070   4.461   0.275   3.772 -0.4518  0.1651 -0.2521
 7204SOL    HW133071   4.410   0.202   3.806  0.4160 -0.0415  0.6048
 7204SOL    HW233072   4.543   0.227   3.759 -0.8210 -0.1834 -1.2539
 7205SOL     OW33073   1.088   0.887   6.213 -0.1797  0.5488  0.1254
 7205SOL    HW133074   1.134   0.876   6.130  0.3688 -5.1727  1.2164
 7205SOL    HW233075   1.018   0.939   6.174  0.0799  0.9011  0.1218
 7206SOL     OW33076   1.334   2.786   5.057  0.4866  0.4243 -0.3638
 7206SOL    HW133077   1.372   2.700   5.037  0.8512  0.5012  0.0044
 7206SOL    HW233078   1.349   2.785   5.152  0.6513  0.8390 -0.3865
 7207SOL     OW33079   0.997   0.665   2.006  0.1508 -0.7691  0.4193
 7207SOL    HW133080   1.070   0.728   2.004  0.5310 -1.2361 -0.4736
 7207SOL    HW233081   0.943   0.693   1.933  2.4137 -1.0113 -1.3344
 7208SOL     OW33082   2.019   0.321   4.207 -0.2742  0.4889 -0.1112
 7208SOL    HW133083   2.075   0.243   4.207 -0.8350  0.0846 -0.3148
 7208SOL    HW233084   2.080   0.388   4.177  1.6275 -0.2367  2.1258
 7209SOL     OW33085   3.953   4.050  16.252  0.3519 -0.3463 -0.7272
 7209SOL    HW133086   3.980   4.001  16.174  0.7169  0.0489 -0.8468
 7209SOL    HW233087   3.928   4.131  16.209  0.6871  0.1536  0.0332
 7210SOL     OW33088   1.315   1.146  12.663  0.4030 -0.4336  0.5461
 7210SOL    HW133089   1.396   1.154  12.713  0.0247  1.7507  0.8306
 7210SOL    HW233090   1.309   1.062  12.619  1.4475 -0.1964 -0.0537
 7211SOL     OW33091   1.920   1.963  10.072 -0.3445 -0.4117 -0.3968
 7211SOL    HW133092   1.989   1.900  10.050  0.9969  0.4809  1.3106
 7211SOL    HW233093   1.945   1.992  10.159 -2.6242 -1.9721  0.7840
 7212SOL     OW33094   3.840   2.687   2.210  0.3530  0.4335  0.0573
 7212SOL    HW133095   3.894   2.630   2.265 -1.6947 -0.6110  0.9965
 7212SOL    HW233096   3.903   2.747   2.171  3.1475 -1.5702  1.4572
 7213SOL     OW33097   0.096   1.866   7.755 -0.0910  0.4168 -0.0194
 7213SOL    HW133098   0.006   1.863   7.785  0.2202 -1.5844  0.6622
 7213SOL    HW233099   0.137   1.935   7.807 -0.3657 -1.6976  2.9483
 7214SOL     OW33100   1.961   3.004   4.852 -0.6188 -0.1677  0.0664
 7214SOL    HW133101   1.973   2.973   4.942  1.4842 -2.3091 -0.9414
 7214SOL    HW233102   1.947   2.918   4.811 -0.9326 -0.5452  0.9556
 7215SOL     OW33103   0.542   2.294   4.166  0.0801 -0.1835 -0.2182
 7215SOL    HW133104   0.529   2.291   4.071 -2.3119  0.2320  0.0880
 7215SOL    HW233105   0.493   2.372   4.191  1.5937  0.3800  1.0111
 7216SOL     OW33106   3.683   4.183   0.125  0.2373  0.7428 -0.1319
 7216SOL    HW133107   3.697   4.097   0.165  0.1505  0.2913 -1.0936
 7216SOL    HW233108   3.640   4.234   0.195  0.8719 -0.4829  1.1553
 7217SOL     OW33109   2.459   4.250   5.216 -0.3497  0.1509  0.3218
 7217SOL    HW133110   2.386   4.214   5.266  0.5941 -0.1649  1.4780
 7217SOL    HW233111   2.473   4.335   5.257  2.0298  0.3270 -0.8898
 7218SOL     OW33112   2.788   0.667  11.400 -0.0416 -0.1856  0.0984
 7218SOL    HW133113   2.841   0.677  11.321  0.8300  0.3272  0.7628
 7218SOL    HW233114   2.777   0.756  11.432  3.8709 -0.7206  2.8699
 7219SOL     OW33115   3.738   0.199   8.506  0.3384  0.1238 -0.5008
 7219SOL    HW133116   3.667   0.250   8.544  0.3799 -0.9319  0.9955
 7219SOL    HW233117   3.801   0.184   8.577 -0.2661  0.6230  0.1376
 7220SOL     OW33118   3.667   1.917   1.963  0.5061  0.3212  0.0659
 7220SOL    HW133119   3.688   1.974   1.889 -2.9670 -0.4907 -1.5434
 7220SOL    HW233120   3.665   1.827   1.930 -0.9564 -0.8581  3.4430
 7221SOL     OW33121   2.261   3.389   9.527  0.2710  0.5717  0.5107
 7221SOL    HW133122   2.338   3.441   9.504  1.0157 -1.7077 -2.1740
 7221SOL    HW233123   2.213   3.440   9.593  1.2676  1.0521  0.8673
 7222SOL     OW33124   3.828   1.069   6.575 -0.4153 -0.1336 -0.2452
 7222SOL    HW133125   3.887   0.996   6.593 -0.5600  0.3430  2.1362
 7222SOL    HW233126   3.896   1.134   6.556  1.4606 -2.5573 -1.8087
 7223SOL     OW33127   0.762   1.526   2.016  0.7679 -0.0014 -0.1559
 7223SOL    HW133128   0.770   1.601   1.958 -2.0447 -0.7496 -1.5398
 7223SOL    HW233129   0.856   1.529   2.033  0.8879  0.6758 -0.9608
 7224SOL     OW33130   4.563   0.445   8.302  0.3081  0.2584 -0.1246
 7224SOL    HW133131   4.514   0.373   8.341  1.7448  0.3924  1.8883
 7224SOL    HW233132   4.647   0.408   8.278 -0.7064 -0.6803 -2.2003
 7225SOL     OW33133   4.603   1.445  14.158 -0.1847 -0.2275 -0.2382
 7225SOL    HW133134   4.542   1.470  14.088 -0.0971 -0.5948 -0.4417
 7225SOL    HW233135   4.550   1.385  14.211  0.3069 -0.4272  0.0281
 7226SOL     OW33136   3.114   1.071   2.052  0.1877  0.0556  0.2456
 7226SOL    HW133137   3.172   1.040   2.122  2.2095  0.4027 -1.2566
 7226SOL    HW233138   3.112   1.163   2.076 -0.8264 -0.5198  2.3435
 7227SOL     OW33139   1.877   2.755  10.777  1.3454 -0.0208 -0.0573
 7227SOL    HW133140   1.863   2.720  10.865  1.3532 -0.8463 -0.3849
 7227SOL    HW233141   1.935   2.828  10.800  1.8564 -1.0379  1.8437
 7228SOL     OW33142   2.990   4.259   2.640 -0.2014 -0.2438 -0.1628
 7228SOL    HW133143   3.061   4.321   2.624 -0.7717  1.0175  2.1825
 7228SOL    HW233144   3.026   4.216   2.718  0.0773  1.6510  0.7393
 7229SOL     OW33145   2.805   1.158  10.970  0.2466  0.4213  0.0208
 7229SOL    HW133146   2.736   1.140  10.907  0.8537  0.3142 -0.6197
 7229SOL    HW233147   2.841   1.229  10.916 -1.1701  0.0179 -1.4384
 7230SOL     OW33148   3.841   1.192   0.360 -0.3648 -0.0952 -0.1529
 7230SOL    HW133149   3.795   1.146   0.431 -0.0355  1.4706  1.0914
 7230SOL    HW233150   3.769   1.211   0.300 -0.0587 -0.0917 -0.5128
 7231SOL     OW33151   0.484   4.296   2.363  0.1362 -0.0610 -0.3769
 7231SOL    HW133152   0.456   4.214   2.403  0.1080 -0.3788 -1.0434
 7231SOL    HW233153   0.403   4.335   2.331  0.4754  0.6803 -0.3445
 7232SOL     OW33154   0.837   0.594   7.875  0.3565 -0.0381 -0.1460
 7232SOL    HW133155   0.921   0.626   7.842  0.0415  1.1060  0.1696
 7232SOL    HW233156   0.825   0.516   7.821  0.7684 -1.3055  1.6055
 7233SOL     OW33157   4.298   1.403   6.434 -0.3390  0.0305  0.1530
 7233SOL    HW133158   4.306   1.369   6.345  0.4618  0.2626  0.1401
 7233SOL    HW233159   4.380   1.386   6.480 -0.3004  1.8165  0.7254
 7234SOL     OW33160   1.870   3.375   1.745 -0.0350 -0.3340  0.2889
 7234SOL    HW133161   1.778   3.359   1.725  0.2853 -2.1844  0.2285
 7234SOL    HW233162   1.867   3.469   1.763  0.9742  0.2100 -2.3059
 7235SOL     OW33163   1.469   4.617   2.493  0.3953  0.1519 -0.4222
 7235SOL    HW133164   1.449   4.659   2.577 -0.2165 -0.4299 -0.2759
 7235SOL    HW233165   1.527   4.545   2.516  1.8911  1.6398  0.4263
 7236SOL     OW33166   2.319   2.040   4.740  0.2963 -0.1575  0.5845
 7236SOL    HW133167   2.361   2.050   4.655  0.4805 -2.2333  0.4241
 7236SOL    HW233168   2.317   1.945   4.750  2.0787 -0.3311 -0.7891
 7237SOL     OW33169   0.985   3.578   5.716 -0.2960 -0.0459 -0.6433
 7237SOL    HW133170   1.016   3.542   5.800  0.3062 -1.2683 -1.3873
 7237SOL    HW233171   1.047   3.649   5.698  1.2030 -1.2964 -0.4097
 7238SOL     OW33172   1.109   1.691  15.983 -0.2385 -0.0917 -0.3998
 7238SOL    HW133173   1.080   1.719  16.070 -0.2131  0.1150 -0.4571
 7238SOL    HW233174   1.204   1.698  15.979 -0.3040  0.0802 -1.6544
 7239SOL     OW33175   4.219   3.583   6.873 -0.1733 -0.0529 -0.1065
 7239SOL    HW133176   4.306   3.551   6.852  1.2296  1.7265  2.9561
 7239SOL    HW233177   4.160   3.509   6.854 -0.6043 -0.5006  2.9830
 7240SOL     OW33178   0.760   1.196   5.882 -0.4564  0.4147 -0.0018
 7240SOL    HW133179   0.683   1.139   5.884  0.2165 -0.5580 -1.9431
 7240SOL    HW233180   0.752   1.230   5.971 -2.5210  1.6829 -0.6602
 7241SOL     OW33181   1.751   2.980   8.756  0.2112 -0.6602  0.5188
 7241SOL    HW133182   1.657   2.963   8.748  0.0554 -0.1634  1.2873
 7241SOL    HW233183   1.775   2.955   8.667 -0.5826 -0.3760  0.2255
 7242SOL     OW33184   2.411   1.962   2.370 -0.0230  0.4074  0.1699
 7242SOL    HW133185   2.420   2.055   2.388 -1.1571  0.6467 -0.4794
 7242SOL    HW233186   2.400   1.974   2.275 -0.7217  0.1376  0.2213
 7243SOL     OW33187   3.957   3.593  17.457  0.2382 -0.2010 -0.3102
 7243SOL    HW133188   3.862   3.587  17.448 -0.0065  0.1594  2.2234
 7243SOL    HW233189   3.973   3.503  17.484 -1.0685 -0.5801 -0.8449
 7244SOL     OW33190   4.160   2.203   3.199  0.3086 -0.6470  0.6050
 7244SOL    HW133191   4.230   2.164   3.251  0.4497 -1.0612  0.0979
 7244SOL    HW233192   4.214   2.245   3.132  0.4519 -0.1914  1.0033
 7245SOL     OW33193   0.359   0.679   1.293 -0.5748 -0.1186  0.3367
 7245SOL    HW133194   0.450   0.659   1.316 -0.2325 -0.3053 -1.1565
 7245SOL    HW233195   0.347   0.773   1.285 -0.7412 -0.2400 -0.8160
 7246SOL     OW33196   2.956   3.161   0.951 -0.1631 -0.3017  0.2745
 7246SOL    HW133197   2.899   3.124   0.884  1.7470 -2.4371 -0.1528
 7246SOL    HW233198   2.934   3.251   0.928  3.0134  0.1977 -0.8536
 7247SOL     OW33199   1.451   4.018  13.191  1.1433  0.1768  0.7003
 7247SOL    HW133200   1.529   4.019  13.136  0.4766  1.9152 -0.2291
 7247SOL    HW233201   1.383   3.965  13.149  0.0715  0.1032  2.5490
 7248SOL     OW33202   4.723   2.530   4.188  0.5841 -0.5572 -0.7284
 7248SOL    HW133203   0.070   2.557   4.133  0.0020  0.5644 -0.9476
 7248SOL    HW233204   0.039   2.510   4.272  0.1395 -0.2473 -0.4351
 7249SOL     OW33205   2.411   2.305   8.754 -0.8716  0.3228  0.3343
 7249SOL    HW133206   2.502   2.276   8.746 -0.6704  0.6198  1.5353
 7249SOL    HW233207   2.385   2.235   8.814 -1.8033  1.0032  0.7243
 7250SOL     OW33208   2.679   3.204   8.013  0.1671 -0.0868  0.1147
 7250SOL    HW133209   2.674   3.141   7.941 -0.4354 -0.8959  0.8497
 7250SOL    HW233210   2.736   3.160   8.077  0.4852  2.1021  1.3324
 7251SOL     OW33211   2.720   2.617  16.956 -0.4661  0.1527  0.8161
 7251SOL    HW133212   2.779   2.545  16.979  1.1232  0.2495 -2.9988
 7251SOL    HW233213   2.684   2.575  16.878  0.3822  0.2484  0.3733
 7252SOL     OW33214   1.094   3.252   6.886 -0.0812  0.1558 -0.2757
 7252SOL    HW133215   1.122   3.324   6.829  0.5732 -0.1712 -0.3672
 7252SOL    HW233216   1.014   3.216   6.847 -0.3938 -0.9703  1.3998
 7253SOL     OW33217   1.123   1.204   8.085 -0.5198  0.1719 -0.1240
 7253SOL    HW133218   1.088   1.290   8.108 -1.2284 -0.3719  0.8224
 7253SOL    HW233219   1.197   1.204   8.146  0.5159  3.0980 -1.3840
 7254SOL     OW33220   1.194   4.236   4.034 -0.5505 -0.4592 -0.0112
 7254SOL    HW133221   1.101   4.231   4.013 -0.1460 -2.2251 -1.4562
 7254SOL    HW233222   1.219   4.307   3.975 -0.0125  0.8227  1.8041
 7255SOL     OW33223   4.725   0.788   4.789 -0.0169  0.2655  0.0380
 7255SOL    HW133224   4.700   0.792   4.696  1.3278  2.7529 -0.2096
 7255SOL    HW233225   0.058   0.713   4.785  0.9402  0.9468  1.2813
 7256SOL     OW33226   4.570   1.125   8.182  0.1815  0.4829  0.6218
 7256SOL    HW133227   4.652   1.076   8.175  1.4362  2.1989  3.3321
 7256SOL    HW233228   4.557   1.163   8.095  0.9435  1.3360  0.8820
 7257SOL     OW33229   1.109   3.875   3.238  0.8839  0.0467 -0.2978
 7257SOL    HW133230   1.191   3.904   3.279  1.0833  0.2968 -0.8682
 7257SOL    HW233231   1.093   3.955   3.187  3.3347  1.4185  1.0510
 7258SOL     OW33232   3.736   0.422  12.023  0.3509 -0.1712 -0.7797
 7258SOL    HW133233   3.719   0.329  12.038  1.1901 -0.3323 -0.8188
 7258SOL    HW233234   3.798   0.453  12.089 -2.7145 -1.6118  2.7859
 7259SOL     OW33235   0.890   3.341   7.739 -1.1494 -0.0449 -0.0337
 7259SOL    HW133236   0.855   3.384   7.660 -0.9311  0.7985  0.3267
 7259SOL    HW233237   0.843   3.392   7.805 -3.1232  0.5268 -1.8646
 7260SOL     OW33238   3.750   2.258  11.187 -0.1966 -0.1726 -0.3861
 7260SOL    HW133239   3.803   2.179  11.173  1.5635  0.4706  2.5571
 7260SOL    HW233240   3.824   2.316  11.170 -0.3996 -0.3735 -1.9143
 7261SOL     OW33241   2.349   3.500   4.239  0.0881 -0.4394 -0.8443
 7261SOL    HW133242   2.277   3.449   4.202  0.2397 -0.7728 -0.6834
 7261SOL    HW233243   2.429   3.449   4.225  1.2796  1.0639  0.4282
 7262SOL     OW33244   2.055   1.700  10.331 -0.7467  0.0502  0.5775
 7262SOL    HW133245   2.035   1.680  10.240 -1.1006 -0.8485  0.8605
 7262SOL    HW233246   2.012   1.638  10.389  0.9031 -0.7628  0.9444
 7263SOL     OW33247   3.937   0.474   8.769 -0.3573  0.6192 -0.8154
 7263SOL    HW133248   3.974   0.403   8.718 -1.5460 -0.1432 -0.6141
 7263SOL    HW233249   3.907   0.542   8.708 -0.2754 -0.2185 -1.7875
 7264SOL     OW33250   1.540   2.386   9.185  0.3402 -0.1532  0.0420
 7264SOL    HW133251   1.445   2.393   9.172  0.2630 -0.9614  0.2069
 7264SOL    HW233252   1.549   2.419   9.275 -1.8184  2.5279 -0.7396
 7265SOL     OW33253   2.105   1.510   0.915  0.0438  0.1092  0.3279
 7265SOL    HW133254   2.121   1.478   1.004  1.1362  0.2268  0.1764
 7265SOL    HW233255   2.180   1.568   0.903 -1.0937  1.3122 -0.9581
 7266SOL     OW33256   2.330   3.852   5.365 -0.3742  0.2836 -0.6339
 7266SOL    HW133257   2.289   3.871   5.281 -2.5280 -0.0884  0.3173
 7266SOL    HW233258   2.408   3.841   5.311 -0.1070  0.9113 -0.3761
 7267SOL     OW33259   2.215   0.504   5.000 -0.8906  0.2132 -0.3520
 7267SOL    HW133260   2.268   0.504   4.921 -0.8467 -1.6903 -0.3312
 7267SOL    HW233261   2.263   0.445   5.059 -2.3051  0.2001  0.7904
 7268SOL     OW33262   1.030   4.213  15.917  0.3019  0.3556 -0.1821
 7268SOL    HW133263   0.974   4.149  15.873  1.8857 -1.5896  0.6206
 7268SOL    HW233264   0.998   4.295  15.882  0.6027  0.0649 -1.1246
 7269SOL     OW33265   4.554   0.844   5.207  0.0529 -0.3338 -0.5891
 7269SOL    HW133266   4.644   0.832   5.176 -0.2709 -0.9832 -1.2666
 7269SOL    HW233267   4.510   0.760   5.220  0.2586 -0.1208  1.4633
 7270SOL     OW33268   0.723   2.478   3.732 -0.7707  0.3877 -0.3052
 7270SOL    HW133269   0.675   2.399   3.708 -0.6369  0.8795 -2.1965
 7270SOL    HW233270   0.652   2.541   3.739  1.3178  2.5189  1.7263
 7271SOL     OW33271   1.808   4.656   3.940 -0.8116 -0.1920  0.2172
 7271SOL    HW133272   1.896   4.693   3.937 -0.4119 -1.0506  1.7235
 7271SOL    HW233273   1.831   4.566   3.917 -0.9881 -0.6759  1.9867
 7272SOL     OW33274   2.603   3.823  16.017  0.3187 -0.0680  0.2530
 7272SOL    HW133275   2.641   3.879  15.949 -0.0636 -0.2651 -0.1228
 7272SOL    HW233276   2.614   3.737  15.976  1.0093 -0.1422  0.5920
 7273SOL     OW33277   2.947   3.491   1.041 -0.0681  0.0001 -0.2179
 7273SOL    HW133278   2.854   3.509   1.057  0.3039 -0.8617  2.7661
 7273SOL    HW233279   2.962   3.426   1.109  0.9093 -1.2512 -1.6249
 7274SOL     OW33280   1.166   0.393   6.557 -0.0821 -0.0491  0.1658
 7274SOL    HW133281   1.228   0.325   6.530  0.8720  0.6828  0.5307
 7274SOL    HW233282   1.214   0.421   6.635 -2.7782  1.4311  1.2706
 7275SOL     OW33283   3.329   3.059   4.697  0.0012  0.1429 -0.2812
 7275SOL    HW133284   3.323   3.009   4.779 -1.6034 -0.3138 -0.6725
 7275SOL    HW233285   3.274   3.003   4.642  0.5431  0.6361 -1.3261
 7276SOL     OW33286   2.128   4.371   2.090 -0.6633 -0.3077  0.1545
 7276SOL    HW133287   2.201   4.429   2.068 -0.3420 -0.8521 -0.2210
 7276SOL    HW233288   2.165   4.286   2.111  1.3172  1.2304  2.9608
 7277SOL     OW33289   0.490   0.413   5.080 -0.5680  0.1025 -0.3482
 7277SOL    HW133290   0.406   0.418   5.034  0.5349 -0.0286 -2.3865
 7277SOL    HW233291   0.510   0.507   5.079 -0.3252  0.0786  1.4530
 7278SOL     OW33292   0.365   1.782  14.733  0.0090 -0.4969  0.2046
 7278SOL    HW133293   0.316   1.846  14.682 -0.2716  1.1257  2.5494
 7278SOL    HW233294   0.362   1.831  14.814 -1.0816 -0.3307  0.0655
 7279SOL     OW33295   1.840   4.564   2.132  0.0631  0.1570  0.0225
 7279SOL    HW133296   1.762   4.529   2.088  1.2199 -0.6125 -1.4082
 7279SOL    HW233297   1.870   4.490   2.185 -3.0272 -0.7997  0.4325
 7280SOL     OW33298   1.001   4.546   2.313  0.1550  0.1222 -0.3510
 7280SOL    HW133299   0.944   4.579   2.243 -0.8933 -2.1627 -0.5853
 7280SOL    HW233300   1.012   4.453   2.292 -2.1833 -0.1211 -0.5416
 7281SOL     OW33301   2.100   0.229   9.637 -0.3100 -0.0544  0.1102
 7281SOL    HW133302   2.034   0.227   9.568 -1.6701  1.5816  1.3680
 7281SOL    HW233303   2.048   0.189   9.707  1.9231  1.8169  2.8387
 7282SOL     OW33304   0.303   1.614   2.153 -0.1968  0.1628  0.3001
 7282SOL    HW133305   0.275   1.576   2.069  0.1846  0.2534  0.1304
 7282SOL    HW233306   0.394   1.587   2.168  0.0947  0.1342 -1.4113
 7283SOL     OW33307   3.632   4.108  11.884 -0.0227  0.2076 -0.3242
 7283SOL    HW133308   3.560   4.148  11.932  1.6514  1.6976  0.9292
 7283SOL    HW233309   3.698   4.123  11.952  1.1162 -2.0124 -0.9314
 7284SOL     OW33310   0.860   4.197   7.207 -0.7397  0.5751  0.9063
 7284SOL    HW133311   0.954   4.182   7.216 -0.4427  1.0195 -1.2484
 7284SOL    HW233312   0.838   4.131   7.141  0.3552  0.1285  0.9826
 7285SOL     OW33313   1.761   3.266   4.806  0.5780 -0.1331 -0.2204
 7285SOL    HW133314   1.752   3.243   4.714 -0.4170 -1.4124  0.1960
 7285SOL    HW233315   1.768   3.181   4.848  1.0779  1.0711  2.1530
 7286SOL     OW33316   2.133   0.873   9.922  0.0653 -0.1956  0.3065
 7286SOL    HW133317   2.141   0.779   9.906  0.2369  0.3321 -2.7826
 7286SOL    HW233318   2.056   0.885   9.977 -0.0400  2.8259 -0.4589
 7287SOL     OW33319   0.751   2.828   8.893 -0.1029 -0.0220  0.7404
 7287SOL    HW133320   0.683   2.892   8.914  0.2223  0.3860  0.5622
 7287SOL    HW233321   0.824   2.887   8.914 -1.0479  0.8990  1.4108
 7288SOL     OW33322   3.243   2.219   9.660  0.1488 -0.3569  0.3152
 7288SOL    HW133323   3.205   2.305   9.681  3.1483  0.6925  1.4509
 7288SOL    HW233324   3.337   2.235   9.659 -0.1132  1.2524  0.5696
 7289SOL     OW33325   2.948   1.069   8.815  0.2280  0.1054  0.6974
 7289SOL    HW133326   2.899   1.085   8.896  0.9701  2.2884  0.7233
 7289SOL    HW233327   3.029   1.119   8.831  0.1165  0.5359 -0.0936
 7290SOL     OW33328   3.161   0.345   3.465 -0.1673  0.2468 -0.2490
 7290SOL    HW133329   3.243   0.393   3.474 -0.1163 -0.1334  1.2345
 7290SOL    HW233330   3.139   0.349   3.558  0.7817 -0.9700  0.0239
 7291SOL     OW33331   2.374   0.636   9.126 -0.9879 -0.4368 -0.1796
 7291SOL    HW133332   2.455   0.686   9.116 -0.1969 -1.6795 -0.0762
 7291SOL    HW233333   2.406   0.553   9.162  0.9585  0.3519 -0.0623
 7292SOL     OW33334   2.708   0.133  13.923 -0.0210 -0.2645 -0.9307
 7292SOL    HW133335   2.748   0.154  14.007  0.0058 -1.7587 -0.5785
 7292SOL    HW233336   2.685   0.041  13.927  1.4711 -0.5956 -0.0658
 7293SOL     OW33337   1.778   0.601  11.183 -0.0890  0.0255  0.6616
 7293SOL    HW133338   1.759   0.515  11.219  0.2633 -0.2826  0.1093
 7293SOL    HW233339   1.869   0.603  11.212  0.9133 -1.2813 -2.4210
 7294SOL     OW33340   1.205   3.351   2.311 -0.1867 -0.2832  0.2763
 7294SOL    HW133341   1.298   3.331   2.323 -0.5848 -1.4664  1.4053
 7294SOL    HW233342   1.181   3.378   2.400  1.0079 -0.4870  0.6529
 7295SOL     OW33343   0.807   1.480  15.290 -0.7867 -0.4117 -0.4501
 7295SOL    HW133344   0.840   1.545  15.351  0.5009 -0.6837 -0.8621
 7295SOL    HW233345   0.862   1.407  15.319 -0.9510 -0.9760 -1.5534
 7296SOL     OW33346   2.252   1.130   6.457  0.4447 -0.6398  0.3905
 7296SOL    HW133347   2.316   1.064   6.431 -0.1998 -1.0041 -0.2744
 7296SOL    HW233348   2.297   1.163   6.535  0.9125 -0.7756  0.1772
 7297SOL     OW33349   4.513   1.569   8.307  0.1208  0.0007  0.2024
 7297SOL    HW133350   4.494   1.533   8.221 -0.8410  0.7273  0.1039
 7297SOL    HW233351   4.519   1.485   8.353  1.1252  0.0273  0.1201
 7298SOL     OW33352   4.090   2.392  12.446 -0.3454 -0.6091 -0.0565
 7298SOL    HW133353   4.063   2.300  12.443 -1.7933 -0.2373  1.4735
 7298SOL    HW233354   4.047   2.433  12.521  1.2945 -1.3261  1.2743
 7299SOL     OW33355   1.781   0.971   9.030 -0.6875 -0.2046  0.0605
 7299SOL    HW133356   1.868   1.002   9.052 -0.2240 -0.9377 -0.7282
 7299SOL    HW233357   1.729   1.046   9.060 -1.4840 -1.3153  1.4264
 7300SOL     OW33358   0.192   2.890   3.076  0.0424  0.3230 -0.7027
 7300SOL    HW133359   0.206   2.983   3.093 -0.1386  0.2544 -0.1925
 7300SOL    HW233360   0.243   2.866   2.998  2.2390 -2.7420  1.6595
 7301SOL     OW33361   0.548   3.058  10.535 -0.3258  0.4662 -0.1279
 7301SOL    HW133362   0.540   3.060  10.631 -0.1310  1.9771 -0.1459
 7301SOL    HW233363   0.608   2.986  10.517  1.4450  1.9035  0.0525
 7302SOL     OW33364   1.841   1.295   8.983  0.1228 -0.0111  0.5069
 7302SOL    HW133365   1.882   1.379   9.002 -0.4995 -0.0419  1.9573
 7302SOL    HW233366   1.887   1.277   8.901 -2.2421 -1.3762 -0.5120
 7303SOL     OW33367   0.890   2.667   1.054 -0.0789 -0.3288 -0.8080
 7303SOL    HW133368   0.960   2.722   1.019  0.4219 -0.6528 -0.3049
 7303SOL    HW233369   0.947   2.619   1.113 -0.7974  0.3602  0.4481
 7304SOL     OW33370   2.087   2.181  17.013 -0.0711 -0.2618  0.1502
 7304SOL    HW133371   2.047   2.151  17.094 -1.4766 -0.2027 -0.5110
 7304SOL    HW233372   2.160   2.235  17.044 -1.2280  1.4142 -0.0192
 7305SOL     OW33373   1.972   0.769   0.754 -0.2486 -0.2217 -0.0183
 7305SOL    HW133374   1.879   0.791   0.751 -0.3251 -0.7111 -1.3624
 7305SOL    HW233375   2.007   0.849   0.715  2.7324 -1.7077 -0.3319
 7306SOL     OW33376   4.690   1.837   7.054 -0.1627 -0.3640 -0.0032
 7306SOL    HW133377   4.650   1.909   7.007  1.2034 -0.1001 -0.7556
 7306SOL    HW233378   4.641   1.828   7.136  1.6030  3.4811  1.4416
 7307SOL     OW33379   1.025   3.935  13.680 -0.4898 -0.5477  0.2777
 7307SOL    HW133380   1.034   3.935  13.775 -0.2418 -2.4308  0.2660
 7307SOL    HW233381   0.929   3.938  13.673 -0.5488 -2.9647  0.0366
 7308SOL     OW33382   0.368   3.981   5.582  0.3016  0.2380  0.3128
 7308SOL    HW133383   0.330   3.942   5.661  0.5771 -1.0665 -0.2072
 7308SOL    HW233384   0.460   3.990   5.608  0.7554 -0.1506 -1.1488
 7309SOL     OW33385   4.210   4.138   6.866 -0.5554 -0.1712  0.1452
 7309SOL    HW133386   4.219   4.043   6.872  0.9528 -0.0022  0.7076
 7309SOL    HW233387   4.115   4.148   6.867 -0.3787  1.5057  1.2424
 7310SOL     OW33388   3.685   1.862  10.123 -0.1432 -0.2245 -0.4976
 7310SOL    HW133389   3.603   1.909  10.140  0.8692  1.5828 -0.6665
 7310SOL    HW233390   3.653   1.775  10.147  0.1702 -0.0692  0.4794
 7311SOL     OW33391   2.070   3.994   6.575  0.3647 -0.4456  0.3200
 7311SOL    HW133392   2.099   4.030   6.659  1.7383 -2.2273  0.5984
 7311SOL    HW233393   1.993   4.047   6.553  0.7088 -0.3915 -0.7427
 7312SOL     OW33394   3.866   0.746   2.310 -0.0573 -0.1600 -0.6708
 7312SOL    HW133395   3.892   0.838   2.312 -0.8281  0.0591 -0.7101
 7312SOL    HW233396   3.873   0.717   2.401  1.7511 -0.0787 -0.7729
 7313SOL     OW33397   1.733   0.540   8.299  0.3233 -0.0472 -0.1055
 7313SOL    HW133398   1.800   0.509   8.360  0.8349 -0.2019 -0.7403
 7313SOL    HW233399   1.686   0.459   8.281 -1.0668  0.2653  2.2075
 7314SOL     OW33400   0.912   3.172  17.350 -0.5557 -0.1718  0.6092
 7314SOL    HW133401   0.826   3.130  17.361 -0.2807 -1.3688 -1.9043
 7314SOL    HW233402   0.943   3.158  17.440  1.2985  2.6618  0.4109
 7315SOL     OW33403   2.148   2.591   6.316  0.1487  0.0838 -0.1221
 7315SOL    HW133404   2.232   2.635   6.326 -0.3647  1.0990 -0.2763
 7315SOL    HW233405   2.106   2.661   6.266  0.4504  0.4374  0.1157
 7316SOL     OW33406   4.644   2.473   9.048  0.5221  0.5660 -0.6194
 7316SOL    HW133407   4.640   2.553   8.995 -2.0299  0.7508 -0.1545
 7316SOL    HW233408   4.596   2.500   9.126 -0.6755 -0.4338 -1.0189
 7317SOL     OW33409   4.351   2.352  13.911 -0.4202 -0.5212  0.2774
 7317SOL    HW133410   4.325   2.398  13.831 -1.5258 -0.8273  0.4501
 7317SOL    HW233411   4.427   2.399  13.945 -2.1322  0.7975  2.2834
 7318SOL     OW33412   3.443   0.605   8.810  0.1915  0.1974 -0.0065
 7318SOL    HW133413   3.529   0.606   8.853 -0.0486  0.5817  0.4735
 7318SOL    HW233414   3.436   0.695   8.778  1.5682  0.7532  1.2037
 7319SOL     OW33415   4.383   2.974   7.611 -0.9303  0.0677  0.3881
 7319SOL    HW133416   4.335   2.908   7.660  0.0674 -0.2008  1.0150
 7319SOL    HW233417   4.461   2.984   7.665 -1.5475  2.7983  0.7580
 7320SOL     OW33418   1.829   1.282   0.256 -0.2690  0.3738  0.0229
 7320SOL    HW133419   1.766   1.228   0.304  0.8081  0.8831  2.0287
 7320SOL    HW233420   1.881   1.307   0.333 -0.6475 -2.5619  1.2609
 7321SOL     OW33421   3.428   0.656   4.026 -0.0056 -0.7055  0.3603
 7321SOL    HW133422   3.423   0.567   3.991 -0.5084 -1.1339  1.5395
 7321SOL    HW233423   3.483   0.696   3.958 -1.2982  0.3656 -0.0585
 7322SOL     OW33424   3.661   4.377   8.813  0.2422 -0.0344 -0.2487
 7322SOL    HW133425   3.691   4.404   8.727  1.7382 -1.7089 -0.2643
 7322SOL    HW233426   3.566   4.375   8.806  0.2421  1.9499 -0.7338
 7323SOL     OW33427   3.805   2.896   5.809  0.4561  0.6655  0.2554
 7323SOL    HW133428   3.765   2.856   5.885  1.5246 -2.5034 -0.8668
 7323SOL    HW233429   3.824   2.825   5.748  0.5338 -0.4841  1.6421
 7324SOL     OW33430   1.535   2.676   4.511 -0.0540  0.3685  0.2571
 7324SOL    HW133431   1.533   2.756   4.563 -0.6151 -0.5417  1.6504
 7324SOL    HW233432   1.513   2.615   4.582  0.9458  0.3297  0.5345
 7325SOL     OW33433   3.544   2.624  17.094  0.3356  0.0438  0.2640
 7325SOL    HW133434   3.453   2.623  17.124  0.0818  0.9653 -0.4735
 7325SOL    HW233435   3.567   2.708  17.132  0.0797  0.2973 -0.1377
 7326SOL     OW33436   1.240   3.499   6.451  0.2423 -0.6511  0.6087
 7326SOL    HW133437   1.332   3.498   6.480 -0.3289  1.4834  2.5231
 7326SOL    HW233438   1.245   3.407   6.427 -1.3854 -0.6144  0.1327
 7327SOL     OW33439   2.542   0.638   2.870 -0.1107 -0.0141  0.3182
 7327SOL    HW133440   2.562   0.549   2.899  0.5122 -0.1948 -0.6709
 7327SOL    HW233441   2.449   0.624   2.854 -0.1511  0.7968 -0.2129
 7328SOL     OW33442   4.591   4.566   8.522  0.7446  0.4012  0.0756
 7328SOL    HW133443   4.522   4.538   8.582 -3.1216  2.9599 -3.2048
 7328SOL    HW233444   4.657   4.504   8.554 -0.9553 -0.9021  1.0487
 7329SOL     OW33445   4.261   1.791   1.486  0.1688 -0.6434  0.3369
 7329SOL    HW133446   4.247   1.832   1.401 -2.1269 -2.4814 -0.1751
 7329SOL    HW233447   4.266   1.863   1.549 -0.8320  2.5111 -3.2095
 7330SOL     OW33448   2.623   2.032  11.222  0.7130  0.6376 -0.2053
 7330SOL    HW133449   2.597   1.941  11.236  0.1270  0.9334  0.6497
 7330SOL    HW233450   2.591   2.051  11.134 -1.5604 -0.9482  0.2894
 7331SOL     OW33451   3.034   2.232   5.160  0.6693 -0.1440  0.0181
 7331SOL    HW133452   3.078   2.148   5.150  0.4250 -0.1743 -0.8558
 7331SOL    HW233453   2.949   2.210   5.123  0.7439  0.1387 -0.3215
 7332SOL     OW33454   3.113   2.492   8.941  0.2001  0.2158  0.5772
 7332SOL    HW133455   3.131   2.448   9.023 -1.5881 -0.3221  0.6704
 7332SOL    HW233456   3.201   2.516   8.910  0.2653  1.3526  1.6522
 7333SOL     OW33457   3.302   1.594   1.398  0.3045 -0.5927 -0.0922
 7333SOL    HW133458   3.277   1.526   1.460 -0.1347  0.5967  1.0173
 7333SOL    HW233459   3.395   1.596   1.420  0.1526 -1.6992  0.6235
 7334SOL     OW33460   0.276   2.845  14.530 -0.2839 -0.0831 -0.4491
 7334SOL    HW133461   0.311   2.768  14.575 -0.7038  1.1028  1.9056
 7334SOL    HW233462   0.225   2.885  14.601  0.9167 -0.3829  0.5956
 7335SOL     OW33463   3.158   1.324   8.761 -0.3910  0.3987 -0.0544
 7335SOL    HW133464   3.093   1.355   8.698 -0.4794  0.1454 -0.0887
 7335SOL    HW233465   3.163   1.403   8.814 -0.2260 -0.3870  1.0804
 7336SOL     OW33466   3.002   2.807  17.193 -0.2171 -0.2474  0.0835
 7336SOL    HW133467   3.051   2.761  17.126 -0.0743  1.2979 -0.8662
 7336SOL    HW233468   2.994   2.893  17.152  0.7590  0.4018  1.2551
 7337SOL     OW33469   3.283   4.570   2.940  0.3985 -0.7048 -0.0046
 7337SOL    HW133470   3.303   4.578   2.847 -0.5988 -1.0182 -0.2485
 7337SOL    HW233471   3.350   4.624   2.982  1.8988 -1.6031 -1.2652
 7338SOL     OW33472   1.991   4.409  11.904 -0.2157 -0.2410  0.0682
 7338SOL    HW133473   2.067   4.354  11.924  0.4415  1.3902  2.1278
 7338SOL    HW233474   2.035   4.474  11.849  0.7796 -1.5571 -0.7055
 7339SOL     OW33475   1.048   1.241   5.550 -0.6655  0.2391 -0.1625
 7339SOL    HW133476   0.979   1.175   5.539  0.0674 -0.7082  1.0454
 7339SOL    HW233477   1.020   1.288   5.629 -0.9115  1.2669 -0.8514
 7340SOL     OW33478   4.057   1.899   8.421 -0.8338  0.6406  0.0103
 7340SOL    HW133479   4.077   1.832   8.355 -1.0193  0.5385  0.0585
 7340SOL    HW233480   3.974   1.876   8.463 -1.1929 -0.8847 -1.5192
 7341SOL     OW33481   1.583   3.959   8.534  0.1655 -0.0213 -0.3380
 7341SOL    HW133482   1.528   3.943   8.611  0.8493 -1.2556 -0.0973
 7341SOL    HW233483   1.557   3.877   8.491  1.9139 -0.7012 -0.1033
 7342SOL     OW33484   1.512   2.698   0.813  0.4806  0.3577 -0.0238
 7342SOL    HW133485   1.589   2.755   0.806  0.2025  0.8062  0.5859
 7342SOL    HW233486   1.522   2.684   0.907 -0.3056 -1.6322 -0.2314
 7343SOL     OW33487   3.732   3.294   4.819  0.0647 -0.2984 -0.0423
 7343SOL    HW133488   3.695   3.206   4.816  0.5894 -0.4794 -1.0658
 7343SOL    HW233489   3.659   3.341   4.778  1.6642  1.4083 -0.8912
 7344SOL     OW33490   0.252   0.417   5.346  0.1412 -0.2204 -1.1722
 7344SOL    HW133491   0.261   0.490   5.285  0.7685  0.6033 -0.0956
 7344SOL    HW233492   0.309   0.349   5.312  0.5383 -0.2608 -0.4321
 7345SOL     OW33493   3.982   3.412  15.944 -0.1954  0.5458 -0.1528
 7345SOL    HW133494   4.035   3.333  15.951 -2.5021 -0.8670  1.1313
 7345SOL    HW233495   3.925   3.396  15.869  2.1333  0.3092 -1.8766
 7346SOL     OW33496   1.085   3.080   3.715 -0.0308  0.5362 -0.6419
 7346SOL    HW133497   1.097   3.174   3.702  0.0049  0.4606 -1.1650
 7346SOL    HW233498   0.996   3.071   3.750  0.0355 -2.8254 -1.3268
 7347SOL     OW33499   1.407   2.836   6.556 -0.8008 -0.6414  0.3242
 7347SOL    HW133500   1.451   2.863   6.637 -0.1121 -0.8923  0.0317
 7347SOL    HW233501   1.314   2.838   6.577 -0.5880  0.3079  1.2005
 7348SOL     OW33502   3.525   1.041   2.457 -0.4527  0.1827 -0.2813
 7348SOL    HW133503   3.539   0.947   2.463  0.0056  0.2583 -0.1534
 7348SOL    HW233504   3.513   1.055   2.551  0.3668  2.1881 -0.4665
 7349SOL     OW33505   0.853   4.200   0.326  0.6414  0.8207 -0.5828
 7349SOL    HW133506   0.918   4.252   0.374  1.1053  0.7660 -1.1595
 7349SOL    HW233507   0.907   4.132   0.287  0.4682  0.0697  0.4922
 7350SOL     OW33508   1.270   1.015   1.802  0.0611  0.1045 -0.8148
 7350SOL    HW133509   1.214   1.029   1.726 -1.0911 -2.4351 -0.4237
 7350SOL    HW233510   1.338   0.964   1.758  0.2477 -1.1518  0.9516
 7351SOL     OW33511   3.085   0.052   6.518 -0.3659  0.4541 -0.4907
 7351SOL    HW133512   3.035   0.027   6.595  0.2563 -1.1490 -0.6135
 7351SOL    HW233513   3.049   0.140   6.511  0.5569  0.7953 -0.9885
 7352SOL     OW33514   2.554   4.016  15.536  0.0334 -0.1885  0.1108
 7352SOL    HW133515   2.632   4.067  15.514  1.3785 -1.6871  1.3728
 7352SOL    HW233516   2.578   3.930  15.502  0.3926 -1.0160  2.4531
 7353SOL     OW33517   3.060   2.737   9.381 -0.7104 -0.4158 -0.8416
 7353SOL    HW133518   3.049   2.707   9.291 -0.0053 -0.0970 -1.0286
 7353SOL    HW233519   3.065   2.649   9.417 -0.0556 -0.7169 -1.6641
 7354SOL     OW33520   4.178   4.709   7.700  0.3845 -0.3904 -0.2235
 7354SOL    HW133521   4.154   4.616   7.707 -0.0835 -0.4250 -2.4649
 7354SOL    HW233522   4.143   0.002   7.613 -0.4868  0.5287  0.3217
 7355SOL     OW33523   4.056   0.799   0.102 -0.5647 -0.1287 -0.3967
 7355SOL    HW133524   4.043   0.891   0.122 -0.7491 -0.7222  2.1963
 7355SOL    HW233525   3.988   0.749   0.146 -0.0706 -1.6012 -1.3064
 7356SOL     OW33526   3.853   0.801   6.849 -0.2445  0.3658 -0.2678
 7356SOL    HW133527   3.797   0.817   6.925 -0.6241 -0.9379 -0.2785
 7356SOL    HW233528   3.896   0.722   6.882 -0.4686 -0.5801 -2.2240
 7357SOL     OW33529   1.086   3.604  14.013  0.2924 -0.2345 -0.1322
 7357SOL    HW133530   1.031   3.526  14.002 -0.1280 -0.0673  0.8324
 7357SOL    HW233531   1.138   3.578  14.089  0.0372  1.7125  0.7069
 7358SOL     OW33532   1.758   1.844  13.315 -0.7095  0.4549  0.1745
 7358SOL    HW133533   1.728   1.868  13.403 -1.2816 -1.1642  0.4260
 7358SOL    HW233534   1.839   1.800  13.342 -1.0161  0.1167  0.5516
 7359SOL     OW33535   2.965   2.430   6.150  0.0524  0.2396 -0.0999
 7359SOL    HW133536   2.943   2.480   6.229 -0.0340 -1.2171  0.7941
 7359SOL    HW233537   3.022   2.362   6.186 -4.0884 -2.9059  0.3649
 7360SOL     OW33538   4.084   3.655  10.615  0.6146 -0.1017  0.0907
 7360SOL    HW133539   4.132   3.678  10.695  1.9045  5.0248 -2.1250
 7360SOL    HW233540   4.139   3.696  10.549 -0.5474  0.4511 -0.5335
 7361SOL     OW33541   3.738   1.094  12.521 -0.0491  0.5531  0.3656
 7361SOL    HW133542   3.807   1.059  12.577  0.1244 -0.2361 -0.3404
 7361SOL    HW233543   3.699   1.169  12.567 -0.6352  1.0325 -0.9286
 7362SOL     OW33544   0.752   1.545  10.640 -0.3745 -0.4544 -0.4684
 7362SOL    HW133545   0.776   1.500  10.721  0.4670  2.7834  1.0494
 7362SOL    HW233546   0.657   1.560  10.642  0.0300  2.3617 -1.9511
 7363SOL     OW33547   3.781   1.098  14.054 -0.2167  0.1724 -0.1616
 7363SOL    HW133548   3.835   1.155  14.110 -1.8943  0.7350  0.8810
 7363SOL    HW233549   3.829   1.093  13.971  0.4905 -0.1789  0.2717
 7364SOL     OW33550   3.008   0.498  15.614  0.0244  0.6348  0.2166
 7364SOL    HW133551   3.089   0.538  15.643  0.2310  0.7623 -0.5384
 7364SOL    HW233552   2.988   0.547  15.534  2.7758 -0.9571 -1.4455
 7365SOL     OW33553   0.843   4.119   6.617  0.3050 -0.1617 -0.8840
 7365SOL    HW133554   0.926   4.087   6.582  0.5655 -1.4206  0.8673
 7365SOL    HW233555   0.797   4.035   6.618 -1.1706  0.6692 -0.0133
 7366SOL     OW33556   3.438   2.909   8.061  0.4114 -0.3999 -0.7175
 7366SOL    HW133557   3.399   2.834   8.105 -0.7739  1.1276  0.8491
 7366SOL    HW233558   3.416   2.896   7.969  0.1227  0.3702 -0.7530
 7367SOL     OW33559   4.308   2.996  12.705  0.1403  0.4200 -0.0374
 7367SOL    HW133560   4.225   3.003  12.752 -0.1950  0.9658 -0.7237
 7367SOL    HW233561   4.281   2.968  12.618  1.4277  1.4684 -0.7795
 7368SOL     OW33562   3.010   0.679   8.484  0.5906  0.1415  0.5873
 7368SOL    HW133563   3.022   0.761   8.533  0.7644  0.5493 -0.1207
 7368SOL    HW233564   3.081   0.697   8.422  0.1321  1.2694  0.3766
 7369SOL     OW33565   1.708   2.420   8.646  0.3601  0.5067  0.2682
 7369SOL    HW133566   1.686   2.512   8.631 -0.5318 -0.0823 -2.1154
 7369SOL    HW233567   1.682   2.420   8.738 -3.1564  1.9282 -0.7046
 7370SOL     OW33568   3.006   0.956  16.935  0.1773  0.1780 -0.1936
 7370SOL    HW133569   3.067   0.919  16.871  0.3280  1.4351 -0.7634
 7370SOL    HW233570   2.946   1.011  16.884  2.0381  2.5332  0.1560
 7371SOL     OW33571   1.681   2.923   3.381 -0.0570  0.0733  0.1091
 7371SOL    HW133572   1.634   2.873   3.448  0.3772 -1.6182 -0.8408
 7371SOL    HW233573   1.673   2.864   3.307 -1.2330  0.8183 -0.3446
 7372SOL     OW33574   3.520   0.674   6.391  0.2416 -0.2770  0.2444
 7372SOL    HW133575   3.426   0.693   6.395 -0.2061 -2.1044 -1.1542
 7372SOL    HW233576   3.561   0.760   6.400 -0.0834 -0.1143  0.1925
 7373SOL     OW33577   2.921   1.399   0.056 -0.1860 -0.3758 -0.0100
 7373SOL    HW133578   2.933   1.388  17.666  3.1988  2.5059  0.0502
 7373SOL    HW233579   2.969   1.479   0.080  2.3096 -3.0722  3.8772
 7374SOL     OW33580   0.979   1.160   2.668 -0.3047 -0.0654 -0.0221
 7374SOL    HW133581   0.966   1.066   2.652 -1.1061 -0.0384  0.5089
 7374SOL    HW233582   0.973   1.152   2.763 -2.2393  3.9802  0.1826
 7375SOL     OW33583   1.664   2.502   8.911 -0.0831  0.2212  0.1203
 7375SOL    HW133584   1.688   2.592   8.889 -0.7605  0.3989  0.1054
 7375SOL    HW233585   1.570   2.515   8.903 -0.5095 -3.1267 -0.3852
 7376SOL     OW33586   0.477   0.648   1.620 -0.2630 -0.1070  0.4679
 7376SOL    HW133587   0.519   0.597   1.551  0.6649 -0.2745  1.1611
 7376SOL    HW233588   0.483   0.732   1.575  0.0236  1.0256  2.6228
 7377SOL     OW33589   3.053   2.188  10.592 -0.3055  0.7166 -0.2651
 7377SOL    HW133590   3.133   2.238  10.604  0.4429 -0.7425  0.9240
 7377SOL    HW233591   3.003   2.237  10.527  1.9642  0.5769 -2.1194
 7378SOL     OW33592   2.769   4.681   9.038 -0.1710 -0.4702 -0.1698
 7378SOL    HW133593   2.764   4.702   9.131 -3.4943  2.4540 -1.0111
 7378SOL    HW233594   2.846   0.004   9.011 -0.9040  0.0414 -1.3238
 7379SOL     OW33595   3.490   0.019   3.085 -0.3900  0.5873 -0.2608
 7379SOL    HW133596   3.511   4.653   3.102  0.7592  0.5114 -2.0374
 7379SOL    HW233597   3.554   0.056   3.146 -1.9660  2.1374  0.4338
 7380SOL     OW33598   4.570   3.047  17.092  0.5269  0.0052 -0.1772
 7380SOL    HW133599   4.506   3.118  17.091  0.7238  0.1398 -2.1750
 7380SOL    HW233600   4.577   3.032  17.187 -0.9253 -2.5523 -0.4562
 7381SOL     OW33601   3.471   4.707   8.323  0.2450  0.0097  0.0121
 7381SOL    HW133602   3.544   4.684   8.265 -0.0654  1.2909 -0.8959
 7381SOL    HW233603   3.445   0.070   8.298  0.7879 -0.4574 -2.2189
 7382SOL     OW33604   4.038   4.453   7.722  0.5927 -0.1759  0.3959
 7382SOL    HW133605   4.024   4.373   7.671  0.7108 -1.0563  1.7287
 7382SOL    HW233606   3.991   4.511   7.662  0.3800 -1.7847 -0.9867
 7383SOL     OW33607   3.729   1.309   1.468 -0.0810 -0.1161 -0.9156
 7383SOL    HW133608   3.667   1.337   1.401 -1.1613  1.6617  0.8325
 7383SOL    HW233609   3.730   1.214   1.462  0.9994 -0.1564 -0.1643
 7384SOL     OW33610   4.380   0.019   5.815 -1.2663 -0.7740  0.1275
 7384SOL    HW133611   4.430   0.081   5.762 -0.9515  0.1152  1.4532
 7384SOL    HW233612   4.297   0.049   5.779  0.1261  0.6001 -1.9438
 7385SOL     OW33613   3.397   3.564   0.251 -0.2428 -0.1649 -0.1005
 7385SOL    HW133614   3.380   3.615   0.172  0.0023  0.4421  0.2391
 7385SOL    HW233615   3.493   3.565   0.242 -0.2977 -1.5715 -0.8824
 7386SOL     OW33616   3.542   3.887   2.912 -0.5029 -0.2869  0.1930
 7386SOL    HW133617   3.540   3.978   2.881 -1.0232 -0.1247  0.7031
 7386SOL    HW233618   3.610   3.849   2.856 -0.4852  0.2282 -0.1367
 7387SOL     OW33619   2.049   3.424  14.084 -0.2432  0.3187 -0.2646
 7387SOL    HW133620   2.025   3.481  14.012 -2.2068  1.3620  1.2114
 7387SOL    HW233621   2.131   3.387  14.052 -0.5575 -2.9887  2.7172
 7388SOL     OW33622   2.660   2.798  15.014  0.2229  0.5620  0.4878
 7388SOL    HW133623   2.609   2.743  14.955  1.9592  0.8710 -1.2780
 7388SOL    HW233624   2.657   2.745  15.094  2.6634  0.3720  0.4573
 7389SOL     OW33625   3.095   4.705   0.568 -0.3844  0.2574 -0.0057
 7389SOL    HW133626   3.104   4.663   0.653  0.8874  0.3766 -0.0838
 7389SOL    HW233627   3.186   4.721   0.543 -0.5142  0.5934 -0.2832
 7390SOL     OW33628   2.943   3.014   7.915 -0.2156 -0.4567  0.7817
 7390SOL    HW133629   2.993   3.054   7.986 -0.9018  0.5077  0.7224
 7390SOL    HW233630   2.907   3.087   7.865 -0.3915 -0.7608  0.4705
 7391SOL     OW33631   3.126   4.175   5.782 -0.3009 -0.0234 -0.0657
 7391SOL    HW133632   3.089   4.098   5.739 -0.9280 -0.9797  2.1860
 7391SOL    HW233633   3.097   4.243   5.721 -2.9527 -0.6987  0.4686
 7392SOL     OW33634   2.736   3.041  16.678 -0.5367 -0.1599  0.0759
 7392SOL    HW133635   2.674   3.068  16.610 -0.1973  1.6276  0.4780
 7392SOL    HW233636   2.741   3.125  16.723  2.2841 -0.8373  0.9899
 7393SOL     OW33637   0.120   0.992   1.706 -0.2752  0.5394 -0.1301
 7393SOL    HW133638   0.033   0.952   1.700  0.4951 -0.9806 -1.1647
 7393SOL    HW233639   0.179   0.921   1.730 -1.5064  1.2456  4.8908
 7394SOL     OW33640   0.990   0.463  13.557 -0.5573  0.4850 -0.5022
 7394SOL    HW133641   0.991   0.542  13.503  1.1478  0.8090  0.0200
 7394SOL    HW233642   0.970   0.508  13.640 -0.3137  2.0658 -1.3043
 7395SOL     OW33643   1.437   3.607   5.091  0.4478 -0.5265 -0.3590
 7395SOL    HW133644   1.348   3.596   5.124 -0.0058 -2.8257 -2.3094
 7395SOL    HW233645   1.472   3.685   5.132  0.6957  0.7348 -2.9500
 7396SOL     OW33646   1.880   0.034   6.686  0.1355 -0.4412 -0.5928
 7396SOL    HW133647   1.904   0.072   6.602  0.1300  2.0850  0.5404
 7396SOL    HW233648   1.816   4.697   6.655  2.1551 -2.7359 -0.0805
 7397SOL     OW33649   3.420   1.266   7.547  0.0884  0.1387 -0.2407
 7397SOL    HW133650   3.455   1.307   7.468  1.2483  0.7565  0.6012
 7397SOL    HW233651   3.445   1.175   7.528 -1.3183 -0.1974 -0.5257
 7398SOL     OW33652   1.040   1.966   7.175  0.5379 -0.1746  0.2855
 7398SOL    HW133653   1.068   1.950   7.265  2.0485 -2.0192 -0.5010
 7398SOL    HW233654   1.094   1.903   7.126 -2.9874 -1.2533 -2.2282
 7399SOL     OW33655   1.180   3.446   3.177  0.0674  0.0969  0.3608
 7399SOL    HW133656   1.204   3.518   3.118 -0.2684  0.1601  0.3053
 7399SOL    HW233657   1.245   3.385   3.142  0.9104  0.5179  1.1550
 7400SOL     OW33658   0.313   2.407  13.680 -0.0568 -0.5386 -0.0929
 7400SOL    HW133659   0.239   2.432  13.734 -0.8483  0.7284 -1.7684
 7400SOL    HW233660   0.276   2.351  13.611 -0.6168 -0.1297 -0.1235
 7401SOL     OW33661   4.195   1.221   9.551  0.2897  0.1298 -0.1061
 7401SOL    HW133662   4.216   1.303   9.594 -0.6213 -0.0830  0.7323
 7401SOL    HW233663   4.260   1.220   9.480 -0.8172 -2.8053 -1.0895
 7402SOL     OW33664   1.135   4.114   5.775 -0.2012  0.2925  0.1031
 7402SOL    HW133665   1.132   4.179   5.846  1.6471 -0.5886  0.9822
 7402SOL    HW233666   1.228   4.117   5.755  0.1514 -0.7529  1.5758
 7403SOL     OW33667   4.522   3.885   5.721  0.2991 -0.2886 -0.0604
 7403SOL    HW133668   4.439   3.872   5.767  0.0440  1.5021 -0.0129
 7403SOL    HW233669   4.495   3.855   5.634 -1.0200 -1.1568  0.6534
 7404SOL     OW33670   0.099   2.493  12.276 -0.3208 -0.0113 -0.1862
 7404SOL    HW133671   0.151   2.471  12.353 -0.0765 -0.1972 -0.4026
 7404SOL    HW233672   0.011   2.499  12.313 -0.4536 -0.1169 -0.4822
 7405SOL     OW33673   3.682   1.440   0.599 -0.5691  0.0961 -0.6366
 7405SOL    HW133674   3.644   1.477   0.679  0.4233  0.5551 -0.3785
 7405SOL    HW233675   3.769   1.425   0.635 -0.2009  0.8305 -1.2252
 7406SOL     OW33676   2.115   1.589  15.770 -0.1902  0.2214  0.0679
 7406SOL    HW133677   2.185   1.615  15.710  1.6322 -0.3285  1.9581
 7406SOL    HW233678   2.069   1.673  15.777 -1.4905 -0.4845  0.0198
 7407SOL     OW33679   3.734   2.845   2.691  0.2888 -0.2075 -0.1794
 7407SOL    HW133680   3.793   2.919   2.704 -4.0528  2.9767  1.5651
 7407SOL    HW233681   3.717   2.814   2.780  0.9079  2.2380  0.7922
 7408SOL     OW33682   1.184   2.181   9.214  0.3957  0.1209  0.2986
 7408SOL    HW133683   1.105   2.179   9.161  1.2734  1.7942 -1.0630
 7408SOL    HW233684   1.238   2.118   9.166  1.1151  2.9486 -2.6004
 7409SOL     OW33685   2.462   4.542  15.711  0.6589  0.9535  0.1773
 7409SOL    HW133686   2.537   4.487  15.687 -0.5148 -1.2714  1.5633
 7409SOL    HW233687   2.436   4.565  15.622  0.0856  2.8640  0.8415
 7410SOL     OW33688   0.406   3.970  17.094 -0.0968  0.1038  0.4765
 7410SOL    HW133689   0.324   3.931  17.064  0.5123  0.8903 -2.2533
 7410SOL    HW233690   0.454   3.888  17.095  0.9936  0.7023 -2.2098
 7411SOL     OW33691   4.463   1.685   0.048 -0.0693  0.2330 -0.5016
 7411SOL    HW133692   4.466   1.602   0.096 -2.3497 -0.5514 -1.6683
 7411SOL    HW233693   4.555   1.708   0.042  0.2078 -0.6814  0.3067
 7412SOL     OW33694   2.771   2.840   6.327 -0.4936 -0.4981  0.3994
 7412SOL    HW133695   2.688   2.794   6.310 -0.7035  0.5506 -1.4701
 7412SOL    HW233696   2.824   2.762   6.344 -0.1863  0.4624  3.7558
 7413SOL     OW33697   1.969   0.478   8.787  0.3093  0.2245  0.4702
 7413SOL    HW133698   1.958   0.385   8.808  1.4307 -0.1047 -0.3880
 7413SOL    HW233699   1.914   0.525   8.849 -0.9089  1.9694 -1.9457
 7414SOL     OW33700   3.866   3.373   0.128  0.6371 -0.2389 -0.2250
 7414SOL    HW133701   3.876   3.332   0.042  1.1864 -0.9314  0.1735
 7414SOL    HW233702   3.960   3.383   0.137  0.4588  0.9793  0.3122
 7415SOL     OW33703   1.554   1.054   3.710 -0.4703  0.6659 -0.5021
 7415SOL    HW133704   1.498   1.079   3.784  0.0628  1.2252 -0.2813
 7415SOL    HW233705   1.525   1.124   3.651 -2.6978 -0.7469 -1.0755
 7416SOL     OW33706   2.448   0.243   6.948 -0.4957  0.0849 -0.3436
 7416SOL    HW133707   2.420   0.292   7.025  0.8891 -0.0141  0.2285
 7416SOL    HW233708   2.504   0.184   6.998 -2.4035  0.9991  2.8053
 7417SOL     OW33709   4.420   2.644   6.977 -0.3667 -0.0672  0.0729
 7417SOL    HW133710   4.415   2.639   6.882  0.5284 -0.8517  0.0683
 7417SOL    HW233711   4.515   2.642   6.993 -0.4759 -0.0155  0.7216
 7418SOL     OW33712   1.899   4.217   8.125  0.0596 -0.2293 -0.4958
 7418SOL    HW133713   1.908   4.145   8.187  0.5520 -1.1260 -1.6079
 7418SOL    HW233714   1.912   4.173   8.041  1.5746  0.1985 -0.5008
 7419SOL     OW33715   1.293   2.475   5.431 -0.6351  0.1641  0.1799
 7419SOL    HW133716   1.228   2.520   5.484 -2.0243 -0.8865 -0.6470
 7419SOL    HW233717   1.356   2.447   5.498  0.1565 -5.1994 -2.7966
 7420SOL     OW33718   2.754   2.830   1.236 -0.2873 -0.2122  0.4737
 7420SOL    HW133719   2.682   2.769   1.249 -0.1287 -0.7401 -1.1401
 7420SOL    HW233720   2.824   2.771   1.263 -0.4362 -1.1297 -1.1612
 7421SOL     OW33721   2.700   1.002   5.856 -0.0593 -0.8024 -0.4308
 7421SOL    HW133722   2.734   1.034   5.939  1.1493  0.4050 -1.4046
 7421SOL    HW233723   2.737   1.074   5.806  1.5973  0.0053  1.9710
 7422SOL     OW33724   3.730   4.267   3.728  0.7519 -0.2027  0.2529
 7422SOL    HW133725   3.749   4.176   3.754  0.1399 -0.2371  0.5926
 7422SOL    HW233726   3.753   4.253   3.636  1.7837  0.9661  0.3437
 7423SOL     OW33727   2.391   0.341   5.163 -0.0173  1.0648  0.2247
 7423SOL    HW133728   2.471   0.345   5.216  0.2765 -0.3361 -0.1145
 7423SOL    HW233729   2.433   0.326   5.079  0.0220  1.5482  0.1615
 7424SOL     OW33730   2.714   0.256   2.272 -0.2657  0.4503  0.3043
 7424SOL    HW133731   2.723   0.251   2.367 -0.6880  1.0451  0.3738
 7424SOL    HW233732   2.743   0.175   2.231 -3.6167  0.3777 -1.9094
 7425SOL     OW33733   0.219   3.699   7.141 -0.2052  0.5960  0.0394
 7425SOL    HW133734   0.198   3.783   7.100 -0.0534  1.6704  2.1400
 7425SOL    HW233735   0.156   3.646   7.091  0.5373 -2.5596  2.5129
 7426SOL     OW33736   4.324   3.053   5.857  0.2908  0.2051 -0.2299
 7426SOL    HW133737   4.376   3.036   5.935 -0.2475  0.7667  0.2433
 7426SOL    HW233738   4.326   3.148   5.856 -0.8328  0.2318  0.7288
 7427SOL     OW33739   2.051   1.326   2.641  0.3080 -0.3437  0.3038
 7427SOL    HW133740   1.959   1.323   2.666  0.1655 -0.4041 -0.2207
 7427SOL    HW233741   2.062   1.413   2.602 -1.6379 -0.0351  0.4859
 7428SOL     OW33742   2.209   3.710   5.989 -0.2691 -0.3117  0.1497
 7428SOL    HW133743   2.286   3.716   6.046  0.8777  1.9283 -1.6165
 7428SOL    HW233744   2.233   3.631   5.940  1.4737  0.7385 -0.6820
 7429SOL     OW33745   2.000   3.190   9.833  0.0152  0.1978  0.5465
 7429SOL    HW133746   2.042   3.215   9.751 -1.4279 -2.3830 -1.0005
 7429SOL    HW233747   1.956   3.271   9.858  1.7403  0.7804  1.6713
 7430SOL     OW33748   1.898   0.588  14.962  0.2680 -0.1311 -0.1020
 7430SOL    HW133749   1.803   0.596  14.953 -0.1093 -1.4448  2.6187
 7430SOL    HW233750   1.899   0.515  15.024 -0.3173  0.5849  0.7522
 7431SOL     OW33751   4.192   0.512   8.534  0.0015 -0.5916 -0.7333
 7431SOL    HW133752   4.258   0.550   8.593  0.5093 -0.2344 -1.5263
 7431SOL    HW233753   4.235   0.531   8.450  0.1746 -1.0395 -0.7445
 7432SOL     OW33754   1.828   1.693   8.058 -0.2287 -0.1130 -0.2255
 7432SOL    HW133755   1.830   1.611   8.108  0.4262 -0.8159 -1.4070
 7432SOL    HW233756   1.921   1.714   8.055 -0.3804  0.7960  1.4634
 7433SOL     OW33757   1.227   4.076   9.580  0.2755  0.4379  0.1984
 7433SOL    HW133758   1.218   4.132   9.657  0.3292 -0.5477  0.9185
 7433SOL    HW233759   1.277   3.999   9.608  1.2413  0.6691 -0.8806
 7434SOL     OW33760   2.729   0.081   3.486 -0.0863 -0.5737  0.0846
 7434SOL    HW133761   2.747   0.113   3.397 -2.3880 -0.6067 -0.4069
 7434SOL    HW233762   2.699   4.717   3.471  2.0550 -1.4265  0.9547
 7435SOL     OW33763   3.345   3.817   1.971  0.1094  0.0947 -0.5588
 7435SOL    HW133764   3.328   3.778   1.886 -0.3065 -1.5089  0.2605
 7435SOL    HW233765   3.272   3.775   2.015  2.1378 -3.1661 -0.3322
 7436SOL     OW33766   2.903   3.795   3.012 -0.2831 -0.2755 -0.0049
 7436SOL    HW133767   2.997   3.777   3.005 -0.4042 -0.4396 -1.3251
 7436SOL    HW233768   2.907   3.826   3.102  3.4539  0.3177 -0.3697
 7437SOL     OW33769   3.737   2.114   6.260 -0.6063 -0.8318  0.0707
 7437SOL    HW133770   3.659   2.081   6.304 -2.0431  0.1224 -1.7980
 7437SOL    HW233771   3.700   2.191   6.217  0.1663 -1.0382 -0.9766
 7438SOL     OW33772   1.113   3.562  13.308 -0.4135 -0.5089 -0.1468
 7438SOL    HW133773   1.094   3.496  13.241  0.4706  0.4404 -1.3263
 7438SOL    HW233774   1.042   3.626  13.305 -0.2125 -0.2650  0.2936
 7439SOL     OW33775   3.494   1.571   7.613  1.1619 -0.2613 -0.4984
 7439SOL    HW133776   3.440   1.496   7.637 -1.6848  2.1669  0.6943
 7439SOL    HW233777   3.508   1.617   7.696 -1.7162 -0.2888 -0.0180
 7440SOL     OW33778   0.937   0.045  17.063  0.3482  0.5057 -0.3055
 7440SOL    HW133779   0.951   4.692  17.116 -0.8932 -0.3815 -1.2881
 7440SOL    HW233780   0.933   0.113  17.130 -1.6497  0.7855 -0.7097
 7441SOL     OW33781   0.355   4.152  13.383  0.3058  0.2198  0.5870
 7441SOL    HW133782   0.325   4.239  13.355 -0.5922 -0.5660 -0.8613
 7441SOL    HW233783   0.401   4.120  13.306 -1.2097 -1.0312  0.2298
 7442SOL     OW33784   0.029   0.599   6.134 -0.5120 -0.3105 -0.1457
 7442SOL    HW133785   4.712   0.660   6.075 -1.1803  0.2285  0.9042
 7442SOL    HW233786   0.107   0.577   6.083 -1.0144 -0.1933 -0.9711
 7443SOL     OW33787   2.402   2.421   9.105  0.0296 -0.4796 -0.2330
 7443SOL    HW133788   2.413   2.342   9.158 -2.6561 -2.1507 -2.1314
 7443SOL    HW233789   2.462   2.479   9.151 -0.7449  1.6945 -1.9537
 7444SOL     OW33790   4.372   2.133  13.028  0.8473  0.3967 -0.6138
 7444SOL    HW133791   4.278   2.147  13.043  0.5842  0.1682 -2.0128
 7444SOL    HW233792   4.406   2.126  13.117 -1.8467 -1.4571  0.2772
 7445SOL     OW33793   1.686   1.067  15.240  0.5509  0.2997 -0.1824
 7445SOL    HW133794   1.648   1.148  15.274 -2.1465 -0.7273 -0.7036
 7445SOL    HW233795   1.623   1.045  15.171  2.1575  0.8058 -1.8132
 7446SOL     OW33796   2.215   2.315   4.734 -0.0649  0.1531 -0.1569
 7446SOL    HW133797   2.144   2.273   4.684  0.8498 -1.5290 -0.0469
 7446SOL    HW233798   2.266   2.236   4.753 -1.1488 -0.5889 -0.3250
 7447SOL     OW33799   3.945   0.306   3.136 -0.3674  0.4336  0.0822
 7447SOL    HW133800   3.954   0.385   3.189  0.6593  1.5152 -1.7096
 7447SOL    HW233801   4.037   0.282   3.122 -0.1680  1.2667 -0.0047
 7448SOL     OW33802   2.853   1.487   1.554  0.3582 -0.2729 -0.1561
 7448SOL    HW133803   2.803   1.457   1.479 -1.8645 -1.8603  1.9562
 7448SOL    HW233804   2.787   1.497   1.623  1.7538  0.4266  1.0934
 7449SOL     OW33805   4.490   3.079  12.866 -0.5661  0.1189 -0.3258
 7449SOL    HW133806   4.480   3.016  12.937  0.4837  0.5994  0.2416
 7449SOL    HW233807   4.443   3.036  12.794 -0.5832  0.4234 -0.4989
 7450SOL     OW33808   2.790   4.308   0.690  0.1057 -0.2116 -0.0382
 7450SOL    HW133809   2.829   4.380   0.641 -0.4448 -2.4385 -3.7117
 7450SOL    HW233810   2.864   4.277   0.743  0.9013 -0.2160 -1.1626
 7451SOL     OW33811   0.264   2.353  16.957  0.2862 -0.1227 -0.0003
 7451SOL    HW133812   0.270   2.402  16.875 -0.0190 -1.3796 -0.7750
 7451SOL    HW233813   0.346   2.304  16.955  1.4051  1.7828 -1.1018
 7452SOL     OW33814   3.640   1.726   8.160 -0.0999 -0.5947 -0.4453
 7452SOL    HW133815   3.545   1.742   8.157  0.0719  1.1013  3.1053
 7452SOL    HW233816   3.676   1.812   8.138 -1.7630  0.3066  0.3484
 7453SOL     OW33817   0.606   1.279   7.959 -0.3885 -0.0606 -0.1095
 7453SOL    HW133818   0.514   1.296   7.979 -0.8184 -1.1926 -1.1458
 7453SOL    HW233819   0.633   1.207   8.016  0.7424  1.2214  0.9890
 7454SOL     OW33820   1.267   1.542   7.496  0.2382 -0.0482 -0.5458
 7454SOL    HW133821   1.272   1.596   7.417  1.4406  0.8993  0.1812
 7454SOL    HW233822   1.277   1.456   7.456 -1.3295 -0.0421 -0.9535
 7455SOL     OW33823   1.529   0.124   2.709 -0.3419  0.2577  0.5047
 7455SOL    HW133824   1.439   0.092   2.701 -0.5624  1.5830 -2.3583
 7455SOL    HW233825   1.513   0.207   2.754 -0.7515  0.4337  0.0318
 7456SOL     OW33826   4.650   2.621   6.541  0.0981 -0.4613 -0.0420
 7456SOL    HW133827   4.573   2.567   6.552  0.7687 -1.4861 -0.3711
 7456SOL    HW233828   4.661   2.627   6.446 -1.9939  1.0599 -0.1815
 7457SOL     OW33829   2.596   3.525   1.235  0.2765  0.0498  0.5820
 7457SOL    HW133830   2.629   3.540   1.147 -0.9354  2.0850  0.4758
 7457SOL    HW233831   2.653   3.450   1.254  0.7354 -0.5342 -3.1950
 7458SOL     OW33832   4.263   4.085   5.775 -0.5373  0.2604  0.9418
 7458SOL    HW133833   4.245   4.006   5.827 -0.1932 -0.2375  0.3002
 7458SOL    HW233834   4.262   4.154   5.842  0.0966  0.5887  0.6152
 7459SOL     OW33835   1.114   3.319  11.365 -0.2282 -0.0004 -0.7554
 7459SOL    HW133836   1.070   3.327  11.281 -1.3826  0.9960 -0.0581
 7459SOL    HW233837   1.142   3.411  11.372 -0.0967 -0.2780  2.5127
 7460SOL     OW33838   2.572   2.882   2.069  0.0240 -0.7670  0.5776
 7460SOL    HW133839   2.536   2.900   1.982  1.2077  1.6184  0.5782
 7460SOL    HW233840   2.520   2.805   2.092 -1.6794  0.0005 -0.7218
 7461SOL     OW33841   4.665   3.881   4.867  0.0788  0.1755  0.7424
 7461SOL    HW133842   0.018   3.925   4.897  0.7793 -0.8938  0.4974
 7461SOL    HW233843   4.644   3.831   4.946 -2.2543 -0.9730 -0.5880
 7462SOL     OW33844   1.206   4.637   6.731  0.1425 -0.7235  0.2284
 7462SOL    HW133845   1.278   4.700   6.735 -1.4544  1.1299 -0.4207
 7462SOL    HW233846   1.128   4.693   6.730  0.8214  0.2089 -0.4678
 7463SOL     OW33847   4.191   3.373  16.908 -0.3031 -0.3588  0.1268
 7463SOL    HW133848   4.167   3.419  16.989  0.3337 -1.3090  0.8493
 7463SOL    HW233849   4.239   3.297  16.943 -0.6085  0.0448  1.4284
 7464SOL     OW33850   3.440   2.422   0.776  0.1361  0.1537 -0.2950
 7464SOL    HW133851   3.372   2.373   0.824  0.3767 -0.0852 -0.1973
 7464SOL    HW233852   3.481   2.358   0.718 -1.9728 -0.1901 -1.4404
 7465SOL     OW33853   0.387   0.190   4.695  0.0430 -0.3018  0.4339
 7465SOL    HW133854   0.430   0.190   4.781  2.1623  1.1449 -0.6209
 7465SOL    HW233855   0.311   0.135   4.713 -0.1184 -0.2453 -0.0693
 7466SOL     OW33856   2.565   4.491   5.273  0.2366  0.3561 -0.8669
 7466SOL    HW133857   2.570   4.524   5.183  2.6953 -0.0547 -0.8731
 7466SOL    HW233858   2.570   4.578   5.312  0.3563  0.1271 -0.3797
 7467SOL     OW33859   2.716   3.938   1.671  0.1522  0.6456  0.0018
 7467SOL    HW133860   2.752   3.891   1.745  1.4941 -0.1777 -1.1697
 7467SOL    HW233861   2.660   4.007   1.707 -0.1094 -0.0134  0.8535
 7468SOL     OW33862   2.611   2.461  11.882 -0.0897  0.4000  0.4391
 7468SOL    HW133863   2.673   2.533  11.893  0.5764 -0.0205 -0.5206
 7468SOL    HW233864   2.552   2.487  11.812 -0.5696  1.6965  1.3139
 7469SOL     OW33865   0.875   1.337   7.217 -0.4508 -0.3076 -0.2265
 7469SOL    HW133866   0.930   1.261   7.237 -1.1070 -0.8295 -0.3750
 7469SOL    HW233867   0.874   1.324   7.123 -1.8756 -0.7480 -0.1474
 7470SOL     OW33868   0.686   1.074   2.302 -0.2519  0.0361 -0.0152
 7470SOL    HW133869   0.686   1.128   2.380 -0.5826 -1.8683  1.3040
 7470SOL    HW233870   0.615   1.014   2.325 -1.1988  1.1211 -0.1441
 7471SOL     OW33871   2.790   3.928   8.875  0.4854  0.2615 -0.5968
 7471SOL    HW133872   2.779   3.869   8.950  0.5297 -0.9477 -1.5352
 7471SOL    HW233873   2.884   3.942   8.872  0.6952 -0.8216  0.8281
 7472SOL     OW33874   3.420   3.094   6.946  0.2472  0.1406 -0.1538
 7472SOL    HW133875   3.328   3.073   6.932  0.1260  0.0980  0.7374
 7472SOL    HW233876   3.436   3.052   7.030  1.9257 -1.0145 -1.0433
 7473SOL     OW33877   0.203   1.696   7.573  0.4942 -0.1715 -0.1272
 7473SOL    HW133878   0.173   1.770   7.627  1.8920 -0.5845  1.2305
 7473SOL    HW233879   0.160   1.627   7.623 -0.5027 -0.8904 -1.9980
 7474SOL     OW33880   0.480   3.540   6.962  0.2443  0.5327  0.2115
 7474SOL    HW133881   0.560   3.531   6.910 -0.5265 -0.9679 -0.7102
 7474SOL    HW233882   0.422   3.566   6.891  0.7616  1.3295  0.0784
 7475SOL     OW33883   2.956   0.795   4.047 -0.0893 -0.1458 -0.9638
 7475SOL    HW133884   2.876   0.785   3.994 -0.5482  1.2767 -0.5206
 7475SOL    HW233885   3.028   0.786   3.985 -0.4183  1.2487 -1.5460
 7476SOL     OW33886   1.237   4.628   5.070  0.1572  0.3503 -0.0019
 7476SOL    HW133887   1.201   4.687   5.004 -0.8687 -0.1611  0.1025
 7476SOL    HW233888   1.253   4.688   5.142 -1.0458 -0.1110  0.6518
 7477SOL     OW33889   4.411   4.618   8.056 -0.4516 -0.6416 -0.7244
 7477SOL    HW133890   4.347   4.624   8.127  0.3430  1.9951 -0.2529
 7477SOL    HW233891   4.350   4.598   7.985 -2.1074 -3.8068  1.5755
 7478SOL     OW33892   3.539   3.989   6.691  0.4766  0.2071  0.1953
 7478SOL    HW133893   3.480   3.913   6.691 -0.1974  0.7231 -0.0573
 7478SOL    HW233894   3.534   4.004   6.597  0.7212  0.7780  0.2769
 7479SOL     OW33895   0.111   4.246   3.921  0.1552  0.0715  0.1281
 7479SOL    HW133896   0.136   4.244   3.829  0.0491 -1.6827  0.1375
 7479SOL    HW233897   0.199   4.232   3.957 -0.5423 -0.2328  1.7042
 7480SOL     OW33898   1.112   2.765  11.106 -0.3081  0.3082  0.2578
 7480SOL    HW133899   1.165   2.743  11.182 -0.2071 -0.9074 -0.1635
 7480SOL    HW233900   1.031   2.719  11.126  0.3320 -0.4736  1.0540
 7481SOL     OW33901   4.071   2.921   8.199  0.2998 -0.5637  0.0229
 7481SOL    HW133902   4.073   2.843   8.256 -1.5050 -0.4427  0.2712
 7481SOL    HW233903   4.126   2.978   8.252  0.4922 -1.0239  0.3270
 7482SOL     OW33904   3.789   0.565   7.748 -0.5972 -0.0494  0.1570
 7482SOL    HW133905   3.833   0.539   7.667  1.4148 -1.8965  1.8335
 7482SOL    HW233906   3.727   0.495   7.767 -1.4832  0.5728 -0.4059
 7483SOL     OW33907   2.783   3.164   8.339 -0.0052  0.0543 -0.1021
 7483SOL    HW133908   2.851   3.172   8.406  0.5044 -1.5335 -0.4162
 7483SOL    HW233909   2.758   3.075   8.364 -1.1933  1.3594  3.3805
 7484SOL     OW33910   0.332   4.704   3.127 -0.3465  0.4478  0.0462
 7484SOL    HW133911   0.299   0.050   3.073 -1.2127 -0.8203 -1.1252
 7484SOL    HW233912   0.402   4.676   3.068  0.2021 -2.3596  2.0085
 7485SOL     OW33913   0.886   3.862   3.011  0.2521  0.0573 -0.2150
 7485SOL    HW133914   0.970   3.903   3.033 -0.3138  0.7089  0.7607
 7485SOL    HW233915   0.856   3.822   3.092 -1.0869 -0.4335 -0.9510
 7486SOL     OW33916   1.382   0.627   4.626  0.1777  0.1258  0.2598
 7486SOL    HW133917   1.347   0.614   4.714  1.5045 -2.2220  0.4324
 7486SOL    HW233918   1.475   0.606   4.622  0.1881  0.3370 -0.6942
 7487SOL     OW33919   0.032   2.584   9.656  0.1595  0.7504 -0.1758
 7487SOL    HW133920   0.065   2.513   9.712 -0.2251  0.9705  0.3304
 7487SOL    HW233921   0.043   2.658   9.715  0.4992  1.3544 -1.0008
 7488SOL     OW33922   4.717   0.293  14.699  0.2918 -0.0647 -0.0566
 7488SOL    HW133923   4.700   0.372  14.751 -1.6548 -1.6116  1.6747
 7488SOL    HW233924   0.087   0.292  14.697  0.2970  0.4570 -0.0995
 7489SOL     OW33925   1.450   1.850   7.272  0.0886 -0.4156 -0.4660
 7489SOL    HW133926   1.527   1.800   7.243  0.6271 -1.6884  3.0135
 7489SOL    HW233927   1.492   1.912   7.331 -0.6087 -1.1726  0.8468
 7490SOL     OW33928   0.063   2.658   5.824  0.4043  0.4537 -0.3231
 7490SOL    HW133929   0.023   2.607   5.754  3.9153  1.1534 -2.8055
 7490SOL    HW233930   0.146   2.682   5.785 -0.3019 -0.9177 -2.6835
 7491SOL     OW33931   1.838   0.477   1.950 -0.0310 -0.0721 -0.0422
 7491SOL    HW133932   1.758   0.506   1.995 -0.3529 -0.1018 -0.5932
 7491SOL    HW233933   1.903   0.493   2.018 -1.2624 -0.1400  1.1479
 7492SOL     OW33934   1.768   0.478   7.991 -0.1177 -0.1527  0.1121
 7492SOL    HW133935   1.740   0.389   8.011 -0.2249 -0.5286 -1.6890
 7492SOL    HW233936   1.692   0.532   8.013  0.2233 -0.0045  0.9307
 7493SOL     OW33937   2.471   2.187   1.182 -0.3103 -0.1743  0.0568
 7493SOL    HW133938   2.434   2.099   1.186  0.1005 -0.3153  0.8453
 7493SOL    HW233939   2.518   2.182   1.266 -0.6875  0.8271  0.3330
 7494SOL     OW33940   2.070   0.242  11.359  0.0107 -0.0772  0.0310
 7494SOL    HW133941   2.071   0.332  11.393  1.6356 -0.1157  0.1053
 7494SOL    HW233942   1.992   0.196  11.390 -0.3967  0.7822  0.3153
 7495SOL     OW33943   4.408   0.699   7.837  0.2586  0.2517  0.2561
 7495SOL    HW133944   4.446   0.636   7.899 -1.3103 -0.8572  0.0930
 7495SOL    HW233945   4.480   0.749   7.798 -0.6567 -0.7990 -2.8087
 7496SOL     OW33946   1.786   2.776  17.091 -0.0331 -0.3482  0.4020
 7496SOL    HW133947   1.847   2.760  17.163  0.1890 -0.6924  0.1351
 7496SOL    HW233948   1.832   2.850  17.051 -1.1045 -0.1015 -0.3922
 7497SOL     OW33949   0.222   4.501   5.028 -0.3169 -0.0199  0.3548
 7497SOL    HW133950   0.237   4.590   5.058  2.7315 -1.3084  2.6267
 7497SOL    HW233951   0.311   4.479   5.001 -0.2513  0.7336 -0.0235
 7498SOL     OW33952   3.066   4.274   6.828 -0.0878  0.3899  0.4116
 7498SOL    HW133953   2.987   4.326   6.840 -0.4727 -0.2231  0.4981
 7498SOL    HW233954   3.127   4.348   6.819  0.5730 -0.1096  0.8083
 7499SOL     OW33955   4.442   3.663   3.504 -0.0961  0.1373  0.3247
 7499SOL    HW133956   4.359   3.621   3.526  0.2147 -0.4697  0.3230
 7499SOL    HW233957   4.483   3.671   3.590  0.4583  1.2451 -0.0350
 7500SOL     OW33958   2.719   3.427  10.890 -0.2847 -0.0970  0.6928
 7500SOL    HW133959   2.634   3.383  10.888 -0.3033 -0.0043 -0.8946
 7500SOL    HW233960   2.755   3.368  10.956  0.2699 -1.0464 -0.4492
 7501SOL     OW33961   2.295   2.683  12.942 -0.3529  0.1646  0.4719
 7501SOL    HW133962   2.242   2.762  12.932  1.0596  0.9028 -1.1770
 7501SOL    HW233963   2.284   2.670  13.037 -1.0301 -0.3323  0.3286
 7502SOL     OW33964   3.864   1.458  10.066  0.2531 -0.4775 -0.1851
 7502SOL    HW133965   3.831   1.506   9.990 -2.1209 -1.6325  0.1186
 7502SOL    HW233966   3.851   1.519  10.139  0.1660 -2.3726  1.3696
 7503SOL     OW33967   0.239   3.292   6.262 -0.1131 -0.2066  0.3157
 7503SOL    HW133968   0.160   3.252   6.300  0.8704 -1.7904  0.7310
 7503SOL    HW233969   0.208   3.307   6.173 -1.0962 -0.5825  0.5941
 7504SOL     OW33970   4.336   0.212  14.482 -0.1947  0.0974  0.5633
 7504SOL    HW133971   4.410   0.264  14.514  0.0941  0.5821 -0.8667
 7504SOL    HW233972   4.374   0.155  14.415 -0.2167 -1.9759  2.3209
 7505SOL     OW33973   3.714   2.287   1.344 -0.5219  0.1321  0.2647
 7505SOL    HW133974   3.657   2.275   1.420  0.9910 -4.0622  0.7301
 7505SOL    HW233975   3.705   2.378   1.315 -1.5509  0.2223  0.8856
 7506SOL     OW33976   1.011   4.383   0.500  0.1665  0.2033 -0.3604
 7506SOL    HW133977   1.077   4.427   0.553 -0.5844  1.1943 -0.2554
 7506SOL    HW233978   0.936   4.376   0.559  0.5738 -0.2739  0.0995
 7507SOL     OW33979   2.523   1.280  12.935  0.0895  0.2664  0.4984
 7507SOL    HW133980   2.474   1.357  12.908 -1.9513 -1.4335 -0.6884
 7507SOL    HW233981   2.595   1.302  12.877  0.0162  0.0097  0.3094
 7508SOL     OW33982   0.930   0.680   5.289  0.0781  0.1806  0.2326
 7508SOL    HW133983   0.965   0.692   5.201 -2.5701  0.7952 -0.7138
 7508SOL    HW233984   0.873   0.607   5.264  0.1191  0.4415 -0.5888
 7509SOL     OW33985   2.866   3.110  16.085 -0.0896  0.4572  0.4198
 7509SOL    HW133986   2.811   3.160  16.024  1.9260  2.3353  0.1254
 7509SOL    HW233987   2.950   3.120  16.039  0.9334 -1.7071  1.8300
 7510SOL     OW33988   2.015   4.490  11.258 -0.3328 -0.2416 -0.3555
 7510SOL    HW133989   2.017   4.581  11.229 -0.5776 -0.0655  0.1822
 7510SOL    HW233990   2.087   4.476  11.320 -2.7405  0.1120  2.4965
 7511SOL     OW33991   2.823   4.113   3.581  0.6764  0.0474  0.2852
 7511SOL    HW133992   2.853   4.174   3.514 -0.5040  0.6820  0.3245
 7511SOL    HW233993   2.757   4.058   3.539  0.3265 -0.7924  1.9439
 7512SOL     OW33994   1.380   4.421   2.830 -0.2323  0.2046 -0.1061
 7512SOL    HW133995   1.297   4.375   2.842  0.0819 -0.8756 -2.0626
 7512SOL    HW233996   1.348   4.509   2.850 -1.8464 -0.1029 -1.3210
 7513SOL     OW33997   0.667   3.644   3.460  1.1754  0.2289  0.6055
 7513SOL    HW133998   0.726   3.654   3.535  1.7064 -2.7582  0.5734
 7513SOL    HW233999   0.709   3.568   3.422  3.2843  0.7930  1.8241
 7514SOL     OW34000   3.824   0.932   3.344  0.3653  0.5435  0.0108
 7514SOL    HW134001   3.735   0.962   3.365  0.8915  0.6180  2.1322
 7514SOL    HW234002   3.876   1.006   3.374  0.2640 -0.0260  1.5487
 7515SOL     OW34003   0.990   1.232   4.610 -0.3374  0.4593  0.4433
 7515SOL    HW134004   0.927   1.287   4.656 -0.8455 -0.5610  0.9566
 7515SOL    HW234005   1.041   1.183   4.674 -1.4148  1.0710  1.7740
 7516SOL     OW34006   0.745   1.567   3.576 -0.5372 -0.3537  0.4183
 7516SOL    HW134007   0.806   1.626   3.620 -0.4469  2.0063 -2.7965
 7516SOL    HW234008   0.712   1.522   3.653 -3.1703 -2.3917 -1.8952
 7517SOL     OW34009   3.990   3.215   4.756 -0.3887  0.1967 -0.0522
 7517SOL    HW134010   3.915   3.255   4.801 -0.1165  0.4061  0.2100
 7517SOL    HW234011   4.016   3.161   4.830 -3.3577  1.5453  1.9834
 7518SOL     OW34012   3.315   4.567   4.814  0.2413  0.0103  0.2122
 7518SOL    HW134013   3.384   4.530   4.759 -1.2798  1.6318 -2.7906
 7518SOL    HW234014   3.368   4.637   4.852  0.7520 -0.3792  0.2208
 7519SOL     OW34015   1.258   1.851   0.418 -0.3106  0.0646  0.4998
 7519SOL    HW134016   1.230   1.938   0.390 -2.1317 -0.4705  0.6595
 7519SOL    HW234017   1.182   1.814   0.464 -1.9677  0.6881 -1.7062
 7520SOL     OW34018   2.134   1.149  13.520 -0.2543  0.1698 -0.0439
 7520SOL    HW134019   2.212   1.196  13.490 -0.5129  1.4796  1.3259
 7520SOL    HW234020   2.073   1.162  13.447  0.3491  0.4206 -0.5000
 7521SOL     OW34021   3.392   3.809   3.542  0.5084  0.2329  0.2999
 7521SOL    HW134022   3.359   3.729   3.502  2.4437  0.0018 -0.7995
 7521SOL    HW234023   3.323   3.819   3.608  1.1787 -1.1949  1.2265
 7522SOL     OW34024   3.973   1.667   0.025  0.5381  0.0601 -0.3499
 7522SOL    HW134025   4.001   1.704   0.109 -2.8560  2.2013 -0.1720
 7522SOL    HW234026   3.925   1.589   0.053  0.2165 -0.0167 -1.1029
 7523SOL     OW34027   0.785   1.103   1.840 -0.0690 -0.1210 -0.3335
 7523SOL    HW134028   0.784   1.166   1.912 -1.0852  0.9869 -1.3309
 7523SOL    HW234029   0.691   1.096   1.820 -0.1242 -1.0851  0.2627
 7524SOL     OW34030   2.549   3.166  12.316  0.4376  0.0337 -0.3463
 7524SOL    HW134031   2.467   3.215  12.310  1.0847  0.8144 -2.9049
 7524SOL    HW234032   2.536   3.121  12.232 -0.9773 -1.3292  0.5826
 7525SOL     OW34033   2.797   0.419   6.208  0.1266 -0.0858  0.0918
 7525SOL    HW134034   2.720   0.380   6.249 -0.9265  1.4388 -0.4209
 7525SOL    HW234035   2.757   0.468   6.136 -0.3254  0.7406  0.9138
 7526SOL     OW34036   0.685   1.560   4.796 -0.2440  0.5900 -0.2682
 7526SOL    HW134037   0.593   1.554   4.769  0.1948 -0.3696 -1.5417
 7526SOL    HW234038   0.718   1.574   4.707 -0.3905  1.9319 -0.1208
 7527SOL     OW34039   4.177   0.646   9.196  0.6107 -0.2367  0.4024
 7527SOL    HW134040   4.224   0.578   9.245  0.0029 -2.1559 -1.6964
 7527SOL    HW234041   4.146   0.592   9.123 -0.7895 -0.8523  1.4459
 7528SOL     OW34042   1.291   1.873   2.650  0.2314  0.4337 -0.2840
 7528SOL    HW134043   1.260   1.788   2.682 -1.1983  0.8425 -0.6139
 7528SOL    HW234044   1.213   1.928   2.641 -2.2399 -3.1651 -0.7907
 7529SOL     OW34045   3.848   2.123   1.771 -0.0449  0.4063 -0.1486
 7529SOL    HW134046   3.868   2.217   1.774  1.3652  0.1072 -0.4632
 7529SOL    HW234047   3.930   2.092   1.809 -0.3908  1.0565  1.1246
 7530SOL     OW34048   1.265   0.443   0.779 -0.0315 -0.3016  0.2838
 7530SOL    HW134049   1.354   0.475   0.764  0.0161 -0.1769  0.8408
 7530SOL    HW234050   1.271   0.350   0.760  0.4589 -0.2879  0.3725
 7531SOL     OW34051   4.173   3.251  14.999  0.0516 -0.1090 -0.0603
 7531SOL    HW134052   4.202   3.176  15.052  0.5906 -1.2085 -1.9022
 7531SOL    HW234053   4.197   3.219  14.912  1.9942 -1.4612  0.9448
 7532SOL     OW34054   2.525   2.519   5.194  0.0939 -0.0560  0.2268
 7532SOL    HW134055   2.527   2.434   5.238  0.9540  0.2318  0.7640
 7532SOL    HW234056   2.443   2.522   5.145 -0.2492 -3.1756  0.6001
 7533SOL     OW34057   0.992   1.954   8.402  0.5688 -0.1232  0.2862
 7533SOL    HW134058   0.962   1.977   8.490  0.2171  0.4320  0.0214
 7533SOL    HW234059   1.066   1.895   8.420  0.5373 -1.4017 -3.7979
 7534SOL     OW34060   2.755   3.262   4.787  0.1233  0.1556  0.3952
 7534SOL    HW134061   2.665   3.286   4.763  0.3769  0.4819 -0.2364
 7534SOL    HW234062   2.760   3.167   4.780  0.1491  0.1416  0.6084
 7535SOL     OW34063   3.344   1.460   4.088  0.5212 -0.0906 -0.3509
 7535SOL    HW134064   3.326   1.434   3.998 -1.2732  2.4918 -0.7610
 7535SOL    HW234065   3.253   1.473   4.115  0.5491 -0.0081 -0.2946
 7536SOL     OW34066   1.055   3.474  16.469 -0.2725 -0.0938 -0.5425
 7536SOL    HW134067   0.990   3.448  16.534  1.2359 -1.2821  0.5031
 7536SOL    HW234068   1.006   3.485  16.387 -1.2584  1.9447  0.3317
 7537SOL     OW34069   4.265   4.197   6.478  0.1287 -0.3996  0.3885
 7537SOL    HW134070   4.283   4.287   6.504  0.8055 -0.8055  1.3101
 7537SOL    HW234071   4.179   4.201   6.437  0.2093 -1.1962  0.1241
 7538SOL     OW34072   2.931   2.736  17.456 -0.1032  0.6526 -0.0022
 7538SOL    HW134073   2.946   2.779  17.371 -1.5115  0.6043 -0.2697
 7538SOL    HW234074   2.997   2.783  17.507 -0.7262  3.2743 -1.5660
 7539SOL     OW34075   3.903   0.508   3.313  0.6639  0.0947 -0.0462
 7539SOL    HW134076   3.892   0.425   3.360 -0.2682  1.4188  2.0958
 7539SOL    HW234077   3.816   0.548   3.310 -0.0753 -1.5026 -0.1480
 7540SOL     OW34078   4.235   4.161   4.917 -0.3211  0.0668  0.0482
 7540SOL    HW134079   4.297   4.108   4.865 -0.8583  0.3380 -0.8699
 7540SOL    HW234080   4.291   4.188   4.990 -1.0360  0.5872  0.3975
 7541SOL     OW34081   2.836   2.832   6.641  0.3405 -0.2632  0.5725
 7541SOL    HW134082   2.768   2.822   6.574 -0.4945 -1.2698  1.5576
 7541SOL    HW234083   2.900   2.890   6.601 -0.8248 -0.1770 -1.1715
 7542SOL     OW34084   1.322   3.761   2.233 -0.0392  0.1116  0.0953
 7542SOL    HW134085   1.383   3.783   2.303  1.5787  1.3254 -1.7113
 7542SOL    HW234086   1.351   3.672   2.213  2.3345  0.5829  1.4394
 7543SOL     OW34087   0.482   3.127   4.094 -0.3877 -0.5654 -0.3746
 7543SOL    HW134088   0.404   3.106   4.146 -0.4555  0.2867 -0.1256
 7543SOL    HW234089   0.541   3.053   4.106 -1.4507 -1.3611 -0.0168
 7544SOL     OW34090   0.594   3.868   3.211  0.1233  0.1610  0.1589
 7544SOL    HW134091   0.581   3.881   3.117 -1.3921  1.5156  0.5413
 7544SOL    HW234092   0.514   3.879   3.262 -0.1030  2.3283 -0.6715
 7545SOL     OW34093   3.987   0.382   5.581 -0.0220  0.2334  1.0424
 7545SOL    HW134094   3.920   0.440   5.545 -0.2045 -0.5757  0.0810
 7545SOL    HW234095   3.986   0.414   5.671  1.2985  1.3335  0.6657
 7546SOL     OW34096   3.005   2.503   7.198  0.1700 -0.3128 -0.0086
 7546SOL    HW134097   3.066   2.478   7.129  1.1130 -1.5118  1.2575
 7546SOL    HW234098   3.057   2.571   7.240 -1.6350 -0.2086  2.0632
 7547SOL     OW34099   0.858   3.409   4.814  0.0438 -0.3311 -0.2665
 7547SOL    HW134100   0.842   3.345   4.745  1.7351  0.3060 -1.2461
 7547SOL    HW234101   0.903   3.368   4.888 -1.9400  0.1293  1.2143
 7548SOL     OW34102   4.501   3.378   4.265  0.3677  0.1715 -0.1208
 7548SOL    HW134103   4.453   3.443   4.317 -0.7418 -0.4352 -0.3746
 7548SOL    HW234104   4.579   3.363   4.318  0.6483 -0.6805 -0.7724
 7549SOL     OW34105   0.969   1.153   3.435 -0.2034 -0.6973 -0.2217
 7549SOL    HW134106   1.001   1.066   3.412 -1.0384 -0.7966 -1.0341
 7549SOL    HW234107   1.048   1.204   3.415 -2.0496  1.3441 -2.4110
 7550SOL     OW34108   0.245   3.802   8.314  0.3821 -0.3620  0.1665
 7550SOL    HW134109   0.164   3.842   8.346  2.1330  0.9915  2.9024
 7550SOL    HW234110   0.224   3.762   8.230  0.6530 -1.8155  0.7847
 7551SOL     OW34111   3.422   2.238   4.114 -0.6387 -0.9958 -0.0243
 7551SOL    HW134112   3.377   2.300   4.171 -1.0653 -1.4812  0.1640
 7551SOL    HW234113   3.495   2.281   4.068 -0.9354 -1.0970 -0.5950
 7552SOL     OW34114   0.313   0.968   4.913  0.2608 -0.1107 -0.0882
 7552SOL    HW134115   0.357   0.939   4.833  1.8337 -2.0749  1.5068
 7552SOL    HW234116   0.359   1.047   4.940  1.2145 -1.2297  1.6308
 7553SOL     OW34117   0.239   3.792   4.154 -0.9743  0.2183  0.0372
 7553SOL    HW134118   0.280   3.746   4.081  0.1015  0.9478  0.1782
 7553SOL    HW234119   0.184   3.857   4.111 -1.3750  0.6111  1.1444
 7554SOL     OW34120   2.429   1.379   0.746 -0.6403  0.0406  0.0764
 7554SOL    HW134121   2.450   1.311   0.682 -0.2815 -0.9727  1.2626
 7554SOL    HW234122   2.465   1.340   0.826 -0.8436 -2.3795 -1.0046
 7555SOL     OW34123   2.368   2.681   5.949  0.2063  0.2923  0.1186
 7555SOL    HW134124   2.404   2.706   6.034 -0.6685  1.0711  0.2688
 7555SOL    HW234125   2.433   2.614   5.932 -0.8084 -0.7551  0.3645
 7556SOL     OW34126   3.867   3.030   1.860 -0.2666  0.2919 -0.1088
 7556SOL    HW134127   3.844   3.034   1.953 -0.6314  0.7613 -0.2180
 7556SOL    HW234128   3.809   2.957   1.838  1.9020 -0.9999 -1.5189
 7557SOL     OW34129   1.078   1.325   4.976 -0.0226 -0.4879 -0.2851
 7557SOL    HW134130   1.163   1.356   4.946 -0.1807  1.3821  1.2183
 7557SOL    HW234131   1.078   1.236   4.940  1.4730 -0.5624 -0.1112
 7558SOL     OW34132   4.396   2.991   1.463 -0.7809  0.2880 -0.5603
 7558SOL    HW134133   4.460   3.045   1.416  0.3046 -1.3817 -0.9839
 7558SOL    HW234134   4.350   2.963   1.384  0.3501  0.7507 -1.3963
 7559SOL     OW34135   1.946   4.336   0.825 -0.8649  0.5672 -0.0606
 7559SOL    HW134136   2.033   4.347   0.785 -1.0581 -1.1131 -0.9551
 7559SOL    HW234137   1.896   4.278   0.768 -0.4500 -1.1259  1.2568
 7560SOL     OW34138   0.206   3.206   2.429  0.1299 -0.2818 -0.1452
 7560SOL    HW134139   0.226   3.297   2.454  3.0082 -0.1021 -3.1098
 7560SOL    HW234140   0.288   3.161   2.452  0.3900  0.3576  0.1826
 7561SOL     OW34141   3.247   0.157   3.109  0.2429  0.3215  0.2647
 7561SOL    HW134142   3.183   0.121   3.169 -1.0756  2.7883  0.3464
 7561SOL    HW234143   3.329   0.107   3.110 -0.6619 -1.1656 -0.6406
 7562SOL     OW34144   0.367   1.678   3.598 -0.0210  0.1341  0.4911
 7562SOL    HW134145   0.313   1.679   3.519 -0.0919  0.0721  0.5383
 7562SOL    HW234146   0.447   1.712   3.558 -0.3945 -0.5420 -0.8346
 7563SOL     OW34147   0.502   2.147   5.660  0.2102  0.1267  0.0493
 7563SOL    HW134148   0.476   2.186   5.576  1.5699  0.8782 -0.0227
 7563SOL    HW234149   0.442   2.199   5.713 -1.0083  0.0347 -1.2456
 7564SOL     OW34150   3.057   3.156   9.244  0.5607  0.2814  0.6298
 7564SOL    HW134151   3.129   3.160   9.307  1.8388  1.3456 -0.9218
 7564SOL    HW234152   2.997   3.103   9.297 -1.4130 -0.3764 -2.2498
 7565SOL     OW34153   0.871   2.690   5.947  0.7483 -0.2743 -0.1385
 7565SOL    HW134154   0.813   2.656   6.015 -0.7090  2.0751 -0.2353
 7565SOL    HW234155   0.946   2.718   6.000 -1.7534  1.5749  2.3954
 7566SOL     OW34156   1.965   2.369   8.699  1.2165 -0.0594 -0.5070
 7566SOL    HW134157   1.876   2.394   8.675  0.7659  0.2933  1.5462
 7566SOL    HW234158   1.960   2.377   8.794  0.4959  0.1471 -0.5597
 7567SOL     OW34159   1.577   3.123  15.937  0.6478  0.1770 -0.2815
 7567SOL    HW134160   1.488   3.093  15.953 -0.1219  2.8529  0.6028
 7567SOL    HW234161   1.630   3.080  16.003 -0.2987 -0.9243 -0.2481
 7568SOL     OW34162   2.006   1.197   6.727  0.0763  0.0975  0.4899
 7568SOL    HW134163   1.973   1.148   6.803 -2.7318 -0.9529 -1.3959
 7568SOL    HW234164   2.074   1.243   6.777  1.3680 -2.1277  0.7943
 7569SOL     OW34165   3.250   0.329   0.669 -0.1262 -0.1462  0.4321
 7569SOL    HW134166   3.276   0.312   0.578 -1.3355 -0.9090  0.2322
 7569SOL    HW234167   3.285   0.418   0.681 -0.4600 -0.3210  2.7645
 7570SOL     OW34168   4.260   0.433   2.161 -0.0649  0.2711  0.0555
 7570SOL    HW134169   4.354   0.416   2.166 -0.1094  0.0056 -0.0412
 7570SOL    HW234170   4.255   0.454   2.068 -0.1492  0.3388  0.0752
 7571SOL     OW34171   1.280   0.471   7.873  0.4176  0.0860 -0.3345
 7571SOL    HW134172   1.216   0.417   7.918 -1.4261  1.5138 -1.2381
 7571SOL    HW234173   1.326   0.398   7.831 -2.5588 -0.7536 -2.1662
 7572SOL     OW34174   2.210   1.609   2.743  0.2451  0.3265  0.4080
 7572SOL    HW134175   2.162   1.655   2.812  1.5548  0.1745  1.4075
 7572SOL    HW234176   2.154   1.620   2.667 -1.7931 -0.9039  1.7398
 7573SOL     OW34177   3.061   1.899   1.769  0.4332  0.2527  0.4445
 7573SOL    HW134178   3.070   1.827   1.832 -1.0679 -0.3408 -0.0190
 7573SOL    HW234179   3.018   1.852   1.698  2.6676  0.6908 -1.1967
 7574SOL     OW34180   1.690   1.695   8.492  0.2102 -0.4394  0.0491
 7574SOL    HW134181   1.693   1.693   8.587  0.8810 -0.2794  0.0294
 7574SOL    HW234182   1.782   1.676   8.473 -0.2047 -2.8454  0.4807
 7575SOL     OW34183   2.552   2.230   6.219  0.7160 -0.3314 -0.0357
 7575SOL    HW134184   2.628   2.198   6.268  1.3718  2.2563  0.6266
 7575SOL    HW234185   2.505   2.280   6.286 -0.2229 -2.2188  0.7296
 7576SOL     OW34186   0.651   0.704   1.997 -0.1408  0.4634  0.3255
 7576SOL    HW134187   0.726   0.696   1.938 -0.2150 -0.2677  0.3218
 7576SOL    HW234188   0.692   0.726   2.080 -0.6677 -2.7780  1.4359
 7577SOL     OW34189   3.198   2.332   2.413 -0.4198  0.0327  0.3288
 7577SOL    HW134190   3.266   2.376   2.363 -0.3872  0.8531  1.1039
 7577SOL    HW234191   3.121   2.346   2.358 -0.7564  2.0460  1.3204
 7578SOL     OW34192   2.212   4.588   7.284 -0.0133  0.1045 -0.6348
 7578SOL    HW134193   2.207   4.520   7.217  1.0211 -1.5592  0.9830
 7578SOL    HW234194   2.237   4.667   7.237  1.3591  0.6469  0.9961
 7579SOL     OW34195   4.192   0.647   5.888  0.0308  0.1425  0.4086
 7579SOL    HW134196   4.192   0.687   5.801  0.8546  0.0353  0.3563
 7579SOL    HW234197   4.177   0.728   5.937  2.8738  1.9916 -1.7749
 7580SOL     OW34198   3.034   1.399   3.530 -0.5351 -0.2497  0.0740
 7580SOL    HW134199   2.978   1.405   3.607 -0.7579 -0.5805 -0.0614
 7580SOL    HW234200   2.982   1.436   3.458 -0.0665  3.0826  1.4382
 7581SOL     OW34201   2.251   0.222   8.497  0.4434 -0.2780 -0.1405
 7581SOL    HW134202   2.243   0.232   8.592 -0.7869 -0.0611 -0.2635
 7581SOL    HW234203   2.345   0.222   8.483  0.7526 -1.0573  1.9301
 7582SOL     OW34204   0.228   0.501  14.806 -0.0603 -0.2994 -0.2430
 7582SOL    HW134205   0.278   0.576  14.773 -0.6047 -0.2089 -0.8504
 7582SOL    HW234206   0.270   0.427  14.761 -2.2059  0.2936 -3.2007
 7583SOL     OW34207   0.784   1.839   3.934 -0.8500  0.2743  0.1174
 7583SOL    HW134208   0.809   1.927   3.960  0.4648  0.2710 -1.1659
 7583SOL    HW234209   0.747   1.860   3.849 -0.5512 -1.3858 -0.4321
 7584SOL     OW34210   1.358   2.066   2.083 -0.3757  0.6375  0.2979
 7584SOL    HW134211   1.264   2.070   2.103 -0.6036  2.9897 -1.2756
 7584SOL    HW234212   1.381   2.132   2.149  3.2683  0.6593 -1.0266
 7585SOL     OW34213   4.568   2.790   7.937  0.2112 -0.1481  0.2325
 7585SOL    HW134214   4.533   2.846   8.006 -0.0777  0.6861 -0.5940
 7585SOL    HW234215   4.650   2.763   7.978  1.1697  1.5716 -0.5415
 7586SOL     OW34216   4.395   3.401  11.340  0.3012  0.6223 -0.0760
 7586SOL    HW134217   4.407   3.354  11.422  2.2109 -2.1373 -1.9357
 7586SOL    HW234218   4.356   3.332  11.286  0.7930  0.2367  0.0687
 7587SOL     OW34219   2.450   1.834   1.104 -0.1630 -0.2136  0.3980
 7587SOL    HW134220   2.488   1.898   1.043  1.1264 -1.4484 -0.1008
 7587SOL    HW234221   2.485   1.864   1.188  1.0716  1.1119 -0.5722
 7588SOL     OW34222   0.844   4.280   2.494  0.5532  0.0431  0.2789
 7588SOL    HW134223   0.928   4.234   2.490  0.3019 -0.5518  1.7688
 7588SOL    HW234224   0.825   4.259   2.402  3.6141  1.0312 -0.5836
 7589SOL     OW34225   2.386   0.562   6.099  0.2811 -0.8189  0.1795
 7589SOL    HW134226   2.338   0.644   6.112 -0.1331 -1.0874  0.3564
 7589SOL    HW234227   2.347   0.528   6.019 -1.8620  0.1621  0.8005
 7590SOL     OW34228   2.063   2.673  10.055 -0.5390  0.1327  0.3708
 7590SOL    HW134229   2.042   2.668  10.148 -1.0183 -0.7001  0.2128
 7590SOL    HW234230   2.102   2.759  10.039  1.6091 -0.5326  1.9418
 7591SOL     OW34231   4.023   2.659  16.025 -0.3417  0.0761 -0.6424
 7591SOL    HW134232   3.982   2.736  16.065 -3.5222 -0.6578 -2.5146
 7591SOL    HW234233   4.115   2.659  16.051 -0.9111 -0.3737  1.3671
 7592SOL     OW34234   1.067   0.137   0.905 -0.1269 -0.0312  0.0945
 7592SOL    HW134235   1.124   0.080   0.957  3.4945  2.2194 -1.3800
 7592SOL    HW234236   0.998   0.152   0.969  0.1134  1.1178  0.0779
 7593SOL     OW34237   2.840   3.496   9.819  0.0787 -0.1297  0.2037
 7593SOL    HW134238   2.894   3.550   9.876  0.9013  0.1672 -0.8534
 7593SOL    HW234239   2.836   3.414   9.868 -0.5105  0.2405  0.7648
 7594SOL     OW34240   1.062   3.636   4.260 -0.4391  0.4933 -0.7004
 7594SOL    HW134241   1.055   3.543   4.279  1.7578  0.4251 -0.2417
 7594SOL    HW234242   0.993   3.670   4.316 -2.0765 -1.3399 -1.6046
 7595SOL     OW34243   0.163   3.444   8.206 -0.4054 -0.2517 -0.5148
 7595SOL    HW134244   0.163   3.526   8.158  1.7251 -0.0566 -0.2013
 7595SOL    HW234245   0.162   3.472   8.298 -1.4292  1.5175 -1.0845
 7596SOL     OW34246   1.887   2.765   5.253 -0.1952  0.5522 -0.1849
 7596SOL    HW134247   1.973   2.776   5.294  0.9602 -2.5072 -1.7713
 7596SOL    HW234248   1.845   2.709   5.318  1.8624 -1.2335 -0.3708
 7597SOL     OW34249   2.960   3.299   7.429  0.1959  0.2292 -0.8375
 7597SOL    HW134250   2.931   3.376   7.478  0.7039 -1.7945  2.6835
 7597SOL    HW234251   3.053   3.320   7.417  0.4046 -0.3508 -0.2416
 7598SOL     OW34252   2.217   2.812   0.882  0.1311 -1.2134 -0.2599
 7598SOL    HW134253   2.221   2.828   0.788 -0.0626  1.0619  0.1375
 7598SOL    HW234254   2.311   2.822   0.899 -0.1629 -1.4354  1.4595
 7599SOL     OW34255   1.562   3.458   5.298  0.4590 -0.0053  0.0164
 7599SOL    HW134256   1.494   3.440   5.363  0.4315 -0.0630 -0.0280
 7599SOL    HW234257   1.500   3.483   5.230  1.8623 -0.6969 -1.5033
 7600SOL     OW34258   2.484   1.993   3.911 -0.5010 -0.2500  0.6209
 7600SOL    HW134259   2.504   2.041   3.831  2.1515 -0.9181  0.8854
 7600SOL    HW234260   2.498   1.903   3.880  0.2771  0.3029 -0.6091
 7601SOL     OW34261   0.237   3.710  17.058  0.0630 -0.4960  0.2852
 7601SOL    HW134262   0.157   3.682  17.014 -0.0903  0.7465 -0.2292
 7601SOL    HW234263   0.199   3.757  17.132 -1.5105 -2.8190  0.9534
 7602SOL     OW34264   2.920   3.751   6.701 -0.1567 -0.9284  0.2155
 7602SOL    HW134265   2.973   3.718   6.628  1.0916  1.7707 -0.1260
 7602SOL    HW234266   2.906   3.845   6.688  0.3235 -0.4593  3.1407
 7603SOL     OW34267   1.250   1.464  16.125  0.6608 -0.5062  0.6345
 7603SOL    HW134268   1.213   1.516  16.196 -3.0063  1.2034 -2.4980
 7603SOL    HW234269   1.211   1.380  16.147  0.4702 -0.3558  0.8668
 7604SOL     OW34270   0.168   1.577   6.802  0.0077 -0.3584 -0.0675
 7604SOL    HW134271   0.206   1.658   6.768 -0.2087 -0.9694 -1.7483
 7604SOL    HW234272   0.117   1.618   6.872  0.4272  0.5322 -0.2811
 7605SOL     OW34273   3.728   4.631   7.256 -0.0534  0.1632 -0.5183
 7605SOL    HW134274   3.818   4.603   7.241 -0.7172 -0.7542 -2.7274
 7605SOL    HW234275   3.716   4.712   7.207  2.5565 -0.4940 -2.2363
 7606SOL     OW34276   0.176   2.725   6.264  1.0601 -0.4238  0.3152
 7606SOL    HW134277   0.168   2.634   6.294  0.9238 -0.4659  0.1508
 7606SOL    HW234278   0.196   2.769   6.346  0.9805 -0.6028  0.4304
 7607SOL     OW34279   1.728   3.565  14.099 -0.4004 -0.0202  0.1217
 7607SOL    HW134280   1.652   3.582  14.043  0.4441  2.5968 -0.2237
 7607SOL    HW234281   1.804   3.584  14.044  0.4148 -0.4659  1.0896
 7608SOL     OW34282   3.730   1.462   6.649 -0.1108  0.4499 -0.1637
 7608SOL    HW134283   3.789   1.498   6.583  0.4408  0.6897  0.4542
 7608SOL    HW234284   3.794   1.455   6.720 -1.9186 -0.0156  1.4480
 7609SOL     OW34285   1.951   0.900   4.182  0.1928 -0.1375  0.0058
 7609SOL    HW134286   1.978   0.967   4.244 -1.5529  2.0086 -1.5453
 7609SOL    HW234287   2.004   0.823   4.203 -0.0424 -0.6453 -1.2603
 7610SOL     OW34288   2.670   3.013   3.005 -0.3332 -0.6927 -0.1147
 7610SOL    HW134289   2.601   2.955   3.037 -0.9162 -0.3483 -0.7454
 7610SOL    HW234290   2.649   3.087   3.061 -0.0045 -0.5550 -0.1755
 7611SOL     OW34291   0.420   3.742   3.549 -0.1041  0.2976 -0.8116
 7611SOL    HW134292   0.428   3.701   3.635  0.7529  0.9929 -0.5653
 7611SOL    HW234293   0.478   3.696   3.488 -0.4917  0.6747 -1.4629
 7612SOL     OW34294   0.632   0.503   7.120 -0.3984 -0.1437 -0.0740
 7612SOL    HW134295   0.687   0.564   7.170 -0.2154 -0.5031  0.1619
 7612SOL    HW234296   0.691   0.465   7.054 -0.5524 -2.5222  1.1561
 7613SOL     OW34297   2.822   2.558   5.216 -0.0208  0.2986 -0.5253
 7613SOL    HW134298   2.730   2.549   5.192  0.3674  1.5020 -2.5457
 7613SOL    HW234299   2.828   2.516   5.301 -0.8714  4.6290  1.6543
 7614SOL     OW34300   0.245   0.577   0.703 -0.3537 -0.2240  0.1992
 7614SOL    HW134301   0.282   0.616   0.782 -0.9426  2.0493 -0.6553
 7614SOL    HW234302   0.156   0.613   0.701 -0.6020 -0.9456 -1.3903
 7615SOL     OW34303   3.446   1.768   4.790  0.4781  0.6859 -0.0757
 7615SOL    HW134304   3.355   1.787   4.769  0.0191 -0.2610  1.0494
 7615SOL    HW234305   3.428   1.690   4.843  2.7571  1.5679  2.0318
 7616SOL     OW34306   3.283   3.739  17.320  0.5344 -0.3219 -0.4584
 7616SOL    HW134307   3.205   3.727  17.374  0.1790  0.9094 -0.7093
 7616SOL    HW234308   3.318   3.822  17.353 -1.7248  1.0215 -1.4509
 7617SOL     OW34309   2.862   3.611   8.207 -0.6735  0.0359  0.2605
 7617SOL    HW134310   2.850   3.703   8.184  1.5024  0.6445  1.5997
 7617SOL    HW234311   2.957   3.608   8.216 -0.8775 -1.9900  1.7257
 7618SOL     OW34312   3.810   4.320   2.315  0.3433  0.3901 -0.6592
 7618SOL    HW134313   3.789   4.244   2.261  0.5989 -1.6768  2.1192
 7618SOL    HW234314   3.879   4.360   2.262  0.8560  1.0071  0.4613
 7619SOL     OW34315   2.104   2.423  12.109 -0.3004 -0.2756  0.8420
 7619SOL    HW134316   2.155   2.481  12.166 -0.3813  0.9125 -0.2957
 7619SOL    HW234317   2.101   2.468  12.025  1.1453  2.9787  2.5424
 7620SOL     OW34318   2.568   1.471  11.678  0.1289  0.1830 -0.4420
 7620SOL    HW134319   2.493   1.479  11.737  0.9172  4.4343  0.0159
 7620SOL    HW234320   2.616   1.551  11.700 -0.2216  0.1464  0.5014
 7621SOL     OW34321   2.355   3.542  15.787  0.0055 -0.3394 -0.2794
 7621SOL    HW134322   2.367   3.636  15.802 -0.2391 -0.1024 -1.5589
 7621SOL    HW234323   2.343   3.536  15.692 -3.7237 -1.4934  0.2332
 7622SOL     OW34324   1.389   3.050   9.647  0.0670 -0.2831 -0.0550
 7622SOL    HW134325   1.330   3.119   9.617  0.6737  0.2747  0.0440
 7622SOL    HW234326   1.478   3.078   9.628 -0.8049  3.1732  0.9057
 7623SOL     OW34327   1.584   1.836   5.764 -0.0552  0.1160  0.0125
 7623SOL    HW134328   1.662   1.883   5.793 -0.8856  0.0454  2.3079
 7623SOL    HW234329   1.513   1.857   5.825 -0.6673  2.6077 -1.5738
 7624SOL     OW34330   0.696   0.383   5.877  0.0360  0.4497  0.5655
 7624SOL    HW134331   0.751   0.372   5.955 -0.8209 -2.2220  0.8274
 7624SOL    HW234332   0.650   0.299   5.868  0.4023  0.3077  0.0215
 7625SOL     OW34333   4.192   3.630   1.332 -0.2604  0.3706 -0.3349
 7625SOL    HW134334   4.232   3.706   1.290  1.0592 -0.1122  0.0516
 7625SOL    HW234335   4.109   3.610   1.289 -0.8394  2.2380 -0.0629
 7626SOL     OW34336   1.587   0.077   4.526 -0.1434 -0.0368  0.5908
 7626SOL    HW134337   1.613   0.139   4.594 -0.7264  1.6616 -0.7109
 7626SOL    HW234338   1.544   0.139   4.466  1.6559 -0.9460 -1.6540
 7627SOL     OW34339   2.815   0.825   2.130 -0.0999 -0.5190 -0.3018
 7627SOL    HW134340   2.782   0.780   2.207  2.0792  0.7595  1.3830
 7627SOL    HW234341   2.790   0.913   2.158 -0.4190 -0.7467  0.1345
 7628SOL     OW34342   2.114   2.157   8.624 -0.1834 -0.3574 -0.6934
 7628SOL    HW134343   2.104   2.185   8.533  0.8112 -1.0131 -1.0053
 7628SOL    HW234344   2.076   2.232   8.670 -0.6459  0.1144 -1.8278
 7629SOL     OW34345   2.502   1.290   6.357 -0.0809  0.1238 -0.2576
 7629SOL    HW134346   2.502   1.239   6.438 -0.9837  2.0983  0.9804
 7629SOL    HW234347   2.410   1.292   6.329 -0.0451  1.9037 -0.2244
 7630SOL     OW34348   0.416   2.228   0.572  0.5140  0.5504 -0.6126
 7630SOL    HW134349   0.455   2.141   0.584  1.0991  0.6832 -1.6313
 7630SOL    HW234350   0.463   2.277   0.639  0.9676  0.6885 -1.0338
 7631SOL     OW34351   1.959   2.086   3.827 -0.2211  0.0098 -0.1716
 7631SOL    HW134352   1.983   2.057   3.915 -1.1958  0.8753  0.3840
 7631SOL    HW234353   2.041   2.132   3.807  0.0909 -0.7957 -0.7143
 7632SOL     OW34354   1.943   0.806  12.760 -0.2153 -0.6029  0.1827
 7632SOL    HW134355   2.001   0.779  12.831  1.5099 -0.4610 -1.1832
 7632SOL    HW234356   1.930   0.724  12.714  1.1111 -0.5263 -0.3193
 7633SOL     OW34357   0.684   1.613   8.515  0.3630 -0.3188 -0.3478
 7633SOL    HW134358   0.768   1.647   8.548  0.5440 -1.3149  0.2321
 7633SOL    HW234359   0.702   1.519   8.514  1.3165 -0.1409  0.4518
 7634SOL     OW34360   1.164   0.411   3.155 -0.0910 -0.4080  0.1551
 7634SOL    HW134361   1.188   0.343   3.092 -0.8430 -0.1325 -0.4238
 7634SOL    HW234362   1.108   0.361   3.214  2.3609 -0.1201  2.7141
 7635SOL     OW34363   2.171   3.895  10.411  0.6127 -0.1654  0.5343
 7635SOL    HW134364   2.111   3.927  10.479 -1.4512 -0.7825 -0.9982
 7635SOL    HW234365   2.257   3.915  10.448  1.2995 -0.1983 -1.0699
 7636SOL     OW34366   4.719   3.803   0.422 -0.0379 -0.9814  0.0569
 7636SOL    HW134367   4.709   3.819   0.328  0.3632  3.0830  0.7352
 7636SOL    HW234368   4.719   3.707   0.422 -0.7417 -0.9817 -0.8702
 7637SOL     OW34369   2.119   2.482  14.552  0.5129  0.0710  0.0640
 7637SOL    HW134370   2.089   2.572  14.564  0.7490  0.0046  1.2082
 7637SOL    HW234371   2.108   2.446  14.640  0.7487 -1.9168 -0.7271
 7638SOL     OW34372   0.249   0.871   4.544  0.5157 -1.0009  0.1164
 7638SOL    HW134373   0.261   0.881   4.450  0.1150 -1.8439 -0.0260
 7638SOL    HW234374   0.154   0.882   4.537  0.6340  0.0455  0.1318
 7639SOL     OW34375   0.912   2.389   7.751  0.2754  0.2514 -0.3699
 7639SOL    HW134376   0.995   2.392   7.799 -1.0370 -0.4141  1.9618
 7639SOL    HW234377   0.907   2.302   7.711 -0.5759 -0.0327  0.3700
 7640SOL     OW34378   0.659   0.572   7.599 -0.1794  0.1530  0.1606
 7640SOL    HW134379   0.687   0.485   7.629 -2.0236 -1.0157 -1.5169
 7640SOL    HW234380   0.695   0.633   7.663 -1.9697  1.4353 -0.0656
 7641SOL     OW34381   1.571   2.672   6.850 -0.0361 -0.0955  0.2757
 7641SOL    HW134382   1.566   2.765   6.826  0.1544 -0.5159 -1.3733
 7641SOL    HW234383   1.622   2.638   6.777 -0.3465  1.0428 -0.4817
 7642SOL     OW34384   2.897   1.795  11.301 -0.4763 -0.4515 -0.3134
 7642SOL    HW134385   2.989   1.773  11.287 -0.8121  0.6033 -4.1467
 7642SOL    HW234386   2.898   1.807  11.396 -1.3411 -1.2690 -0.1994
 7643SOL     OW34387   0.402   0.585   5.574 -0.3618 -0.2692  0.1049
 7643SOL    HW134388   0.318   0.544   5.596 -0.6371  0.2358 -0.0078
 7643SOL    HW234389   0.370   0.637   5.500 -1.6733  1.6084  1.9644
 7644SOL     OW34390   4.392   2.444   1.194  0.4486 -0.1150  0.6514
 7644SOL    HW134391   4.376   2.538   1.205  0.2222 -0.0969  0.1347
 7644SOL    HW234392   4.303   2.415   1.212 -0.2032  0.9575 -0.8537
 7645SOL     OW34393   2.887   1.184  15.003 -0.0679 -0.1377 -1.0524
 7645SOL    HW134394   2.866   1.246  15.073  0.2102  1.7701 -2.6487
 7645SOL    HW234395   2.892   1.106  15.058  0.4036  0.4154 -0.3276
 7646SOL     OW34396   4.535   0.284  15.014 -0.5678 -0.0023 -0.1062
 7646SOL    HW134397   4.577   0.271  15.099  0.4658 -1.9787 -0.9112
 7646SOL    HW234398   4.589   0.351  14.971 -0.5990  1.9281  2.8704
 7647SOL     OW34399   3.676   0.195   9.279  0.0038  0.6894 -0.2510
 7647SOL    HW134400   3.722   0.120   9.240 -1.6019 -0.2806 -0.2543
 7647SOL    HW234401   3.609   0.149   9.328 -0.1833  1.1537 -0.0667
 7648SOL     OW34402   2.853   0.461   6.709  0.0064  0.1449  0.4304
 7648SOL    HW134403   2.933   0.512   6.719 -1.3877  2.0104  2.1626
 7648SOL    HW234404   2.822   0.489   6.623 -2.9597 -0.7197  1.2044
 7649SOL     OW34405   3.962   1.341   2.697  0.0310  0.0581  0.0092
 7649SOL    HW134406   3.980   1.248   2.709 -0.5563  0.0740  0.9917
 7649SOL    HW234407   3.999   1.368   2.781  0.4193  2.0238 -0.7739
 7650SOL     OW34408   0.181   4.686   4.621 -0.5836  0.2648 -0.2060
 7650SOL    HW134409   0.102   4.667   4.672 -0.5165  2.0254  0.5591
 7650SOL    HW234410   0.205   4.595   4.605 -0.4335  0.2768 -0.0528
 7651SOL     OW34411   3.372   3.712   0.036  0.0013 -0.0969 -0.2690
 7651SOL    HW134412   3.345   3.796  17.703 -1.2505  0.1439  1.1461
 7651SOL    HW234413   3.461   3.722   0.002 -0.3733 -0.8518 -1.4976
 7652SOL     OW34414   2.760   3.272   5.879  0.4697 -0.0574 -0.1934
 7652SOL    HW134415   2.788   3.204   5.817  0.0359 -1.6382  1.3386
 7652SOL    HW234416   2.835   3.328   5.861 -0.9233  2.2584  1.2672
 7653SOL     OW34417   1.717   1.530   0.613  0.0040  0.0824 -0.2675
 7653SOL    HW134418   1.762   1.576   0.685 -1.0771  1.6985 -0.6276
 7653SOL    HW234419   1.742   1.440   0.634 -1.4462 -0.2676 -0.0374
 7654SOL     OW34420   3.319   2.007  17.301  0.4451  0.5650  0.2045
 7654SOL    HW134421   3.371   2.001  17.222  1.5264 -2.7027  1.1982
 7654SOL    HW234422   3.234   1.981  17.265  0.3292 -0.3089  1.1271
 7655SOL     OW34423   4.715   0.041   7.118 -0.1585  0.1253 -0.4078
 7655SOL    HW134424   0.063   0.082   7.074  1.8161 -4.0893 -1.0443
 7655SOL    HW234425   4.664   0.119   7.137 -0.8320 -0.7494  1.4104
 7656SOL     OW34426   1.273   4.532   3.081  0.1138  0.3279 -0.2879
 7656SOL    HW134427   1.279   4.617   3.037 -0.9025 -0.3288 -1.7006
 7656SOL    HW234428   1.178   4.524   3.081  0.1338  0.0552  0.2014
 7657SOL     OW34429   0.543   1.206  16.000 -0.3738  0.5064  0.2196
 7657SOL    HW134430   0.597   1.218  15.922 -0.0842 -0.5834  0.2589
 7657SOL    HW234431   0.462   1.252  15.977  0.8493  0.5717 -3.9860
 7658SOL     OW34432   1.060   2.597   6.610 -0.2735 -0.2639  0.0505
 7658SOL    HW134433   1.107   2.552   6.680  1.3505 -0.3728 -1.1142
 7658SOL    HW234434   1.101   2.683   6.624 -2.7196  0.7466  0.9682
 7659SOL     OW34435   0.889   2.462   5.428 -0.1292 -0.2113  0.4967
 7659SOL    HW134436   0.873   2.532   5.491  1.5346  0.5427  0.0934
 7659SOL    HW234437   0.871   2.386   5.485 -0.5911 -0.7965 -0.4319
 7660SOL     OW34438   2.330   0.570  10.338 -0.4519 -0.2037  0.3192
 7660SOL    HW134439   2.337   0.641  10.275  0.3909 -0.5836 -0.0243
 7660SOL    HW234440   2.395   0.508  10.303  0.0899  0.7823 -0.4064
 7661SOL     OW34441   3.282   2.573   5.407 -0.5742 -0.5534  0.0081
 7661SOL    HW134442   3.224   2.497   5.411 -0.9596 -0.1173  2.4686
 7661SOL    HW234443   3.246   2.655   5.441  0.0348  0.0600 -0.8056
 7662SOL     OW34444   2.741   0.158   5.844  0.3047 -0.4986 -0.2751
 7662SOL    HW134445   2.742   0.253   5.841 -2.4217 -0.4106  1.2198
 7662SOL    HW234446   2.665   0.158   5.903  2.1463 -0.4442  2.0656
 7663SOL     OW34447   2.230   0.087   7.109 -0.1896 -0.2881 -0.0391
 7663SOL    HW134448   2.301   0.151   7.116 -0.0692 -0.4276 -0.0007
 7663SOL    HW234449   2.218   0.065   7.017 -1.7377  1.3471 -0.2309
 7664SOL     OW34450   4.443   3.292   6.898  0.5959 -0.0424  0.0200
 7664SOL    HW134451   4.504   3.281   6.971  0.3818  0.5545  0.2838
 7664SOL    HW234452   4.447   3.201   6.867 -0.8934 -0.2648  0.4882
 7665SOL     OW34453   1.599   3.802   6.570 -0.4422 -0.2621  0.5042
 7665SOL    HW134454   1.646   3.786   6.652  1.6991  1.1424 -0.4634
 7665SOL    HW234455   1.639   3.752   6.499 -0.0013  1.0490 -0.1774
 7666SOL     OW34456   3.411   4.371  16.954 -0.3386 -0.8684 -0.2361
 7666SOL    HW134457   3.400   4.299  16.892  0.0669 -0.1025 -1.2016
 7666SOL    HW234458   3.506   4.385  16.960 -0.3290 -0.5437 -1.0993
 7667SOL     OW34459   0.367   2.585  11.683  0.2128  0.2657  0.6661
 7667SOL    HW134460   0.365   2.681  11.688  0.8822  0.2912  0.4038
 7667SOL    HW234461   0.358   2.569  11.777 -0.8646 -1.2651  0.2921
 7668SOL     OW34462   3.777   0.605   9.597  0.1720  0.1532 -0.1145
 7668SOL    HW134463   3.732   0.551   9.533  1.0101 -0.0350 -0.5415
 7668SOL    HW234464   3.809   0.678   9.544  0.3225 -0.9207 -1.4918
 7669SOL     OW34465   1.966   3.201   1.473  0.1086 -0.3491  0.0971
 7669SOL    HW134466   1.972   3.187   1.378 -0.6273 -2.4247  0.3506
 7669SOL    HW234467   1.966   3.296   1.481  1.1666 -0.3302 -0.1192
 7670SOL     OW34468   4.135   4.056   3.141  0.2482 -0.4430 -0.2872
 7670SOL    HW134469   4.227   4.028   3.148 -0.1204 -1.5150  0.3016
 7670SOL    HW234470   4.100   3.988   3.083 -0.0273  0.1766 -0.8395
 7671SOL     OW34471   2.537   4.397   5.668  0.1401  0.4514  1.0252
 7671SOL    HW134472   2.467   4.457   5.642 -1.4051 -2.4832 -1.6639
 7671SOL    HW234473   2.611   4.431   5.617  1.6874 -1.5462  1.9103
 7672SOL     OW34474   3.400   1.432  16.405 -0.3482 -0.0156  0.3154
 7672SOL    HW134475   3.354   1.466  16.327  0.2728  0.1807  0.0359
 7672SOL    HW234476   3.359   1.346  16.395  0.1065 -0.4591  2.4187
 7673SOL     OW34477   3.664   0.191  14.783  0.2273 -0.5160  0.0931
 7673SOL    HW134478   3.640   0.181  14.875 -1.0453 -0.4456 -0.2411
 7673SOL    HW234479   3.673   0.098  14.764 -0.7359 -0.3042 -1.3590
 7674SOL     OW34480   2.439   1.346  17.691  0.3469  0.2291  0.9659
 7674SOL    HW134481   2.514   1.367   0.041  0.3446 -0.5688  1.2743
 7674SOL    HW234482   2.465   1.256  17.671 -1.3911  0.0869 -0.7068
 7675SOL     OW34483   4.474   0.084   9.369 -0.7034 -0.1035  0.2666
 7675SOL    HW134484   4.431   0.001   9.388 -2.1951  0.6178  0.0374
 7675SOL    HW234485   4.513   0.050   9.288 -1.5584 -1.3234  0.3757
 7676SOL     OW34486   1.251   0.057   8.730 -0.1916 -0.3710  0.2371
 7676SOL    HW134487   1.220   0.147   8.720  1.3908  0.2271  0.7360
 7676SOL    HW234488   1.310   0.042   8.655 -0.1027 -0.4315  0.3192
 7677SOL     OW34489   1.519   3.825   6.965  0.3533  0.1212  0.0418
 7677SOL    HW134490   1.545   3.840   7.056 -0.9366  3.1085 -0.0618
 7677SOL    HW234491   1.473   3.904   6.937  2.4177  1.4278  0.3263
 7678SOL     OW34492   2.393   0.841   7.905  0.3193  0.4642  0.2717
 7678SOL    HW134493   2.322   0.783   7.935  2.0879 -1.2498  1.1623
 7678SOL    HW234494   2.351   0.925   7.921 -0.5419  0.2339 -0.7513
 7679SOL     OW34495   3.261   2.926   1.249 -0.5434 -0.4315  0.1512
 7679SOL    HW134496   3.254   2.945   1.343  0.1313 -0.9769  0.3121
 7679SOL    HW234497   3.190   2.975   1.209  0.1796  1.1680  0.8196
 7680SOL     OW34498   4.090   1.101  13.225 -0.7670  0.2531  0.0988
 7680SOL    HW134499   4.107   1.146  13.308 -1.5098 -1.4252  1.1588
 7680SOL    HW234500   4.121   1.011  13.237  0.1371  0.4770 -0.5824
 7681SOL     OW34501   1.064   3.909   2.623 -0.3024 -0.1937 -0.5860
 7681SOL    HW134502   1.096   3.984   2.572  1.1517 -1.3132 -1.3385
 7681SOL    HW234503   1.139   3.901   2.683 -0.8517  2.2906  0.4129
 7682SOL     OW34504   4.655   3.890   8.795 -0.1169  0.0459 -0.3081
 7682SOL    HW134505   4.667   3.840   8.876  1.0864  1.5218  0.4353
 7682SOL    HW234506   0.016   3.876   8.755 -0.0450 -1.0539  0.2345
 7683SOL     OW34507   1.815   0.287   3.292  0.4591  0.5428  0.2592
 7683SOL    HW134508   1.908   0.264   3.287  0.7256  1.5422  0.7190
 7683SOL    HW234509   1.811   0.362   3.232 -1.5972  0.7392  0.6466
 7684SOL     OW34510   1.332   2.720  15.755 -0.0160 -0.0714 -0.5000
 7684SOL    HW134511   1.360   2.738  15.844 -1.2605 -0.3935 -0.0427
 7684SOL    HW234512   1.236   2.722  15.757 -0.1646 -4.4416 -2.4539
 7685SOL     OW34513   0.851   1.517   8.214 -0.2683  0.2482 -0.1272
 7685SOL    HW134514   0.829   1.502   8.306  0.2496  1.1686  0.1418
 7685SOL    HW234515   0.946   1.510   8.207 -0.2417 -0.5107  1.0661
 7686SOL     OW34516   2.930   3.096   1.386  0.1355 -0.1652  0.0788
 7686SOL    HW134517   2.879   3.028   1.430 -1.4271 -0.2456 -1.8326
 7686SOL    HW234518   2.945   3.062   1.298 -0.8831 -0.4293  0.0103
 7687SOL     OW34519   1.962   2.630   6.965  0.2380 -0.4193  0.1996
 7687SOL    HW134520   1.956   2.718   7.002 -0.9752 -0.1965 -0.5250
 7687SOL    HW234521   2.043   2.647   6.917  0.0063  1.3529  0.4456
 7688SOL     OW34522   1.719   4.355   3.437 -0.0986  0.6090  0.5126
 7688SOL    HW134523   1.684   4.437   3.471 -0.4544  1.4340 -1.8654
 7688SOL    HW234524   1.644   4.324   3.387  0.7755 -0.2939 -0.2658
 7689SOL     OW34525   2.302   3.196   8.602  0.5608  0.0014 -0.5456
 7689SOL    HW134526   2.315   3.248   8.523  1.3921  3.2749  1.7478
 7689SOL    HW234527   2.207   3.210   8.602  0.8775  2.1486 -1.0743
 7690SOL     OW34528   0.593   3.028   1.083 -0.5622 -0.1451 -0.1628
 7690SOL    HW134529   0.662   2.981   1.129 -1.1537 -2.5244 -1.7239
 7690SOL    HW234530   0.520   2.983   1.125  0.5016 -2.8094 -1.2229
 7691SOL     OW34531   1.765   3.569  12.200  0.0716 -0.2549 -0.2689
 7691SOL    HW134532   1.735   3.584  12.289 -1.3330 -0.9932 -0.6061
 7691SOL    HW234533   1.687   3.548  12.148  0.1050 -1.3779  0.1414
 7692SOL     OW34534   3.713   0.459   9.367 -0.4169 -0.2643 -0.0630
 7692SOL    HW134535   3.767   0.510   9.305 -1.6257  1.4621  0.3098
 7692SOL    HW234536   3.718   0.371   9.330 -1.2417 -0.0812 -0.6129
 7693SOL     OW34537   4.038   1.999   0.771  0.2404  0.0865  0.2087
 7693SOL    HW134538   4.079   2.015   0.686 -1.0327  0.7841 -0.2745
 7693SOL    HW234539   4.064   1.907   0.778 -0.3185  0.0739  2.1847
 7694SOL     OW34540   3.224   0.727   8.339  0.5306  0.2407 -0.0470
 7694SOL    HW134541   3.226   0.797   8.274  0.3039  0.0685 -0.2420
 7694SOL    HW234542   3.311   0.742   8.374  0.2794  1.3312  0.0929
 7695SOL     OW34543   0.471   2.028   4.152 -0.0705  0.3329  0.0406
 7695SOL    HW134544   0.510   1.957   4.203  2.0305  0.5077 -1.3301
 7695SOL    HW234545   0.483   2.103   4.210  2.3442  2.3135 -3.0560
 7696SOL     OW34546   3.925   0.958   5.048 -0.0030  0.1860  0.3791
 7696SOL    HW134547   3.860   0.958   5.119 -0.2218  1.1707  0.1790
 7696SOL    HW234548   3.876   0.992   4.973 -0.5779  2.3767  1.7396
 7697SOL     OW34549   0.184   3.468  10.288 -0.7973  0.0201  0.6654
 7697SOL    HW134550   0.277   3.448  10.299 -0.9693 -0.6509  0.9325
 7697SOL    HW234551   0.168   3.523  10.364 -2.1542  1.8173 -0.9308
 7698SOL     OW34552   1.562   4.117   8.278  0.5823  0.0387 -0.4537
 7698SOL    HW134553   1.542   4.105   8.371  1.2158 -1.0046 -0.4580
 7698SOL    HW234554   1.597   4.033   8.247 -1.2842 -0.9956  0.2408
 7699SOL     OW34555   2.404   3.966   2.046 -0.8751 -0.3811 -0.0044
 7699SOL    HW134556   2.445   3.893   2.000  0.8640 -0.8194  2.2244
 7699SOL    HW234557   2.460   4.036   2.013 -0.5819 -1.3419 -1.5334
 7700SOL     OW34558   2.258   3.680   5.556  0.2766  0.7037  0.0043
 7700SOL    HW134559   2.263   3.741   5.482 -0.0833 -1.8569 -2.1631
 7700SOL    HW234560   2.338   3.626   5.551  0.4544  0.9991 -0.3212
 7701SOL     OW34561   4.329   1.330   6.162  0.4014  0.1927  0.0267
 7701SOL    HW134562   4.406   1.366   6.117  1.3331 -0.7492  0.8497
 7701SOL    HW234563   4.261   1.356   6.101 -0.6758  1.8905  1.9490
 7702SOL     OW34564   2.730   0.325   8.345 -0.4334 -0.3968 -0.1154
 7702SOL    HW134565   2.747   0.250   8.289 -4.1225 -0.3937 -1.2364
 7702SOL    HW234566   2.658   0.361   8.294 -0.5567 -0.5213 -0.0297
 7703SOL     OW34567   1.223   3.849  16.437  0.1812 -0.4447 -0.7115
 7703SOL    HW134568   1.317   3.844  16.419 -0.0669  1.2254 -2.4276
 7703SOL    HW234569   1.213   3.756  16.460  2.4426  0.6172  4.4471
 7704SOL     OW34570   4.379   1.769   6.662  0.4449  0.4035 -0.2618
 7704SOL    HW134571   4.335   1.815   6.733 -2.0642  1.2829 -2.4075
 7704SOL    HW234572   4.314   1.705   6.632  1.8863 -0.1069 -2.3156
 7705SOL     OW34573   4.291   0.314   8.878  0.2006  0.3605  0.2501
 7705SOL    HW134574   4.268   0.266   8.958  3.8823  1.1221  1.7993
 7705SOL    HW234575   4.387   0.319   8.882  0.2702  0.1232 -1.3222
 7706SOL     OW34576   4.378   2.674   4.000 -0.0403  0.1412  0.2355
 7706SOL    HW134577   4.449   2.617   3.969 -1.8030 -1.4144 -0.9664
 7706SOL    HW234578   4.430   2.751   4.023 -0.3033  0.0427  1.1261
 7707SOL     OW34579   3.299   1.408   1.597  0.5013  0.9327  0.2398
 7707SOL    HW134580   3.218   1.357   1.606  0.8954  0.5575  1.6924
 7707SOL    HW234581   3.350   1.357   1.535 -0.5129 -0.4965  0.5846
 7708SOL     OW34582   0.748   3.957  15.954  0.6044 -0.4801 -0.0496
 7708SOL    HW134583   0.797   3.971  15.873  0.6081  0.2257  0.0745
 7708SOL    HW234584   0.806   3.891  15.993 -1.8137  0.1446  4.5417
 7709SOL     OW34585   3.116   4.400   9.388 -0.0979  0.0553  0.3093
 7709SOL    HW134586   3.082   4.432   9.472 -0.7049 -0.1634  0.1418
 7709SOL    HW234587   3.068   4.317   9.389 -1.9056  1.0756 -2.3794
 7710SOL     OW34588   1.581   0.296   1.254  0.2081  0.5635 -0.0535
 7710SOL    HW134589   1.497   0.317   1.212 -0.6835  1.4643  2.1996
 7710SOL    HW234590   1.591   0.211   1.211 -1.2270  0.5680 -0.4145
 7711SOL     OW34591   2.819   1.013   9.993  0.0941  0.2891 -0.2739
 7711SOL    HW134592   2.767   1.072  10.048 -1.2869 -0.4223 -0.8327
 7711SOL    HW234593   2.808   0.927  10.035  1.7458  0.5131  0.6215
 7712SOL     OW34594   3.576   0.235   2.290  0.0178 -0.1284 -0.0307
 7712SOL    HW134595   3.613   0.235   2.379 -1.5515 -0.3477  0.6255
 7712SOL    HW234596   3.481   0.243   2.299  0.0873  0.3118  0.3259
 7713SOL     OW34597   3.230   0.504  10.564 -0.7231 -0.1034  0.1692
 7713SOL    HW134598   3.154   0.537  10.515  0.3863 -1.2026 -2.3079
 7713SOL    HW234599   3.191   0.512  10.651  0.4937  0.8182  0.6305
 7714SOL     OW34600   0.584   2.461   4.614 -0.3499 -0.4832 -0.1870
 7714SOL    HW134601   0.678   2.475   4.613 -0.2957 -0.9489 -1.9043
 7714SOL    HW234602   0.556   2.510   4.692  1.7453 -1.7083  1.3025
 7715SOL     OW34603   3.444   1.221   1.735  0.4407  0.2300 -0.0534
 7715SOL    HW134604   3.397   1.289   1.685  1.5822  2.3275  1.7012
 7715SOL    HW234605   3.379   1.154   1.756 -0.4722  0.5575 -1.7826
 7716SOL     OW34606   3.283   3.307   6.528  0.1912 -0.5074  0.6141
 7716SOL    HW134607   3.366   3.353   6.513  1.2238 -1.9888  1.7267
 7716SOL    HW234608   3.317   3.223   6.559 -2.1192 -1.5005  0.4279
 7717SOL     OW34609   1.760   1.518  17.245  0.5856  0.0436  0.4750
 7717SOL    HW134610   1.755   1.555  17.333 -2.1770 -1.2176  0.8674
 7717SOL    HW234611   1.782   1.596  17.194  1.5035 -0.3021  0.3527
 7718SOL     OW34612   2.616   3.826   8.311  0.4007 -0.3379  0.0629
 7718SOL    HW134613   2.640   3.754   8.369  1.2659  1.0155  1.3467
 7718SOL    HW234614   2.628   3.894   8.376  1.5950 -0.5484  0.0614
 7719SOL     OW34615   3.751   3.460   6.361 -0.0550  0.1831  0.0818
 7719SOL    HW134616   3.804   3.400   6.310 -1.5136 -0.2162 -0.9426
 7719SOL    HW234617   3.792   3.434   6.444  2.3362  1.6547 -0.6527
 7720SOL     OW34618   0.926   0.711  15.352  0.1444  0.4707 -0.3847
 7720SOL    HW134619   0.932   0.670  15.439  0.6273  2.0515  0.3283
 7720SOL    HW234620   0.926   0.632  15.298  0.1127  0.2811 -0.1118
 7721SOL     OW34621   2.588   3.233   7.674 -0.6135 -0.7173  0.1020
 7721SOL    HW134622   2.568   3.249   7.582 -1.9431 -0.3921  0.4417
 7721SOL    HW234623   2.552   3.318   7.700  1.6335 -0.0972  1.1623
 7722SOL     OW34624   4.496   1.308  16.175 -0.1589 -0.2193  0.5070
 7722SOL    HW134625   4.529   1.308  16.085  1.1523  3.4496  0.9784
 7722SOL    HW234626   4.566   1.263  16.223  0.9248  2.4527  1.4650
 7723SOL     OW34627   0.207   0.708  11.280  0.3125 -0.9433 -0.1827
 7723SOL    HW134628   0.201   0.619  11.244  1.6514 -1.0897 -0.0437
 7723SOL    HW234629   0.192   0.758  11.200 -1.9374 -0.2964  0.6434
 7724SOL     OW34630   2.573   2.674   5.433  0.0124  0.2410 -0.0733
 7724SOL    HW134631   2.600   2.765   5.440 -0.0522  0.1925  0.7926
 7724SOL    HW234632   2.652   2.632   5.466 -0.7736 -0.9909  0.2293
 7725SOL     OW34633   3.971   0.614  17.492 -0.2902 -0.1190  0.1876
 7725SOL    HW134634   3.926   0.637  17.411  2.1986 -0.5522 -1.3210
 7725SOL    HW234635   3.913   0.546  17.524 -1.6009  1.9255  2.1574
 7726SOL     OW34636   1.445   3.705   8.522  0.2357 -0.2321 -0.4807
 7726SOL    HW134637   1.483   3.632   8.571 -2.3210 -1.4617 -0.3255
 7726SOL    HW234638   1.360   3.667   8.501  1.5722 -3.1146 -0.6369
 7727SOL     OW34639   4.429   0.968  15.577 -0.5065  0.2229 -0.9138
 7727SOL    HW134640   4.466   0.882  15.556 -1.4171  0.0458 -1.8109
 7727SOL    HW234641   4.343   0.962  15.534 -0.4117  0.2864 -1.1148
 7728SOL     OW34642   1.046   0.566   9.234  0.3387 -0.3059  0.9013
 7728SOL    HW134643   1.024   0.553   9.142 -0.9053 -1.7908  1.4128
 7728SOL    HW234644   0.961   0.586   9.275 -1.0688 -1.1412 -1.6246
 7729SOL     OW34645   1.110   4.285   6.029 -0.2803  0.1670 -0.7646
 7729SOL    HW134646   1.116   4.213   6.092  0.2521 -0.1927 -1.2258
 7729SOL    HW234647   1.098   4.360   6.087 -2.9515 -0.7487 -0.1366
 7730SOL     OW34648   1.306   1.905   3.214 -0.3402 -0.1135  0.0448
 7730SOL    HW134649   1.259   1.840   3.163 -0.6318  0.8521 -0.9108
 7730SOL    HW234650   1.347   1.855   3.285 -0.8505 -0.9631 -0.2629
 7731SOL     OW34651   2.204   1.094   4.764  1.0095 -0.0091  0.0087
 7731SOL    HW134652   2.144   1.019   4.760  1.1633 -0.1415  0.2395
 7731SOL    HW234653   2.251   1.098   4.847  0.4802 -1.6978  0.3938
 7732SOL     OW34654   4.485   0.971   6.053  0.0971 -0.7189 -0.0889
 7732SOL    HW134655   4.564   1.025   6.051  0.5922 -1.4873 -1.2436
 7732SOL    HW234656   4.519   0.881   6.047  1.9592 -0.0826  0.9219
 7733SOL     OW34657   2.642   3.786   1.439 -0.5557  0.2780  0.2225
 7733SOL    HW134658   2.641   3.854   1.506  1.2053  0.6856 -0.1865
 7733SOL    HW234659   2.566   3.796   1.382  0.0781  2.1194 -0.3001
 7734SOL     OW34660   3.108   1.493  15.860  0.2960  0.1935  0.2168
 7734SOL    HW134661   3.077   1.571  15.814  0.8346  0.8789  1.0187
 7734SOL    HW234662   3.198   1.496  15.829  1.3014 -0.0033  3.1280
 7735SOL     OW34663   3.242   4.087   0.878 -0.3159 -0.0756  0.0501
 7735SOL    HW134664   3.334   4.099   0.857 -0.0063 -1.7990  0.4432
 7735SOL    HW234665   3.233   4.162   0.937 -0.2006  0.3361 -0.4568
 7736SOL     OW34666   0.712   2.441   6.527 -0.2653  0.2343 -0.0856
 7736SOL    HW134667   0.777   2.387   6.571 -1.1983 -0.4422  0.4768
 7736SOL    HW234668   0.668   2.377   6.472  0.1020  0.6079 -0.8163
 7737SOL     OW34669   2.778   1.875  16.336  0.4253 -0.1744 -0.1404
 7737SOL    HW134670   2.746   1.911  16.254  1.4510 -0.4008 -0.6352
 7737SOL    HW234671   2.733   1.790  16.330  0.2546  0.0685 -2.1795
 7738SOL     OW34672   2.628   0.578   4.433 -0.7300 -0.6817 -0.1314
 7738SOL    HW134673   2.671   0.591   4.348  3.4160 -1.4091  1.8428
 7738SOL    HW234674   2.636   0.666   4.471  0.1266 -0.5436 -0.6328
 7739SOL     OW34675   2.851   1.008   4.833 -0.2151  0.2283  0.0280
 7739SOL    HW134676   2.756   1.018   4.837 -0.1848  0.3682  0.3938
 7739SOL    HW234677   2.862   0.913   4.837 -0.1990  0.2054 -0.4856
 7740SOL     OW34678   1.504   1.151   7.291  0.2348  0.2544  0.1274
 7740SOL    HW134679   1.595   1.124   7.305 -0.1799 -0.6546  1.0499
 7740SOL    HW234680   1.514   1.146   7.196  1.7157  2.8067  0.1528
 7741SOL     OW34681   4.037   0.382   3.717 -1.1736 -0.3890 -0.9803
 7741SOL    HW134682   3.975   0.428   3.774  1.9420  0.4164  1.7442
 7741SOL    HW234683   4.114   0.436   3.733 -0.9616 -1.4507  1.5244
 7742SOL     OW34684   0.371   2.513   4.153 -0.4067  0.3989  0.2579
 7742SOL    HW134685   0.442   2.562   4.111 -0.7041  0.1886 -0.4880
 7742SOL    HW234686   0.321   2.506   4.072 -1.7457 -0.0318  1.1311
 7743SOL     OW34687   4.394   2.604   5.392 -0.1960 -0.4370 -0.2194
 7743SOL    HW134688   4.476   2.562   5.368  1.1888  1.9170  0.4040
 7743SOL    HW234689   4.421   2.687   5.432 -3.0154 -0.3132  1.4345
 7744SOL     OW34690   1.983   0.461  10.957 -0.5006  0.3677  0.1442
 7744SOL    HW134691   1.987   0.553  10.930 -1.6055  0.9994  2.1908
 7744SOL    HW234692   1.996   0.477  11.050  2.4544 -0.7798 -0.0956
 7745SOL     OW34693   3.183   0.916  14.296 -0.2462 -0.4667 -0.1327
 7745SOL    HW134694   3.276   0.893  14.287 -0.0926  1.0448 -2.4390
 7745SOL    HW234695   3.147   0.837  14.256  0.4764 -1.0077  0.2842
 7746SOL     OW34696   1.427   0.050   3.553 -0.4584 -0.2012  0.0353
 7746SOL    HW134697   1.397   0.103   3.627  0.3373 -0.5564  0.6137
 7746SOL    HW234698   1.477   0.119   3.509  0.0126 -1.0634 -0.7721
 7747SOL     OW34699   0.366   4.215   7.247 -0.3275 -0.2713  0.5334
 7747SOL    HW134700   0.312   4.236   7.323  0.6763 -0.2182  1.2413
 7747SOL    HW234701   0.419   4.143   7.280 -0.9511 -1.8978 -2.0486
 7748SOL     OW34702   1.416   2.810   2.439 -0.0542 -0.2921  0.8542
 7748SOL    HW134703   1.356   2.759   2.493 -1.0033 -0.0710 -0.0047
 7748SOL    HW234704   1.493   2.755   2.421  1.1069  0.7388  2.6443
 7749SOL     OW34705   3.869   4.578   5.422 -0.5864  0.2694 -0.0602
 7749SOL    HW134706   3.916   4.503   5.457 -2.4191 -0.7002  0.3681
 7749SOL    HW234707   3.930   4.652   5.426 -0.3385  0.0191  0.6991
 7750SOL     OW34708   4.136   2.296  12.162  0.1202 -0.2679  0.1865
 7750SOL    HW134709   4.118   2.300  12.256  0.2059 -1.6836  0.2549
 7750SOL    HW234710   4.067   2.337  12.110  2.4006  0.8710 -1.8949
 7751SOL     OW34711   1.294   3.000   2.855 -0.1450 -0.1772  0.4106
 7751SOL    HW134712   1.218   3.024   2.907 -0.5698 -0.1153 -0.2416
 7751SOL    HW234713   1.270   3.017   2.764 -0.1335  0.1873  0.4756
 7752SOL     OW34714   0.720   0.002   7.446  0.0414 -0.1136  0.0587
 7752SOL    HW134715   0.636   4.716   7.401 -1.3337  0.4612  2.4922
 7752SOL    HW234716   0.704   0.083   7.493  0.1954  1.4513 -2.6024
 7753SOL     OW34717   3.828   1.059   4.325 -0.1554 -0.1534 -0.0687
 7753SOL    HW134718   3.868   1.146   4.320 -0.3912 -0.1154 -1.3179
 7753SOL    HW234719   3.736   1.086   4.321 -0.6636 -1.6870  1.3789
 7754SOL     OW34720   0.269   1.931   1.877  0.4315  0.2729  0.1250
 7754SOL    HW134721   0.305   1.874   1.809 -0.1388 -0.5028  0.4702
 7754SOL    HW234722   0.317   2.005   1.841  1.7205 -0.0805  1.0749
 7755SOL     OW34723   0.880   0.178   3.835 -0.4507 -0.0994  0.0199
 7755SOL    HW134724   0.820   0.244   3.869 -1.0393 -0.0745 -1.0610
 7755SOL    HW234725   0.817   0.138   3.774  1.3551  0.4734 -2.2319
 7756SOL     OW34726   3.450   2.308  15.009  0.5421  0.2849 -0.1352
 7756SOL    HW134727   3.454   2.297  15.104 -4.0232 -2.0338 -0.2016
 7756SOL    HW234728   3.358   2.286  14.993 -0.2191  1.2057  3.1306
 7757SOL     OW34729   1.544   0.377  16.666  0.3015 -0.0165  0.0647
 7757SOL    HW134730   1.600   0.375  16.744  1.3518 -0.1649 -0.6888
 7757SOL    HW234731   1.459   0.399  16.704 -0.1407  0.4900 -1.1953
 7758SOL     OW34732   2.157   0.759   5.084 -0.0730 -0.0355  0.3492
 7758SOL    HW134733   2.179   0.666   5.084  1.7424  0.3960  0.5084
 7758SOL    HW234734   2.153   0.774   5.178  1.6768  3.1051 -0.1177
 7759SOL     OW34735   3.931   3.906   4.190 -0.0584  0.0258  0.1217
 7759SOL    HW134736   3.983   3.896   4.111 -0.2558 -0.1096  0.0114
 7759SOL    HW234737   3.853   3.948   4.153  2.0507  3.7910 -0.0476
 7760SOL     OW34738   0.270   2.782   5.665 -0.1760 -0.2039 -0.8172
 7760SOL    HW134739   0.312   2.835   5.733 -2.7507  1.6792 -0.7273
 7760SOL    HW234740   0.344   2.766   5.606  2.1608  2.0491  1.4964
 7761SOL     OW34741   2.533   1.464   8.281  0.6538  0.0741 -0.3490
 7761SOL    HW134742   2.537   1.476   8.186  0.7650 -0.5715 -0.4250
 7761SOL    HW234743   2.438   1.468   8.289  0.5134 -1.8499 -1.1013
 7762SOL     OW34744   0.257   2.232   7.715 -0.4505 -0.0423  0.1552
 7762SOL    HW134745   0.235   2.250   7.624 -1.7348  1.6654  0.7965
 7762SOL    HW234746   0.327   2.293   7.739  0.8530 -0.6997 -1.9264
 7763SOL     OW34747   1.434   1.626   3.072 -0.6432 -0.2027  0.0345
 7763SOL    HW134748   1.421   1.566   2.998 -0.2763  0.6329 -0.7109
 7763SOL    HW234749   1.343   1.653   3.081 -1.3710 -3.0771  1.2686
 7764SOL     OW34750   3.963   0.015   3.418  0.1548 -0.1699 -0.7920
 7764SOL    HW134751   4.015   4.711   3.343 -2.5679 -3.6920 -1.2682
 7764SOL    HW234752   3.952   0.108   3.399 -2.5292 -0.2508  0.3704
 7765SOL     OW34753   2.899   2.131   2.997 -0.1471 -0.5192 -0.7799
 7765SOL    HW134754   2.889   2.129   2.902 -0.3271 -1.2760 -0.7436
 7765SOL    HW234755   2.807   2.123   3.021  0.2354  0.1269  0.8928
 7766SOL     OW34756   3.112   1.357  11.175  0.0581 -0.0286  0.2494
 7766SOL    HW134757   3.074   1.278  11.213  0.7312 -0.8156 -0.6922
 7766SOL    HW234758   3.165   1.322  11.103 -1.1869 -1.0153 -0.1771
 7767SOL     OW34759   1.666   0.179   7.960 -0.0970  0.5539  0.0468
 7767SOL    HW134760   1.668   0.121   7.884  1.3936  0.1770  0.3740
 7767SOL    HW234761   1.748   0.148   7.997 -0.0877 -0.1919 -0.6090
 7768SOL     OW34762   1.043   1.558  17.411  0.0433 -0.0893 -0.0977
 7768SOL    HW134763   1.052   1.536  17.504  2.0889 -0.1994 -0.3082
 7768SOL    HW234764   1.052   1.475  17.363 -0.0636 -0.4146  0.4461
 7769SOL     OW34765   0.061   3.648   7.846 -0.3598  0.6764 -0.0436
 7769SOL    HW134766   0.097   3.729   7.810 -0.3068  1.6175  2.1100
 7769SOL    HW234767   4.705   3.640   7.796 -1.1781  1.4982  1.1784
 7770SOL     OW34768   2.856   4.505   4.927 -0.0826  0.8817 -0.4151
 7770SOL    HW134769   2.906   4.529   5.005  2.3172 -0.9303 -1.3986
 7770SOL    HW234770   2.924   4.472   4.869 -1.2164  0.2809 -1.4156
 7771SOL     OW34771   0.914   4.676   5.134  0.1943  0.5686 -0.3858
 7771SOL    HW134772   0.964   4.595   5.137  3.1961  2.4591  1.6486
 7771SOL    HW234773   0.956   4.721   5.061 -0.6017 -3.2326 -3.1693
 7772SOL     OW34774   1.703   4.309  12.917  0.2488  0.1025 -0.2870
 7772SOL    HW134775   1.795   4.337  12.921  0.3593 -0.1557 -0.9742
 7772SOL    HW234776   1.695   4.308  12.822  0.4320 -1.5109 -0.2943
 7773SOL     OW34777   0.702   0.495   2.501 -0.6013  0.1453 -0.0031
 7773SOL    HW134778   0.749   0.567   2.458 -1.8916  0.5702 -0.7096
 7773SOL    HW234779   0.682   0.437   2.428  2.8292 -2.9278  1.5254
 7774SOL     OW34780   1.055   0.254   8.395 -0.1186 -0.6338 -0.1654
 7774SOL    HW134781   0.974   0.205   8.379 -0.9261  0.7619 -0.3808
 7774SOL    HW234782   1.022   0.332   8.440  1.7148 -0.7076  1.3095
 7775SOL     OW34783   3.076   0.506   2.026  1.0265 -0.2095 -0.1393
 7775SOL    HW134784   3.096   0.427   1.975  1.8286  1.1346 -1.8749
 7775SOL    HW234785   2.989   0.515   1.987  0.9687  1.4547  0.4162
 7776SOL     OW34786   4.601   0.794   1.745 -0.1696  0.0033 -0.1089
 7776SOL    HW134787   4.631   0.713   1.785  3.9178  1.8906  0.5908
 7776SOL    HW234788   4.508   0.774   1.729  0.1318 -1.8276  0.4776
 7777SOL     OW34789   4.273   4.131  17.556 -0.3879  0.2502 -0.1801
 7777SOL    HW134790   4.326   4.174  17.622 -1.4062  0.4243  0.5146
 7777SOL    HW234791   4.333   4.066  17.520  1.0838  0.9156  1.0827
 7778SOL     OW34792   0.884   1.080   9.420 -0.5683  0.3261  0.2700
 7778SOL    HW134793   0.850   0.992   9.405 -0.4727  0.5790 -1.4935
 7778SOL    HW234794   0.897   1.078   9.514  0.5279 -1.1408  0.0691
 7779SOL     OW34795   0.814   0.140   7.148 -0.0727 -0.2332 -0.2874
 7779SOL    HW134796   0.838   0.077   7.080  0.6088 -1.1838  0.8465
 7779SOL    HW234797   0.788   0.092   7.227  2.1899 -0.0426  0.5561
 7780SOL     OW34798   0.691   1.806  16.302  0.8953  0.2161  0.5218
 7780SOL    HW134799   0.758   1.763  16.354 -0.0544 -1.8483  0.0244
 7780SOL    HW234800   0.701   1.899  16.324 -1.5830  0.8109 -0.8213
 7781SOL     OW34801   4.127   0.572   4.794 -0.0673  0.2514  0.3858
 7781SOL    HW134802   4.217   0.539   4.797  0.5932  2.0438 -0.0345
 7781SOL    HW234803   4.138   0.650   4.741  2.8412  0.2565  0.9596
 7782SOL     OW34804   0.588   1.437   7.032  0.3155  0.2414  0.6174
 7782SOL    HW134805   0.670   1.430   6.983 -0.9797 -0.0733 -1.4978
 7782SOL    HW234806   0.514   1.432   6.971  0.4122 -0.8965  0.5949
 7783SOL     OW34807   1.339   0.921   7.399 -0.0172  0.1045  0.3140
 7783SOL    HW134808   1.358   0.827   7.389 -1.2832  0.0171 -1.3171
 7783SOL    HW234809   1.400   0.954   7.333 -1.1382 -1.7573 -1.6797
 7784SOL     OW34810   0.885   1.203   2.160  0.6489 -0.1432  0.0145
 7784SOL    HW134811   0.848   1.290   2.159  1.8135  0.3709  0.9448
 7784SOL    HW234812   0.826   1.160   2.221  1.5182  0.6326  1.4129
 7785SOL     OW34813   0.804   2.796   3.054  0.1473 -0.8127  0.1513
 7785SOL    HW134814   0.779   2.745   3.131  0.6962 -0.6656  0.4238
 7785SOL    HW234815   0.779   2.882   3.089 -0.2054 -0.0047 -2.0660
 7786SOL     OW34816   1.795   4.002  15.720 -0.1577 -0.2700  0.0689
 7786SOL    HW134817   1.727   4.016  15.655 -0.8316 -2.1729  0.3529
 7786SOL    HW234818   1.871   4.045  15.682  0.6023 -1.5941  0.0761
 7787SOL     OW34819   4.433   3.039   3.996  0.1779  0.3087  0.0468
 7787SOL    HW134820   4.526   3.059   4.002  0.2353  0.5952 -1.6313
 7787SOL    HW234821   4.414   3.053   3.903 -3.0723  1.9229  0.9731
 7788SOL     OW34822   1.166   4.569  14.690 -0.3475 -0.4059  0.4198
 7788SOL    HW134823   1.126   4.513  14.757 -0.2052 -1.0460 -0.0324
 7788SOL    HW234824   1.256   4.566  14.721  0.2335 -2.4948 -1.4811
 7789SOL     OW34825   4.483   3.663  16.631 -0.8858 -0.3086  0.1348
 7789SOL    HW134826   4.513   3.578  16.599 -1.0434 -0.5200  0.5509
 7789SOL    HW234827   4.410   3.644  16.690 -0.2394  0.3694  1.1580
 7790SOL     OW34828   1.924   3.066   5.643  0.8755 -0.2957 -0.3403
 7790SOL    HW134829   2.004   3.051   5.591  1.4882 -0.1494  0.5625
 7790SOL    HW234830   1.910   2.985   5.691  0.3125  0.6414  1.0579
 7791SOL     OW34831   2.888   0.143   4.841  0.3521  0.1614  0.4995
 7791SOL    HW134832   2.926   0.094   4.767  0.0683 -0.0708  0.5069
 7791SOL    HW234833   2.939   0.116   4.917 -0.5225 -1.8543  0.3706
 7792SOL     OW34834   2.945   0.984   8.404 -0.1179  0.2025 -0.0270
 7792SOL    HW134835   2.999   1.050   8.361  3.0857 -1.9639  0.6842
 7792SOL    HW234836   2.941   0.919   8.333  1.6352 -0.8612  0.8474
 7793SOL     OW34837   2.193   4.071   3.924 -0.0042  0.5013 -0.1619
 7793SOL    HW134838   2.143   3.996   3.955  0.4001 -0.2205 -1.2812
 7793SOL    HW234839   2.178   4.047   3.833 -0.4490  0.3730 -0.0534
 7794SOL     OW34840   0.053   4.356   7.950  0.7608  0.4187 -0.6680
 7794SOL    HW134841   0.025   4.401   7.870 -0.6784  0.4582 -0.1276
 7794SOL    HW234842   0.141   4.332   7.919  0.4256 -1.8700  0.1554
 7795SOL     OW34843   2.340   1.746  15.107 -0.0921  0.1211 -0.3408
 7795SOL    HW134844   2.274   1.808  15.076 -1.8129 -0.7867  1.4518
 7795SOL    HW234845   2.400   1.753  15.033  0.8166  3.0160  0.6507
 7796SOL     OW34846   2.644   2.159   4.597 -0.2781  0.2313 -0.1346
 7796SOL    HW134847   2.692   2.132   4.676  0.9267 -1.1880 -1.3533
 7796SOL    HW234848   2.581   2.087   4.596  0.0956 -0.0701 -1.0736
 7797SOL     OW34849   0.469   0.106  13.196  0.5247  0.1311 -0.1390
 7797SOL    HW134850   0.530   0.033  13.207 -0.0770 -0.1074  1.7396
 7797SOL    HW234851   0.473   0.150  13.281  2.8800 -0.5627  0.1043
 7798SOL     OW34852   0.556   0.576   9.563 -0.3499 -0.1127 -0.3509
 7798SOL    HW134853   0.577   0.607   9.651 -0.7917  0.9738 -0.6296
 7798SOL    HW234854   0.460   0.568   9.563 -0.3795  0.2270  1.0535
 7799SOL     OW34855   1.871   4.310   7.154  0.1739 -0.6647 -0.0706
 7799SOL    HW134856   1.839   4.232   7.198 -0.5997 -0.0093  0.5197
 7799SOL    HW234857   1.786   4.353   7.142  0.9497  0.2860 -2.2908
 7800SOL     OW34858   3.418   4.510   4.055  0.3654  0.0585  0.0124
 7800SOL    HW134859   3.502   4.473   4.082  1.8657  3.0526 -0.6389
 7800SOL    HW234860   3.417   4.486   3.962 -1.0113 -1.0874  0.3123
 7801SOL     OW34861   1.169   4.445   3.854 -0.3225  0.2202 -0.0595
 7801SOL    HW134862   1.254   4.484   3.834 -0.7863  0.5364 -1.4420
 7801SOL    HW234863   1.127   4.526   3.886 -0.8768 -1.2838  2.9879
 7802SOL     OW34864   1.843   0.684   2.529 -0.0574 -0.0549  0.3647
 7802SOL    HW134865   1.888   0.600   2.518  0.3998  0.0705  1.2753
 7802SOL    HW234866   1.804   0.673   2.616 -1.4633  1.0280 -0.1373
 7803SOL     OW34867   3.238   0.292   8.852  0.1624  0.5136 -0.3420
 7803SOL    HW134868   3.219   0.311   8.761  2.6608  0.2382 -0.9342
 7803SOL    HW234869   3.222   0.381   8.882  0.2979  0.0581  1.1077
 7804SOL     OW34870   2.828   2.972   5.915  0.2861 -0.2248 -0.1156
 7804SOL    HW134871   2.913   2.928   5.921  1.0536  1.2874  0.1262
 7804SOL    HW234872   2.812   2.974   6.009  1.5439  0.7583  0.0769
 7805SOL     OW34873   2.617   2.659  14.769 -0.0602 -0.6510 -0.3285
 7805SOL    HW134874   2.702   2.614  14.772  1.5777  2.5196  1.2665
 7805SOL    HW234875   2.614   2.689  14.678  0.8223 -0.8824 -0.4339
 7806SOL     OW34876   3.798   0.070  15.295  0.2605 -0.0182  0.5090
 7806SOL    HW134877   3.716   0.077  15.246  0.7821 -1.0230 -0.5274
 7806SOL    HW234878   3.835   0.158  15.299 -0.4684  0.1907  2.9325
 7807SOL     OW34879   0.246   0.696  13.464  0.3625  0.2256  0.1036
 7807SOL    HW134880   0.267   0.748  13.542  0.5329 -0.9239  0.8159
 7807SOL    HW234881   0.248   0.767  13.400 -0.4736  1.0286  0.9597
 7808SOL     OW34882   2.315   4.326  15.480 -0.5375  0.2805 -0.2108
 7808SOL    HW134883   2.325   4.233  15.502  1.1383  0.6418  0.5643
 7808SOL    HW234884   2.234   4.340  15.529  0.1723 -0.1468  1.1089
 7809SOL     OW34885   2.480   0.523   4.676  0.2953 -0.3948  0.0291
 7809SOL    HW134886   2.398   0.553   4.638  0.0178  0.5674  1.3896
 7809SOL    HW234887   2.522   0.507   4.591 -1.5808 -1.1731 -0.7531
 7810SOL     OW34888   2.136   0.501   8.985 -0.4954  0.4042  0.2495
 7810SOL    HW134889   2.101   0.520   8.898 -0.3353 -0.1989  0.0584
 7810SOL    HW234890   2.124   0.406   8.986  0.9056  0.2111 -1.5737
 7811SOL     OW34891   4.163   0.944  14.225  0.5051 -0.4388  0.0277
 7811SOL    HW134892   4.090   0.882  14.226  0.4642 -0.3830  0.7538
 7811SOL    HW234893   4.142   1.002  14.152  2.5542 -1.1175 -1.0782
 7812SOL     OW34894   2.499   1.767   3.715  0.5831  0.9913 -0.0618
 7812SOL    HW134895   2.505   1.673   3.730  0.8295  0.4541 -3.3927
 7812SOL    HW234896   2.517   1.776   3.621  0.0717 -1.2729 -0.3976
 7813SOL     OW34897   0.364   0.966   8.652  0.2540  0.1388 -0.3453
 7813SOL    HW134898   0.449   0.983   8.692 -0.4588  1.8195  0.4869
 7813SOL    HW234899   0.321   0.906   8.712 -1.5254  1.4033 -0.3411
 7814SOL     OW34900   3.825   4.433   4.572  0.5176  0.2023  0.5375
 7814SOL    HW134901   3.883   4.449   4.646  0.6323  1.5546  0.1602
 7814SOL    HW234902   3.796   4.521   4.545  1.0961 -0.5117 -2.4303
 7815SOL     OW34903   1.798   2.969  12.762  0.4256  0.1304  0.3389
 7815SOL    HW134904   1.713   2.986  12.803 -0.5245 -1.3209 -1.0270
 7815SOL    HW234905   1.779   2.990  12.671  1.0170 -2.1949 -0.3066
 7816SOL     OW34906   4.238   3.312   4.641  0.0789  0.6005  0.4808
 7816SOL    HW134907   4.164   3.253   4.628 -0.3724  1.0417  1.0543
 7816SOL    HW234908   4.273   3.295   4.728  2.8432 -0.4076 -0.8283
 7817SOL     OW34909   3.859   1.930   7.618  0.4879  0.7123  0.2008
 7817SOL    HW134910   3.838   1.836   7.616  0.0321  0.8512 -1.6179
 7817SOL    HW234911   3.952   1.927   7.642  0.2631  2.4136  1.2707
 7818SOL     OW34912   2.762   1.204   3.403 -0.3125 -0.2209  0.1126
 7818SOL    HW134913   2.853   1.227   3.384 -0.2478 -1.8414 -1.4921
 7818SOL    HW234914   2.752   1.138   3.335  1.0517 -0.1459 -0.1609
 7819SOL     OW34915   2.824   0.605   2.734 -0.1206  0.5376  0.2102
 7819SOL    HW134916   2.749   0.624   2.790 -0.3127 -1.2124  0.5566
 7819SOL    HW234917   2.779   0.567   2.659  2.5556 -2.8786  0.3129
 7820SOL     OW34918   3.732   1.196  10.654 -0.8863  0.3949 -0.3813
 7820SOL    HW134919   3.653   1.150  10.627  0.4023 -0.3210 -2.9523
 7820SOL    HW234920   3.761   1.223  10.566  0.3006 -0.4536 -0.2515
 7821SOL     OW34921   0.568   2.586   6.716 -0.2639 -0.1095 -0.1634
 7821SOL    HW134922   0.491   2.543   6.678  0.1047 -0.9171  0.0073
 7821SOL    HW234923   0.633   2.546   6.658  1.2569  0.0215  1.4659
 7822SOL     OW34924   1.175   0.873   3.605  0.0455  0.0720  0.3958
 7822SOL    HW134925   1.230   0.794   3.613 -0.0257  0.2155  2.3975
 7822SOL    HW234926   1.087   0.846   3.631  0.4638 -0.7622  0.9522
 7823SOL     OW34927   3.716   2.991  17.386  0.2491 -0.4381 -0.4324
 7823SOL    HW134928   3.640   2.938  17.410  1.3422 -1.0738  1.6494
 7823SOL    HW234929   3.746   3.028  17.469 -0.9043  1.1830 -0.7421
 7824SOL     OW34930   4.717   4.409   4.096  0.1661 -0.4455 -0.1186
 7824SOL    HW134931   0.041   4.352   4.038  0.8967  0.2977 -0.2317
 7824SOL    HW234932   0.006   4.360   4.177 -0.4584 -0.9745 -0.3250
 7825SOL     OW34933   3.952   4.179   6.895  0.7248 -0.0760 -0.2593
 7825SOL    HW134934   3.864   4.166   6.860  0.6168 -2.3480  0.8694
 7825SOL    HW234935   3.955   4.117   6.967  1.9092  1.2610  0.8572
 7826SOL     OW34936   3.794   0.981   9.307 -0.9546  0.2275 -0.0445
 7826SOL    HW134937   3.794   0.915   9.376 -1.0418  1.4191  1.0936
 7826SOL    HW234938   3.777   1.059   9.359  2.4054  1.4220 -0.7328
 7827SOL     OW34939   4.333   0.761   3.123 -0.4353  0.1087  0.7659
 7827SOL    HW134940   4.365   0.720   3.043  0.1555 -1.0128  1.5783
 7827SOL    HW234941   4.261   0.701   3.142  0.9360 -1.5118  0.8529
 7828SOL     OW34942   1.741   1.689   2.539 -0.1996  0.1641 -0.2462
 7828SOL    HW134943   1.722   1.776   2.574  1.9373  0.1783  0.9110
 7828SOL    HW234944   1.651   1.657   2.543 -0.3855  0.7297  0.1399
 7829SOL     OW34945   4.662   3.375   3.181  0.1929 -0.0588  0.0588
 7829SOL    HW134946   4.634   3.346   3.095  0.2405 -2.8201  0.9862
 7829SOL    HW234947   0.020   3.421   3.174  1.3733 -2.0465  1.2892
 7830SOL     OW34948   2.242   0.479   1.791 -0.1236 -0.0840 -0.2554
 7830SOL    HW134949   2.153   0.489   1.823 -0.4154 -0.4869 -0.9497
 7830SOL    HW234950   2.237   0.416   1.720 -0.2568 -0.0143 -0.3062
 7831SOL     OW34951   1.872   0.454   4.946  0.3238 -0.8121  0.2115
 7831SOL    HW134952   1.918   0.372   4.964  0.5691 -0.3862  1.5682
 7831SOL    HW234953   1.845   0.488   5.032 -0.8409 -2.0942  0.3526
 7832SOL     OW34954   2.519   0.659  11.452 -0.5847 -0.1555  0.3808
 7832SOL    HW134955   2.611   0.645  11.433 -0.1121  0.8922  1.9116
 7832SOL    HW234956   2.524   0.686  11.544 -1.6286  1.2672  0.0367
 7833SOL     OW34957   4.176   2.184   6.811 -0.5632 -0.1199 -0.0385
 7833SOL    HW134958   4.232   2.241   6.863 -1.4457 -0.1875  0.9933
 7833SOL    HW234959   4.227   2.165   6.732  0.0529 -0.8883  0.5390
 7834SOL     OW34960   0.529   4.145  15.934  0.2207  0.2897  0.5051
 7834SOL    HW134961   0.593   4.081  15.904 -0.2930 -1.1675  2.5302
 7834SOL    HW234962   0.547   4.154  16.027 -3.2846 -2.2141  1.4375
 7835SOL     OW34963   4.421   1.159   3.418  0.0466  0.0941 -0.2515
 7835SOL    HW134964   4.336   1.116   3.409 -0.3621  1.1953 -1.5021
 7835SOL    HW234965   4.448   1.161   3.326 -2.6637 -0.1510 -1.0541
 7836SOL     OW34966   2.579   2.800   2.810  0.4452 -0.2570  0.2139
 7836SOL    HW134967   2.615   2.834   2.893 -0.6993  0.3075  0.4856
 7836SOL    HW234968   2.593   2.872   2.749  0.5634  0.4411  1.0587
 7837SOL     OW34969   0.145   2.391   3.607 -0.3188  0.4427  0.0587
 7837SOL    HW134970   0.057   2.367   3.636 -1.1000  1.2038 -1.7156
 7837SOL    HW234971   0.121   2.470   3.559 -0.5061  0.8430  0.8018
 7838SOL     OW34972   1.089   4.501   5.357 -0.0460  0.4129  0.0052
 7838SOL    HW134973   1.151   4.432   5.382  1.3823  1.1577 -1.4265
 7838SOL    HW234974   1.153   4.562   5.320  0.3133  1.7352  2.8770
 7839SOL     OW34975   2.329   2.433   2.877 -0.6312  0.0107  0.6918
 7839SOL    HW134976   2.327   2.496   2.949  0.2586 -1.1605  1.7496
 7839SOL    HW234977   2.241   2.396   2.885 -0.1652 -1.0155  0.9894
 7840SOL     OW34978   0.995   2.094   5.884  0.8232 -0.3205  0.4056
 7840SOL    HW134979   0.949   2.014   5.909 -2.0060  1.5660  1.1720
 7840SOL    HW234980   1.002   2.151   5.960 -2.6238 -0.3182  0.7116
 7841SOL     OW34981   2.194   0.350   6.871  0.2823  0.5309  0.2654
 7841SOL    HW134982   2.166   0.261   6.852 -0.8927  0.4187  2.5217
 7841SOL    HW234983   2.289   0.336   6.876  0.1043 -0.4787  0.7348
 7842SOL     OW34984   3.573   0.768   3.083 -0.3034  0.6208  0.3150
 7842SOL    HW134985   3.566   0.853   3.040 -2.0249 -0.0239 -0.7096
 7842SOL    HW234986   3.479   0.756   3.099 -0.2449 -0.6189 -0.2524
 7843SOL     OW34987   4.650   0.988   1.310  0.0518  0.1466  0.1040
 7843SOL    HW134988   4.621   0.900   1.285 -0.1637  0.1829  0.2308
 7843SOL    HW234989   4.567   1.035   1.311  0.7874  1.4102  2.0004
 7844SOL     OW34990   3.443   3.553   7.098  0.0846 -0.1106 -0.0300
 7844SOL    HW134991   3.391   3.603   7.161  1.7525 -0.9232  1.9823
 7844SOL    HW234992   3.386   3.511   7.034  0.5970 -1.5542  0.4604
 7845SOL     OW34993   3.695   3.146   3.965  0.4131 -0.2769 -0.1126
 7845SOL    HW134994   3.695   3.066   3.912  0.1096  1.5283 -2.8795
 7845SOL    HW234995   3.788   3.140   3.987  0.2321 -0.6240  0.5480
 7846SOL     OW34996   1.742   3.658   6.377 -0.4702 -0.3368 -0.0532
 7846SOL    HW134997   1.816   3.685   6.323  0.6007 -0.2422  1.4666
 7846SOL    HW234998   1.762   3.567   6.401 -1.6628 -0.5501  0.1396
 7847SOL     OW34999   4.188   2.751   2.760  0.3774  0.4328  0.0975
 7847SOL    HW135000   4.243   2.696   2.703  0.4522 -0.4489  1.0255
 7847SOL    HW235001   4.188   2.693   2.836 -1.7810 -0.9298 -0.9459
 7848SOL     OW35002   2.279   1.715  15.572  0.3178 -0.6389  0.2728
 7848SOL    HW135003   2.344   1.731  15.504 -1.7643 -1.5184 -1.9511
 7848SOL    HW235004   2.280   1.803  15.608  1.7543 -0.9569  1.0132
 7849SOL     OW35005   3.239   4.297   1.029  0.5133  0.1866  0.3705
 7849SOL    HW135006   3.200   4.300   1.116  1.2155 -1.3308  0.7394
 7849SOL    HW235007   3.315   4.356   1.026  1.2963 -0.7787  1.2073
 7850SOL     OW35008   2.395   3.747   4.683 -0.4977 -0.4258  0.0632
 7850SOL    HW135009   2.410   3.838   4.657  0.8646 -0.3124  1.2854
 7850SOL    HW235010   2.330   3.711   4.623 -0.1184 -0.3877 -0.3794
 7851SOL     OW35011   0.883   3.359   6.321  0.0101  0.2985 -0.4406
 7851SOL    HW135012   0.788   3.367   6.330  0.3842  2.3020  2.0580
 7851SOL    HW235013   0.887   3.326   6.231 -0.3600 -2.2137  0.4709
 7852SOL     OW35014   4.344   1.322   5.566  0.0020  0.3326 -0.7678
 7852SOL    HW135015   4.391   1.270   5.631  2.2569  0.3618 -2.3817
 7852SOL    HW235016   4.253   1.292   5.570  0.3579 -0.4060  1.7486
 7853SOL     OW35017   1.564   2.640   2.745 -0.1352 -0.2911  0.0353
 7853SOL    HW135018   1.607   2.720   2.714 -0.6389 -0.6419 -1.5887
 7853SOL    HW235019   1.490   2.670   2.797 -0.1412  1.9309 -1.2604
 7854SOL     OW35020   0.410   4.211   0.087 -0.1928 -0.0687  0.6014
 7854SOL    HW135021   0.495   4.206   0.129  1.7281 -0.0337 -3.2145
 7854SOL    HW235022   0.353   4.151   0.136  0.6456  0.4463  2.1791
 7855SOL     OW35023   3.455   1.093  17.615 -0.2172 -0.3166  0.2658
 7855SOL    HW135024   3.455   0.999  17.637 -0.2548 -0.7806 -1.7255
 7855SOL    HW235025   3.375   1.102  17.563 -0.7333 -1.1595  0.9007
 7856SOL     OW35026   4.186   4.406  15.955 -0.5268 -0.5619 -0.3864
 7856SOL    HW135027   4.104   4.363  15.930 -0.3678 -0.0416 -1.8271
 7856SOL    HW235028   4.161   4.494  15.981  2.6887  0.6237 -1.3011
 7857SOL     OW35029   1.555   2.621   1.086 -0.0588 -0.1390 -0.6119
 7857SOL    HW135030   1.493   2.566   1.134  0.5318 -0.4728 -0.2266
 7857SOL    HW235031   1.586   2.672   1.160  0.3898 -2.7232  0.9865
 7858SOL     OW35032   2.113   1.394   9.391 -0.1146 -0.3417  0.0087
 7858SOL    HW135033   2.057   1.316   9.393 -0.9566  0.3067  2.2413
 7858SOL    HW235034   2.131   1.399   9.485 -1.0761 -1.4616  0.2602
 7859SOL     OW35035   2.926   1.920   0.436 -0.1516 -0.1051  0.1322
 7859SOL    HW135036   3.020   1.916   0.420  0.0929  0.7752  1.3201
 7859SOL    HW235037   2.911   2.002   0.483 -1.5613  0.1575 -0.7599
 7860SOL     OW35038   2.951   4.693   3.827 -0.6611 -0.2883 -0.0125
 7860SOL    HW135039   2.960   4.611   3.876  0.3576  0.2634  0.7350
 7860SOL    HW235040   3.039   4.696   3.789 -0.1701 -1.2416  1.0274
 7861SOL     OW35041   2.838   0.480  11.181  0.1383 -0.2965  0.2224
 7861SOL    HW135042   2.897   0.438  11.243 -0.3544 -1.2199  0.0578
 7861SOL    HW235043   2.911   0.519  11.132  0.1447  0.5054  0.8795
 7862SOL     OW35044   0.030   3.391   4.373  0.5594 -0.0760  0.6196
 7862SOL    HW135045   0.033   3.478   4.412 -1.9347 -0.4680  1.6752
 7862SOL    HW235046   0.031   3.335   4.450 -1.1921  0.4189  0.9859
 7863SOL     OW35047   1.376   3.473  16.880 -0.6070 -0.2733 -0.1577
 7863SOL    HW135048   1.457   3.430  16.908  0.0571  0.9392 -0.2093
 7863SOL    HW235049   1.423   3.555  16.866  0.4163 -1.0195 -1.2270
 7864SOL     OW35050   0.953   0.527  14.460 -0.4839  0.1990  0.3203
 7864SOL    HW135051   0.893   0.464  14.420  0.4965 -0.1816 -0.5636
 7864SOL    HW235052   0.960   0.591  14.389  1.3669 -0.7244 -0.3369
 7865SOL     OW35053   0.582   1.409   8.760  0.1819 -0.1009  0.2851
 7865SOL    HW135054   0.620   1.408   8.672 -2.2579  0.2495 -0.7625
 7865SOL    HW235055   0.657   1.363   8.800 -0.6974 -2.4684 -0.8179
 7866SOL     OW35056   3.581   2.852   7.776 -0.7845  0.8756  0.6736
 7866SOL    HW135057   3.487   2.867   7.772 -0.6474  1.5545 -0.1204
 7866SOL    HW235058   3.594   2.758   7.779 -2.0154  0.6420 -1.3849
 7867SOL     OW35059   1.549   3.499   6.109 -0.3601 -0.3561  0.0816
 7867SOL    HW135060   1.583   3.426   6.160 -1.3570  0.5086  1.9940
 7867SOL    HW235061   1.619   3.505   6.045  0.4446 -1.5284  0.8682
 7868SOL     OW35062   2.268   3.096   6.108  0.1796  0.1654 -0.7620
 7868SOL    HW135063   2.267   3.102   6.012  2.5898  2.4575 -0.6362
 7868SOL    HW235064   2.259   3.189   6.128  0.8905  0.1550 -0.4111
 7869SOL     OW35065   2.858   0.122   5.544  0.3893  0.1351  0.4779
 7869SOL    HW135066   2.940   0.141   5.590 -0.1981  0.9504  1.1970
 7869SOL    HW235067   2.824   0.046   5.591  4.0538 -0.3173  2.4519
 7870SOL     OW35068   1.059   1.452   6.908 -0.0527  0.5433  0.2246
 7870SOL    HW135069   1.066   1.531   6.962  0.6070  1.1820 -0.7848
 7870SOL    HW235070   1.122   1.401   6.959  0.4387 -0.2614 -1.1809
 7871SOL     OW35071   1.566   1.818   5.460 -0.0797  0.3492 -0.8656
 7871SOL    HW135072   1.498   1.759   5.426 -0.6109 -0.4210  1.5162
 7871SOL    HW235073   1.556   1.796   5.553  2.0420 -0.1020 -0.7524
 7872SOL     OW35074   4.170   4.342   4.686  0.0384 -0.4090  0.1511
 7872SOL    HW135075   4.092   4.384   4.721  1.5389  1.9767  0.6261
 7872SOL    HW235076   4.203   4.281   4.751  1.2262  1.3462  1.1895
 7873SOL     OW35077   3.702   4.469   5.778 -0.0382 -0.0812 -0.0976
 7873SOL    HW135078   3.616   4.432   5.757  0.3414 -1.1974  0.2845
 7873SOL    HW235079   3.697   4.561   5.752 -0.1553 -0.0743 -0.0544
 7874SOL     OW35080   3.613   2.252  11.926  0.1646 -0.2852  0.0925
 7874SOL    HW135081   3.625   2.199  11.846  0.9790  0.1557 -0.0717
 7874SOL    HW235082   3.672   2.325  11.906 -0.1059 -0.1483 -0.2046
 7875SOL     OW35083   0.539   2.512   2.562 -0.1327 -0.4517  0.1863
 7875SOL    HW135084   0.617   2.566   2.574 -1.9419  2.3269 -0.6039
 7875SOL    HW235085   0.541   2.435   2.619 -0.2978 -0.7149 -0.1662
 7876SOL     OW35086   4.398   3.901  16.015  0.4072 -0.3716  0.2578
 7876SOL    HW135087   4.325   3.959  16.040 -0.9824 -1.7559 -0.5699
 7876SOL    HW235088   4.476   3.939  16.054  0.6274 -0.2740 -0.2835
 7877SOL     OW35089   1.627   4.570   3.573  0.5163 -0.1870 -0.2804
 7877SOL    HW135090   1.546   4.601   3.534  0.1400 -0.7342  0.0631
 7877SOL    HW235091   1.597   4.587   3.662  1.1948  0.6771 -0.2205
 7878SOL     OW35092   1.296   2.899  12.061  0.1575  0.3741  0.3869
 7878SOL    HW135093   1.374   2.953  12.073  0.6636 -0.2594 -0.0373
 7878SOL    HW235094   1.314   2.860  11.975 -0.3833  0.6529  0.1527
 7879SOL     OW35095   3.194   1.422   6.901 -0.3881  0.0585  0.2603
 7879SOL    HW135096   3.189   1.367   6.979  0.4320  1.0305  0.9911
 7879SOL    HW235097   3.224   1.504   6.938 -4.3822  1.4736  0.3876
 7880SOL     OW35098   3.716   4.587   4.889  0.1860  0.1517 -0.0277
 7880SOL    HW135099   3.703   4.539   4.970 -1.7388 -1.3148 -1.2162
 7880SOL    HW235100   3.660   4.663   4.901 -1.0824 -0.6642 -0.7992
 7881SOL     OW35101   3.883   2.428   7.510 -0.0456 -0.4493  0.5132
 7881SOL    HW135102   3.889   2.333   7.515  0.0537 -0.3505  2.2874
 7881SOL    HW235103   3.919   2.436   7.422  2.0205 -1.1414  1.3094
 7882SOL     OW35104   1.912   2.811  12.951 -0.5732 -0.8424 -0.3879
 7882SOL    HW135105   1.869   2.728  12.930  2.3067 -2.7297  1.2817
 7882SOL    HW235106   1.884   2.870  12.881  2.2882 -0.5267 -1.2491
 7883SOL     OW35107   3.911   4.182   6.589 -0.3725 -0.5133  0.1321
 7883SOL    HW135108   3.823   4.220   6.601  0.2614  1.5841 -1.8297
 7883SOL    HW235109   3.885   4.123   6.518 -0.7322  0.1022 -0.2562
 7884SOL     OW35110   0.411   3.251   0.219  0.0772  0.0609  0.1993
 7884SOL    HW135111   0.401   3.169   0.266 -2.3861  0.4580  0.3542
 7884SOL    HW235112   0.489   3.233   0.165 -0.0741 -3.2785  1.1258
 7885SOL     OW35113   2.342   4.707   6.747 -0.3919 -0.0321 -0.0997
 7885SOL    HW135114   2.372   4.706   6.656  0.0042  1.9253 -0.0008
 7885SOL    HW235115   2.387   0.063   6.766  0.9184 -0.4056 -1.5781
 7886SOL     OW35116   2.379   1.299   7.791 -0.6068  0.2054  0.0326
 7886SOL    HW135117   2.395   1.354   7.868  1.0615 -0.9797  0.5315
 7886SOL    HW235118   2.463   1.254   7.801  0.5234  2.3577  0.2394
 7887SOL     OW35119   0.088   1.017   8.190  0.0569 -0.2850  0.8236
 7887SOL    HW135120   0.154   1.081   8.216 -0.2516  0.5216 -0.3830
 7887SOL    HW235121   0.129   0.942   8.233  0.4926 -1.0879 -0.9879
 7888SOL     OW35122   2.343   2.852   9.568  0.7046 -0.4251 -0.0755
 7888SOL    HW135123   2.316   2.768   9.531  1.1887 -0.7839  0.3858
 7888SOL    HW235124   2.271   2.881   9.623  0.5583 -2.3593  0.7660
 7889SOL     OW35125   1.782   4.323   5.248  0.3380 -0.2852  0.1669
 7889SOL    HW135126   1.721   4.392   5.273  0.3113 -0.0113 -0.6551
 7889SOL    HW235127   1.774   4.256   5.316 -0.6981 -1.0055 -0.6651
 7890SOL     OW35128   0.065   1.739   8.490  0.9250  0.0025  0.3825
 7890SOL    HW135129   0.107   1.804   8.546  4.9110 -0.9394 -1.5205
 7890SOL    HW235130   4.698   1.736   8.513  1.2865 -1.0506  1.7153
 7891SOL     OW35131   1.941   1.093   7.000 -0.0145  0.1020  0.3423
 7891SOL    HW135132   1.984   1.012   7.028  2.4548  1.6505  0.9952
 7891SOL    HW235133   1.982   1.163   7.051  0.6706 -0.2971  0.3365
 7892SOL     OW35134   2.306   3.911   6.343  0.4489  0.0668  0.2233
 7892SOL    HW135135   2.236   3.948   6.290  0.3402  0.9931  1.0289
 7892SOL    HW235136   2.319   3.829   6.294 -0.7819  0.9060 -1.4674
 7893SOL     OW35137   4.550   1.932  15.673 -0.7482 -0.2143 -0.0141
 7893SOL    HW135138   4.484   1.866  15.695 -1.3893  0.0634 -1.0760
 7893SOL    HW235139   4.629   1.888  15.703  0.8235  1.0703 -2.2630
 7894SOL     OW35140   0.838   4.683   2.826  0.0037 -0.2987 -0.6137
 7894SOL    HW135141   0.780   4.713   2.757 -1.1712 -2.4832 -0.5654
 7894SOL    HW235142   0.808   4.593   2.826  0.1454 -0.3386  1.7638
 7895SOL     OW35143   3.895   3.807   3.802 -0.4237 -0.1114  0.1655
 7895SOL    HW135144   3.829   3.873   3.780  0.3475  0.5220 -0.2484
 7895SOL    HW235145   3.919   3.842   3.888  2.6706  0.7010 -1.0305
 7896SOL     OW35146   3.465   3.282   4.657 -0.2540 -0.1140  0.3480
 7896SOL    HW135147   3.431   3.193   4.650  1.7235 -0.6832 -1.9417
 7896SOL    HW235148   3.424   3.319   4.736  1.3655  0.1610  1.0643
 7897SOL     OW35149   2.038   0.838  15.375  0.0880  0.1982 -0.0740
 7897SOL    HW135150   2.085   0.784  15.311 -1.2968 -0.7519 -0.2781
 7897SOL    HW235151   2.032   0.778  15.449  0.0589 -0.6389 -0.7578
 7898SOL     OW35152   0.999   3.472   7.388  0.0027  0.1165 -0.5843
 7898SOL    HW135153   1.005   3.509   7.300 -1.4943 -0.7792 -1.0645
 7898SOL    HW235154   1.042   3.386   7.390 -0.6346 -0.2397 -2.1406
 7899SOL     OW35155   0.220   2.514   4.381 -0.4847 -0.6241 -0.1661
 7899SOL    HW135156   0.277   2.452   4.426  3.0407  1.1742 -2.1379
 7899SOL    HW235157   0.270   2.537   4.303 -0.1715  2.4494  0.9337
 7900SOL     OW35158   2.893   4.084   5.167  0.4375  0.3281 -0.4803
 7900SOL    HW135159   2.805   4.113   5.144  1.1523  2.0733 -1.0133
 7900SOL    HW235160   2.925   4.078   5.077  1.0382  2.3484 -0.4027
 7901SOL     OW35161   4.130   3.881   7.431  0.0863 -0.2022 -0.3342
 7901SOL    HW135162   4.057   3.855   7.376  0.3980 -1.5081 -0.1389
 7901SOL    HW235163   4.157   3.797   7.469 -1.3540  0.2013  1.5946
 7902SOL     OW35164   0.178   3.555   0.133 -0.2215  0.3988 -0.4351
 7902SOL    HW135165   0.244   3.564   0.202  1.2290 -0.2023 -1.7268
 7902SOL    HW235166   0.232   3.570   0.056 -0.3864  0.5745 -0.5147
 7903SOL     OW35167   2.681   3.499   0.956  0.0421  0.0928 -0.2204
 7903SOL    HW135168   2.594   3.522   0.922  0.0692  0.1858 -0.2260
 7903SOL    HW235169   2.708   3.430   0.896 -1.8474 -0.1471 -0.8087
 7904SOL     OW35170   3.493   2.617   4.957 -0.5387 -0.5996 -0.8970
 7904SOL    HW135171   3.532   2.566   5.028 -2.1303 -1.5160 -0.6720
 7904SOL    HW235172   3.414   2.564   4.950  0.3011 -2.0596  0.5133
 7905SOL     OW35173   2.023   2.108   3.382 -0.1372 -0.2045  0.5291
 7905SOL    HW135174   1.937   2.149   3.390  1.4699  2.8998  1.9448
 7905SOL    HW235175   2.009   2.037   3.446 -2.5074  0.8320  1.1551
 7906SOL     OW35176   3.273   1.593   1.813 -0.4981  0.4097 -0.3278
 7906SOL    HW135177   3.269   1.499   1.797  1.5184  0.8350 -3.2346
 7906SOL    HW235178   3.221   1.633   1.744  1.6250 -0.8204 -2.6237
 7907SOL     OW35179   2.649   2.693   0.252  0.6029  0.0774  0.0065
 7907SOL    HW135180   2.635   2.660   0.163 -0.8650 -0.2196  0.3495
 7907SOL    HW235181   2.605   2.778   0.257  0.1789 -0.1680  0.4339
 7908SOL     OW35182   2.772   4.351   5.384 -0.0985 -0.0234  0.1646
 7908SOL    HW135183   2.822   4.376   5.306 -0.7919 -0.1149 -0.3081
 7908SOL    HW235184   2.683   4.364   5.352  0.0360 -0.2535 -0.3135
 7909SOL     OW35185   1.625   3.208   2.593  0.6496  0.1821 -0.3909
 7909SOL    HW135186   1.717   3.184   2.597  0.5569  0.0771  1.1295
 7909SOL    HW235187   1.600   3.217   2.686  0.4813 -1.4186 -0.2805
 7910SOL     OW35188   1.456   3.976   3.563 -0.2000 -0.0054 -0.0930
 7910SOL    HW135189   1.382   3.962   3.622 -0.6246  1.9002 -0.1583
 7910SOL    HW235190   1.513   3.909   3.599  1.0492  0.8373 -0.4985
 7911SOL     OW35191   0.489   1.042   5.967  0.6233  0.3583  0.4306
 7911SOL    HW135192   0.461   0.963   6.012  1.7760 -0.3072  0.0068
 7911SOL    HW235193   0.433   1.040   5.889  0.5752  0.7070  0.4544
 7912SOL     OW35194   1.243   3.729   4.684 -0.9437 -0.1224 -0.5021
 7912SOL    HW135195   1.177   3.774   4.738  0.1476  0.4563  0.3449
 7912SOL    HW235196   1.189   3.655   4.657 -2.2477  0.5722  0.1874
 7913SOL     OW35197   3.271   2.150   4.428  0.7697  0.1216 -0.3494
 7913SOL    HW135198   3.199   2.163   4.366  1.4881 -1.0704 -1.4283
 7913SOL    HW235199   3.314   2.066   4.413 -0.2782 -0.1962 -1.5520
 7914SOL     OW35200   3.549   0.911  10.767 -0.2473  0.0728 -0.4085
 7914SOL    HW135201   3.516   0.844  10.707 -1.0347 -1.7448  2.0721
 7914SOL    HW235202   3.642   0.900  10.748 -0.8094 -1.2411 -2.4648
 7915SOL     OW35203   1.706   0.796   4.906 -0.8194  0.5120 -0.0166
 7915SOL    HW135204   1.795   0.795   4.869 -0.3930 -1.3931  1.0431
 7915SOL    HW235205   1.714   0.768   4.997 -1.7818 -0.1005 -0.1168
 7916SOL     OW35206   2.546   0.699  12.645 -0.6482 -0.7290 -0.4450
 7916SOL    HW135207   2.608   0.710  12.718  0.9396  1.1988 -2.0919
 7916SOL    HW235208   2.577   0.625  12.593 -1.1099 -1.0097 -0.3211
 7917SOL     OW35209   0.669   1.630   8.881 -0.3343  0.3065  0.0273
 7917SOL    HW135210   0.700   1.571   8.950  0.2080  0.6643  0.0915
 7917SOL    HW235211   0.616   1.569   8.830  2.4774 -1.1927 -1.0968
 7918SOL     OW35212   1.353   2.716  17.168  0.1746  1.1200  0.1735
 7918SOL    HW135213   1.272   2.747  17.128 -0.5542 -1.2881 -0.2512
 7918SOL    HW235214   1.413   2.783  17.136  3.0826 -1.6614 -0.2290
 7919SOL     OW35215   4.570   4.387   2.854 -0.4952  0.0004  0.0218
 7919SOL    HW135216   4.577   4.336   2.773 -0.1539 -0.3562  0.2776
 7919SOL    HW235217   4.556   4.477   2.823  0.4941  0.5942  1.2720
 7920SOL     OW35218   1.943   0.696   4.800 -0.4712  0.2267 -0.3029
 7920SOL    HW135219   1.926   0.612   4.841  1.3111  0.4426  0.8703
 7920SOL    HW235220   2.038   0.709   4.810 -0.5490  0.5362  0.0377
 7921SOL     OW35221   4.390   0.166   4.931  0.1991  0.2676  0.4630
 7921SOL    HW135222   4.427   0.156   5.019 -0.8508 -2.6533  0.5673
 7921SOL    HW235223   4.369   0.075   4.910 -2.1406  0.6429  1.1307
 7922SOL     OW35224   2.405   3.423   9.167 -0.0950  0.1847  0.2180
 7922SOL    HW135225   2.316   3.391   9.181 -0.8557  0.8013 -3.1712
 7922SOL    HW235226   2.469   3.359   9.200 -3.4170 -2.0214  2.4412
 7923SOL     OW35227   3.194   2.996  14.557  0.1683 -0.1348 -0.2912
 7923SOL    HW135228   3.251   2.941  14.611 -0.2387 -0.4393 -0.1702
 7923SOL    HW235229   3.252   3.071  14.541 -1.1378  0.5241 -1.9223
 7924SOL     OW35230   4.290   1.376   8.842 -0.2477 -0.2214  0.2033
 7924SOL    HW135231   4.363   1.342   8.893 -1.1867 -4.0436 -1.0105
 7924SOL    HW235232   4.248   1.441   8.899  1.8418  1.9479 -0.7186
 7925SOL     OW35233   1.103   0.935  10.338 -0.1513  0.4866  0.0305
 7925SOL    HW135234   1.018   0.978  10.342 -0.5734 -0.4824  1.1827
 7925SOL    HW235235   1.153   0.978  10.409  1.2930 -0.5922 -0.3252
 7926SOL     OW35236   0.548   4.716  12.624  0.7363 -0.3572 -0.1092
 7926SOL    HW135237   0.619   4.666  12.585  0.5219 -1.6407  1.1095
 7926SOL    HW235238   0.523   0.027  12.540 -1.1391  0.0173  0.6162
 7927SOL     OW35239   1.700   4.242   4.987  0.1263 -0.4496  0.4519
 7927SOL    HW135240   1.700   4.284   5.073  0.3984  2.8150 -1.1372
 7927SOL    HW235241   1.794   4.247   4.967 -0.1772 -1.2006 -1.1138
 7928SOL     OW35242   3.628   0.498   6.598 -0.4860 -0.2635 -0.0775
 7928SOL    HW135243   3.580   0.522   6.519 -0.4184  0.1961  0.0183
 7928SOL    HW235244   3.710   0.540   6.570 -0.7801  0.5718  0.3109
 7929SOL     OW35245   1.462   4.372  13.964  0.3934 -0.3615  0.4499
 7929SOL    HW135246   1.501   4.409  14.042 -0.3687 -0.7519  1.0160
 7929SOL    HW235247   1.529   4.393  13.899 -1.8468  1.5225 -1.2644
 7930SOL     OW35248   1.526   4.119   6.591 -1.1239  0.2582  0.1932
 7930SOL    HW135249   1.504   4.030   6.563 -3.5887  1.3481 -1.3164
 7930SOL    HW235250   1.442   4.164   6.578  0.2079  2.1860 -1.7248
 7931SOL     OW35251   3.265   3.675  14.176 -0.6380 -0.2157 -0.1169
 7931SOL    HW135252   3.253   3.763  14.210 -0.4185  0.1370 -0.9536
 7931SOL    HW235253   3.177   3.638  14.180 -1.2175  0.9100 -2.3991
 7932SOL     OW35254   0.502   3.231   6.074  0.4465  0.1446  0.1960
 7932SOL    HW135255   0.434   3.166   6.057  0.8389 -0.3338  0.4452
 7932SOL    HW235256   0.517   3.263   5.985 -0.2106 -1.8236 -0.6409
 7933SOL     OW35257   2.168   4.413   7.483  0.2091 -0.0122  0.1000
 7933SOL    HW135258   2.174   4.486   7.422  1.1785 -1.2340 -1.2618
 7933SOL    HW235259   2.244   4.434   7.538 -0.4206  0.7008  0.6892
 7934SOL     OW35260   3.221   3.302   1.099 -0.3366  0.2187 -0.3030
 7934SOL    HW135261   3.180   3.219   1.074  1.4905 -0.3496 -1.3892
 7934SOL    HW235262   3.245   3.338   1.013 -2.3356  0.1908 -0.8676
 7935SOL     OW35263   3.928   2.452   5.923 -0.3591  0.2105 -0.3032
 7935SOL    HW135264   3.943   2.362   5.893 -1.4586 -1.2916  3.6723
 7935SOL    HW235265   3.992   2.502   5.871  0.5543  0.2516  0.8584
 7936SOL     OW35266   2.381   2.726   6.383  0.4331  0.1391  0.1137
 7936SOL    HW135267   2.436   2.756   6.310 -0.2849  1.7159  0.2083
 7936SOL    HW235268   2.331   2.808   6.385  1.6553  0.8796  0.0166
 7937SOL     OW35269   0.299   1.140  13.129 -0.6172 -0.0190 -0.0780
 7937SOL    HW135270   0.219   1.142  13.078  0.4326  1.4064 -1.6639
 7937SOL    HW235271   0.298   1.224  13.174  3.0942 -0.8324  1.5109
 7938SOL     OW35272   2.699   0.671  12.913 -0.5878 -0.5030 -0.3517
 7938SOL    HW135273   2.608   0.684  12.938 -0.6573 -0.0542 -0.8607
 7938SOL    HW235274   2.702   0.575  12.903 -0.3154 -0.1185 -3.9303
 7939SOL     OW35275   4.526   0.716  10.395 -0.2505 -0.8466  0.2102
 7939SOL    HW135276   4.494   0.774  10.326  2.0702 -0.4268 -0.5126
 7939SOL    HW235277   4.594   0.668  10.348  0.4308  2.6180 -2.3514
 7940SOL     OW35278   2.467   4.370   0.712  0.0103 -0.1061 -0.7431
 7940SOL    HW135279   2.372   4.363   0.719 -0.0292  0.6638 -0.4923
 7940SOL    HW235280   2.488   4.277   0.717 -1.1931 -0.3667 -0.6314
 7941SOL     OW35281   0.550   0.632  12.910  0.4325  0.3409  0.0791
 7941SOL    HW135282   0.548   0.541  12.937 -0.6349  0.7621  1.4542
 7941SOL    HW235283   0.510   0.672  12.987  0.9465  2.8666 -0.9551
 7942SOL     OW35284   0.562   4.190   9.511 -0.1651 -0.1624 -0.0002
 7942SOL    HW135285   0.644   4.193   9.560 -0.8124  2.9268  0.8926
 7942SOL    HW235286   0.580   4.151   9.426 -0.2377 -1.4827  0.5878
 7943SOL     OW35287   2.616   4.685   1.078 -0.1462  0.2517  0.1555
 7943SOL    HW135288   2.637   0.037   1.025  1.7484  1.1208  2.1570
 7943SOL    HW235289   2.549   4.715   1.139 -0.9350  1.4461 -1.3021
 7944SOL     OW35290   2.707   4.411   2.600  0.0621  0.9258 -0.1647
 7944SOL    HW135291   2.753   4.359   2.666  0.5490 -0.9765 -2.0362
 7944SOL    HW235292   2.696   4.360   2.520  2.4570 -2.0095  1.3920
 7945SOL     OW35293   2.531   3.311   5.023  0.3778 -0.0106  0.3255
 7945SOL    HW135294   2.528   3.316   4.927 -0.6095 -0.1144  0.3439
 7945SOL    HW235295   2.474   3.380   5.058  0.8567  1.3746 -1.6325
 7946SOL     OW35296   3.627   2.859   5.134 -0.3309 -0.1912 -0.8106
 7946SOL    HW135297   3.653   2.826   5.221  1.0284 -0.5350 -1.3455
 7946SOL    HW235298   3.596   2.781   5.087 -1.0483  0.5807 -1.5987
 7947SOL     OW35299   4.468   4.579  11.737  0.1223 -0.5110 -0.2326
 7947SOL    HW135300   4.535   4.630  11.782 -1.1805  0.3525  0.7005
 7947SOL    HW235301   4.486   4.608  11.648  1.9724 -2.4640 -0.5111
 7948SOL     OW35302   2.014   3.648   3.930 -0.0097 -0.2161  0.1517
 7948SOL    HW135303   2.006   3.671   3.838  2.4360  0.5636  0.1386
 7948SOL    HW235304   1.928   3.628   3.966  0.3356 -1.4970  0.2660
 7949SOL     OW35305   4.653   0.000   0.735 -0.0885  0.8122 -0.3667
 7949SOL    HW135306   4.606   0.052   0.801  0.4586  0.9372 -0.0711
 7949SOL    HW235307   4.617   4.642   0.762  0.6364  0.3662 -0.7983
 7950SOL     OW35308   4.580   2.235   8.585 -0.2867  0.1694 -0.2496
 7950SOL    HW135309   4.516   2.197   8.645 -1.5234  1.6205 -0.6329
 7950SOL    HW235310   4.572   2.165   8.521 -0.2820 -1.3918  1.4423
 7951SOL     OW35311   2.242   0.362   5.370 -0.2962 -0.2112 -0.1308
 7951SOL    HW135312   2.301   0.381   5.297 -2.1356 -0.9149 -1.8051
 7951SOL    HW235313   2.184   0.307   5.317 -1.2971  0.2584  0.4827
 7952SOL     OW35314   1.154   4.069   6.241 -0.1002 -0.2821  0.7138
 7952SOL    HW135315   1.196   3.983   6.246 -1.7563 -1.0416  1.5560
 7952SOL    HW235316   1.067   4.030   6.251 -0.1225 -0.0878  1.2427
 7953SOL     OW35317   2.799   3.876   4.202 -0.4523  0.2067  0.3620
 7953SOL    HW135318   2.760   3.871   4.115  0.1878 -0.7698  0.1274
 7953SOL    HW235319   2.800   3.784   4.228 -1.7659  0.1254  0.1281
 7954SOL     OW35320   4.346   2.584  14.310  0.1951 -0.5379 -0.1752
 7954SOL    HW135321   4.267   2.530  14.301 -0.8221  1.2223 -1.8570
 7954SOL    HW235322   4.406   2.511  14.290  1.3913 -0.0970  1.8734
 7955SOL     OW35323   3.128   1.753  11.215  0.2104  0.2198  0.0372
 7955SOL    HW135324   3.167   1.688  11.274  2.2322  0.8599 -0.5695
 7955SOL    HW235325   3.153   1.731  11.126 -2.0360 -0.4218 -0.4240
 7956SOL     OW35326   4.595   0.836  11.977 -0.3879  0.5336 -0.4682
 7956SOL    HW135327   4.541   0.805  11.904 -0.1304  0.9912 -0.8505
 7956SOL    HW235328   4.682   0.819  11.940 -0.6282  0.1274 -0.8526
 7957SOL     OW35329   4.520   3.716  10.703  0.1945 -0.0551 -0.3397
 7957SOL    HW135330   4.448   3.774  10.724  1.9143  1.5339  1.1410
 7957SOL    HW235331   4.591   3.760  10.749  0.7197  0.5447 -1.7146
 7958SOL     OW35332   2.428   3.988   4.039  0.5605 -0.4558 -0.1619
 7958SOL    HW135333   2.335   3.999   4.019  0.4621  0.5009  0.8136
 7958SOL    HW235334   2.432   4.000   4.134 -1.0090  1.7634 -0.3558
 7959SOL     OW35335   1.260   0.030   2.957  0.3346 -0.3595  0.3429
 7959SOL    HW135336   1.316   0.097   2.994 -0.1392  1.0087 -1.3982
 7959SOL    HW235337   1.167   0.053   2.955  0.6061  0.6274 -1.4747
 7960SOL     OW35338   3.602   4.604   8.098  0.2258 -0.4740  0.1205
 7960SOL    HW135339   3.590   4.672   8.032 -0.8595  0.0188  0.8123
 7960SOL    HW235340   3.691   4.613   8.132  0.0626  1.6611 -0.0314
 7961SOL     OW35341   1.951   0.961   5.048 -0.6615 -0.2348  0.2740
 7961SOL    HW135342   2.031   0.909   5.058 -0.3590  0.7769  3.0663
 7961SOL    HW235343   1.964   1.023   5.119  0.5988  2.4285 -2.2906
 7962SOL     OW35344   0.893   1.967  17.415 -0.2900 -0.3395  0.1497
 7962SOL    HW135345   0.824   2.011  17.466  1.8507 -0.5735  3.2397
 7962SOL    HW235346   0.971   2.022  17.422 -1.3568  0.9648  1.8948
 7963SOL     OW35347   3.838   1.554  10.363  0.2007  0.0056  0.5359
 7963SOL    HW135348   3.899   1.618  10.401 -0.1762  2.0515 -2.3687
 7963SOL    HW235349   3.816   1.505  10.443 -2.0530 -1.8387 -1.2088
 7964SOL     OW35350   4.303   1.506   1.483 -0.2519  0.0111  0.1356
 7964SOL    HW135351   4.341   1.469   1.403 -0.3267 -1.0565  0.5905
 7964SOL    HW235352   4.270   1.591   1.455 -0.9151 -0.3306 -0.1200
 7965SOL     OW35353   3.484   0.406   3.800  0.5020 -0.5561  0.2043
 7965SOL    HW135354   3.423   0.389   3.727  0.1713  2.4439 -0.2312
 7965SOL    HW235355   3.564   0.415   3.748 -0.2305 -1.5090 -1.1134
 7966SOL     OW35356   1.428   4.690   6.997 -0.2908 -0.0716 -0.0753
 7966SOL    HW135357   1.480   0.017   6.937 -0.2185  1.5700  1.4240
 7966SOL    HW235358   1.359   0.029   7.009 -1.5249 -1.5089  0.6188
 7967SOL     OW35359   3.556   3.577  15.453 -0.3388  0.5038  0.1309
 7967SOL    HW135360   3.571   3.671  15.447  0.7961  0.2894 -0.4308
 7967SOL    HW235361   3.470   3.573  15.496  0.4743 -1.1859  1.6019
 7968SOL     OW35362   0.938   0.270   6.485 -0.5005 -0.2183  0.3890
 7968SOL    HW135363   0.889   0.325   6.547 -2.2877 -1.5747  0.1654
 7968SOL    HW235364   1.012   0.329   6.468  0.2343 -1.1825  0.2770
 7969SOL     OW35365   0.670   0.916  10.106 -0.2890 -0.0736 -0.2444
 7969SOL    HW135366   0.717   0.980  10.161 -0.0494  0.8745 -1.5478
 7969SOL    HW235367   0.579   0.913  10.136 -0.0510 -0.8194  0.3925
 7970SOL     OW35368   4.593   2.247   7.233 -0.7238  0.3008  0.1823
 7970SOL    HW135369   4.666   2.208   7.280 -0.9289  0.6797  0.8229
 7970SOL    HW235370   4.560   2.300   7.306  0.2365 -0.9548  1.5181
 7971SOL     OW35371   2.436   0.319   3.649 -0.0058  0.2630 -0.3256
 7971SOL    HW135372   2.511   0.267   3.678 -1.4813 -0.4422  2.3210
 7971SOL    HW235373   2.485   0.389   3.606 -1.9979 -0.6959 -4.0767
 7972SOL     OW35374   1.686   2.963   5.293  0.5869 -0.2474 -0.2776
 7972SOL    HW135375   1.612   2.925   5.340  1.8400  0.2123  2.0460
 7972SOL    HW235376   1.719   2.887   5.246 -0.0158 -1.3235  1.0558
 7973SOL     OW35377   0.775   1.787   3.366 -0.0956  0.1927  0.2073
 7973SOL    HW135378   0.839   1.748   3.307 -0.0782  1.0379 -0.3328
 7973SOL    HW235379   0.754   1.711   3.421  1.9029  1.0814  2.1625
 7974SOL     OW35380   3.946   4.149   7.295  0.5475 -0.3483 -1.0274
 7974SOL    HW135381   3.997   4.167   7.373 -1.7602  0.8296  0.2178
 7974SOL    HW235382   3.987   4.208   7.232  1.6041  0.7048  0.6618
 7975SOL     OW35383   1.246   0.186   6.992 -0.1543 -0.6409  0.4995
 7975SOL    HW135384   1.246   0.242   7.070  1.5051 -1.6838  1.2345
 7975SOL    HW235385   1.157   0.200   6.959  0.3538  0.6879 -0.3272
 7976SOL     OW35386   2.327   2.065   2.645 -0.6477 -0.1177  0.0840
 7976SOL    HW135387   2.304   2.023   2.563  0.6990  1.7324 -1.2292
 7976SOL    HW235388   2.284   2.003   2.705 -0.5108 -0.3040 -0.0101
 7977SOL     OW35389   2.673   3.237   3.754 -0.2685  0.0612  0.6624
 7977SOL    HW135390   2.601   3.183   3.789 -0.2197 -0.4388 -0.0087
 7977SOL    HW235391   2.733   3.224   3.828  0.9019 -1.1978 -0.5267
 7978SOL     OW35392   1.890   0.388   4.454  0.4572  0.5647 -0.0788
 7978SOL    HW135393   1.983   0.374   4.473 -0.0793 -0.9845  1.3144
 7978SOL    HW235394   1.856   0.376   4.542 -2.9204  1.5954 -1.2452
 7979SOL     OW35395   2.553   0.095   7.900 -0.4313  0.5694  0.4884
 7979SOL    HW135396   2.521   0.046   7.976 -0.6648  0.6378  0.4360
 7979SOL    HW235397   2.467   0.115   7.861  0.5226  1.6424 -1.0723
 7980SOL     OW35398   2.144   4.501  14.776  0.3805 -0.6481 -0.3135
 7980SOL    HW135399   2.188   4.450  14.843  2.5127  0.0070 -1.2180
 7980SOL    HW235400   2.140   4.429  14.713  1.1981 -1.3046  0.4093
 7981SOL     OW35401   3.324   0.023   6.825 -0.1397  0.0472 -0.2942
 7981SOL    HW135402   3.248   0.008   6.881 -1.5274 -0.0637 -2.1711
 7981SOL    HW235403   3.290   0.101   6.781  0.1630  1.4524  2.0094
 7982SOL     OW35404   3.176   3.062  13.109  0.3573 -0.5294  0.0843
 7982SOL    HW135405   3.259   3.054  13.156 -0.6703  0.0536  1.9670
 7982SOL    HW235406   3.110   3.077  13.176  1.5323 -1.5597  1.4833
 7983SOL     OW35407   2.063   1.204   5.967  0.0158  0.4171 -0.6838
 7983SOL    HW135408   2.147   1.159   5.979 -1.0721 -1.2073  0.7422
 7983SOL    HW235409   2.015   1.140   5.914  1.7066 -1.7272  0.3725
 7984SOL     OW35410   1.544   1.222  13.584 -0.4520 -0.1045 -0.8419
 7984SOL    HW135411   1.478   1.289  13.602 -1.6672 -1.5873  0.2022
 7984SOL    HW235412   1.531   1.164  13.659  1.1717 -0.8511 -1.1433
 7985SOL     OW35413   1.615   1.776  13.797  0.4827 -0.1240 -0.3057
 7985SOL    HW135414   1.573   1.693  13.774 -3.3566  2.4819 -2.7135
 7985SOL    HW235415   1.651   1.813  13.717  4.2414 -0.8542  1.0452
 7986SOL     OW35416   3.981   3.786   8.137  0.7864 -0.4854 -0.1580
 7986SOL    HW135417   3.962   3.692   8.134  0.2964 -0.3707 -0.6288
 7986SOL    HW235418   4.076   3.785   8.130  0.7351 -0.0393 -0.9194
 7987SOL     OW35419   2.461   2.473  16.520  0.3478 -0.1292 -0.5289
 7987SOL    HW135420   2.510   2.391  16.529  0.4797  0.0076 -0.0408
 7987SOL    HW235421   2.502   2.512  16.442 -0.6240 -0.3264 -1.1436
 7988SOL     OW35422   2.579   1.636   2.943 -0.6531  0.4966 -0.3324
 7988SOL    HW135423   2.667   1.614   2.971 -0.3954 -0.5610 -1.9508
 7988SOL    HW235424   2.538   1.551   2.926  0.8672 -0.9063  3.1232
 7989SOL     OW35425   4.165   4.024   2.778 -0.5183  0.3129 -0.3886
 7989SOL    HW135426   4.131   4.104   2.738 -0.3627  0.7095  0.2755
 7989SOL    HW235427   4.233   4.059   2.834 -0.5211 -0.4074  0.0643
 7990SOL     OW35428   4.117   2.850   3.927 -0.7567  0.7106  0.1307
 7990SOL    HW135429   4.162   2.771   3.956 -1.8028  0.7991  1.9934
 7990SOL    HW235430   4.156   2.927   3.969  1.9675 -0.4733 -0.2237
 7991SOL     OW35431   1.344   3.181   5.258 -0.3016  0.1677 -0.1062
 7991SOL    HW135432   1.320   3.218   5.173 -0.1341  0.5959  0.0305
 7991SOL    HW235433   1.307   3.243   5.322  0.3900  0.8752 -0.3864
 7992SOL     OW35434   1.118   4.290   3.654  0.3797  0.6937 -0.0392
 7992SOL    HW135435   1.136   4.331   3.739 -0.1203  1.1651 -0.1643
 7992SOL    HW235436   1.051   4.223   3.668  0.9588 -0.0647 -0.9241
 7993SOL     OW35437   2.082   3.015  12.441 -0.4734 -0.1571  0.4017
 7993SOL    HW135438   2.053   3.024  12.532  1.6946 -0.1047  1.0859
 7993SOL    HW235439   2.076   2.922  12.420  0.5213 -0.1739  0.2124
 7994SOL     OW35440   1.502   3.484   6.502 -0.3638  0.1354 -1.0168
 7994SOL    HW135441   1.548   3.504   6.421  3.5417  1.2672  1.4731
 7994SOL    HW235442   1.567   3.423   6.536  0.8221  2.7963  1.4808
 7995SOL     OW35443   3.583   3.862   5.437  0.0295  0.6975  0.4574
 7995SOL    HW135444   3.583   3.908   5.521  2.8534  0.3623  0.6485
 7995SOL    HW235445   3.496   3.896   5.415 -0.5740 -0.0941  1.6761
 7996SOL     OW35446   1.625   2.892   2.671 -1.2335  0.4579  0.3374
 7996SOL    HW135447   1.589   2.978   2.651 -2.3824  0.2511  1.4951
 7996SOL    HW235448   1.720   2.905   2.665 -1.1954 -0.0205 -0.0697
 7997SOL     OW35449   0.457   1.510   3.180 -0.3300 -0.4472 -0.6728
 7997SOL    HW135450   0.467   1.420   3.210 -2.0541  0.2869  2.1560
 7997SOL    HW235451   0.379   1.498   3.126  0.1842 -1.1118 -1.2576
 7998SOL     OW35452   4.592   3.946   6.137  0.4156  0.4200 -0.6043
 7998SOL    HW135453   4.619   4.003   6.065  0.3274 -1.6931 -2.2951
 7998SOL    HW235454   4.529   4.002   6.183 -0.2149  0.1981 -1.1920
 7999SOL     OW35455   1.403   0.186   9.469 -0.1008  0.1544  0.1011
 7999SOL    HW135456   1.330   0.130   9.440 -0.1043  0.0308  0.3495
 7999SOL    HW235457   1.370   0.270   9.439  0.2874 -0.4481 -2.0182
 8000SOL     OW35458   1.824   2.961  13.367 -0.4701 -0.4755  0.1454
 8000SOL    HW135459   1.860   2.922  13.447 -1.6070  3.2627  2.4543
 8000SOL    HW235460   1.896   2.936  13.308 -0.1609  1.1037 -0.1473
 8001SOL     OW35461   3.515   1.173  17.271 -0.1991  0.6138 -0.0103
 8001SOL    HW135462   3.479   1.093  17.231  0.8152  0.9179 -1.5067
 8001SOL    HW235463   3.527   1.135  17.358 -0.0386  1.5997  0.3980
 8002SOL     OW35464   1.641   1.782  15.004  0.0255 -0.2160  0.6043
 8002SOL    HW135465   1.641   1.831  14.922 -2.0245 -0.7407  0.2771
 8002SOL    HW235466   1.698   1.711  14.976  1.7925  1.3471  0.2231
 8003SOL     OW35467   4.638   2.830   6.777  0.9018 -0.1604 -0.1580
 8003SOL    HW135468   4.700   2.758   6.775  0.5730 -0.4308 -0.7718
 8003SOL    HW235469   4.637   2.851   6.870 -0.0228  1.2447 -0.4811
 8004SOL     OW35470   1.637   2.858  13.140  0.8653  0.2039 -0.2148
 8004SOL    HW135471   1.693   2.895  13.208 -0.2752  0.6012  0.5113
 8004SOL    HW235472   1.603   2.935  13.094  0.3269  0.4185  0.5358
 8005SOL     OW35473   0.127   0.052   1.983  0.2312  0.2389 -0.1652
 8005SOL    HW135474   0.188   0.021   2.050  2.1077 -1.3864 -2.6047
 8005SOL    HW235475   0.097   0.128   2.032 -1.5518 -1.9046  2.0835
 8006SOL     OW35476   3.034   4.587   2.327  0.3618  0.6094 -0.0365
 8006SOL    HW135477   3.022   4.631   2.411 -0.2179 -1.4379  0.9338
 8006SOL    HW235478   3.126   4.612   2.325  0.4730  0.1616 -0.5088
 8007SOL     OW35479   0.936   4.678  11.512 -0.3093 -0.2018  0.3558
 8007SOL    HW135480   1.017   0.003  11.522 -1.0178  0.7002  1.4466
 8007SOL    HW235481   0.974   4.590  11.505 -0.4507 -0.2841  0.6410
 8008SOL     OW35482   4.376   4.209   4.234 -0.2468  0.5482 -0.7612
 8008SOL    HW135483   4.453   4.172   4.276 -0.3850 -2.7876 -3.4774
 8008SOL    HW235484   4.322   4.201   4.313  1.5292  0.0591  0.3811
 8009SOL     OW35485   2.302   2.520  11.148 -0.2252 -0.2233 -0.3708
 8009SOL    HW135486   2.309   2.601  11.198  1.3964 -0.5177 -0.1251
 8009SOL    HW235487   2.370   2.463  11.184 -0.7760  0.6781  2.0829
 8010SOL     OW35488   1.327   1.779   2.405  0.2746  0.1842 -0.3590
 8010SOL    HW135489   1.251   1.808   2.355  0.4690  1.6588  0.2276
 8010SOL    HW235490   1.313   1.812   2.493 -0.8132  2.3616 -1.3428
 8011SOL     OW35491   4.131   3.824   3.284 -0.5895  0.4296 -0.5890
 8011SOL    HW135492   4.110   3.740   3.243  0.1023 -0.3079  0.5828
 8011SOL    HW235493   4.043   3.834   3.320  0.0303 -1.8744  1.5903
 8012SOL     OW35494   4.288   3.264   3.051  0.1533  0.0055 -0.3069
 8012SOL    HW135495   4.369   3.231   3.089  0.2688 -0.3707 -0.8746
 8012SOL    HW235496   4.295   3.358   3.067 -2.3465  0.0362  0.5682
 8013SOL     OW35497   3.918   0.884   9.065  0.1194  0.2548  0.1141
 8013SOL    HW135498   3.867   0.903   8.987  1.2855  1.3549 -0.3684
 8013SOL    HW235499   3.858   0.913   9.134  0.1418 -0.7109  0.5456
 8014SOL     OW35500   2.093   4.314  15.633  0.1510  0.6503 -0.1608
 8014SOL    HW135501   1.998   4.323  15.624  0.1884  0.5406 -0.6696
 8014SOL    HW235502   2.107   4.277  15.720 -0.5732  0.8485  0.0408
 8015SOL     OW35503   0.945   0.796   4.866  0.0048  0.0771  0.1119
 8015SOL    HW135504   0.977   0.760   4.783  0.1854 -0.2461  0.3202
 8015SOL    HW235505   0.985   0.732   4.925 -0.2860  0.4734  0.7404
 8016SOL     OW35506   3.953   3.218  16.759 -0.5076  0.1082  0.0601
 8016SOL    HW135507   3.957   3.266  16.675 -0.0835  0.2148  0.1443
 8016SOL    HW235508   4.033   3.254  16.797  0.5575  0.2638 -2.3033
 8017SOL     OW35509   3.668   3.622  12.098  0.8922 -0.1158 -0.2853
 8017SOL    HW135510   3.657   3.541  12.049  0.3834  1.5417 -2.8744
 8017SOL    HW235511   3.578   3.651  12.110  0.6870  0.1852 -2.6310
 8018SOL     OW35512   4.368   3.666  11.383  0.4618  0.2760  0.0510
 8018SOL    HW135513   4.359   3.672  11.478 -1.5457  0.3634 -0.1427
 8018SOL    HW235514   4.381   3.573  11.368  1.2354  0.0103  2.5401
 8019SOL     OW35515   0.558   1.468   1.387 -0.1916 -0.6311  0.1878
 8019SOL    HW135516   0.490   1.504   1.444 -0.5952  0.3908 -0.9370
 8019SOL    HW235517   0.640   1.500   1.424 -0.8223  0.1751  0.8931
 8020SOL     OW35518   0.743   1.741  17.053  0.1622 -0.0378 -0.3025
 8020SOL    HW135519   0.837   1.756  17.041  0.1324  0.7983  0.5002
 8020SOL    HW235520   0.740   1.731  17.148 -0.8615  1.5598 -0.1677
 8021SOL     OW35521   3.290   4.270   4.263 -0.4018 -0.1251 -0.3317
 8021SOL    HW135522   3.322   4.280   4.173 -2.5414 -0.4222 -1.1470
 8021SOL    HW235523   3.202   4.242   4.234 -0.3774 -0.6203  0.0800
 8022SOL     OW35524   4.127   2.922   1.852 -0.4286  0.1802  1.2843
 8022SOL    HW135525   4.057   2.985   1.836  0.3476  0.7387  0.0422
 8022SOL    HW235526   4.110   2.902   1.944 -1.4207 -2.4937  0.5177
 8023SOL     OW35527   2.465   4.240  16.513  0.1606  0.0242 -0.0161
 8023SOL    HW135528   2.524   4.258  16.586 -0.5028 -0.5149  0.6500
 8023SOL    HW235529   2.527   4.193  16.458 -0.7867 -1.7476  0.4269
 8024SOL     OW35530   2.781   1.642  14.159  0.4438  0.3675 -0.3191
 8024SOL    HW135531   2.873   1.620  14.172  0.5016  0.3007 -0.8461
 8024SOL    HW235532   2.781   1.690  14.076 -1.8276  0.8077 -0.0673
 8025SOL     OW35533   3.644   0.373   5.824  0.4580 -0.4516  0.1851
 8025SOL    HW135534   3.720   0.370   5.882 -0.1580 -1.7181  0.9242
 8025SOL    HW235535   3.596   0.292   5.841  1.0813 -0.4875  1.7866
 8026SOL     OW35536   0.609   1.858   6.408  0.3903 -0.0178  0.2751
 8026SOL    HW135537   0.600   1.922   6.479 -0.9659  1.2089 -0.9890
 8026SOL    HW235538   0.637   1.782   6.458  1.1083  0.4737  0.6216
 8027SOL     OW35539   4.178   1.037   2.928 -0.2673  0.0751  0.5683
 8027SOL    HW135540   4.161   1.050   3.021  1.6164 -2.0667  1.2058
 8027SOL    HW235541   4.095   1.017   2.884 -1.2105  2.9914  1.0372
 8028SOL     OW35542   1.818   3.562   8.483 -0.3165  0.2283  0.2897
 8028SOL    HW135543   1.799   3.494   8.547  0.3688 -0.0325  0.2158
 8028SOL    HW235544   1.826   3.633   8.547  1.5346 -0.5478  0.9355
 8029SOL     OW35545   0.244   0.440   4.950 -0.1357 -0.4435  0.0172
 8029SOL    HW135546   0.213   0.525   4.982  0.5153  0.0502 -0.6765
 8029SOL    HW235547   0.255   0.443   4.855 -1.0787  0.7207 -0.0469
 8030SOL     OW35548   0.519   3.361   4.718  0.8415 -0.3098 -0.5958
 8030SOL    HW135549   0.484   3.397   4.799  1.4141 -1.4230  0.1496
 8030SOL    HW235550   0.486   3.429   4.660  0.9402  1.1573  1.0900
 8031SOL     OW35551   0.679   2.884  17.510 -0.0744  0.1670  0.0999
 8031SOL    HW135552   0.740   2.920  17.445  0.9731  1.2449  1.6714
 8031SOL    HW235553   0.661   2.966  17.556  1.2388  0.4635  0.0894
 8032SOL     OW35554   3.046   2.889   5.021  0.3435  0.6601 -0.1071
 8032SOL    HW135555   3.025   2.982   5.012  2.0141  0.8281 -2.4208
 8032SOL    HW235556   2.960   2.856   5.046  0.0088  3.2860  2.2272
 8033SOL     OW35557   3.353   4.399   0.439  0.2435 -0.3225 -0.6712
 8033SOL    HW135558   3.261   4.407   0.414  0.1748  2.0913  0.3530
 8033SOL    HW235559   3.349   4.429   0.530 -3.5532  0.6795 -1.1766
 8034SOL     OW35560   0.897   4.534   0.310 -0.0049  0.4098 -0.1649
 8034SOL    HW135561   0.901   4.460   0.249 -0.4146  3.1231 -3.5203
 8034SOL    HW235562   0.934   4.502   0.392 -0.5197 -1.9199 -0.8397
 8035SOL     OW35563   2.735   2.893   8.450 -0.2043  0.6441  0.4629
 8035SOL    HW135564   2.813   2.865   8.498 -0.2496 -0.9754 -0.4027
 8035SOL    HW235565   2.672   2.928   8.513  0.8765  2.9246  0.2490
 8036SOL     OW35566   4.369   3.525   3.130  0.4798  0.1051  0.5676
 8036SOL    HW135567   4.376   3.538   3.036 -0.6646  0.6767  0.5575
 8036SOL    HW235568   4.453   3.552   3.167 -0.0657  1.3167  0.9181
 8037SOL     OW35569   1.578   4.260   5.628 -0.2960 -0.3873 -0.2275
 8037SOL    HW135570   1.652   4.320   5.625 -0.6830  0.1402  0.6816
 8037SOL    HW235571   1.500   4.308   5.658  1.3867  2.3382 -0.2370
 8038SOL     OW35572   3.632   1.695  11.200 -0.0548  0.2039  0.2127
 8038SOL    HW135573   3.640   1.788  11.219  1.1149  0.4059 -1.2504
 8038SOL    HW235574   3.561   1.663  11.257  0.1238 -0.5551  0.0169
 8039SOL     OW35575   1.985   3.534   4.406  0.2896 -0.1864 -0.4472
 8039SOL    HW135576   1.956   3.520   4.496 -0.5180  0.4898 -0.5970
 8039SOL    HW235577   1.946   3.616   4.375  0.3342 -0.2752 -0.7370
 8040SOL     OW35578   2.303   2.745   2.809 -0.5513 -0.6030  0.3784
 8040SOL    HW135579   2.398   2.756   2.816 -0.8307  0.5174  2.3651
 8040SOL    HW235580   2.300   2.747   2.713  0.1829  0.3231  0.3749
 8041SOL     OW35581   2.368   3.528  14.381  0.0562 -0.3496  0.2242
 8041SOL    HW135582   2.342   3.457  14.322  0.8877  1.3374 -2.1574
 8041SOL    HW235583   2.410   3.588  14.319  1.7868 -0.6581  1.0830
 8042SOL     OW35584   2.688   3.473   3.599  0.2331 -0.3232 -1.1992
 8042SOL    HW135585   2.669   3.394   3.650 -3.3184  2.3551  1.6591
 8042SOL    HW235586   2.784   3.468   3.605  0.3628 -0.8841 -4.1534
 8043SOL     OW35587   1.366   3.274   8.295 -0.8892 -0.2862 -0.2991
 8043SOL    HW135588   1.453   3.234   8.299 -0.2608  1.3665  2.1719
 8043SOL    HW235589   1.381   3.347   8.235  1.2033 -1.3557 -1.0989
 8044SOL     OW35590   2.400   2.180   6.544  0.2455 -0.2598 -0.2539
 8044SOL    HW135591   2.359   2.227   6.472  0.3663  0.2126 -0.0138
 8044SOL    HW235592   2.429   2.250   6.604 -0.8944 -2.3182  2.7077
 8045SOL     OW35593   2.516   2.238   7.668  0.0072  0.3072  0.4931
 8045SOL    HW135594   2.481   2.154   7.639 -1.4899  1.0767  0.0618
 8045SOL    HW235595   2.581   2.214   7.735  0.0136 -1.3267 -0.0958
 8046SOL     OW35596   2.131   2.497   5.639 -0.1449 -0.6067 -0.0101
 8046SOL    HW135597   2.190   2.572   5.635 -0.2955 -0.5976 -2.1134
 8046SOL    HW235598   2.112   2.476   5.730 -2.2248 -0.3135 -0.3887
 8047SOL     OW35599   3.234   2.927   3.685 -0.9127  0.0896 -0.0086
 8047SOL    HW135600   3.145   2.938   3.718 -1.1069 -0.2506 -0.4242
 8047SOL    HW235601   3.228   2.942   3.591 -0.2545  1.7860  0.2218
 8048SOL     OW35602   1.987   0.766   9.031  0.3627  0.2651 -0.4650
 8048SOL    HW135603   1.893   0.782   9.032  0.4348  0.6826 -0.1014
 8048SOL    HW235604   2.014   0.818   8.955 -0.5126 -0.3474 -1.1928
 8049SOL     OW35605   3.297   4.671   3.314 -0.0307 -0.1794  0.3261
 8049SOL    HW135606   3.274   4.594   3.262 -1.9192  0.1118  0.7244
 8049SOL    HW235607   3.213   4.716   3.307  0.1904  0.1690 -0.0501
 8050SOL     OW35608   2.190   0.665   4.568 -0.7431  0.2086  0.2957
 8050SOL    HW135609   2.185   0.686   4.661  1.0266 -1.7251  0.8236
 8050SOL    HW235610   2.162   0.753   4.542  4.0200  1.4790 -0.5104
 8051SOL     OW35611   1.615   1.586   0.374 -0.1287 -0.4929 -0.2654
 8051SOL    HW135612   1.652   1.533   0.445  1.6516 -0.1180 -0.9059
 8051SOL    HW235613   1.641   1.671   0.408 -0.8666 -1.0589  1.7362
 8052SOL     OW35614   4.088   2.685   6.367 -0.2906  0.0327  0.0787
 8052SOL    HW135615   4.039   2.662   6.288  1.1071 -2.0328 -0.1842
 8052SOL    HW235616   4.139   2.758   6.330  1.1137  0.5533  2.9697
 8053SOL     OW35617   4.508   1.158   5.826  0.7808  0.2228  0.2007
 8053SOL    HW135618   4.448   1.085   5.839 -0.4650  1.4574  1.4363
 8053SOL    HW235619   4.596   1.122   5.832  0.0085 -1.5893  0.4540
 8054SOL     OW35620   3.272   0.657   6.888  0.0755  0.4243 -0.1062
 8054SOL    HW135621   3.225   0.579   6.918  0.1235  0.2228 -0.5455
 8054SOL    HW235622   3.339   0.609   6.839  1.4312 -0.2551  2.4544
 8055SOL     OW35623   1.953   0.398  16.926  0.1427 -0.1595  0.0950
 8055SOL    HW135624   2.003   0.478  16.940 -1.9545  1.0756  0.6238
 8055SOL    HW235625   1.868   0.408  16.969  0.5378  0.2350  0.7853
 8056SOL     OW35626   3.443   0.005  16.871 -0.4355 -0.0018 -0.8764
 8056SOL    HW135627   3.535   0.020  16.850 -0.2504 -0.9269 -0.6876
 8056SOL    HW235628   3.431   4.644  16.833  0.6566  0.0779 -1.4174
 8057SOL     OW35629   3.360   2.955  13.783  0.3527 -0.7940  0.4441
 8057SOL    HW135630   3.409   2.903  13.719 -1.5470 -0.2916 -1.4007
 8057SOL    HW235631   3.402   3.039  13.766  0.2781 -0.5178  1.6407
 8058SOL     OW35632   2.700   3.771   0.337  0.1540  0.6376  0.1567
 8058SOL    HW135633   2.634   3.835   0.362  1.8302  1.5401  2.3330
 8058SOL    HW235634   2.741   3.751   0.422  1.0502  0.4013 -0.3321
 8059SOL     OW35635   1.312   1.995   5.004 -0.5021  0.2789  0.3345
 8059SOL    HW135636   1.225   1.966   5.032  0.8614 -1.5413  2.5631
 8059SOL    HW235637   1.306   1.975   4.911 -1.7742  0.7830  0.3053
 8060SOL     OW35638   4.128   3.085  16.051 -0.2559  0.1697 -0.3138
 8060SOL    HW135639   4.066   3.055  15.986 -0.7647 -0.5850  0.5185
 8060SOL    HW235640   4.186   3.009  16.053 -0.8079 -0.2188  0.7536
 8061SOL     OW35641   3.499   1.462  13.011 -1.3254  0.1923 -0.1633
 8061SOL    HW135642   3.434   1.533  13.006  2.4187  3.6149  0.5093
 8061SOL    HW235643   3.459   1.411  12.940 -2.3322 -0.1415  0.6335
 8062SOL     OW35644   4.072   1.239  14.299 -0.3589  0.5763 -0.0111
 8062SOL    HW135645   4.145   1.217  14.241 -1.0333  1.6860 -1.2550
 8062SOL    HW235646   4.124   1.308  14.341 -1.8591  0.1085  2.6180
 8063SOL     OW35647   0.057   0.020   8.699  0.9153  0.1830  0.1117
 8063SOL    HW135648   0.063   4.652   8.684 -0.5189 -0.7296  5.5151
 8063SOL    HW235649   0.023   0.041   8.612  1.3157  2.1146  0.4252
 8064SOL     OW35650   4.237   3.058   6.587 -0.4689 -0.1747 -0.1948
 8064SOL    HW135651   4.298   3.109   6.534  1.6024 -0.4320  1.9726
 8064SOL    HW235652   4.304   2.999   6.620 -1.1585 -0.8078  0.0776
 8065SOL     OW35653   3.339   0.980   1.782 -0.6340 -0.6102 -0.6971
 8065SOL    HW135654   3.264   0.921   1.794 -1.3763  0.3265 -0.7505
 8065SOL    HW235655   3.398   0.940   1.846 -0.2556 -0.3316 -0.8801
 8066SOL     OW35656   1.742   2.354   3.985 -0.5768 -0.4262  0.3017
 8066SOL    HW135657   1.793   2.344   4.064  0.9215  3.9003 -0.1134
 8066SOL    HW235658   1.664   2.395   4.023 -1.4477 -0.4938 -1.3675
 8067SOL     OW35659   1.677   2.112   6.080 -0.0935 -0.4765  0.1967
 8067SOL    HW135660   1.683   2.051   6.154  2.1132  1.2819  1.4938
 8067SOL    HW235661   1.584   2.102   6.060 -0.0263 -1.1146  0.1813
 8068SOL     OW35662   3.989   3.170  14.431  0.2448  0.1422 -0.7258
 8068SOL    HW135663   3.944   3.106  14.376 -1.2800 -0.2014  0.9060
 8068SOL    HW235664   4.044   3.104  14.474 -0.8630 -0.9522 -0.9937
 8069SOL     OW35665   2.125   1.828   1.364  0.1849  0.3010  0.2524
 8069SOL    HW135666   2.051   1.879   1.331 -0.2100 -2.1624 -2.6786
 8069SOL    HW235667   2.106   1.806   1.455 -0.4127 -1.3443 -0.2806
 8070SOL     OW35668   2.683   0.050   3.760  0.5481  1.1147 -0.1271
 8070SOL    HW135669   2.770   0.012   3.766 -0.8551 -1.9844  0.6936
 8070SOL    HW235670   2.678   0.042   3.665  0.4512  1.3496 -0.1409
 8071SOL     OW35671   0.940   1.658  10.939  0.3026 -0.1055  0.4239
 8071SOL    HW135672   1.020   1.662  10.886  0.4275 -2.1258  0.4702
 8071SOL    HW235673   0.955   1.566  10.960 -0.9431 -0.7244 -1.3887
 8072SOL     OW35674   4.331   3.696   4.816  0.4516 -0.9434  0.2681
 8072SOL    HW135675   4.269   3.750   4.864 -0.0414 -2.3860  1.2373
 8072SOL    HW235676   4.269   3.676   4.746  0.1314  0.8357  0.0361
 8073SOL     OW35677   0.643   4.677  14.811 -0.3570 -0.7786 -0.2200
 8073SOL    HW135678   0.713   4.620  14.779 -1.2722  0.1653 -3.9985
 8073SOL    HW235679   0.675   0.030  14.767 -1.2153 -1.1974 -1.6024
 8074SOL     OW35680   3.931   3.320  17.540 -0.4784 -0.0221  0.1603
 8074SOL    HW135681   3.918   3.237  17.585 -0.5669 -1.2078 -2.0648
 8074SOL    HW235682   3.912   3.298  17.449  1.6988 -1.6054  0.0763
 8075SOL     OW35683   2.176   0.910  10.894 -0.0997  0.3393  0.2359
 8075SOL    HW135684   2.265   0.936  10.918  1.3146 -2.5423 -1.9647
 8075SOL    HW235685   2.170   0.951  10.808 -0.3000 -1.4787 -0.6158
 8076SOL     OW35686   3.936   0.983   9.715 -0.8080 -0.3280 -0.4023
 8076SOL    HW135687   3.975   1.071   9.719 -1.3666 -0.0638 -0.7299
 8076SOL    HW235688   3.936   0.970   9.809 -2.1427  1.6956 -0.1308
 8077SOL     OW35689   2.421   1.985   4.465  0.3630  0.0032  0.9402
 8077SOL    HW135690   2.466   2.021   4.389  0.7920 -0.6772  0.8794
 8077SOL    HW235691   2.340   1.951   4.427  0.7304  3.1812 -2.6351
 8078SOL     OW35692   4.073   1.080   3.748  0.0086 -0.3974  0.4468
 8078SOL    HW135693   4.122   1.029   3.812  0.7056  0.3565  0.5098
 8078SOL    HW235694   4.069   1.164   3.794  1.0304 -1.6827  2.9206
 8079SOL     OW35695   1.027   0.874   1.199  0.4941 -0.1495 -0.2659
 8079SOL    HW135696   0.942   0.885   1.157  0.7835 -0.4253 -0.9341
 8079SOL    HW235697   1.076   0.846   1.121  2.7875  2.2787  0.2851
 8080SOL     OW35698   0.875   4.069   4.753 -0.0714 -0.0054  0.0425
 8080SOL    HW135699   0.932   3.998   4.783  0.2092  0.2497  0.1132
 8080SOL    HW235700   0.944   4.117   4.708 -0.5864  0.3539 -0.3606
 8081SOL     OW35701   1.386   1.460   9.093  0.9465  0.1547 -0.4096
 8081SOL    HW135702   1.425   1.403   9.159 -0.2582  2.3459  2.2094
 8081SOL    HW235703   1.333   1.398   9.043  0.7718  0.5242 -0.6768
 8082SOL     OW35704   3.973   3.424   1.688 -0.3619 -0.3049  0.1971
 8082SOL    HW135705   3.920   3.393   1.762  1.1558 -1.5818  0.7518
 8082SOL    HW235706   3.919   3.397   1.613 -3.2596  0.0276  2.1384
 8083SOL     OW35707   3.494   0.507   7.473 -0.2843  0.1471  0.3469
 8083SOL    HW135708   3.433   0.457   7.419 -0.9602  0.6151  0.6611
 8083SOL    HW235709   3.433   0.540   7.540  2.1638 -1.1701  3.2207
 8084SOL     OW35710   1.368   3.499   2.142 -0.1938  0.3720 -0.2657
 8084SOL    HW135711   1.303   3.452   2.194  1.6363 -0.3818  1.3378
 8084SOL    HW235712   1.365   3.449   2.060  2.9122  0.4660 -0.4130
 8085SOL     OW35713   1.032   0.909   7.963 -0.5632 -0.0177  0.9335
 8085SOL    HW135714   1.011   0.872   8.048 -0.9413 -2.6347 -0.3224
 8085SOL    HW235715   1.026   0.827   7.915 -0.2024 -1.3951  3.2835
 8086SOL     OW35716   4.708   1.640  16.792  0.4809 -0.5009 -0.4455
 8086SOL    HW135717   4.650   1.591  16.734 -1.6133  1.8941 -0.3526
 8086SOL    HW235718   0.006   1.708  16.729 -0.3127 -0.6562 -0.9123
 8087SOL     OW35719   3.834   0.675   2.586 -0.6078  0.0813 -0.3359
 8087SOL    HW135720   3.853   0.620   2.662 -1.5005  0.4851  0.1762
 8087SOL    HW235721   3.814   0.759   2.629  0.4193  0.3998 -0.4798
 8088SOL     OW35722   2.809   2.477   0.599  0.1979  0.5046  0.1171
 8088SOL    HW135723   2.884   2.535   0.609  1.1807 -0.5549 -1.1401
 8088SOL    HW235724   2.785   2.486   0.506  1.7524  0.4230 -0.2944
 8089SOL     OW35725   3.600   3.769  17.630 -0.2812  0.2879 -0.1907
 8089SOL    HW135726   3.582   3.840  17.568 -0.0436  0.7563  0.2798
 8089SOL    HW235727   3.624   3.691  17.580 -2.0883 -0.3280 -0.1328
 8090SOL     OW35728   3.814   0.706   3.030  0.2264 -0.7262 -0.1140
 8090SOL    HW135729   3.720   0.717   3.042  0.3372  1.5382 -1.1371
 8090SOL    HW235730   3.840   0.676   3.117  1.7751 -0.5498 -0.5146
 8091SOL     OW35731   3.018   0.807  11.246 -0.0893  0.7490 -0.4301
 8091SOL    HW135732   3.063   0.865  11.307  0.9214 -0.8316  0.3349
 8091SOL    HW235733   2.948   0.867  11.222 -0.5299  0.4511  0.0909
 8092SOL     OW35734   3.131   1.694   9.228 -0.0874 -0.1031 -0.4225
 8092SOL    HW135735   3.102   1.784   9.246  0.0741 -0.2005  0.3417
 8092SOL    HW235736   3.083   1.636   9.287 -0.1848 -1.2666 -1.6476
 8093SOL     OW35737   4.622   1.721   2.893 -0.0002  0.0806  0.5971
 8093SOL    HW135738   4.563   1.766   2.833  0.4419 -0.7213 -0.4399
 8093SOL    HW235739   4.557   1.690   2.956  1.6634  1.6382  3.0576
 8094SOL     OW35740   1.279   4.233   6.580  0.2281 -0.8194  0.2134
 8094SOL    HW135741   1.206   4.172   6.573 -0.9132  0.6715 -1.0396
 8094SOL    HW235742   1.272   4.277   6.665  1.2938  0.3965 -0.3245
 8095SOL     OW35743   2.902   4.058   6.861 -0.5392 -0.2427 -0.0864
 8095SOL    HW135744   2.956   4.137   6.857  0.4277 -0.9221 -0.3807
 8095SOL    HW235745   2.965   3.994   6.895 -1.2866 -1.7171 -1.4791
 8096SOL     OW35746   3.151   1.987   2.095 -0.9167 -0.0937 -0.0703
 8096SOL    HW135747   3.194   1.913   2.051  0.5253  0.7836 -0.1409
 8096SOL    HW235748   3.166   1.969   2.187  0.7137  0.3101 -0.2491
 8097SOL     OW35749   2.447   2.730   1.173 -0.1594  0.1789 -0.1759
 8097SOL    HW135750   2.476   2.734   1.082  0.6406  2.0859  0.1619
 8097SOL    HW235751   2.412   2.641   1.181 -0.7024  0.5053  1.1008
 8098SOL     OW35752   4.252   0.177   7.898 -0.1741 -0.0265  0.0806
 8098SOL    HW135753   4.328   0.159   7.842  0.4433  0.1837  0.8562
 8098SOL    HW235754   4.183   0.128   7.853 -1.0853  0.5011  0.9203
 8099SOL     OW35755   3.973   4.684  14.192  0.2702 -0.6769  0.3153
 8099SOL    HW135756   4.030   4.653  14.263  2.1019  2.0577  0.0109
 8099SOL    HW235757   3.923   0.028  14.234  0.3753 -1.3178  1.5299
 8100SOL     OW35758   1.886   0.815   5.643  0.2005 -0.3662 -0.1170
 8100SOL    HW135759   1.899   0.909   5.653  0.5746 -0.5529  1.1414
 8100SOL    HW235760   1.885   0.781   5.732 -0.6945  0.1838  0.0814
 8101SOL     OW35761   2.495   1.964  16.499 -0.6020 -0.3975  0.4237
 8101SOL    HW135762   2.566   1.971  16.435 -1.3235  1.9701 -0.1332
 8101SOL    HW235763   2.415   1.975  16.447  0.8391 -0.6135 -1.8545
 8102SOL     OW35764   1.536   0.037   4.874  0.2803  0.1234 -0.2058
 8102SOL    HW135765   1.515   0.130   4.867  0.1363  0.4173  3.9300
 8102SOL    HW235766   1.448   4.724   4.870  1.5656 -2.5381 -2.7084
 8103SOL     OW35767   3.835   2.398   8.201  0.2966  0.3425 -0.1384
 8103SOL    HW135768   3.917   2.411   8.153 -0.0007 -0.4039 -0.8387
 8103SOL    HW235769   3.808   2.488   8.220  0.2343  0.9033 -2.8155
 8104SOL     OW35770   3.895   4.476   6.361 -0.5809 -0.3871  0.1517
 8104SOL    HW135771   3.833   4.440   6.297 -0.9943  2.7012 -1.1748
 8104SOL    HW235772   3.970   4.504   6.308  1.5577 -1.5871  2.5703
 8105SOL     OW35773   1.788   2.870   3.808  0.0147  0.3355 -0.0329
 8105SOL    HW135774   1.735   2.900   3.882 -0.0298  0.6043 -0.1713
 8105SOL    HW235775   1.754   2.784   3.785 -1.3167  0.8319  0.0758
 8106SOL     OW35776   1.968   3.389   5.319 -0.4201  0.0080 -0.0835
 8106SOL    HW135777   1.896   3.336   5.284 -0.1729  0.5936 -1.4885
 8106SOL    HW235778   2.038   3.368   5.257  0.1255  1.2123  0.1221
 8107SOL     OW35779   4.618   3.770  10.460 -0.3288 -0.9384  0.2609
 8107SOL    HW135780   4.712   3.753  10.459 -0.2660 -0.5927 -0.0163
 8107SOL    HW235781   4.597   3.738  10.548  0.6925  0.9607  1.2079
 8108SOL     OW35782   4.193   3.082  10.953 -0.3745  0.2017  0.3566
 8108SOL    HW135783   4.190   3.101  10.859 -2.9300  0.2388  0.4395
 8108SOL    HW235784   4.197   2.987  10.958  1.0176  0.2599  0.4544
 8109SOL     OW35785   0.037   1.293   3.062 -0.1164  0.0752 -0.2560
 8109SOL    HW135786   4.684   1.330   3.101 -0.3216 -0.0349 -0.5658
 8109SOL    HW235787   0.067   1.231   3.128 -1.8663 -1.2110 -0.6412
 8110SOL     OW35788   0.501   0.317   3.713 -0.0848 -0.3431  0.0145
 8110SOL    HW135789   0.528   0.252   3.648 -1.8188 -2.4633  1.4334
 8110SOL    HW235790   0.588   0.354   3.728  0.8867 -2.2884 -0.8142
 8111SOL     OW35791   0.320   3.032  17.020 -0.3919  0.4117  0.2483
 8111SOL    HW135792   0.333   3.012  16.927  0.9798 -1.4200  0.8596
 8111SOL    HW235793   0.249   3.097  17.018  0.7430  1.6382  0.3030
 8112SOL     OW35794   4.127   1.590   9.867 -0.2814  0.2145  0.7649
 8112SOL    HW135795   4.032   1.581   9.854 -0.1533 -0.7781  0.5671
 8112SOL    HW235796   4.136   1.683   9.890 -1.7806  0.8416 -1.1099
 8113SOL     OW35797   2.017   3.629   3.628  0.3521  0.1105 -0.3312
 8113SOL    HW135798   2.048   3.712   3.592  0.0818 -0.2625 -1.4371
 8113SOL    HW235799   2.061   3.572   3.566  1.4814 -0.5673  1.1078
 8114SOL     OW35800   1.119   2.339   3.075 -0.0901 -0.1702 -0.1480
 8114SOL    HW135801   1.057   2.360   3.005 -1.8223  4.0289  2.6714
 8114SOL    HW235802   1.164   2.423   3.086 -0.7959  0.2233 -0.2462
 8115SOL     OW35803   2.136   1.691   3.637  0.3966 -0.1346  0.0608
 8115SOL    HW135804   2.177   1.621   3.688  1.8709  0.4302 -0.3467
 8115SOL    HW235805   2.179   1.678   3.552 -1.2328  0.9029 -0.9335
 8116SOL     OW35806   1.081   2.731   6.121 -0.1817 -0.1663 -0.0141
 8116SOL    HW135807   1.107   2.698   6.207  3.0586 -1.3393 -1.4453
 8116SOL    HW235808   1.064   2.822   6.144 -0.4664  0.3468 -2.2438
 8117SOL     OW35809   0.873   1.244   5.121  0.3886 -0.4280  0.0104
 8117SOL    HW135810   0.800   1.272   5.065 -0.5749  1.1343  2.0423
 8117SOL    HW235811   0.946   1.292   5.083 -0.0520 -0.0975 -0.4205
 8118SOL     OW35812   2.706   1.187   1.650  0.3115  0.3429 -0.0111
 8118SOL    HW135813   2.741   1.098   1.660 -1.1590 -0.1293  0.9421
 8118SOL    HW235814   2.652   1.189   1.571  0.4313 -1.5831 -0.1497
 8119SOL     OW35815   4.245   2.894   1.246  0.2634  0.4477 -0.1218
 8119SOL    HW135816   4.263   2.825   1.182  0.4474  0.3333  0.0530
 8119SOL    HW235817   4.181   2.944   1.196  0.3269  0.7033  0.0544
 8120SOL     OW35818   0.048   0.970   8.860  0.5427 -0.0988  0.0998
 8120SOL    HW135819   0.067   1.005   8.947 -3.6281  0.4509  0.7563
 8120SOL    HW235820   0.109   0.898   8.848  0.9152  0.1683  0.3848
 8121SOL     OW35821   4.218   0.961   5.536  0.3318  0.7356 -0.4878
 8121SOL    HW135822   4.309   0.991   5.533  0.4855  0.6137  2.2120
 8121SOL    HW235823   4.196   1.009   5.616 -0.9422 -0.4760 -0.1039
 8122SOL     OW35824   1.120   3.071   1.667 -0.2896  0.3033  0.3045
 8122SOL    HW135825   1.037   3.119   1.672 -0.8861 -0.6209 -0.7839
 8122SOL    HW235826   1.116   3.028   1.753  1.5368 -1.2567 -0.3850
 8123SOL     OW35827   3.769   2.789   5.364  0.4241  0.0274  0.2081
 8123SOL    HW135828   3.809   2.875   5.347  0.7138 -0.2303 -0.4008
 8123SOL    HW235829   3.845   2.732   5.356  0.5748  0.5659 -2.3591
 8124SOL     OW35830   4.560   1.177   7.371  0.0223 -0.3085  0.2384
 8124SOL    HW135831   4.499   1.251   7.363 -2.2554 -2.4380 -1.9277
 8124SOL    HW235832   4.534   1.127   7.294  0.0045  0.1449 -0.0545
 8125SOL     OW35833   1.488   1.379  15.668  0.3483 -0.2988 -0.2731
 8125SOL    HW135834   1.500   1.314  15.599 -0.2515 -1.7503  1.0068
 8125SOL    HW235835   1.499   1.322  15.744 -0.3182  0.6022  0.5001
 8126SOL     OW35836   3.536   4.190   5.360  0.1944  0.5671 -0.2514
 8126SOL    HW135837   3.457   4.158   5.404  1.4422  0.8294  2.2045
 8126SOL    HW235838   3.547   4.111   5.308  0.9756  1.3132 -1.2082
 8127SOL     OW35839   3.759   3.934   4.909  0.2223  0.1030  0.2404
 8127SOL    HW135840   3.824   3.927   4.839  1.1217  1.2231  0.9672
 8127SOL    HW235841   3.721   3.847   4.901 -0.5603  0.4122  0.5663
 8128SOL     OW35842   4.295   4.343   2.540  0.2995  0.0720  0.5912
 8128SOL    HW135843   4.289   4.434   2.509  0.1688  0.6171  2.1904
 8128SOL    HW235844   4.211   4.347   2.587  0.0595 -1.0761  0.2536
 8129SOL     OW35845   0.271   3.237   5.418  0.3547  0.2533  0.0836
 8129SOL    HW135846   0.337   3.295   5.455  0.5603  0.5674 -0.7887
 8129SOL    HW235847   0.326   3.201   5.349 -0.4866  1.1803 -1.0682
 8130SOL     OW35848   3.409   2.076   3.734 -0.5265 -0.3288 -0.7692
 8130SOL    HW135849   3.421   2.015   3.807 -2.1038  1.9488  1.4387
 8130SOL    HW235850   3.394   2.006   3.671 -1.0030  1.0095 -2.1389
 8131SOL     OW35851   1.792   1.232   6.540  0.0948  0.1854  0.3841
 8131SOL    HW135852   1.845   1.177   6.483 -0.1416 -0.0317  0.3731
 8131SOL    HW235853   1.853   1.212   6.610 -0.6877  1.0773  1.3239
 8132SOL     OW35854   1.419   1.512   9.671  0.4582 -0.5894  0.2551
 8132SOL    HW135855   1.492   1.541   9.726  1.3378 -0.1826 -1.1286
 8132SOL    HW235856   1.340   1.540   9.717  0.6027 -0.7834  0.6229
 8133SOL     OW35857   1.796   0.035   3.031 -0.2963  0.0497  0.4094
 8133SOL    HW135858   1.702   0.055   3.029  0.1484  2.0309 -0.6496
 8133SOL    HW235859   1.801   4.692   3.097 -2.1468 -0.3279  0.1514
 8134SOL     OW35860   4.490   1.362   3.160  0.4224  0.1248  0.1585
 8134SOL    HW135861   4.499   1.449   3.121  1.7140  0.6339  1.5767
 8134SOL    HW235862   4.457   1.382   3.248  2.3790 -2.2167  1.4266
 8135SOL     OW35863   3.215   2.045   5.204  0.2625 -0.2611  0.1392
 8135SOL    HW135864   3.303   2.069   5.231  0.0197  0.8170 -0.0347
 8135SOL    HW235865   3.228   1.976   5.139  0.3238 -0.1779  0.0627
 8136SOL     OW35866   1.871   0.766   4.538 -0.5740  0.1584 -0.3485
 8136SOL    HW135867   1.891   0.859   4.523 -1.4740  0.1797 -1.4820
 8136SOL    HW235868   1.911   0.740   4.621 -1.2532  0.9287  0.2175
 8137SOL     OW35869   1.688   4.583   6.010 -0.1800 -0.3037  0.1372
 8137SOL    HW135870   1.667   4.490   6.010 -1.6330  0.0277  0.4488
 8137SOL    HW235871   1.751   4.581   6.082  2.5108 -2.5361 -2.2579
 8138SOL     OW35872   2.781   2.762   7.792 -0.7820  0.9735 -0.2694
 8138SOL    HW135873   2.714   2.831   7.790 -1.5048  0.2646 -0.7873
 8138SOL    HW235874   2.802   2.753   7.885  0.1354 -1.3485 -0.6959
 8139SOL     OW35875   2.162   1.556   7.516  0.5703  0.0882 -0.0169
 8139SOL    HW135876   2.122   1.477   7.552 -0.6062 -0.0467 -1.5983
 8139SOL    HW235877   2.085   1.584   7.466 -0.5477 -2.1536  0.4622
 8140SOL     OW35878   2.401   4.000  10.550 -0.2952 -0.3168  0.0978
 8140SOL    HW135879   2.362   4.084  10.527 -0.2445  0.1688  1.7504
 8140SOL    HW235880   2.493   4.020  10.532 -0.1633 -1.0838 -0.0993
 8141SOL     OW35881   0.083   0.823  10.221  0.5144  0.4430  0.8187
 8141SOL    HW135882   0.080   0.727  10.218 -1.3205  0.5794 -2.5694
 8141SOL    HW235883   4.719   0.842  10.194  0.7685  0.1028 -0.2629
 8142SOL     OW35884   0.658   0.473   6.401 -0.4274 -0.3021  0.8642
 8142SOL    HW135885   0.564   0.457   6.397 -0.5225  0.7889 -1.4880
 8142SOL    HW235886   0.668   0.534   6.474  0.0520  1.1532 -0.4101
 8143SOL     OW35887   3.654   4.530   2.913 -0.0467  0.5033 -0.2746
 8143SOL    HW135888   3.598   4.531   2.991 -1.4161  2.4908 -1.3026
 8143SOL    HW235889   3.589   4.512   2.845 -1.7443 -1.9799  1.9754
 8144SOL     OW35890   4.269   0.393   5.502 -0.0347  0.0012  0.4351
 8144SOL    HW135891   4.180   0.395   5.539 -0.1217 -0.7198  0.2508
 8144SOL    HW235892   4.246   0.406   5.410  1.3502  0.9909  0.2406
 8145SOL     OW35893   4.171   1.647   6.428  0.2891  0.3149  0.5754
 8145SOL    HW135894   4.229   1.713   6.391  0.3286  0.7902  1.4820
 8145SOL    HW235895   4.223   1.571   6.404 -0.6797 -0.4267  0.8095
 8146SOL     OW35896   0.504   2.929  12.548  0.3499  0.5913  0.1659
 8146SOL    HW135897   0.516   2.944  12.642  0.5115 -0.3377  0.3010
 8146SOL    HW235898   0.594   2.950  12.524  1.1956  0.2454  3.0089
 8147SOL     OW35899   2.040   2.532   4.014  0.3824 -0.2232  0.2530
 8147SOL    HW135900   2.032   2.622   4.047 -0.5928 -0.8817  1.8157
 8147SOL    HW235901   1.997   2.481   4.082 -0.6582  2.6209  1.7306
 8148SOL     OW35902   4.065   0.230  16.487  0.2263 -0.0779 -0.5297
 8148SOL    HW135903   4.161   0.224  16.483  0.2688 -1.2386  2.0941
 8148SOL    HW235904   4.035   0.210  16.399 -2.8118 -0.7479  0.6610
 8149SOL     OW35905   2.843   1.797   0.220  0.7484 -0.3621 -0.5736
 8149SOL    HW135906   2.771   1.853   0.193 -0.7250 -0.7857  2.5191
 8149SOL    HW235907   2.882   1.839   0.296 -0.8553  2.6194 -1.4291
 8150SOL     OW35908   1.283   0.009   2.689 -0.3584 -0.3862 -0.0540
 8150SOL    HW135909   1.279   0.015   2.784  1.1492  1.2592 -0.0729
 8150SOL    HW235910   1.196   4.705   2.665 -0.8944  1.1973 -0.0792
 8151SOL     OW35911   2.634   2.149  12.989  0.5233 -0.8770  0.0708
 8151SOL    HW135912   2.622   2.054  12.992 -1.1203 -0.6547  1.4086
 8151SOL    HW235913   2.674   2.168  13.074  0.2297  4.8400 -1.0960
 8152SOL     OW35914   3.940   0.994   8.306  0.0664  0.0401 -0.0475
 8152SOL    HW135915   3.976   1.071   8.262 -0.1856 -0.0288 -0.3733
 8152SOL    HW235916   3.999   0.968   8.377  1.0396  0.6738 -0.6284
 8153SOL     OW35917   3.225   3.843   5.626 -0.1531  0.7158 -0.4714
 8153SOL    HW135918   3.207   3.778   5.558  1.7735  0.8707 -1.1260
 8153SOL    HW235919   3.143   3.833   5.675  0.7989  3.0766  1.6245
 8154SOL     OW35920   0.947   0.142   2.285  0.0621  0.4567  0.0134
 8154SOL    HW135921   0.929   0.225   2.241 -0.1487 -0.6212 -1.9396
 8154SOL    HW235922   0.856   0.113   2.290  1.0399 -2.4297  0.9711
 8155SOL     OW35923   1.923   1.072   5.694 -0.3357 -0.6029 -0.9124
 8155SOL    HW135924   1.859   1.092   5.762 -0.2527 -1.7188 -0.5094
 8155SOL    HW235925   1.904   1.153   5.646  2.0023  1.2042  1.2491
 8156SOL     OW35926   0.803   3.464   2.141 -0.2978 -0.0869 -0.7564
 8156SOL    HW135927   0.862   3.400   2.181 -0.1337  0.1600 -0.6033
 8156SOL    HW235928   0.851   3.538   2.179  0.0460 -0.5839 -0.2183
 8157SOL     OW35929   0.979   3.274   9.433 -0.0302  0.0442  0.3000
 8157SOL    HW135930   0.939   3.295   9.517  0.5005  2.8075 -0.1622
 8157SOL    HW235931   0.906   3.301   9.378 -0.6179  1.0339  1.5669
 8158SOL     OW35932   0.600   1.460   7.709  0.2673 -0.0958  0.2405
 8158SOL    HW135933   0.578   1.412   7.789  0.2400 -0.3927  0.0538
 8158SOL    HW235934   0.536   1.531   7.701 -0.4243 -0.8057 -0.5667
 8159SOL     OW35935   4.065   2.852   2.135  0.0038 -0.0541 -0.0639
 8159SOL    HW135936   4.121   2.927   2.157 -1.8301  0.9202  1.1967
 8159SOL    HW235937   4.106   2.787   2.192  0.5657  0.4534  0.1063
 8160SOL     OW35938   3.512   2.673   4.683  0.7832 -0.6360  0.1185
 8160SOL    HW135939   3.499   2.695   4.776 -1.5759  1.3784 -0.6790
 8160SOL    HW235940   3.554   2.750   4.645 -2.4698  0.0180 -2.1057
 8161SOL     OW35941   4.176   2.203   4.613 -0.4610  0.1832 -0.6744
 8161SOL    HW135942   4.207   2.148   4.541 -0.7846 -0.3991 -0.3778
 8161SOL    HW235943   4.181   2.286   4.567  2.9422  0.2042 -0.2520
 8162SOL     OW35944   2.478   0.640   7.496 -0.8026 -0.4217  0.1068
 8162SOL    HW135945   2.515   0.637   7.584  2.4677 -1.6395 -1.3411
 8162SOL    HW235946   2.465   0.734   7.503  2.4630  0.0701 -0.6607
 8163SOL     OW35947   3.042   1.210   6.056 -0.1778  0.0193 -0.0266
 8163SOL    HW135948   3.120   1.195   6.109 -0.0225 -1.4187 -0.6682
 8163SOL    HW235949   3.066   1.297   6.026  0.1703 -0.0503  0.0555
 8164SOL     OW35950   0.598   3.748   9.053  0.0753  0.3679 -0.0347
 8164SOL    HW135951   0.673   3.741   9.112 -0.0122 -0.6931 -0.0531
 8164SOL    HW235952   0.645   3.804   8.991  0.3678  1.8301  1.4869
 8165SOL     OW35953   4.650   0.778   8.393 -0.3211  0.2991  0.4190
 8165SOL    HW135954   0.013   0.805   8.370  0.0012 -0.9397  0.2213
 8165SOL    HW235955   4.601   0.761   8.312  0.3536 -0.5753  0.1932
 8166SOL     OW35956   3.633   0.035   3.326  1.0694  0.3207 -0.2301
 8166SOL    HW135957   3.659   0.065   3.413 -1.0573  1.1237  0.1233
 8166SOL    HW235958   3.610   4.673   3.354 -0.6234  1.2447  1.2803
 8167SOL     OW35959   0.888   1.521   0.322 -0.2613  0.1965 -0.2894
 8167SOL    HW135960   0.855   1.467   0.394  0.1410  0.7560  0.3154
 8167SOL    HW235961   0.977   1.486   0.316 -0.0912  0.4058  1.0470
 8168SOL     OW35962   1.240   3.570   8.064  0.0380 -0.2301  0.1577
 8168SOL    HW135963   1.214   3.651   8.020  0.2293  0.5073  1.4202
 8168SOL    HW235964   1.331   3.557   8.038 -0.2309 -1.6027 -0.1010
 8169SOL     OW35965   2.030   3.959   7.550  0.1614  0.2436 -0.1155
 8169SOL    HW135966   1.967   3.933   7.617  1.8767 -1.2596  0.9095
 8169SOL    HW235967   2.014   4.053   7.541 -1.4286 -0.2212 -2.1196
 8170SOL     OW35968   0.037   2.802   8.591  0.0881 -0.2015 -0.0411
 8170SOL    HW135969   0.109   2.860   8.617 -2.0856  3.2751 -1.8670
 8170SOL    HW235970   0.072   2.716   8.615 -1.0460 -0.9739 -1.1773
 8171SOL     OW35971   3.026   3.184   5.467 -0.1163 -0.6128  0.1098
 8171SOL    HW135972   3.000   3.176   5.375 -0.1901 -0.6353  0.1328
 8171SOL    HW235973   3.095   3.118   5.476 -1.1708 -1.8851 -1.0774
 8172SOL     OW35974   0.796   2.723   9.556  0.5396 -0.0469 -0.1610
 8172SOL    HW135975   0.850   2.708   9.478 -0.1106  2.2715 -1.0620
 8172SOL    HW235976   0.719   2.757   9.510  0.8880 -0.5849 -1.1247
 8173SOL     OW35977   1.187   4.340   8.352  0.4529 -0.0459  0.3304
 8173SOL    HW135978   1.275   4.355   8.388  1.2991 -2.7167 -0.5935
 8173SOL    HW235979   1.217   4.296   8.272 -0.7411 -2.6358  1.3138
 8174SOL     OW35980   2.708   3.131   2.152  0.0908 -0.4479  0.4624
 8174SOL    HW135981   2.658   3.051   2.136 -1.2721  0.8461 -1.8513
 8174SOL    HW235982   2.783   3.091   2.196 -0.5192 -0.3261  1.6171
 8175SOL     OW35983   0.010   4.321   0.692 -0.6651  0.4729 -0.0857
 8175SOL    HW135984   0.044   4.384   0.628 -1.3193 -0.2274 -1.1175
 8175SOL    HW235985   4.654   4.361   0.722 -0.6332 -0.4988  1.2852
 8176SOL     OW35986   1.798   2.765   8.143 -0.5287  0.2485 -0.4324
 8176SOL    HW135987   1.752   2.735   8.065  0.7100 -0.1918 -0.9942
 8176SOL    HW235988   1.801   2.860   8.131 -0.9741  0.1205 -1.5757
 8177SOL     OW35989   2.978   4.372   5.572  0.0628  0.0728  0.5231
 8177SOL    HW135990   2.937   4.359   5.486  2.6284  0.5994 -0.7862
 8177SOL    HW235991   2.905   4.408   5.622 -0.4871  0.0837 -0.2836
 8178SOL     OW35992   2.464   2.082  11.009  0.3640  0.1602  0.1246
 8178SOL    HW135993   2.380   2.125  11.024 -1.1342 -2.3832 -0.9439
 8178SOL    HW235994   2.488   2.128  10.929  1.3380 -0.9158 -0.1983
 8179SOL     OW35995   2.155   3.709   7.143  0.2518  0.0295 -0.3691
 8179SOL    HW135996   2.218   3.740   7.207  0.0689 -0.1632 -0.0915
 8179SOL    HW235997   2.211   3.668   7.077 -1.2191 -0.6472 -1.1974
 8180SOL     OW35998   4.305   0.673  12.755 -0.5037 -0.2236  0.2633
 8180SOL    HW135999   4.230   0.614  12.760 -1.5544  0.8504 -2.5179
 8180SOL    HW236000   4.267   0.753  12.792 -0.2610  0.6273 -1.3003
 8181SOL     OW36001   4.423   1.498  13.946  0.5572 -0.2602  0.0297
 8181SOL    HW136002   4.402   1.586  13.979 -1.5696 -0.9726  0.5862
 8181SOL    HW236003   4.466   1.528  13.865 -1.3412  0.9332 -0.5529
 8182SOL     OW36004   1.892   1.920   7.044 -0.1282  0.3886 -0.2394
 8182SOL    HW136005   1.973   1.872   7.027 -0.7701 -0.8121  0.0274
 8182SOL    HW236006   1.910   1.994   7.102  0.1536 -1.1169  1.5886
 8183SOL     OW36007   2.062   2.974  16.649  0.3018 -0.1670  0.4112
 8183SOL    HW136008   2.074   2.897  16.594 -1.8288 -0.0856 -0.1618
 8183SOL    HW236009   1.987   3.014  16.605  0.8397  0.2892 -0.0933
 8184SOL     OW36010   0.321   1.800   2.651  1.2350 -0.0066 -0.2524
 8184SOL    HW136011   0.230   1.808   2.679  1.3187  1.3003 -0.3414
 8184SOL    HW236012   0.308   1.735   2.582  3.0065  0.9066 -1.4482
 8185SOL     OW36013   2.973   1.759   8.345  0.3821  0.5586  0.6083
 8185SOL    HW136014   2.887   1.772   8.304 -0.1459  0.2941  1.6246
 8185SOL    HW236015   2.944   1.747   8.435 -1.5984  1.1491  0.0514
 8186SOL     OW36016   0.989   0.397  13.184 -0.1200  0.0890 -0.2799
 8186SOL    HW136017   0.946   0.453  13.119 -2.5722  0.4068  1.6254
 8186SOL    HW236018   0.917   0.348  13.224 -0.1506 -1.4828 -2.2331
 8187SOL     OW36019   1.802   3.276   8.608  0.3254  0.4236 -0.4348
 8187SOL    HW136020   1.765   3.188   8.611 -2.2550  1.4542 -1.9196
 8187SOL    HW236021   1.776   3.317   8.691 -1.3672  0.8892 -1.1953
 8188SOL     OW36022   1.852   4.568   0.681  0.3897 -0.4556 -0.2191
 8188SOL    HW136023   1.918   4.634   0.701 -0.9506  1.2258 -1.3678
 8188SOL    HW236024   1.869   4.498   0.745 -0.1484 -0.3907 -0.0002
 8189SOL     OW36025   3.457   0.872   2.005 -0.0085  0.3316  1.0078
 8189SOL    HW136026   3.399   0.849   2.077 -1.4724  1.9204  0.3493
 8189SOL    HW236027   3.485   0.957   2.039  0.3392  0.2878  0.8311
 8190SOL     OW36028   3.405   3.629   5.467 -0.6077 -0.1536 -0.1112
 8190SOL    HW136029   3.368   3.632   5.378  1.8525  0.3725 -1.1176
 8190SOL    HW236030   3.483   3.683   5.467 -0.2058 -0.7332  0.6932
 8191SOL     OW36031   1.008   2.005   4.978 -0.3428 -0.6043 -0.0342
 8191SOL    HW136032   1.027   2.089   4.936 -1.0993  0.6283  2.1003
 8191SOL    HW236033   0.932   1.970   4.931  0.1097 -1.8686  0.2034
 8192SOL     OW36034   1.072   3.966   6.525  0.3302 -0.5701  0.6401
 8192SOL    HW136035   1.031   3.965   6.438  0.8654 -0.5854  0.3847
 8192SOL    HW236036   1.154   3.921   6.503 -0.2292  0.8533 -4.4986
 8193SOL     OW36037   1.908   4.657  10.012  0.1268  0.2762  0.3005
 8193SOL    HW136038   1.866   4.656   9.926 -0.2239  4.6938  0.4129
 8193SOL    HW236039   1.827   4.645  10.062 -0.4866  2.4143 -0.1790
 8194SOL     OW36040   4.297   2.106  17.634  0.2443 -0.1313  0.0682
 8194SOL    HW136041   4.391   2.107  17.614  0.0260  1.9256 -0.8893
 8194SOL    HW236042   4.284   2.189  17.680 -0.5547 -1.5451  2.3686
 8195SOL     OW36043   4.520   1.292   8.393 -0.3057 -0.2268 -0.2154
 8195SOL    HW136044   4.607   1.256   8.408 -0.4440 -0.2700  0.4637
 8195SOL    HW236045   4.506   1.240   8.314  1.8510 -2.0534  0.6095
 8196SOL     OW36046   0.116   3.705   8.101 -0.1625  0.0282  0.0803
 8196SOL    HW136047   0.105   3.683   8.009 -0.8091  1.4327 -0.1824
 8196SOL    HW236048   0.040   3.762   8.112  1.2855  2.0729 -0.4362
 8197SOL     OW36049   3.024   0.449   4.284  0.0586 -0.6702  0.3295
 8197SOL    HW136050   3.020   0.380   4.218 -1.0840  1.1207 -1.4580
 8197SOL    HW236051   3.103   0.500   4.268  0.5128 -1.4133  0.2209
 8198SOL     OW36052   1.048   3.417   2.560 -0.2990 -0.4492  0.1918
 8198SOL    HW136053   1.105   3.491   2.539 -1.8199  0.4603 -0.6558
 8198SOL    HW236054   0.965   3.464   2.564  0.3402  0.8689 -2.1128
 8199SOL     OW36055   1.364   2.792   6.186  0.7520 -0.0636 -0.2790
 8199SOL    HW136056   1.380   2.838   6.104  2.7443  0.8606  0.6541
 8199SOL    HW236057   1.335   2.707   6.153  0.7745  0.0872 -0.6872
 8200SOL     OW36058   1.016   1.424   5.781  0.1690  0.1940 -0.4034
 8200SOL    HW136059   1.111   1.415   5.792 -0.1484 -2.1933  0.4795
 8200SOL    HW236060   0.999   1.473   5.861 -1.9520 -2.5127  0.8215
 8201SOL     OW36061   1.041   1.292   7.506  0.2885  0.5115 -0.1981
 8201SOL    HW136062   1.043   1.382   7.473  0.7615  0.7149  0.3833
 8201SOL    HW236063   1.122   1.260   7.466  0.5826  0.7959  0.1662
 8202SOL     OW36064   4.220   0.057   8.512 -0.5121  0.2653  0.0716
 8202SOL    HW136065   4.190   0.131   8.565 -1.0754 -0.8897  1.3527
 8202SOL    HW236066   4.215   4.710   8.573  0.8891  0.1017 -0.0112
 8203SOL     OW36067   2.342   0.738   9.548  0.5049  0.4851  0.1011
 8203SOL    HW136068   2.404   0.666   9.557  1.1995  0.9949 -0.5619
 8203SOL    HW236069   2.393   0.800   9.496  0.1646  1.5578  1.0546
 8204SOL     OW36070   4.055   1.293   9.291 -0.3877  0.1954 -0.1464
 8204SOL    HW136071   4.019   1.206   9.271 -0.9194  0.2556  0.5581
 8204SOL    HW236072   4.146   1.279   9.319 -0.9436 -0.0241  1.5475
 8205SOL     OW36073   3.803   0.481   3.857  0.1538 -0.1799 -0.0825
 8205SOL    HW136074   3.849   0.463   3.939  1.1935  0.6416 -0.4870
 8205SOL    HW236075   3.839   0.568   3.841 -0.8961  0.2463 -0.1262
 8206SOL     OW36076   0.297   2.126   1.712  0.1027  0.0974 -0.2601
 8206SOL    HW136077   0.273   2.128   1.619 -1.6906  1.1581  0.2412
 8206SOL    HW236078   0.338   2.211   1.729  1.1362 -0.8131  1.8479
 8207SOL     OW36079   1.737   3.698   2.048  0.4705 -0.0225 -0.5910
 8207SOL    HW136080   1.713   3.786   2.079 -0.0410  0.1952 -1.6181
 8207SOL    HW236081   1.830   3.690   2.072 -0.0368 -0.9836  1.0441
 8208SOL     OW36082   3.916   1.254   8.690  0.6193  0.0249  0.0004
 8208SOL    HW136083   3.965   1.233   8.611  0.8523  0.3592  0.0555
 8208SOL    HW236084   3.977   1.212   8.750  0.0078  1.0671  1.3644
 8209SOL     OW36085   4.052   3.661   6.645  0.2572  0.4259  0.6127
 8209SOL    HW136086   4.038   3.600   6.717  0.6573 -1.8931 -1.2945
 8209SOL    HW236087   4.065   3.742   6.696  2.5197  0.3059  0.2184
 8210SOL     OW36088   1.259   3.787   2.782  0.1542 -0.3678 -0.0109
 8210SOL    HW136089   1.305   3.866   2.812 -2.8127  0.8671  1.3586
 8210SOL    HW236090   1.238   3.743   2.865 -1.4389 -1.3240 -0.9278
 8211SOL     OW36091   2.729   2.740  11.225 -0.4793  0.0753  0.1069
 8211SOL    HW136092   2.778   2.742  11.307 -0.5697  0.0041  0.1622
 8211SOL    HW236093   2.687   2.654  11.226 -1.0754  0.3683  0.2996
 8212SOL     OW36094   4.540   2.000   7.467  0.0619  0.3393 -0.4456
 8212SOL    HW136095   4.494   1.933   7.517 -0.6312  0.7767 -0.4977
 8212SOL    HW236096   4.615   2.023   7.522  1.0159 -2.0619 -0.7309
 8213SOL     OW36097   4.601   0.470   6.598 -0.6083  0.5796 -0.2753
 8213SOL    HW136098   4.605   0.519   6.516 -3.6129  1.1517 -0.0781
 8213SOL    HW236099   4.552   0.393   6.568 -0.0663 -0.9711  2.7055
 8214SOL     OW36100   3.078   2.586  11.401 -0.4894 -0.2660  0.0361
 8214SOL    HW136101   3.108   2.503  11.364  1.1010  0.0122  0.7043
 8214SOL    HW236102   2.997   2.572  11.450 -2.0681  0.8139 -2.2382
 8215SOL     OW36103   3.188   0.574  12.053 -0.0983  0.0261  0.1440
 8215SOL    HW136104   3.157   0.653  12.097 -1.4729  0.0947 -0.9538
 8215SOL    HW236105   3.207   0.608  11.965  1.2799 -1.4718 -0.1561
 8216SOL     OW36106   3.238   4.149   2.156  0.1610  0.1824 -0.4168
 8216SOL    HW136107   3.211   4.136   2.247  3.1571  3.2388  0.9448
 8216SOL    HW236108   3.333   4.135   2.153  0.4189  1.8541 -0.5132
 8217SOL     OW36109   3.996   3.633   8.394  0.2558 -0.6713  0.6888
 8217SOL    HW136110   4.021   3.542   8.408  1.1233 -0.4744  0.3959
 8217SOL    HW236111   4.014   3.645   8.300  1.5945 -1.4374  0.8593
 8218SOL     OW36112   4.494   1.193   4.879  0.1219 -0.2289  0.4548
 8218SOL    HW136113   4.436   1.131   4.923 -0.2662 -1.0409 -1.1891
 8218SOL    HW236114   4.576   1.143   4.879 -1.4539 -2.8185 -0.1930
 8219SOL     OW36115   1.429   2.040   2.858 -0.7426  0.1401 -0.2393
 8219SOL    HW136116   1.392   1.984   2.789 -0.6758  2.1680 -1.9307
 8219SOL    HW236117   1.478   1.975   2.908  1.0028  1.0469 -0.7643
 8220SOL     OW36118   3.388   3.537   2.334  0.0848  0.1943  0.1858
 8220SOL    HW136119   3.415   3.448   2.356 -2.7041 -0.4963  0.7159
 8220SOL    HW236120   3.446   3.562   2.261 -1.2343  1.8826 -0.3003
 8221SOL     OW36121   4.342   3.181   4.377  0.8433 -0.6854 -0.8418
 8221SOL    HW136122   4.387   3.235   4.312  1.7216  0.0929  0.4241
 8221SOL    HW236123   4.328   3.248   4.443 -0.0440 -1.8770  0.1893
 8222SOL     OW36124   0.476   2.788  13.491  0.2742 -0.1469  0.3949
 8222SOL    HW136125   0.493   2.698  13.464 -0.4848 -0.5889  1.3957
 8222SOL    HW236126   0.398   2.797  13.435  0.5180  0.3403  0.1290
 8223SOL     OW36127   0.381   2.170   8.645 -0.1015  0.2253  0.0802
 8223SOL    HW136128   0.340   2.223   8.714  0.7104  0.9138  0.0351
 8223SOL    HW236129   0.444   2.124   8.700  0.1194  1.1668  0.6322
 8224SOL     OW36130   1.714   1.557  15.854  0.5343  0.0542  0.1948
 8224SOL    HW136131   1.647   1.512  15.803 -1.0685  1.6086  0.9313
 8224SOL    HW236132   1.797   1.525  15.817 -0.5017 -1.0901 -1.1404
 8225SOL     OW36133   0.689   0.133  15.759  0.4162 -0.4254 -0.1128
 8225SOL    HW136134   0.671   0.217  15.717 -4.0319 -2.1327 -1.6448
 8225SOL    HW236135   0.632   0.141  15.836  0.5360 -1.8330  0.1243
 8226SOL     OW36136   0.560   1.692  17.358  0.1867  0.4775 -0.1114
 8226SOL    HW136137   0.652   1.685  17.332  0.1444  0.3564 -0.2331
 8226SOL    HW236138   0.568   1.769  17.413  1.0379  0.5197 -0.2992
 8227SOL     OW36139   1.271   3.010   4.902  0.0883  0.1075 -0.9763
 8227SOL    HW136140   1.281   3.003   4.807 -1.7351 -2.2246 -0.9873
 8227SOL    HW236141   1.336   2.952   4.941 -0.1886  0.9893  0.7738
 8228SOL     OW36142   4.453   0.830   3.384 -0.7282  0.4713  0.1086
 8228SOL    HW136143   4.472   0.919   3.354  0.1281 -0.1986 -1.3695
 8228SOL    HW236144   4.412   0.807   3.300  1.0022 -0.0390 -0.6000
 8229SOL     OW36145   2.913   1.730  10.251 -0.1001  0.4369  0.3744
 8229SOL    HW136146   2.973   1.754  10.181  1.6621 -1.1753  1.3315
 8229SOL    HW236147   2.854   1.682  10.193  1.0030  1.1862 -1.3749
 8230SOL     OW36148   4.430   0.401   5.928 -0.2765 -0.4219 -0.2252
 8230SOL    HW136149   4.355   0.349   5.957 -0.1452  0.4948  1.6908
 8230SOL    HW236150   4.501   0.348   5.963 -0.0693  1.3868  2.0318
 8231SOL     OW36151   3.053   3.601  14.805 -0.2305 -0.0577 -0.2798
 8231SOL    HW136152   3.134   3.557  14.829 -1.1924 -2.0434 -0.6644
 8231SOL    HW236153   3.019   3.546  14.734 -0.7248  0.5690 -0.5361
 8232SOL     OW36154   3.129   3.837  12.857 -0.0589  0.1557  0.1818
 8232SOL    HW136155   3.200   3.804  12.802 -0.2248  1.6906 -0.9639
 8232SOL    HW236156   3.057   3.834  12.794 -0.2693 -2.0985  0.5441
 8233SOL     OW36157   1.571   0.612   0.291  0.3565 -0.2324 -0.4060
 8233SOL    HW136158   1.553   0.531   0.244  0.7667 -0.4442 -0.1968
 8233SOL    HW236159   1.594   0.669   0.218 -1.0239  1.1470  0.2433
 8234SOL     OW36160   0.069   0.571  13.651 -0.4720 -0.2951  0.1770
 8234SOL    HW136161   0.116   0.617  13.581 -1.5858  2.2123  1.0836
 8234SOL    HW236162   0.134   0.547  13.716  0.2465  0.7444 -0.1509
 8235SOL     OW36163   0.967   0.270  17.258 -0.1277 -0.4212 -0.7842
 8235SOL    HW136164   0.884   0.314  17.240  0.2443  0.7555  0.3802
 8235SOL    HW236165   1.006   0.325  17.326 -2.2053 -0.1728  0.2103
 8236SOL     OW36166   1.036   4.535   0.940  0.1916 -0.2593  0.4421
 8236SOL    HW136167   1.096   4.477   0.893 -1.8951 -0.9976 -1.2666
 8236SOL    HW236168   1.090   4.557   1.017  1.0771  1.4108 -0.6344
 8237SOL     OW36169   3.901   1.483  10.697  0.4868  0.9454  0.6363
 8237SOL    HW136170   3.876   1.418  10.763  0.5915  1.4017  1.1290
 8237SOL    HW236171   3.826   1.542  10.687  0.8530  1.1023 -1.0605
 8238SOL     OW36172   2.798   1.092  16.562 -0.0663  0.1507 -0.2546
 8238SOL    HW136173   2.721   1.037  16.551 -0.8386  0.9413  1.2757
 8238SOL    HW236174   2.803   1.092  16.657 -0.1328  2.5161 -0.2436
 8239SOL     OW36175   0.085   1.611   7.070 -0.6868  0.6925  0.2025
 8239SOL    HW136176   0.045   1.698   7.066 -2.7582 -0.2335  1.4717
 8239SOL    HW236177   0.006   1.558   7.069  2.4052 -3.9091  1.6656
 8240SOL     OW36178   2.650   0.600  17.173 -0.0846 -0.0067 -0.4127
 8240SOL    HW136179   2.583   0.663  17.149  0.6636  0.7949 -0.3909
 8240SOL    HW236180   2.724   0.619  17.115 -0.4901 -2.5575 -1.7632
 8241SOL     OW36181   0.438   3.714   7.891  0.3385 -0.3531  0.1862
 8241SOL    HW136182   0.445   3.681   7.981  0.7881  1.9269  1.0052
 8241SOL    HW236183   0.434   3.634   7.839  0.7000 -1.0048  1.1611
 8242SOL     OW36184   0.176   3.160   3.043 -0.7435 -0.2791  0.6309
 8242SOL    HW136185   0.082   3.146   3.038 -1.0395  2.2000 -0.3669
 8242SOL    HW236186   0.206   3.164   2.952 -1.7021  0.9309  0.3769
 8243SOL     OW36187   3.007   0.003   6.052 -0.1855  0.4796  0.0143
 8243SOL    HW136188   3.003   0.072   6.118 -0.7823 -1.7173  2.2708
 8243SOL    HW236189   2.942   4.671   6.092 -3.3878  3.6073 -0.6889
 8244SOL     OW36190   1.306   1.974  10.287  0.5168 -0.0037  0.1779
 8244SOL    HW136191   1.373   1.912  10.256  0.3708  0.3057 -0.7672
 8244SOL    HW236192   1.233   1.964  10.226  0.3109  1.5632  0.1828
 8245SOL     OW36193   3.088   0.794  12.204 -0.1743 -0.0911 -0.0852
 8245SOL    HW136194   3.054   0.864  12.148 -0.2997 -1.1885 -1.3779
 8245SOL    HW236195   3.164   0.838  12.242 -2.2821  1.3071  2.5124
 8246SOL     OW36196   1.531   2.473   6.197  0.1999  0.8813 -0.3833
 8246SOL    HW136197   1.521   2.378   6.207 -1.1441  0.6802 -3.6963
 8246SOL    HW236198   1.620   2.484   6.232  1.0879  0.9844 -2.7164
 8247SOL     OW36199   3.620   1.262   0.237 -0.5156 -0.1292 -0.2274
 8247SOL    HW136200   3.617   1.257   0.142 -0.1723  2.1525 -0.3449
 8247SOL    HW236201   3.545   1.316   0.259 -0.6292 -0.7190  0.8811
 8248SOL     OW36202   2.603   0.741   0.344  0.0654 -0.1528  0.1250
 8248SOL    HW136203   2.612   0.646   0.351 -0.6643 -0.2665 -0.4444
 8248SOL    HW236204   2.673   0.770   0.403  0.3313 -1.3963  0.4223
 8249SOL     OW36205   1.748   3.744   3.396 -0.1093 -0.3134 -0.0893
 8249SOL    HW136206   1.708   3.830   3.405 -0.3217 -0.6112  1.8144
 8249SOL    HW236207   1.814   3.785   3.340  0.6969 -1.2582  0.1785
 8250SOL     OW36208   4.252   1.331  16.507 -0.0950  0.4703  0.2513
 8250SOL    HW136209   4.191   1.392  16.549  0.6946  1.8127 -0.5912
 8250SOL    HW236210   4.233   1.334  16.414 -0.6985 -0.2653  0.3389
 8251SOL     OW36211   3.918   1.943  17.435  0.3747 -0.7036  0.1953
 8251SOL    HW136212   3.839   1.888  17.439  0.2398 -0.5819 -0.7073
 8251SOL    HW236213   3.980   1.891  17.384 -1.2512 -1.5624 -0.9291
 8252SOL     OW36214   3.070   1.537  14.352 -0.2053 -0.0699 -0.4298
 8252SOL    HW136215   3.002   1.537  14.419 -0.2007  2.2215 -0.4283
 8252SOL    HW236216   3.129   1.608  14.377  0.9400 -0.4320 -2.0898
 8253SOL     OW36217   4.561   2.821   4.151 -0.4496 -0.1655  0.0470
 8253SOL    HW136218   4.626   2.861   4.209  0.1040 -0.3782 -0.4235
 8253SOL    HW236219   4.480   2.844   4.195 -0.9818 -0.8305 -0.5858
 8254SOL     OW36220   3.835   1.495   8.372 -0.2599  0.3736 -0.1784
 8254SOL    HW136221   3.856   1.581   8.409 -1.3744  1.2669 -1.5948
 8254SOL    HW236222   3.749   1.506   8.332  0.5627  0.6759 -1.8786
 8255SOL     OW36223   0.509   2.694   4.436  0.3419 -0.9692  0.5114
 8255SOL    HW136224   0.531   2.603   4.451 -0.3707 -1.4886 -1.6267
 8255SOL    HW236225   0.550   2.750   4.502 -0.8086  0.6986 -0.1836
 8256SOL     OW36226   2.098   0.359   1.037  0.2761  0.3152 -0.2052
 8256SOL    HW136227   2.059   0.428   0.983  2.3799  1.5602 -0.1552
 8256SOL    HW236228   2.023   0.300   1.034  0.7272 -0.2408 -0.5355
 8257SOL     OW36229   3.419   1.605   7.101  0.0668  0.5848 -0.0741
 8257SOL    HW136230   3.407   1.659   7.179  1.9010  0.5234  0.2364
 8257SOL    HW236231   3.330   1.609   7.067  0.2053  0.2429 -0.4810
 8258SOL     OW36232   2.487   2.964   5.631  0.5934  0.1535 -0.2304
 8258SOL    HW136233   2.456   2.880   5.666  3.2648 -1.2593 -1.2420
 8258SOL    HW236234   2.582   2.953   5.634  0.4600 -0.1869  3.1476
 8259SOL     OW36235   2.102   1.604   2.074  0.0117  0.4127 -0.1630
 8259SOL    HW136236   2.080   1.583   1.984  0.2165  0.2678 -0.1794
 8259SOL    HW236237   2.123   1.517   2.109 -2.1213 -0.3460 -0.7403
 8260SOL     OW36238   4.346   3.214  17.094 -0.1532 -0.3935 -0.1492
 8260SOL    HW136239   4.300   3.133  17.115  0.7866 -1.1747 -1.0719
 8260SOL    HW236240   4.290   3.262  17.154 -0.8128 -0.6631 -0.5524
 8261SOL     OW36241   2.994   1.004  12.047  0.2196 -0.2245  0.1285
 8261SOL    HW136242   2.990   1.012  11.952 -0.9544 -0.8283  0.1249
 8261SOL    HW236243   2.907   1.033  12.074  0.1027 -0.5152  0.0664
 8262SOL     OW36244   4.534   1.099   5.302 -0.4866  0.4194  0.1990
 8262SOL    HW136245   4.538   1.012   5.264 -0.0299  0.9060 -0.8389
 8262SOL    HW236246   4.607   1.144   5.262 -1.3471  0.8550 -0.8753
 8263SOL     OW36247   0.497   0.454   1.837 -0.2670 -0.3272 -0.2530
 8263SOL    HW136248   0.573   0.446   1.894  0.3216 -1.6440 -1.2250
 8263SOL    HW236249   0.526   0.516   1.771  2.0711 -1.6570 -0.4453
 8264SOL     OW36250   3.585   3.004  11.386 -0.8820  0.8213 -0.3411
 8264SOL    HW136251   3.668   2.970  11.419 -1.5824 -0.0323  0.5805
 8264SOL    HW236252   3.605   3.010  11.293 -0.4657 -0.2632 -0.3233
 8265SOL     OW36253   0.618   4.625   5.560 -0.3580 -0.3454 -0.5397
 8265SOL    HW136254   0.700   4.655   5.522  0.0523 -0.2756  0.3850
 8265SOL    HW236255   0.557   4.643   5.489 -0.6815 -1.0303 -0.4326
 8266SOL     OW36256   0.513   4.373  13.071  0.3523 -0.4255 -0.1692
 8266SOL    HW136257   0.584   4.382  13.008  1.6533  0.7462  1.4640
 8266SOL    HW236258   0.510   4.277  13.071 -0.5205 -0.3978  2.7565
 8267SOL     OW36259   4.288   4.609  12.601  0.4487  0.3783 -0.2181
 8267SOL    HW136260   4.332   4.564  12.528  1.5736 -0.6499  1.0977
 8267SOL    HW236261   4.209   4.556  12.614 -0.1624  1.3884  0.1587
 8268SOL     OW36262   2.015   3.711   2.132  0.1631  0.5484 -0.6590
 8268SOL    HW136263   2.064   3.647   2.184 -2.4866  3.0161  4.8196
 8268SOL    HW236264   2.078   3.719   2.060  0.9371  1.3891  0.1057
 8269SOL     OW36265   2.972   3.166   5.049  0.2290  0.0292 -0.4911
 8269SOL    HW136266   2.922   3.242   5.082  2.1213  0.8429  0.5073
 8269SOL    HW236267   3.011   3.206   4.971  1.3698  2.2243  1.2009
 8270SOL     OW36268   3.912   0.546   2.817 -0.5138  0.0668  0.7408
 8270SOL    HW136269   3.899   0.596   2.897  0.3344  2.2104 -0.4699
 8270SOL    HW236270   3.842   0.482   2.832 -0.8264  0.1104 -0.5470
 8271SOL     OW36271   0.964   1.326  12.580  0.0531  0.1988 -0.0146
 8271SOL    HW136272   1.034   1.374  12.625 -0.4041  0.5453  0.3324
 8271SOL    HW236273   1.008   1.303  12.499 -2.1531 -2.2528 -0.4999
 8272SOL     OW36274   2.995   2.267   1.476 -0.4812  0.6499  0.1067
 8272SOL    HW136275   2.982   2.352   1.518  0.7335  1.4956 -1.2195
 8272SOL    HW236276   3.040   2.218   1.545 -1.6522 -1.2620 -0.4729
 8273SOL     OW36277   1.017   1.537   2.093 -0.0916  0.1444  0.1121
 8273SOL    HW136278   1.102   1.575   2.116  0.5754 -0.0916 -1.9156
 8273SOL    HW236279   1.037   1.469   2.027 -1.9559  0.1052 -0.4156
 8274SOL     OW36280   3.748   1.243   6.937 -0.0529 -0.2936  0.0804
 8274SOL    HW136281   3.663   1.200   6.933  0.8675 -2.3287  2.5291
 8274SOL    HW236282   3.709   1.331   6.942 -0.2536 -0.3969  0.3160
 8275SOL     OW36283   0.350   3.339   1.988 -0.1289 -0.2962  0.0327
 8275SOL    HW136284   0.330   3.284   1.912 -0.9282  0.3034 -0.1822
 8275SOL    HW236285   0.342   3.419   1.937  1.7074 -0.5247 -0.6247
 8276SOL     OW36286   4.591   2.155  14.001  0.0502  0.2261 -1.1021
 8276SOL    HW136287   4.633   2.075  14.031 -1.1571 -1.2382 -3.3825
 8276SOL    HW236288   4.615   2.154  13.908  0.2255  0.4092 -1.0605
 8277SOL     OW36289   1.782   4.260   9.506  0.7542 -0.4516 -0.0017
 8277SOL    HW136290   1.689   4.268   9.523  0.4706 -2.3937 -0.6079
 8277SOL    HW236291   1.812   4.209   9.582 -0.8907  1.0174  1.6072
 8278SOL     OW36292   1.327   1.939   8.270 -0.2446 -0.1495 -0.6611
 8278SOL    HW136293   1.383   1.912   8.343  1.0225  2.1361 -0.8075
 8278SOL    HW236294   1.331   1.863   8.211 -2.8776 -1.4958  0.8561
 8279SOL     OW36295   2.864   3.188   7.727 -0.2649  0.5059  0.0085
 8279SOL    HW136296   2.905   3.274   7.716  1.4346 -0.5708 -2.1483
 8279SOL    HW236297   2.769   3.196   7.716 -0.2841 -0.9001 -0.8023
 8280SOL     OW36298   0.227   1.397  16.643  0.0922  0.1701  0.0650
 8280SOL    HW136299   0.264   1.484  16.654 -1.0759  0.4226  2.0156
 8280SOL    HW236300   0.181   1.376  16.725  2.0599 -0.8852  0.9092
 8281SOL     OW36301   0.410   3.046   2.554  0.5069 -0.2507  0.2040
 8281SOL    HW136302   0.394   2.979   2.487 -1.3723  2.3001 -1.9234
 8281SOL    HW236303   0.505   3.043   2.547  0.6167 -0.1303  1.7158
 8282SOL     OW36304   3.992   2.651  15.745  0.4372 -0.0478  0.5793
 8282SOL    HW136305   4.073   2.601  15.740  0.7961  0.8094 -2.1936
 8282SOL    HW236306   3.995   2.653  15.841 -0.9306 -1.0274  0.6256
 8283SOL     OW36307   0.599   4.232   1.363 -0.1418 -0.0701 -0.0700
 8283SOL    HW136308   0.670   4.168   1.363 -0.4149 -0.3751  0.7791
 8283SOL    HW236309   0.616   4.273   1.278 -0.0180 -1.0562 -0.5169
 8284SOL     OW36310   3.674   1.251   1.983  0.1589 -0.4556  0.3301
 8284SOL    HW136311   3.656   1.328   2.037 -1.5644  1.0703 -2.4128
 8284SOL    HW236312   3.687   1.192   2.057 -0.4411 -1.9427 -0.7516
 8285SOL     OW36313   2.289   2.565  12.264  0.4954  0.3646  0.5109
 8285SOL    HW136314   2.354   2.575  12.195 -0.1520 -0.9067 -0.2882
 8285SOL    HW236315   2.344   2.530  12.334 -2.0035  2.7379  3.6858
 8286SOL     OW36316   0.202   3.892   9.564  0.1263  0.6486 -0.2871
 8286SOL    HW136317   0.232   3.828   9.629  2.2021  1.0491 -0.8500
 8286SOL    HW236318   0.273   3.879   9.501 -0.4089 -0.0943 -0.7372
 8287SOL     OW36319   2.809   2.857  16.875 -0.5844  0.4186 -0.1029
 8287SOL    HW136320   2.830   2.910  16.952 -0.1124 -0.4051  0.3330
 8287SOL    HW236321   2.793   2.770  16.913  2.3472 -0.0376  0.0463
 8288SOL     OW36322   2.395   0.011   6.225 -0.0814 -0.2931  0.2077
 8288SOL    HW136323   2.358   4.649   6.222  2.6034 -1.4462  0.3780
 8288SOL    HW236324   2.313   0.058   6.238  0.2467 -0.1447  1.7937
 8289SOL     OW36325   4.517   2.245   4.390  0.2002 -0.7939  0.4235
 8289SOL    HW136326   4.441   2.190   4.408  0.9065 -1.5348  1.1181
 8289SOL    HW236327   4.566   2.263   4.470  0.0555 -1.2166  0.6077
 8290SOL     OW36328   4.347   0.636   1.759 -0.4904 -0.1529 -0.2338
 8290SOL    HW136329   4.316   0.584   1.834 -0.6115  0.9512  0.4823
 8290SOL    HW236330   4.269   0.691   1.749  0.6794  1.9437  2.2869
 8291SOL     OW36331   0.762   4.435   5.017 -0.8216  0.1947  0.4621
 8291SOL    HW136332   0.791   4.347   5.041  0.1655  1.0463  2.4058
 8291SOL    HW236333   0.781   4.488   5.095  1.5014 -2.9853  2.0317
 8292SOL     OW36334   3.555   2.079  11.090 -0.0945  0.1491 -0.3142
 8292SOL    HW136335   3.610   2.012  11.130 -1.1366 -1.1285 -1.0285
 8292SOL    HW236336   3.619   2.149  11.103 -0.7318  0.5827  0.5349
 8293SOL     OW36337   1.060   1.147   2.373  0.3474 -0.5463  0.4632
 8293SOL    HW136338   1.019   1.146   2.460 -0.1548  0.3738  0.2299
 8293SOL    HW236339   1.036   1.236   2.349  1.6771  0.1157  1.5735
 8294SOL     OW36340   3.873   2.863   0.138 -0.3586  0.2463  0.6264
 8294SOL    HW136341   3.889   2.796   0.205  0.1334  0.2711  0.5348
 8294SOL    HW236342   3.783   2.886   0.162 -0.5053 -0.6223  0.9174
 8295SOL     OW36343   3.657   0.080  13.097  0.2359  0.2235  0.2547
 8295SOL    HW136344   3.570   0.098  13.061 -0.7596 -1.4146  1.8713
 8295SOL    HW236345   3.644   0.093  13.191  0.8446 -0.2667  0.4055
 8296SOL     OW36346   0.971   2.412   4.325  0.2072  0.4053 -0.0559
 8296SOL    HW136347   0.993   2.342   4.386  1.1735 -0.4344 -1.3654
 8296SOL    HW236348   1.023   2.381   4.251 -0.1664  0.9335 -0.5437
 8297SOL     OW36349   0.774   1.459   6.339 -0.0134  0.4842 -0.4056
 8297SOL    HW136350   0.810   1.380   6.299  1.0958  0.4950  0.5812
 8297SOL    HW236351   0.812   1.534   6.293  0.9291  1.1110  1.3674
 8298SOL     OW36352   3.124   2.882  13.893 -0.6722  0.2507 -0.1810
 8298SOL    HW136353   3.189   2.891  13.963 -0.7820  0.3713 -0.0949
 8298SOL    HW236354   3.179   2.909  13.820 -0.8889 -0.1378 -0.4870
 8299SOL     OW36355   1.189   0.509  10.635 -0.2419  0.3954 -0.1455
 8299SOL    HW136356   1.280   0.521  10.663  0.0943 -0.5295 -0.8436
 8299SOL    HW236357   1.152   0.545  10.716  2.5183 -1.7370  2.0611
 8300SOL     OW36358   1.509   3.698   2.485  0.2020 -0.1300 -0.5874
 8300SOL    HW136359   1.500   3.630   2.552  1.3022 -1.1077 -1.4424
 8300SOL    HW236360   1.554   3.651   2.415  0.8927 -0.1972 -0.0968
 8301SOL     OW36361   1.088   3.436   6.690 -0.3358 -0.3680  0.4776
 8301SOL    HW136362   1.155   3.456   6.624 -0.9193 -0.5505 -0.1758
 8301SOL    HW236363   1.054   3.355   6.652 -1.7832  0.0619  0.8772
 8302SOL     OW36364   2.746   0.830   4.589  0.1074  0.4352  0.0793
 8302SOL    HW136365   2.807   0.810   4.519  0.9972  2.7575  0.1871
 8302SOL    HW236366   2.798   0.812   4.667 -1.2985  2.1843  1.4297
 8303SOL     OW36367   2.877   2.887  12.433  0.7024 -0.5261  0.1603
 8303SOL    HW136368   2.961   2.907  12.391  0.3082  0.1435 -0.3008
 8303SOL    HW236369   2.899   2.816  12.494  1.1118  1.2397  2.0504
 8304SOL     OW36370   1.150   1.875   7.977  0.0992  0.3290  0.5047
 8304SOL    HW136371   1.099   1.797   7.956  1.1813  0.0350 -1.0847
 8304SOL    HW236372   1.234   1.838   8.006 -0.2438 -1.0376 -0.2169
 8305SOL     OW36373   2.616   4.440  11.414  0.2620  0.1695 -0.0565
 8305SOL    HW136374   2.556   4.487  11.357  1.8542  1.5823 -0.5739
 8305SOL    HW236375   2.646   4.505  11.477  1.1372 -0.7227  0.4575
 8306SOL     OW36376   3.400   2.219   5.534 -0.7817  0.2967  0.0251
 8306SOL    HW136377   3.424   2.164   5.459 -0.3875 -0.1924  0.5142
 8306SOL    HW236378   3.313   2.239   5.499 -0.0374  3.7091  0.1467
 8307SOL     OW36379   0.465   3.400   7.202 -0.1454  0.2280  0.7631
 8307SOL    HW136380   0.518   3.335   7.156 -0.1865  0.3897  0.4871
 8307SOL    HW236381   0.433   3.456   7.131  0.8380 -0.2622 -0.0745
 8308SOL     OW36382   1.599   2.700   8.320 -0.0826 -0.0369 -0.3397
 8308SOL    HW136383   1.663   2.746   8.267  0.1309  1.9803  1.6824
 8308SOL    HW236384   1.596   2.612   8.283  3.1796 -0.6745  0.9709
 8309SOL     OW36385   1.159   3.619   7.542 -0.0145  0.2031  0.2505
 8309SOL    HW136386   1.129   3.708   7.526  1.5971  0.5860 -0.6082
 8309SOL    HW236387   1.089   3.570   7.497  1.4972 -0.2001 -1.6548
 8310SOL     OW36388   2.098   2.163   4.288  0.3183  0.2788  0.0169
 8310SOL    HW136389   2.175   2.219   4.276 -0.7853  2.2457  2.0553
 8310SOL    HW236390   2.111   2.109   4.210  1.9258 -0.5278  0.8386
 8311SOL     OW36391   3.552   2.434   1.080 -0.6914  0.4978  0.2118
 8311SOL    HW136392   3.594   2.348   1.084  0.3742  0.9545 -1.2912
 8311SOL    HW236393   3.601   2.470   1.154 -0.9625  0.3501  0.4641
 8312SOL     OW36394   2.592   3.442   7.009 -0.6252  0.1856 -0.3614
 8312SOL    HW136395   2.643   3.400   7.078  1.7379  1.2827 -1.4219
 8312SOL    HW236396   2.637   3.526   6.997  0.0795 -0.2171 -0.5356
 8313SOL     OW36397   3.262   3.142  17.245 -0.4309 -0.2965  0.6038
 8313SOL    HW136398   3.177   3.138  17.202  0.5257 -0.4349 -1.2935
 8313SOL    HW236399   3.234   3.189  17.323  3.7064  0.2160  1.7541
 8314SOL     OW36400   2.393   0.562  11.815 -0.8530 -0.1712  0.2316
 8314SOL    HW136401   2.474   0.521  11.785 -0.2563  1.6412 -0.6561
 8314SOL    HW236402   2.334   0.515  11.755 -0.2913 -2.0784  1.1805
 8315SOL     OW36403   0.108   4.104   0.154 -0.4346 -0.1299 -0.0112
 8315SOL    HW136404   0.025   4.082   0.198  0.5003 -0.9347  1.3429
 8315SOL    HW236405   0.121   4.197   0.174 -1.4308 -0.0681  0.3445
 8316SOL     OW36406   2.425   2.886   4.433 -0.1354  0.1275  0.6310
 8316SOL    HW136407   2.511   2.866   4.396  0.2876  0.7643  1.2528
 8316SOL    HW236408   2.450   2.901   4.524 -0.1461 -0.1779  0.6812
 8317SOL     OW36409   0.812   3.182  13.744  0.0774 -0.4716 -0.1491
 8317SOL    HW136410   0.899   3.152  13.720 -0.6136 -1.9701 -0.8253
 8317SOL    HW236411   0.784   3.119  13.811 -0.6360  1.7746  1.6554
 8318SOL     OW36412   3.660   0.480   2.177  0.4488  0.1943  0.2486
 8318SOL    HW136413   3.616   0.425   2.241 -1.3609  2.2438  0.7519
 8318SOL    HW236414   3.580   0.521   2.145 -0.1058 -0.4438  0.8250
 8319SOL     OW36415   0.884   3.155  15.773 -0.3229  0.0044  0.5314
 8319SOL    HW136416   0.906   3.244  15.800 -4.8769  0.9277  1.2325
 8319SOL    HW236417   0.874   3.106  15.855  0.0361  0.2578  0.7243
 8320SOL     OW36418   2.794   3.546  15.054  0.1934  0.7555  0.7233
 8320SOL    HW136419   2.861   3.486  15.021 -0.0828  1.0207 -0.3351
 8320SOL    HW236420   2.853   3.621  15.045  0.8714  0.1626  0.2114
 8321SOL     OW36421   1.796   1.971   4.929  0.5065 -0.2702  0.1199
 8321SOL    HW136422   1.886   1.994   4.904  0.9575 -2.3502 -0.1374
 8321SOL    HW236423   1.793   2.010   5.017  2.9272  0.6576 -0.2095
 8322SOL     OW36424   3.872   1.716  13.783 -0.4329 -0.0001  0.1280
 8322SOL    HW136425   3.919   1.793  13.814  1.0768  0.5293 -3.4889
 8322SOL    HW236426   3.787   1.758  13.777 -1.1346 -1.4332 -0.0414
 8323SOL     OW36427   2.506   1.021   6.137 -0.1664  0.4628  0.1744
 8323SOL    HW136428   2.592   1.062   6.136 -0.8692  1.9318  0.7273
 8323SOL    HW236429   2.498   0.986   6.226  0.2885  0.2070  0.1188
 8324SOL     OW36430   1.079   2.701   3.307 -0.5345 -0.3467  0.0448
 8324SOL    HW136431   1.159   2.747   3.329  0.5149 -2.4087  0.5198
 8324SOL    HW236432   1.098   2.675   3.217  2.0671 -0.9025  0.7789
 8325SOL     OW36433   3.778   4.698   4.533  0.7054 -0.0743  0.1702
 8325SOL    HW136434   3.695   0.014   4.513  0.9094 -0.2644 -1.1324
 8325SOL    HW236435   3.844   0.038   4.514  2.1036 -1.5879 -0.2829
 8326SOL     OW36436   3.468   3.300   7.553  0.1494  0.1056 -0.4806
 8326SOL    HW136437   3.473   3.370   7.618 -0.3360 -3.5130  3.5530
 8326SOL    HW236438   3.535   3.246   7.594 -0.9270 -0.9073 -0.0264
 8327SOL     OW36439   0.726   2.572   8.813  0.0545 -0.4223  0.3532
 8327SOL    HW136440   0.739   2.662   8.845 -2.6440  0.1951 -0.2640
 8327SOL    HW236441   0.649   2.546   8.865 -0.0537 -0.8851 -0.0470
 8328SOL     OW36442   1.162   1.850   3.830 -0.2010 -1.1010  0.6683
 8328SOL    HW136443   1.215   1.861   3.751 -2.5514  0.9083 -0.6314
 8328SOL    HW236444   1.140   1.940   3.856 -0.6151 -1.3788  1.2791
 8329SOL     OW36445   0.942   0.836   8.422 -0.0148  0.3234 -0.3775
 8329SOL    HW136446   0.864   0.887   8.400  0.1536  0.5700 -0.3911
 8329SOL    HW236447   0.911   0.754   8.461 -0.0943 -0.0658 -1.2698
 8330SOL     OW36448   3.048   2.209   6.882  0.2351 -0.4675  0.2388
 8330SOL    HW136449   2.965   2.244   6.916 -0.6888 -0.2298 -2.2844
 8330SOL    HW236450   3.105   2.270   6.930  0.3786 -0.3877 -0.0319
 8331SOL     OW36451   1.173   4.579   7.495  0.2916 -0.1894  0.7916
 8331SOL    HW136452   1.206   4.499   7.453  0.0698  0.2780 -0.2871
 8331SOL    HW236453   1.212   4.577   7.582 -0.2906 -1.6790  1.0163
 8332SOL     OW36454   2.364   3.024  12.108 -0.5217  0.0307  0.3140
 8332SOL    HW136455   2.363   3.108  12.062 -0.8743  0.8154  1.7281
 8332SOL    HW236456   2.452   2.996  12.085  0.3492  1.8171  1.4591
 8333SOL     OW36457   0.968   4.080   8.919  0.3118  0.6497 -0.3225
 8333SOL    HW136458   1.037   4.124   8.969  3.2399 -3.1041 -1.0089
 8333SOL    HW236459   0.928   4.150   8.868  0.0641  0.0637 -0.9261
 8334SOL     OW36460   1.063   0.328   3.446  0.7142 -0.4158 -0.6667
 8334SOL    HW136461   1.099   0.241   3.464  0.7848 -0.1596  0.3999
 8334SOL    HW236462   0.974   0.306   3.474  1.3789 -2.5902 -0.2227
 8335SOL     OW36463   1.430   0.780   6.888 -0.4281 -0.1685  0.2992
 8335SOL    HW136464   1.417   0.693   6.850  0.5579  0.3012 -1.1504
 8335SOL    HW236465   1.519   0.804   6.861 -0.5677  1.7129  1.5419
 8336SOL     OW36466   4.641   1.221  15.953  0.3713 -0.0205  0.7054
 8336SOL    HW136467   0.001   1.197  15.987  1.0911 -0.2642 -1.3096
 8336SOL    HW236468   4.672   1.297  15.905  1.5842 -1.6989 -1.1833
 8337SOL     OW36469   0.726   1.394   6.601 -0.8971 -0.1449  0.1979
 8337SOL    HW136470   0.686   1.309   6.580 -0.7480 -0.0072 -0.6397
 8337SOL    HW236471   0.761   1.410   6.514  0.6939 -0.3759  0.8035
 8338SOL     OW36472   0.224   3.481   2.189  0.1684 -0.8782 -0.0799
 8338SOL    HW136473   0.233   3.397   2.144  1.2895 -0.3158 -0.9009
 8338SOL    HW236474   0.307   3.524   2.171 -1.1739  0.9280 -1.9134
 8339SOL     OW36475   2.941   0.792   3.605 -0.3214  0.0588  0.0135
 8339SOL    HW136476   2.877   0.723   3.587 -0.7534  0.5320 -0.2489
 8339SOL    HW236477   2.894   0.875   3.610 -0.2720  0.1914 -1.5179
 8340SOL     OW36478   2.269   0.650   3.354  0.0158  0.0832 -0.6926
 8340SOL    HW136479   2.184   0.626   3.317  0.6508 -2.9091 -0.2052
 8340SOL    HW236480   2.296   0.705   3.281 -0.7764  0.4233 -0.7266
 8341SOL     OW36481   2.494   4.402   7.918 -0.0228  0.3200 -0.3178
 8341SOL    HW136482   2.431   4.387   7.848 -1.8907 -0.9061  1.6431
 8341SOL    HW236483   2.564   4.446   7.870 -0.2289 -0.1383 -1.0392
 8342SOL     OW36484   1.923   1.020   2.180 -0.4140  0.1396  0.4217
 8342SOL    HW136485   1.968   0.958   2.238  1.0078  1.5011  0.7873
 8342SOL    HW236486   1.987   1.092   2.184  0.2692 -0.4595  0.2486
 8343SOL     OW36487   1.263   2.614   2.548 -0.1974 -0.2260 -0.4062
 8343SOL    HW136488   1.184   2.577   2.586  0.8933 -0.7954  1.3009
 8343SOL    HW236489   1.277   2.567   2.466 -1.5811 -1.1860 -0.0820
 8344SOL     OW36490   4.216   2.683   5.142 -0.0094 -0.4760  0.0268
 8344SOL    HW136491   4.306   2.668   5.169 -0.4447 -2.3809  0.4367
 8344SOL    HW236492   4.226   2.759   5.085  2.4617  0.8227  2.1949
 8345SOL     OW36493   3.245   2.250   3.899 -0.0686  0.1006 -0.7574
 8345SOL    HW136494   3.285   2.208   3.975  0.6323  0.1025 -1.1221
 8345SOL    HW236495   3.259   2.187   3.829 -0.4773  0.6328 -1.3273
 8346SOL     OW36496   3.503   1.388  11.384 -0.4508  0.0466  0.2422
 8346SOL    HW136497   3.551   1.390  11.301  1.0621  1.8051  1.1627
 8346SOL    HW236498   3.566   1.333  11.429  0.9573  1.1767 -0.3223
 8347SOL     OW36499   1.966   3.978  17.389  0.1375 -0.2948 -0.4063
 8347SOL    HW136500   1.970   3.913  17.459 -0.2209  1.2298  1.0320
 8347SOL    HW236501   1.892   3.937  17.344 -0.8107  2.4053 -1.2903
 8348SOL     OW36502   2.758   2.581   9.475  0.1401 -0.2566 -0.6905
 8348SOL    HW136503   2.730   2.665   9.510  2.2268  0.7630 -1.4893
 8348SOL    HW236504   2.839   2.584   9.525 -0.9763 -1.1762  1.1729
 8349SOL     OW36505   0.683   1.978   3.724  0.2799 -0.2015  0.1652
 8349SOL    HW136506   0.616   2.046   3.718  0.1571 -0.3629 -0.3148
 8349SOL    HW236507   0.651   1.925   3.651 -0.8279  2.1106 -1.0484
 8350SOL     OW36508   0.852   1.192   6.219 -0.1028 -0.0264  0.1836
 8350SOL    HW136509   0.759   1.192   6.195 -0.8699  0.3370  3.1303
 8350SOL    HW236510   0.854   1.137   6.298 -1.6158 -1.5688 -0.8548
 8351SOL     OW36511   4.416   0.881  11.769  0.0164 -0.9300  0.1209
 8351SOL    HW136512   4.378   0.857  11.684 -1.0043  0.0723  0.2848
 8351SOL    HW236513   4.466   0.958  11.743 -1.0904 -0.4536 -0.6116
 8352SOL     OW36514   2.518   4.154   1.685 -0.5595  0.2209  0.2458
 8352SOL    HW136515   2.500   4.248   1.681 -0.4764  0.1719 -1.3897
 8352SOL    HW236516   2.438   4.125   1.642 -0.5710  0.4229  0.1329
 8353SOL     OW36517   0.732   0.087  11.669  0.0371 -0.0101  0.2812
 8353SOL    HW136518   0.808   0.041  11.635  0.4316  0.7079  0.2017
 8353SOL    HW236519   0.688   0.107  11.587  2.8023  1.9453 -0.6868
 8354SOL     OW36520   4.126   0.767  10.568 -0.3109 -0.0628 -0.2315
 8354SOL    HW136521   4.122   0.808  10.654  0.0303  1.1977 -0.8005
 8354SOL    HW236522   4.219   0.777  10.547 -0.2734  1.1849  0.4826
 8355SOL     OW36523   3.639   0.205   6.491  0.0979 -0.0295  0.1057
 8355SOL    HW136524   3.641   0.300   6.506  0.8348  0.0239 -0.3485
 8355SOL    HW236525   3.544   0.194   6.486 -0.0931  1.7493 -0.4353
 8356SOL     OW36526   1.349   0.502   6.767 -0.0808  0.1844  0.2846
 8356SOL    HW136527   1.399   0.422   6.781 -0.4625  0.1761  1.6050
 8356SOL    HW236528   1.314   0.524   6.853  0.9931 -0.3167  0.8474
 8357SOL     OW36529   2.779   3.068   0.232 -0.2036 -0.1721  0.3261
 8357SOL    HW136530   2.750   3.043   0.320  3.4895 -1.9739  1.0295
 8357SOL    HW236531   2.785   3.164   0.236 -0.5252 -0.1526  0.3370
 8358SOL     OW36532   1.095   0.821   6.698  0.5561 -0.3653  0.5454
 8358SOL    HW136533   1.093   0.794   6.607 -0.6696  1.6126 -0.0106
 8358SOL    HW236534   1.185   0.851   6.709  0.6663 -0.1287 -1.1247
 8359SOL     OW36535   0.194   0.505  12.755 -0.3031  0.2464  0.3016
 8359SOL    HW136536   0.264   0.441  12.741  0.4390  1.2556 -0.6873
 8359SOL    HW236537   0.250   0.582  12.767  1.7417 -1.1596 -0.3107
 8360SOL     OW36538   2.505   1.440   2.191 -0.0762 -0.0555  0.1734
 8360SOL    HW136539   2.590   1.468   2.226  0.2448 -2.0242  0.9572
 8360SOL    HW236540   2.445   1.488   2.248  1.3271 -1.3323  2.7096
 8361SOL     OW36541   4.534   0.025  10.644 -0.0392  0.1315  0.0835
 8361SOL    HW136542   4.613   4.706  10.673 -1.2265 -2.0505 -0.0561
 8361SOL    HW236543   4.504   0.048  10.732  0.8862  1.8886 -0.0634
 8362SOL     OW36544   3.427   4.600  14.833  0.6825 -0.1647 -0.0268
 8362SOL    HW136545   3.519   4.593  14.807  0.5389 -0.2773 -0.4980
 8362SOL    HW236546   3.381   4.581  14.752  0.7184  2.6151 -0.6992
 8363SOL     OW36547   1.275   0.586  13.321  0.0938  0.5019  0.3887
 8363SOL    HW136548   1.205   0.521  13.311 -0.2796  0.8085  0.9989
 8363SOL    HW236549   1.253   0.646  13.250 -3.3487 -0.4880  0.6186
 8364SOL     OW36550   0.723   2.277   8.521  0.4925  0.2890  0.1303
 8364SOL    HW136551   0.774   2.317   8.451  0.8301 -0.8438 -0.2857
 8364SOL    HW236552   0.792   2.233   8.570  0.1348  0.3856  0.7148
 8365SOL     OW36553   2.476   4.419   1.726  0.1388  0.0326  0.3193
 8365SOL    HW136554   2.396   4.445   1.772 -0.3453  1.3109 -1.2291
 8365SOL    HW236555   2.546   4.468   1.768  0.3995  0.9990 -1.2068
 8366SOL     OW36556   1.713   3.178   5.528  0.1919  0.4505  0.2835
 8366SOL    HW136557   1.715   3.164   5.433  1.8310 -0.5676  0.4584
 8366SOL    HW236558   1.802   3.161   5.558  0.3661  1.3801  0.2871
 8367SOL     OW36559   2.323   4.027   9.520  0.1062 -0.0934  0.4591
 8367SOL    HW136560   2.286   3.953   9.568  0.5656 -0.6030  0.0210
 8367SOL    HW236561   2.248   4.078   9.488 -1.7888 -4.0166 -1.2997
 8368SOL     OW36562   1.086   2.931   1.912 -0.1097  0.1597 -0.2104
 8368SOL    HW136563   1.088   2.957   2.004  3.1023  2.3570 -0.8955
 8368SOL    HW236564   1.036   2.849   1.918  2.3359 -1.3630 -0.3216
 8369SOL     OW36565   2.973   1.961   3.192 -0.3505 -0.1402 -0.0766
 8369SOL    HW136566   2.926   2.011   3.126  0.4933  0.3631 -0.3052
 8369SOL    HW236567   2.902   1.916   3.237  1.2521 -1.6728  0.9433
 8370SOL     OW36568   3.967   1.391   4.991  0.1975  0.2231  0.3527
 8370SOL    HW136569   3.921   1.308   4.976  1.9209 -0.4061 -1.3827
 8370SOL    HW236570   4.058   1.368   4.971 -0.3677 -0.0443 -1.9422
 8371SOL     OW36571   1.696   3.966   9.243  0.0898  0.3514 -0.5641
 8371SOL    HW136572   1.714   3.873   9.227 -0.7546  0.3456 -1.4449
 8371SOL    HW236573   1.744   4.020   9.180  3.4954  0.0156  1.7057
 8372SOL     OW36574   0.115   0.929   5.782  0.1005 -0.2671 -1.0359
 8372SOL    HW136575   0.176   1.002   5.794  2.2699 -2.4872  1.4546
 8372SOL    HW236576   0.180   0.861   5.797  1.2302  0.5307 -2.3767
 8373SOL     OW36577   3.461   1.138   3.620  0.0263  0.1187 -0.2491
 8373SOL    HW136578   3.457   1.130   3.716 -0.6350 -0.0732 -0.2925
 8373SOL    HW236579   3.366   1.148   3.609  0.1181 -1.2811 -2.1964
 8374SOL     OW36580   2.332   1.950  17.366  0.1653 -0.0992  0.2243
 8374SOL    HW136581   2.336   1.939  17.271  1.6156 -1.7428  0.4621
 8374SOL    HW236582   2.421   1.916  17.378  0.8238  0.9420 -1.7753
 8375SOL     OW36583   0.160   0.201  15.373  0.3531 -0.1188  0.6424
 8375SOL    HW136584   0.238   0.253  15.358 -1.0394  1.2813 -1.8389
 8375SOL    HW236585   0.150   0.185  15.467 -1.2473  1.1591  0.6934
 8376SOL     OW36586   0.352   4.257   5.797 -0.0611 -0.2582 -0.1171
 8376SOL    HW136587   0.389   4.265   5.709  0.1563 -1.7866 -0.1637
 8376SOL    HW236588   0.320   4.167   5.789 -1.9958  0.3521  0.9157
 8377SOL     OW36589   3.189   1.289   3.062 -0.0593 -0.0259  0.3256
 8377SOL    HW136590   3.165   1.234   2.987  0.4312  1.0291 -0.5937
 8377SOL    HW236591   3.243   1.358   3.024  0.9714 -1.0527 -0.0655
 8378SOL     OW36592   0.446   3.665  10.495  0.0673  0.3323 -0.1858
 8378SOL    HW136593   0.462   3.619  10.413  0.3983  0.9508 -0.4682
 8378SOL    HW236594   0.511   3.615  10.544 -0.4673 -0.2640 -0.0875
 8379SOL     OW36595   0.163   3.675  12.710  0.2400  0.3763 -0.2094
 8379SOL    HW136596   0.176   3.653  12.802  5.0382 -1.2724 -1.2735
 8379SOL    HW236597   0.256   3.689  12.692 -0.5481  3.2584 -1.9608
 8380SOL     OW36598   0.979   2.739  12.764 -0.1938  0.0391 -0.1525
 8380SOL    HW136599   1.054   2.682  12.747  0.9125  1.2746  0.5129
 8380SOL    HW236600   0.910   2.695  12.714 -0.4289 -0.0193  0.2286
 8381SOL     OW36601   3.173   2.601   0.049 -0.4565  0.3308  0.0834
 8381SOL    HW136602   3.160   2.536   0.118 -0.1483  1.4742  1.2067
 8381SOL    HW236603   3.267   2.613   0.062 -0.3039 -1.0206  0.2396
 8382SOL     OW36604   0.640   0.328  12.992  0.3317  0.0251  1.1402
 8382SOL    HW136605   0.729   0.307  12.962 -0.0320 -0.4056  0.3659
 8382SOL    HW236606   0.657   0.314  13.086 -2.3548 -0.6228  1.5189
 8383SOL     OW36607   2.008   2.680   0.995 -0.1019 -0.2769 -0.0238
 8383SOL    HW136608   2.086   2.704   0.945  0.3578 -0.7452  0.4563
 8383SOL    HW236609   2.047   2.686   1.082  2.1070  1.9384 -1.1748
 8384SOL     OW36610   0.059   2.236  12.205 -0.2492  0.1232  0.4694
 8384SOL    HW136611   4.703   2.237  12.156  1.1517 -0.3453 -1.8840
 8384SOL    HW236612   0.099   2.319  12.183  1.7383 -1.1865 -0.8744
 8385SOL     OW36613   2.499   4.695   8.506 -0.0219  0.3201  1.0164
 8385SOL    HW136614   2.536   0.031   8.569  0.1591  0.7823  0.4624
 8385SOL    HW236615   2.462   0.033   8.445  2.3054  0.3410 -0.3696
 8386SOL     OW36616   2.321   2.501   2.606 -0.2367  0.3662 -0.3762
 8386SOL    HW136617   2.321   2.495   2.701  1.3610  1.3809 -0.3051
 8386SOL    HW236618   2.410   2.535   2.600  0.3134 -1.0758 -0.5062
 8387SOL     OW36619   0.106   4.700   2.756  0.0280  1.1032 -0.1573
 8387SOL    HW136620   0.125   4.625   2.812 -1.9394 -0.0606 -1.0427
 8387SOL    HW236621   0.025   0.004   2.798 -0.8870 -0.5114 -0.7477
 8388SOL     OW36622   3.119   2.969  14.257 -0.1195 -0.0172  0.2999
 8388SOL    HW136623   3.095   3.055  14.224 -1.4701  0.0538  1.4379
 8388SOL    HW236624   3.146   2.982  14.348 -0.7945 -1.2293  0.6671
 8389SOL     OW36625   1.741   2.414   4.962 -0.1257 -0.3069 -0.0291
 8389SOL    HW136626   1.837   2.419   4.962 -0.2176  1.5124 -0.6705
 8389SOL    HW236627   1.732   2.371   5.047  0.4184 -2.3035 -0.9741
 8390SOL     OW36628   0.968   1.223   0.130  0.2027  0.4360  0.7049
 8390SOL    HW136629   1.044   1.234   0.073 -1.2798 -0.1121 -1.3868
 8390SOL    HW236630   0.898   1.256   0.074  3.5036  1.6352 -2.7657
 8391SOL     OW36631   2.441   2.254  11.991 -0.4643 -0.2163  0.1766
 8391SOL    HW136632   2.501   2.328  11.997 -2.7860  1.6525  0.4688
 8391SOL    HW236633   2.433   2.261  11.896 -3.3471  0.3810  0.4640
 8392SOL     OW36634   2.281   3.747   1.633  0.3028  0.2710 -0.2157
 8392SOL    HW136635   2.326   3.760   1.550 -1.7100 -2.4932 -1.7494
 8392SOL    HW236636   2.192   3.736   1.598  0.4349  2.5630 -1.2216
 8393SOL     OW36637   2.353   1.783   5.173 -0.2565  0.2381  0.0111
 8393SOL    HW136638   2.396   1.765   5.090 -1.1892  1.8066 -0.8124
 8393SOL    HW236639   2.266   1.803   5.139 -1.2194 -2.2966  0.9944
 8394SOL     OW36640   4.568   0.245   3.183  0.8370 -0.2841 -0.0074
 8394SOL    HW136641   4.526   0.326   3.156  1.0985 -0.3757 -0.6858
 8394SOL    HW236642   4.582   0.193   3.104  3.1991  1.4430 -0.7064
 8395SOL     OW36643   1.143   2.407  16.888  0.5652 -0.7521  0.0378
 8395SOL    HW136644   1.104   2.494  16.880  0.1157 -0.9185  0.3776
 8395SOL    HW236645   1.083   2.343  16.851 -1.2716  1.4045 -0.7505
 8396SOL     OW36646   0.385   2.294   6.500 -0.0182  0.0928 -0.0527
 8396SOL    HW136647   0.388   2.255   6.413  0.3530  1.3223 -0.5909
 8396SOL    HW236648   0.420   2.224   6.554 -0.0675  0.1404  0.0416
 8397SOL     OW36649   2.321   1.024   9.803 -0.5142 -0.0163 -0.1218
 8397SOL    HW136650   2.263   0.964   9.850  0.3184 -0.0145  0.8836
 8397SOL    HW236651   2.399   0.974   9.826 -0.0854  0.2784 -0.9280
 8398SOL     OW36652   0.801   0.848   9.353  0.5458  0.2466 -0.3714
 8398SOL    HW136653   0.818   0.760   9.385  0.5205  0.3896  0.0369
 8398SOL    HW236654   0.840   0.836   9.266 -1.5467 -1.2506 -1.0845
 8399SOL     OW36655   0.815   2.945  11.231 -0.2932 -0.3391 -0.0347
 8399SOL    HW136656   0.895   2.944  11.283  1.2076  0.7799 -2.3030
 8399SOL    HW236657   0.768   2.864  11.250  0.1497 -0.7913 -0.8795
 8400SOL     OW36658   1.805   4.490   7.536 -0.2426 -0.3185  0.9294
 8400SOL    HW136659   1.862   4.504   7.612 -2.1994  1.2190  2.1475
 8400SOL    HW236660   1.728   4.455   7.581 -1.0388  0.2441 -0.0062
 8401SOL     OW36661   4.079   1.707   4.650  0.2625  0.7355  0.1054
 8401SOL    HW136662   4.092   1.722   4.744  0.4811  0.5802  0.0971
 8401SOL    HW236663   4.078   1.799   4.622 -1.2026 -0.2647 -3.1913
 8402SOL     OW36664   3.050   2.086   6.475 -0.3171  0.3607 -0.2397
 8402SOL    HW136665   3.098   2.155   6.521 -1.2365  0.6545  0.2913
 8402SOL    HW236666   3.035   2.031   6.552  2.8396 -0.2057 -0.0176
 8403SOL     OW36667   4.695   4.696   4.167 -0.4233  0.0568  0.0675
 8403SOL    HW136668   0.048   4.722   4.214  0.8603 -2.7041 -0.5020
 8403SOL    HW236669   0.010   4.633   4.107 -3.1835 -1.6686 -0.0183
 8404SOL     OW36670   1.935   4.000   4.354  0.0745  0.2382  0.5410
 8404SOL    HW136671   1.921   4.087   4.318  0.7752 -0.3010 -1.0044
 8404SOL    HW236672   1.941   4.009   4.450  1.8518  1.6790  0.2952
 8405SOL     OW36673   3.534   3.531   8.287 -0.3170  0.3774  0.3612
 8405SOL    HW136674   3.591   3.571   8.352  0.3273 -2.6055  1.6422
 8405SOL    HW236675   3.450   3.569   8.309  0.1251  1.1517  0.7127
 8406SOL     OW36676   0.386   1.948   8.918  0.4324 -0.6988  0.2603
 8406SOL    HW136677   0.447   2.018   8.898  1.0502 -1.4865 -0.5990
 8406SOL    HW236678   0.306   2.001   8.929 -0.2233 -1.9941  1.7229
 8407SOL     OW36679   4.137   0.367  17.182 -0.2306  0.8647  0.1387
 8407SOL    HW136680   4.198   0.381  17.109 -1.1966  1.5513 -0.5444
 8407SOL    HW236681   4.093   0.292  17.142  0.5199 -0.3384  1.5825
 8408SOL     OW36682   4.346   0.590   7.216 -0.2781 -0.3899  0.1310
 8408SOL    HW136683   4.422   0.649   7.217  0.3974 -1.2426 -0.9442
 8408SOL    HW236684   4.342   0.596   7.311  1.9262 -0.5624  0.2327
 8409SOL     OW36685   2.207   2.933   6.321 -0.1521  0.1233 -0.1781
 8409SOL    HW136686   2.231   3.008   6.267  0.0834 -0.2362 -0.5779
 8409SOL    HW236687   2.115   2.934   6.293 -0.0845 -0.3923 -0.4324
 8410SOL     OW36688   2.130   4.672   3.109  0.5649 -0.0630  0.5425
 8410SOL    HW136689   2.105   4.715   3.191 -1.8929  0.2870 -0.3923
 8410SOL    HW236690   2.162   0.028   3.071  0.5789 -0.2525  0.1478
 8411SOL     OW36691   0.301   2.545   7.770  0.7902  0.1029 -0.7585
 8411SOL    HW136692   0.315   2.634   7.803 -2.5301 -0.3615  1.8340
 8411SOL    HW236693   0.240   2.516   7.837 -1.5225  2.6954 -1.7128
 8412SOL     OW36694   1.821   4.561   4.287 -0.5694 -0.4066 -0.1793
 8412SOL    HW136695   1.818   4.656   4.299  3.0929 -0.0420 -2.0280
 8412SOL    HW236696   1.730   4.543   4.267 -0.8393  1.5323 -0.6931
 8413SOL     OW36697   3.541   3.151   1.778  0.3949 -0.2529 -0.2545
 8413SOL    HW136698   3.547   3.058   1.802 -0.3935  0.3472  2.2207
 8413SOL    HW236699   3.446   3.163   1.780  0.4084 -0.1194 -0.4037
 8414SOL     OW36700   4.716   3.886   8.387  0.2593  0.2923  0.0943
 8414SOL    HW136701   0.016   3.959   8.443 -0.5217  0.5167  0.1621
 8414SOL    HW236702   4.643   3.925   8.340  2.4094 -0.3875 -3.8167
 8415SOL     OW36703   3.949   3.870   4.447  0.3487  0.3424  0.0724
 8415SOL    HW136704   3.960   3.920   4.366 -2.4520  0.1278 -0.4439
 8415SOL    HW236705   3.894   3.801   4.409  0.4416  0.6646 -0.6533
 8416SOL     OW36706   2.663   4.123   6.749 -0.3708 -0.0167 -0.5255
 8416SOL    HW136707   2.680   4.203   6.699 -3.4832  0.4284 -0.8953
 8416SOL    HW236708   2.746   4.091   6.785  0.3314  0.3071 -1.8664
 8417SOL     OW36709   2.637   3.871   7.621  0.2316  0.5824 -0.4291
 8417SOL    HW136710   2.640   3.827   7.536 -2.9967 -0.2821 -0.0748
 8417SOL    HW236711   2.725   3.909   7.628  1.2399 -1.6555 -1.0126
 8418SOL     OW36712   4.143   1.915  14.394  0.5932  0.0299 -0.4357
 8418SOL    HW136713   4.166   1.982  14.331  1.9066  1.1647  1.2341
 8418SOL    HW236714   4.166   1.946  14.482 -2.6749 -2.5506  1.3808
 8419SOL     OW36715   3.900   3.688  15.161 -0.1919  0.2704 -0.6553
 8419SOL    HW136716   3.855   3.733  15.090 -0.6461  2.3560  0.9596
 8419SOL    HW236717   3.984   3.679  15.117  0.4768  0.5994  0.5501
 8420SOL     OW36718   3.552   2.519   3.905  0.4712 -0.0959  0.1312
 8420SOL    HW136719   3.486   2.548   3.968 -0.2842  0.4121 -0.8977
 8420SOL    HW236720   3.540   2.589   3.842  1.0068 -1.7097 -1.7729
 8421SOL     OW36721   3.677   4.495   1.245 -0.2480 -0.1832  0.4415
 8421SOL    HW136722   3.616   4.434   1.286 -2.4478  2.1253  0.5994
 8421SOL    HW236723   3.701   4.448   1.165 -2.0817  2.3330 -1.5593
 8422SOL     OW36724   4.008   3.423   6.791 -0.0916 -0.8044 -0.0436
 8422SOL    HW136725   4.042   3.346   6.837  0.4869 -0.1966  0.5513
 8422SOL    HW236726   3.986   3.389   6.705  1.3560  1.4034 -1.2872
 8423SOL     OW36727   3.088   2.798   8.211 -0.2679 -0.0441 -0.3643
 8423SOL    HW136728   3.177   2.767   8.227 -0.9945 -1.1176  1.6428
 8423SOL    HW236729   3.071   2.866   8.276 -2.5378  0.6803 -1.7118
 8424SOL     OW36730   1.976   4.032   9.564  0.1492 -0.0861  0.7611
 8424SOL    HW136731   1.901   4.044   9.622 -0.9985  1.1812 -0.9857
 8424SOL    HW236732   2.038   4.008   9.632  1.1106  0.2238  0.0069
 8425SOL     OW36733   0.520   2.534   3.004 -0.3556 -0.0198 -0.1932
 8425SOL    HW136734   0.517   2.453   2.953 -1.9146 -0.3324  0.3980
 8425SOL    HW236735   0.601   2.573   2.970 -0.0016 -0.0006  0.6648
 8426SOL     OW36736   0.830   3.398  11.096  0.0184 -0.7321  0.1651
 8426SOL    HW136737   0.821   3.380  11.002 -0.8854  1.6966 -0.2051
 8426SOL    HW236738   0.921   3.372  11.112  0.1282  1.0442  2.4477
 8427SOL     OW36739   4.687   3.395   0.036 -0.5327 -0.3177 -0.2282
 8427SOL    HW136740   4.634   3.388   0.116 -0.9157  0.2694 -0.4291
 8427SOL    HW236741   0.029   3.458   0.063 -1.3614  0.0400  1.0101
 8428SOL     OW36742   2.804   2.788   5.086 -0.4377 -0.0446  0.1523
 8428SOL    HW136743   2.764   2.752   5.007  1.3018 -2.0723  0.2003
 8428SOL    HW236744   2.806   2.712   5.143 -1.0287 -1.4774 -1.7415
 8429SOL     OW36745   2.325   4.273  12.171  0.1305 -0.4435  0.3327
 8429SOL    HW136746   2.380   4.341  12.209 -1.1601  0.6849  0.1873
 8429SOL    HW236747   2.242   4.319  12.186  1.8099  1.9700  2.1960
 8430SOL     OW36748   2.362   2.091   9.179  0.4971 -0.1230 -0.1615
 8430SOL    HW136749   2.332   2.157   9.242 -0.5653  0.4478 -1.2835
 8430SOL    HW236750   2.334   2.015   9.231  1.2426 -0.5992 -0.4667
 8431SOL     OW36751   0.703   4.557   5.920 -0.1731  0.1662  0.0238
 8431SOL    HW136752   0.697   4.490   5.987 -1.6560  0.7364  0.4665
 8431SOL    HW236753   0.745   4.624   5.974 -1.1148  0.8924 -0.1410
 8432SOL     OW36754   3.577   1.252   3.244 -0.2298  0.0442  0.0401
 8432SOL    HW136755   3.592   1.163   3.275 -1.9994 -0.0117  0.7256
 8432SOL    HW236756   3.646   1.260   3.178  1.2101 -0.6855  1.4787
 8433SOL     OW36757   0.595   3.787  16.978 -0.6332  0.3482  0.3772
 8433SOL    HW136758   0.566   3.770  16.888  0.1769  0.6214  0.0557
 8433SOL    HW236759   0.627   3.699  16.998  0.4130  0.8029  0.7136
 8434SOL     OW36760   2.290   0.328   8.107  0.2686 -0.4867  0.7458
 8434SOL    HW136761   2.226   0.398   8.116  0.9318  0.2075  0.1092
 8434SOL    HW236762   2.346   0.377   8.047  0.6506  0.5317  1.9376
 8435SOL     OW36763   2.252   2.272   1.721 -0.3160  0.4867  0.1027
 8435SOL    HW136764   2.242   2.344   1.783  1.5068 -0.0498  1.0358
 8435SOL    HW236765   2.219   2.201   1.776  0.3206 -1.4258 -2.0068
 8436SOL     OW36766   1.096   3.278  11.101 -0.0287  0.6632 -0.1857
 8436SOL    HW136767   1.024   3.233  11.057 -0.6246 -0.1504  1.5975
 8436SOL    HW236768   1.139   3.332  11.035  2.1869  0.4591  1.0819
 8437SOL     OW36769   1.334   2.302  17.034  0.3193  0.4693  0.1121
 8437SOL    HW136770   1.255   2.330  16.987 -0.2000  1.6164  1.6566
 8437SOL    HW236771   1.371   2.251  16.962  0.8479  1.1334 -0.0800
 8438SOL     OW36772   0.537   4.212  17.103  0.1688  0.3511 -0.4659
 8438SOL    HW136773   0.523   4.220  17.009 -2.3868 -0.2262 -0.1274
 8438SOL    HW236774   0.485   4.134  17.124  1.1819 -0.4517 -0.9491
 8439SOL     OW36775   3.436   4.167   3.378 -0.2850 -0.6348  0.1978
 8439SOL    HW136776   3.488   4.087   3.372  1.9007  0.6909  1.4918
 8439SOL    HW236777   3.358   4.132   3.335 -2.3356  3.7820  0.3598
 8440SOL     OW36778   1.404   2.408   4.346  0.1212 -0.2531  0.4514
 8440SOL    HW136779   1.381   2.324   4.387 -0.6083 -0.4572 -0.3874
 8440SOL    HW236780   1.436   2.464   4.417 -0.4869 -1.7751  1.9291
 8441SOL     OW36781   0.942   0.966   5.980 -0.2821  0.3677 -0.0936
 8441SOL    HW136782   0.919   1.055   5.954  2.4388  0.3344 -2.5450
 8441SOL    HW236783   0.937   0.903   5.908 -0.0013  1.1975 -0.8301
 8442SOL     OW36784   3.825   2.405  13.185  0.5409 -0.1794  0.2295
 8442SOL    HW136785   3.807   2.329  13.240  1.0093  0.4191  1.2171
 8442SOL    HW236786   3.737   2.425  13.154  0.3330 -1.5825 -0.0620
 8443SOL     OW36787   4.422   4.496   3.409 -0.4458 -0.1115  0.2026
 8443SOL    HW136788   4.405   4.510   3.503 -0.2736  2.0555 -0.1002
 8443SOL    HW236789   4.414   4.585   3.374 -1.2711  0.1564  1.0583
 8444SOL     OW36790   3.600   2.266  14.795 -0.4284 -0.3668 -0.0205
 8444SOL    HW136791   3.561   2.278  14.882 -1.1605  2.8992 -0.8142
 8444SOL    HW236792   3.565   2.347  14.759 -1.0955 -2.2646 -3.6005
 8445SOL     OW36793   3.528   0.951  10.387 -0.2572 -0.0702 -0.1387
 8445SOL    HW136794   3.616   0.914  10.378  1.1059  2.8078  1.5245
 8445SOL    HW236795   3.496   0.900  10.461 -2.8201 -0.7603 -1.7019
 8446SOL     OW36796   0.304   0.634   7.736 -0.0182 -0.0825 -0.2040
 8446SOL    HW136797   0.344   0.548   7.745  0.4032  0.1968  0.5876
 8446SOL    HW236798   0.292   0.663   7.826  0.2749 -1.5931  0.3041
 8447SOL     OW36799   2.639   0.852   8.028 -0.8414 -0.0646  0.8141
 8447SOL    HW136800   2.679   0.907   7.960 -2.7125  0.9038  0.4924
 8447SOL    HW236801   2.556   0.827   7.986 -1.7761  2.6446  1.0486
 8448SOL     OW36802   4.302   2.255   7.149  0.0637 -1.0628 -0.3473
 8448SOL    HW136803   4.389   2.266   7.111  0.3655  0.5397  0.8402
 8448SOL    HW236804   4.314   2.218   7.236  0.5081 -0.4466 -0.1461
 8449SOL     OW36805   2.494   0.184   6.004  0.2078  0.0513 -0.5577
 8449SOL    HW136806   2.471   0.095   6.031  0.5539 -0.4310 -1.8663
 8449SOL    HW236807   2.513   0.224   6.089  3.9191 -0.8487 -0.9452
 8450SOL     OW36808   2.263   0.256   2.354 -0.1496 -0.0755 -0.2606
 8450SOL    HW136809   2.322   0.227   2.285  1.8105  0.5470  1.1571
 8450SOL    HW236810   2.229   0.170   2.376 -0.8404  0.0413 -0.8472
 8451SOL     OW36811   0.450   2.910   5.858 -0.1418  0.0293 -0.0050
 8451SOL    HW136812   0.454   2.946   5.946 -1.3663 -1.7937  0.7888
 8451SOL    HW236813   0.495   2.979   5.808  0.6096 -0.3060  0.2055
 8452SOL     OW36814   0.549   2.414   4.896  0.0104 -0.6783  0.1633
 8452SOL    HW136815   0.538   2.321   4.874  0.1027 -0.2426 -1.6996
 8452SOL    HW236816   0.462   2.433   4.931  0.5455 -1.1828  1.7335
 8453SOL     OW36817   4.170   0.316  10.993 -0.2191  0.3810 -0.3595
 8453SOL    HW136818   4.214   0.378  11.051  0.2012 -0.8259  0.6178
 8453SOL    HW236819   4.128   0.251  11.048 -0.3797  1.3151  0.6117
 8454SOL     OW36820   1.503   4.249   9.539 -0.2229 -0.2023  0.7642
 8454SOL    HW136821   1.434   4.314   9.527 -1.0846 -1.1070  0.8312
 8454SOL    HW236822   1.484   4.165   9.498  1.7828  0.6639 -1.9280
 8455SOL     OW36823   4.398   0.437  13.088  0.4388  0.3003  0.6274
 8455SOL    HW136824   4.416   0.360  13.033  1.0133  1.3778 -0.6950
 8455SOL    HW236825   4.359   0.389  13.161 -1.7068  1.9129  0.5309
 8456SOL     OW36826   4.201   1.012   7.120  0.6377 -0.0877  0.0931
 8456SOL    HW136827   4.139   1.051   7.058 -1.8834 -1.3438  1.7825
 8456SOL    HW236828   4.197   0.921   7.091 -0.7539  0.0175 -0.0692
 8457SOL     OW36829   2.165   0.401   4.487 -0.4529 -0.1570  0.0778
 8457SOL    HW136830   2.209   0.485   4.501 -0.3003 -0.2990  0.4394
 8457SOL    HW236831   2.210   0.351   4.419 -0.1255 -1.3739  1.2101
 8458SOL     OW36832   1.443   0.248   7.821  0.5177  0.3057  1.1305
 8458SOL    HW136833   1.516   0.230   7.880 -0.5167  1.1835  2.6825
 8458SOL    HW236834   1.481   0.225   7.736 -1.7408 -1.8359  0.7128
 8459SOL     OW36835   1.483   2.837   9.352 -0.4371  0.2954 -0.2357
 8459SOL    HW136836   1.527   2.780   9.415 -0.3346  1.0650  0.3953
 8459SOL    HW236837   1.396   2.846   9.391 -0.0323  3.5342 -0.0729
 8460SOL     OW36838   2.881   1.196   0.249 -0.4208 -0.7551 -0.0147
 8460SOL    HW136839   2.917   1.224   0.333  2.4222  1.4079 -1.9538
 8460SOL    HW236840   2.876   1.273   0.193 -1.6984 -0.0854  1.0162
 8461SOL     OW36841   2.303   4.077  16.366 -0.5728  0.2634 -0.8666
 8461SOL    HW136842   2.386   4.032  16.352  1.4227  2.7496  3.2080
 8461SOL    HW236843   2.329   4.133  16.439 -0.6878  1.5007 -1.7679
 8462SOL     OW36844   1.719   2.795   9.777 -0.3284  0.0775  0.5519
 8462SOL    HW136845   1.700   2.872   9.723 -0.8582 -2.4175 -2.8711
 8462SOL    HW236846   1.758   2.834   9.855  0.7173 -0.7260  0.4323
 8463SOL     OW36847   2.555   4.686  12.095 -0.8251  0.0404  0.6194
 8463SOL    HW136848   2.618   4.714  12.028  0.4617 -1.3135  1.2581
 8463SOL    HW236849   2.516   0.040  12.129 -1.0372  0.1949  0.0168
 8464SOL     OW36850   4.202   0.875   8.563 -0.6948 -0.3541 -0.2447
 8464SOL    HW136851   4.228   0.801   8.619 -1.3836 -0.6451 -0.3120
 8464SOL    HW236852   4.281   0.902   8.517 -0.2627  2.0497  1.9174
 8465SOL     OW36853   1.845   2.531   9.863  0.4644 -0.1164  0.0587
 8465SOL    HW136854   1.773   2.593   9.850 -0.7412 -1.3903  0.6531
 8465SOL    HW236855   1.857   2.536   9.958 -2.2135  1.2539  0.3433
 8466SOL     OW36856   0.724   0.298   6.155  0.4264  0.5742 -0.1712
 8466SOL    HW136857   0.632   0.318   6.137  0.3845 -0.7558 -1.3478
 8466SOL    HW236858   0.734   0.344   6.239 -2.7814  0.8225  0.0815
 8467SOL     OW36859   2.847   2.367   8.449 -0.0671 -0.3578  0.4902
 8467SOL    HW136860   2.797   2.448   8.452  1.7460  0.7242  1.5940
 8467SOL    HW236861   2.786   2.313   8.399 -1.3859 -0.0632  1.7920
 8468SOL     OW36862   1.505   3.933   0.847 -0.0706  0.4327  0.4484
 8468SOL    HW136863   1.450   3.855   0.843 -1.3277  1.1878  2.7690
 8468SOL    HW236864   1.512   3.957   0.755 -0.2956  0.7437  0.5108
 8469SOL     OW36865   2.288   4.034  15.566 -0.2119 -0.1024  0.5483
 8469SOL    HW136866   2.283   3.948  15.524  0.1758  0.4316 -0.6015
 8469SOL    HW236867   2.380   4.048  15.542 -0.8697 -0.6034 -2.3138
 8470SOL     OW36868   2.904   0.306   5.120 -0.6121  0.5867 -0.4761
 8470SOL    HW136869   2.986   0.273   5.083 -1.1731 -0.6677 -0.5726
 8470SOL    HW236870   2.937   0.390   5.151  0.0152 -0.4086  1.5304
 8471SOL     OW36871   2.908   1.960  10.686  0.4126  0.2640  0.1779
 8471SOL    HW136872   2.958   2.035  10.655  1.0041 -0.2599 -0.1345
 8471SOL    HW236873   2.862   2.010  10.753  1.9819  0.9741  0.7174
 8472SOL     OW36874   2.818   1.723  12.279 -0.6228  0.0062 -0.1867
 8472SOL    HW136875   2.838   1.645  12.227 -3.0273  0.0590 -1.1833
 8472SOL    HW236876   2.882   1.783  12.241 -0.3647 -0.7685 -0.9727
 8473SOL     OW36877   1.672   0.464   9.147  0.2322 -0.2202 -0.7622
 8473SOL    HW136878   1.663   0.392   9.210 -0.9221 -1.2441 -2.0993
 8473SOL    HW236879   1.673   0.539   9.207  0.4259  0.0410 -1.0928
 8474SOL     OW36880   3.254   3.502   6.276 -0.3155 -0.7904 -0.3319
 8474SOL    HW136881   3.327   3.488   6.336  0.3544 -0.2327 -1.0099
 8474SOL    HW236882   3.267   3.435   6.209  1.6531 -0.1377 -0.6156
 8475SOL     OW36883   2.450   2.219   1.941 -0.2652 -0.3950 -0.4704
 8475SOL    HW136884   2.467   2.154   1.874 -0.7177  0.0832 -1.0570
 8475SOL    HW236885   2.397   2.276   1.885  1.9796  2.0412 -0.1241
 8476SOL     OW36886   1.119   1.974   2.940 -0.0381 -0.1246  0.5279
 8476SOL    HW136887   1.171   2.041   2.895  1.2736 -1.0722  0.6643
 8476SOL    HW236888   1.040   2.028   2.946  0.6907  1.0588 -0.5413
 8477SOL     OW36889   3.153   3.980  17.400  0.7850 -0.3272  0.1679
 8477SOL    HW136890   3.077   4.032  17.425  2.0780  0.3698  2.7361
 8477SOL    HW236891   3.190   3.949  17.483 -0.5617 -0.8235  0.5768
 8478SOL     OW36892   4.490   2.654   5.111  0.1908  0.6024  0.3130
 8478SOL    HW136893   4.496   2.705   5.030  0.8543 -1.3756 -0.8817
 8478SOL    HW236894   4.520   2.570   5.075 -0.9790 -0.2920  1.4482
 8479SOL     OW36895   2.651   1.565   2.603  0.2213 -0.1304  0.2116
 8479SOL    HW136896   2.594   1.530   2.671 -1.6102  1.9529 -0.2499
 8479SOL    HW236897   2.612   1.648   2.574 -2.4230 -1.3430  0.2656
 8480SOL     OW36898   2.434   3.416   0.587 -0.3806 -0.4637 -0.1770
 8480SOL    HW136899   2.459   3.378   0.503 -1.9221  2.4945 -1.9649
 8480SOL    HW236900   2.360   3.470   0.558  0.5870 -0.8896 -3.4098
 8481SOL     OW36901   3.774   0.859   7.662 -0.3265 -0.0837  0.5194
 8481SOL    HW136902   3.765   0.766   7.686 -1.1876  0.1320  1.0112
 8481SOL    HW236903   3.796   0.849   7.570 -0.1317  0.5216  0.5060
 8482SOL     OW36904   1.835   1.786   4.590  0.2638 -0.0954 -0.1051
 8482SOL    HW136905   1.890   1.733   4.649  0.6653  0.1048 -0.2976
 8482SOL    HW236906   1.750   1.744   4.602 -0.2873  1.3984  1.2193
 8483SOL     OW36907   3.689   2.455   6.645  0.3811  0.4943  0.0082
 8483SOL    HW136908   3.668   2.368   6.613 -3.7397  1.0010  1.4126
 8483SOL    HW236909   3.763   2.429   6.700  0.3270  0.1304 -0.0917
 8484SOL     OW36910   4.155   0.804  17.546 -0.2460 -0.4746  0.2813
 8484SOL    HW136911   4.150   0.836  17.637 -1.9025  0.2307 -0.0689
 8484SOL    HW236912   4.101   0.725  17.552 -0.5172 -0.4764 -2.2151
 8485SOL     OW36913   0.980   0.384   2.905 -0.4499  0.2332 -0.0984
 8485SOL    HW136914   0.955   0.337   2.825 -1.9746 -0.0545  0.5571
 8485SOL    HW236915   0.931   0.465   2.890 -0.3756 -0.1283 -2.2690
 8486SOL     OW36916   2.923   0.788   4.345 -0.0207 -0.0926 -0.4424
 8486SOL    HW136917   2.887   0.865   4.301 -0.7373 -0.7212 -0.9683
 8486SOL    HW236918   2.939   0.743   4.262  1.3790  0.3901 -0.4339
 8487SOL     OW36919   1.240   2.654   9.203  0.3112  0.0558  0.1205
 8487SOL    HW136920   1.240   2.705   9.284  1.2292 -1.7549  1.2561
 8487SOL    HW236921   1.260   2.571   9.246  2.3365 -0.0992 -1.0891
 8488SOL     OW36922   3.487   0.926   2.726  0.3698 -0.3473 -0.2151
 8488SOL    HW136923   3.413   0.958   2.778  0.3373 -2.1416  0.8172
 8488SOL    HW236924   3.465   0.833   2.723 -0.1948 -0.2105 -0.3704
 8489SOL     OW36925   2.429   1.484   7.993 -0.1667  0.3085  0.9984
 8489SOL    HW136926   2.377   1.528   8.061 -0.3256 -0.0097  1.0830
 8489SOL    HW236927   2.477   1.554   7.948  0.1956 -0.6502 -0.1071
 8490SOL     OW36928   1.741   1.356   5.191 -0.3445 -0.4514 -0.1773
 8490SOL    HW136929   1.649   1.363   5.167  0.3988  1.4793 -2.5068
 8490SOL    HW236930   1.747   1.448   5.218  1.1495  0.4873 -3.6809
 8491SOL     OW36931   1.175   0.977   7.686  0.2035  0.1257 -0.1126
 8491SOL    HW136932   1.228   1.028   7.626  0.1067  0.1066 -0.2146
 8491SOL    HW236933   1.215   0.893   7.705 -2.0390 -0.3112  2.7816
 8492SOL     OW36934   0.457   2.611  10.194  0.0800  0.3534  0.7385
 8492SOL    HW136935   0.442   2.564  10.112 -0.9166  0.3894  0.8931
 8492SOL    HW236936   0.456   2.703  10.169  2.1939  1.0616  3.2498
 8493SOL     OW36937   3.548   3.544  12.688 -0.2507  0.2990  0.1190
 8493SOL    HW136938   3.588   3.559  12.603 -0.4962  1.2946  0.1796
 8493SOL    HW236939   3.523   3.452  12.690  0.9568  0.0251  2.5242
 8494SOL     OW36940   4.685   0.909   2.373 -0.4026 -0.3593  0.5739
 8494SOL    HW136941   0.051   0.895   2.395 -0.2876 -1.4311 -0.5999
 8494SOL    HW236942   4.681   1.005   2.370 -1.0413 -0.3516  1.6127
 8495SOL     OW36943   0.189   4.292  16.917  0.5351  0.4776  0.1864
 8495SOL    HW136944   0.265   4.245  16.883  0.9303 -0.6665  2.5875
 8495SOL    HW236945   0.151   4.222  16.971 -0.8323  1.9787  1.1940
 8496SOL     OW36946   2.979   0.563   6.337  0.3453  0.8330  0.1978
 8496SOL    HW136947   2.912   0.512   6.290  1.3160 -2.1382  2.0716
 8496SOL    HW236948   2.920   0.630   6.372  0.4369  0.8118  0.3863
 8497SOL     OW36949   4.120   4.198   5.405 -0.6684  0.3224  0.1655
 8497SOL    HW136950   4.198   4.142   5.408  1.2733  3.0180 -0.8634
 8497SOL    HW236951   4.072   4.144   5.342  2.1930 -1.1796 -0.7121
 8498SOL     OW36952   0.034   3.191  15.828  0.2670 -0.5802  0.6805
 8498SOL    HW136953   0.026   3.258  15.761 -0.9027 -1.2286  0.1858
 8498SOL    HW236954   0.126   3.202  15.852  0.5036  0.8481 -0.8412
 8499SOL     OW36955   2.175   0.220  14.855  0.0222 -0.5221 -0.0863
 8499SOL    HW136956   2.117   0.205  14.781 -1.1211 -0.1480  0.7430
 8499SOL    HW236957   2.221   0.136  14.856  0.0772 -0.4806  1.0720
 8500SOL     OW36958   1.360   3.732  15.503  0.2918 -0.2888 -0.4328
 8500SOL    HW136959   1.271   3.696  15.508 -0.2247  1.1335  0.7164
 8500SOL    HW236960   1.374   3.745  15.597 -2.6283  1.1895 -0.2027
 8501SOL     OW36961   4.703   1.737   8.175  0.6715 -0.4776 -0.2367
 8501SOL    HW136962   4.656   1.713   8.255 -1.8649 -0.6855 -1.8012
 8501SOL    HW236963   0.054   1.781   8.211  1.4227 -2.4408  0.5818
 8502SOL     OW36964   0.217   1.014   2.409 -0.3250 -0.1045  0.0594
 8502SOL    HW136965   0.202   1.103   2.377 -2.1115 -0.1804  0.7011
 8502SOL    HW236966   0.301   0.993   2.368 -1.8929 -3.5776 -1.3318
 8503SOL     OW36967   3.067   2.892   7.282  0.5321  0.7333  0.5026
 8503SOL    HW136968   3.091   2.813   7.330 -0.6779 -0.1722 -0.3937
 8503SOL    HW236969   3.006   2.934   7.343 -3.7173 -1.2581 -2.4377
 8504SOL     OW36970   0.799   0.641   7.294 -0.3512 -0.3551 -0.3864
 8504SOL    HW136971   0.890   0.642   7.324 -0.9003 -0.6062  1.2912
 8504SOL    HW236972   0.746   0.616   7.369  1.1334 -1.8421  0.1750
 8505SOL     OW36973   2.046   1.133   8.833 -0.1331 -0.0878  0.4541
 8505SOL    HW136974   2.077   1.044   8.847 -2.5925 -1.4348 -2.6505
 8505SOL    HW236975   2.114   1.176   8.884 -0.3547  0.8005  0.0090
 8506SOL     OW36976   1.085   1.877   2.296 -0.5802 -0.0407  0.2920
 8506SOL    HW136977   1.073   1.968   2.326  2.0622  0.3308  0.2024
 8506SOL    HW236978   0.999   1.847   2.266  0.0866 -0.8265 -0.8013
 8507SOL     OW36979   3.174   4.671   9.625 -0.7549 -0.1491  0.6279
 8507SOL    HW136980   3.146   4.638   9.711  2.5708 -3.3393  0.5284
 8507SOL    HW236981   3.096   4.656   9.572 -1.2582 -1.2744  1.6727
 8508SOL     OW36982   3.145   3.633   0.908 -0.3727  0.1887 -0.2825
 8508SOL    HW136983   3.172   3.552   0.864 -1.3069  0.0581 -0.6115
 8508SOL    HW236984   3.081   3.598   0.971 -1.4880  0.8823 -1.0309
 8509SOL     OW36985   1.158   3.781   7.920  0.5663 -0.0760  0.0272
 8509SOL    HW136986   1.213   3.744   7.852  0.6940  0.2387 -0.0389
 8509SOL    HW236987   1.072   3.763   7.882  1.2253 -3.9410  0.4281
 8510SOL     OW36988   1.586   1.605   4.644 -0.0787 -0.2268  0.1875
 8510SOL    HW136989   1.596   1.688   4.691 -1.8068 -0.0777  0.3176
 8510SOL    HW236990   1.518   1.608   4.576  1.7976 -1.6332 -1.7302
 8511SOL     OW36991   1.483   4.345   7.349  0.0657 -0.5785  0.0310
 8511SOL    HW136992   1.487   4.294   7.430  1.6515 -0.2196  0.1780
 8511SOL    HW236993   1.388   4.342   7.338 -0.0382  1.8495  0.3214
 8512SOL     OW36994   0.663   3.802   8.494 -0.4638  0.1771  0.0877
 8512SOL    HW136995   0.745   3.755   8.497  0.8494  2.3105 -1.8636
 8512SOL    HW236996   0.626   3.784   8.407  0.0131 -1.2521  0.1838
 8513SOL     OW36997   0.010   1.281   6.711  0.2981 -0.9742 -0.1708
 8513SOL    HW136998   4.723   1.376   6.708  1.8023 -0.7795 -0.3749
 8513SOL    HW236999   4.651   1.241   6.731 -0.0579 -0.7438 -1.2361
 8514SOL     OW37000   2.547   3.565   6.349  0.1816 -0.0675  0.3196
 8514SOL    HW137001   2.605   3.613   6.409 -0.3917  0.0866  0.7579
 8514SOL    HW237002   2.607   3.495   6.324 -0.3048  0.3497 -1.9490
 8515SOL     OW37003   1.709   0.466  10.928  0.1604  0.0230 -0.1043
 8515SOL    HW137004   1.666   0.401  10.984  0.8129  0.9562  1.5105
 8515SOL    HW237005   1.741   0.531  10.991  0.0849  0.0363 -0.0804
 8516SOL     OW37006   1.296   1.083   3.496  0.1449 -0.4280 -0.0841
 8516SOL    HW137007   1.384   1.053   3.474  0.8213  1.0649  0.5398
 8516SOL    HW237008   1.252   1.008   3.535 -0.1955  0.4638  1.2578
 8517SOL     OW37009   3.939   1.879   7.935 -0.0045 -0.4800 -0.6171
 8517SOL    HW137010   3.931   1.922   7.850  0.8664  1.3227  0.2306
 8517SOL    HW237011   3.980   1.797   7.906  2.3371  0.7081 -0.7005
 8518SOL     OW37012   2.124   1.976   1.021 -0.5161  0.4764 -0.5292
 8518SOL    HW137013   2.155   1.886   1.037 -0.9706 -0.0963 -2.8625
 8518SOL    HW237014   2.050   1.979   1.081  0.7039  0.8936  0.9380
 8519SOL     OW37015   3.016   2.399   2.220  0.6241  0.1567  0.0826
 8519SOL    HW137016   2.922   2.386   2.225  0.9684 -2.8050 -1.1813
 8519SOL    HW237017   3.037   2.357   2.137  0.6553 -2.4205  1.3901
 8520SOL     OW37018   2.729   1.153   7.111  0.5388  0.3866  0.4974
 8520SOL    HW137019   2.760   1.125   7.197  0.1276  1.4673  1.0029
 8520SOL    HW237020   2.802   1.114   7.063 -0.7089 -3.2022  1.5013
 8521SOL     OW37021   4.094   3.206   8.944  0.0991  0.5117 -0.3741
 8521SOL    HW137022   4.021   3.240   8.996 -1.3734 -0.5980 -1.7048
 8521SOL    HW237023   4.145   3.158   9.010  0.4129 -1.0437 -1.7432
 8522SOL     OW37024   4.579   0.162   6.844 -0.5115 -0.6561 -0.1609
 8522SOL    HW137025   4.612   0.238   6.893 -1.2135  0.0058 -0.7095
 8522SOL    HW237026   4.541   0.195   6.762  0.2938 -1.2033 -0.7556
 8523SOL     OW37027   2.621   1.305   3.157  0.5062 -0.0239 -0.5946
 8523SOL    HW137028   2.636   1.351   3.075  1.9303  0.1868 -0.2111
 8523SOL    HW237029   2.712   1.300   3.186  0.6147 -1.8643 -1.2450
 8524SOL     OW37030   4.451   2.611   0.527 -0.7127 -0.1290  0.0185
 8524SOL    HW137031   4.493   2.696   0.540 -0.8552  0.0919 -1.0249
 8524SOL    HW237032   4.377   2.638   0.474 -1.4455  1.0333  1.6480
 8525SOL     OW37033   1.202   0.528   8.204  0.3781 -0.1525 -0.4987
 8525SOL    HW137034   1.254   0.602   8.236  1.7087 -1.3178  0.0254
 8525SOL    HW237035   1.121   0.571   8.174 -0.0633  0.4042  1.4967
 8526SOL     OW37036   0.803   0.949   3.665  0.1313 -0.2408 -0.4486
 8526SOL    HW137037   0.895   0.974   3.672  0.1171 -0.2734 -0.1474
 8526SOL    HW237038   0.764   1.004   3.597  0.5873  2.3829  1.3865
 8527SOL     OW37039   2.197   3.778   3.435  0.2511  0.3676 -0.1379
 8527SOL    HW137040   2.286   3.813   3.440  0.5495 -0.7256  2.1036
 8527SOL    HW237041   2.211   3.689   3.468  0.0419  0.7549  1.0238
 8528SOL     OW37042   2.088   2.319   2.860 -0.2721 -0.2903 -0.2567
 8528SOL    HW137043   2.076   2.239   2.809  1.2667 -1.3873  1.0971
 8528SOL    HW237044   2.043   2.292   2.940 -0.2591 -1.6639 -0.7086
 8529SOL     OW37045   3.467   3.371  12.374  0.3054 -0.1077  0.3788
 8529SOL    HW137046   3.392   3.425  12.348  0.1043 -1.6486 -2.2882
 8529SOL    HW237047   3.442   3.328  12.455 -1.5285 -0.2939 -0.2900
 8530SOL     OW37048   1.432   1.442   8.673 -0.0534 -0.1264 -0.0957
 8530SOL    HW137049   1.412   1.530   8.706  1.4902  0.4592 -0.7714
 8530SOL    HW237050   1.520   1.435   8.710 -0.4552  0.0906  0.9126
 8531SOL     OW37051   1.295   1.273   5.443 -0.2317 -0.0358  0.2261
 8531SOL    HW137052   1.355   1.288   5.517 -0.5117  0.9262  0.2601
 8531SOL    HW237053   1.213   1.241   5.480 -0.0876 -2.0891 -1.2515
 8532SOL     OW37054   4.017   2.388   3.492  0.0439 -0.2811  0.1057
 8532SOL    HW137055   3.978   2.473   3.474  0.2907 -0.1207  0.3165
 8532SOL    HW237056   4.036   2.392   3.586 -1.9388  3.0452  0.3489
 8533SOL     OW37057   2.563   0.997   3.934  0.8396 -0.1341  0.1015
 8533SOL    HW137058   2.535   1.074   3.885  0.3390 -0.2257  0.2456
 8533SOL    HW237059   2.491   0.987   3.996  1.1906 -3.2272  0.0251
 8534SOL     OW37060   1.747   0.243   1.639  0.4332  0.2422  0.2206
 8534SOL    HW137061   1.697   0.193   1.704  1.5526 -0.6527  0.3849
 8534SOL    HW237062   1.672   0.290   1.603  0.1775 -0.0537  0.3735
 8535SOL     OW37063   3.861   0.164   0.384  0.1655  0.9204  0.0641
 8535SOL    HW137064   3.922   0.238   0.382  1.9147 -0.5044  0.6626
 8535SOL    HW237065   3.784   0.201   0.340 -0.8481  0.4112  1.4008
 8536SOL     OW37066   2.515   2.388   6.654  0.0578 -0.3615 -0.2056
 8536SOL    HW137067   2.594   2.368   6.605  0.6142 -2.6459  1.6617
 8536SOL    HW237068   2.502   2.479   6.626  0.4745  0.0395  0.9030
 8537SOL     OW37069   3.498   0.650   5.913 -0.4084 -0.2054  0.1147
 8537SOL    HW137070   3.502   0.643   5.818 -0.6886  0.3956  0.0590
 8537SOL    HW237071   3.585   0.685   5.933 -0.5544 -0.7642  1.6882
 8538SOL     OW37072   0.078   3.677   3.854  0.4444 -0.4996  0.4073
 8538SOL    HW137073   0.046   3.739   3.919 -0.7952  0.9843 -1.6292
 8538SOL    HW237074   0.081   3.590   3.894  2.3377 -0.3637  0.5874
 8539SOL     OW37075   2.155   1.177  11.855  0.0822 -0.2742  0.1200
 8539SOL    HW137076   2.113   1.092  11.865  1.8855 -1.2204 -0.3549
 8539SOL    HW237077   2.248   1.158  11.866  0.8569  3.0425 -0.5094
 8540SOL     OW37078   2.115   2.533   2.426  0.3489 -0.5840  0.1441
 8540SOL    HW137079   2.130   2.611   2.372 -1.9134  0.3447  0.8764
 8540SOL    HW237080   2.199   2.528   2.472  0.8508 -0.5299 -0.7485
 8541SOL     OW37081   1.344   4.054  15.493 -0.0773  0.5406 -0.2005
 8541SOL    HW137082   1.428   4.042  15.448 -1.0716 -0.5428 -1.7478
 8541SOL    HW237083   1.292   3.981  15.460  3.2601 -1.6871 -0.6280
 8542SOL     OW37084   1.038   0.953  14.104 -0.0642  0.6466  0.2146
 8542SOL    HW137085   0.972   0.998  14.051 -1.5714 -0.9474  0.7396
 8542SOL    HW237086   1.105   1.021  14.101 -1.3556  1.8350 -2.0323
 8543SOL     OW37087   1.799   0.448   1.313  0.1424  0.3163 -0.0137
 8543SOL    HW137088   1.719   0.403   1.286  0.5261  0.1425 -0.8627
 8543SOL    HW237089   1.857   0.372   1.323 -0.4496 -0.2358 -0.8115
 8544SOL     OW37090   0.597   0.583  15.169 -0.1714  0.5019 -0.0659
 8544SOL    HW137091   0.653   0.548  15.101  0.1524  0.7487  0.0735
 8544SOL    HW237092   0.620   0.530  15.245 -3.4548 -1.2016 -0.2452
 8545SOL     OW37093   0.624   2.212   5.203 -0.5727  0.2559 -0.0957
 8545SOL    HW137094   0.626   2.307   5.218 -1.5809  0.1418  0.7891
 8545SOL    HW237095   0.685   2.187   5.272 -1.3149 -1.4467 -0.0642
 8546SOL     OW37096   3.455   3.281   3.496 -0.2583 -0.4951  0.1837
 8546SOL    HW137097   3.535   3.229   3.493  0.8502  1.2304 -0.2498
 8546SOL    HW237098   3.389   3.225   3.456 -1.8478  0.8050  1.0032
 8547SOL     OW37099   0.443   1.694  12.398 -0.5153 -0.4689  0.0781
 8547SOL    HW137100   0.466   1.773  12.446 -0.2366 -1.0854  0.9601
 8547SOL    HW237101   0.449   1.619  12.457  0.7187 -0.0402  0.5041
 8548SOL     OW37102   0.304   2.753  12.441 -0.4377 -0.1885 -0.3644
 8548SOL    HW137103   0.367   2.809  12.487 -0.2798 -1.0142  0.4327
 8548SOL    HW237104   0.226   2.779  12.490 -0.8924 -2.2097 -0.0556
 8549SOL     OW37105   2.322   3.108   6.939  0.1736  0.0438 -0.0438
 8549SOL    HW137106   2.418   3.112   6.945  0.0170 -1.2915  3.2614
 8549SOL    HW237107   2.295   3.200   6.941 -2.5164 -0.7656  0.2028
 8550SOL     OW37108   2.125   1.884   5.032 -0.0759 -0.0483  0.9541
 8550SOL    HW137109   2.093   1.926   4.953  1.6426 -1.7348 -0.6454
 8550SOL    HW237110   2.059   1.919   5.091 -0.2469  0.0364  0.7125
 8551SOL     OW37111   3.253   1.512  11.341 -0.1616 -0.1939 -0.6787
 8551SOL    HW137112   3.335   1.462  11.348 -0.5150 -0.4840  1.4758
 8551SOL    HW237113   3.205   1.460  11.277  1.2449 -0.1684 -1.7493
 8552SOL     OW37114   0.317   3.772  12.940  0.8645  0.2996 -0.6093
 8552SOL    HW137115   0.359   3.722  12.870  0.5978 -0.1097 -0.4810
 8552SOL    HW237116   0.345   3.726  13.019  1.4121  3.2035  0.8623
 8553SOL     OW37117   2.985   0.629   9.019  0.5443  0.5426  0.5603
 8553SOL    HW137118   3.052   0.613   9.086  0.0659 -0.7745  0.7123
 8553SOL    HW237119   2.901   0.599   9.054 -0.8762  1.7424 -1.8605
 8554SOL     OW37120   4.095   1.647  12.970 -0.1794 -0.4424  0.0798
 8554SOL    HW137121   4.148   1.571  12.947 -1.0192 -1.1684  0.5486
 8554SOL    HW237122   4.022   1.600  13.011 -1.3746  1.3161 -0.0314
 8555SOL     OW37123   2.935   3.780  11.693  0.2460  0.2123  0.0436
 8555SOL    HW137124   2.933   3.741  11.781  2.5808  2.0202  0.9179
 8555SOL    HW237125   3.000   3.721  11.653 -1.0712 -1.0573 -0.2235
 8556SOL     OW37126   2.807   0.260   2.564  0.1197  0.0213 -0.0029
 8556SOL    HW137127   2.775   0.171   2.552 -0.2555  0.1035  0.3658
 8556SOL    HW237128   2.888   0.231   2.604 -0.3132  1.1878  1.7256
 8557SOL     OW37129   0.679   1.429   3.781 -0.1224  0.5478 -0.0460
 8557SOL    HW137130   0.731   1.456   3.856 -1.0522 -1.3340  1.2670
 8557SOL    HW237131   0.610   1.382   3.827  0.8092 -1.6208 -0.8793
 8558SOL     OW37132   0.019   2.252   6.167  0.0941 -0.3787  0.2686
 8558SOL    HW137133   0.039   2.337   6.128  0.7289 -1.4920 -1.8626
 8558SOL    HW237134   4.678   2.226   6.103  1.5356  1.2730 -1.9201
 8559SOL     OW37135   4.563   0.174   8.105  0.1437 -0.1862 -0.0974
 8559SOL    HW137136   4.490   0.218   8.149  0.2786  2.1026 -2.1711
 8559SOL    HW237137   4.509   0.098   8.083  0.4189 -0.1946 -0.7318
 8560SOL     OW37138   1.669   2.650   7.124  0.6392 -0.0057  0.7677
 8560SOL    HW137139   1.732   2.720   7.107 -0.6046  0.8153 -0.5002
 8560SOL    HW237140   1.634   2.631   7.037 -1.0721  0.7573  1.2834
 8561SOL     OW37141   1.906   1.374  14.976 -0.7367  0.2646  0.3859
 8561SOL    HW137142   1.953   1.383  15.059  0.8856 -1.3650 -0.3375
 8561SOL    HW237143   1.976   1.383  14.910 -0.6490 -0.5151  0.3741
 8562SOL     OW37144   0.247   4.682   1.230  0.4124 -0.3128 -0.1804
 8562SOL    HW137145   0.227   0.001   1.312  1.4756 -2.1449  1.0933
 8562SOL    HW237146   0.164   4.684   1.182  0.4451  3.4899 -0.0295
 8563SOL     OW37147   0.829   0.366   0.214 -0.3848 -0.2220  0.1473
 8563SOL    HW137148   0.883   0.287   0.219 -1.2960 -0.6818  2.3703
 8563SOL    HW237149   0.753   0.347   0.269 -1.3551  2.2509 -0.3177
 8564SOL     OW37150   3.153   3.921   7.221  0.0849 -0.1330  0.2018
 8564SOL    HW137151   3.140   3.929   7.126  1.3661  3.1019  0.2835
 8564SOL    HW237152   3.135   4.014   7.237 -0.7755 -0.2218 -0.2192
 8565SOL     OW37153   1.084   4.395   3.308 -0.0388 -0.3939 -0.2312
 8565SOL    HW137154   1.132   4.403   3.391 -1.6767 -1.4379  0.8312
 8565SOL    HW237155   1.092   4.486   3.280 -0.9140  0.0789  1.0474
 8566SOL     OW37156   0.248   2.948  15.856  0.3861  0.6408 -0.4396
 8566SOL    HW137157   0.296   3.017  15.810  1.3549  0.4657  0.3269
 8566SOL    HW237158   0.232   2.993  15.939 -0.5817 -0.9049  0.2008
 8567SOL     OW37159   0.737   2.383   7.050  0.7978 -0.2666 -0.0346
 8567SOL    HW137160   0.812   2.442   7.039  0.2459  0.5342  0.5346
 8567SOL    HW237161   0.767   2.312   7.106  2.0508  0.4638  0.2273
 8568SOL     OW37162   0.457   4.153   5.211 -0.0143 -0.2037 -0.3321
 8568SOL    HW137163   0.509   4.220   5.256  0.9574 -0.5343 -0.9546
 8568SOL    HW237164   0.366   4.166   5.238 -0.5289 -0.3086 -2.0228
 8569SOL     OW37165   2.352   2.343   1.463  0.4040  0.2264 -0.2317
 8569SOL    HW137166   2.438   2.302   1.449 -0.1035 -1.0296  0.3479
 8569SOL    HW237167   2.320   2.303   1.544 -0.2334  1.5851  0.1855
 8570SOL     OW37168   2.665   0.120   1.763  0.1561  0.3388 -0.1065
 8570SOL    HW137169   2.583   0.153   1.727 -1.1062  0.6222  3.1062
 8570SOL    HW237170   2.734   0.157   1.708  0.2112 -0.0621 -0.3128
 8571SOL     OW37171   3.004   3.192   5.751  0.2955 -0.2663  0.2080
 8571SOL    HW137172   3.032   3.105   5.781 -2.1800 -0.8552  0.8192
 8571SOL    HW237173   2.981   3.168   5.661 -1.6017 -0.1856  0.6868
 8572SOL     OW37174   0.536   0.879   6.557 -0.1337  0.3071 -0.1054
 8572SOL    HW137175   0.451   0.872   6.601 -0.7234  0.8283 -1.1583
 8572SOL    HW237176   0.584   0.801   6.583 -1.8028 -1.3192 -1.8942
 8573SOL     OW37177   3.509   4.484   3.162  0.2198  0.4614  0.0090
 8573SOL    HW137178   3.494   4.493   3.256 -1.5620  0.4264 -0.2731
 8573SOL    HW237179   3.540   4.394   3.151  1.8783  0.8691  1.3177
 8574SOL     OW37180   2.782   4.536   4.071  0.2316  0.1335  0.0678
 8574SOL    HW137181   2.736   4.578   3.998 -2.0720  3.0746  3.1784
 8574SOL    HW237182   2.826   4.465   4.026 -1.1175 -0.5307 -0.1995
 8575SOL     OW37183   2.904   0.851  12.836  0.5359  0.3093 -0.8832
 8575SOL    HW137184   2.834   0.789  12.855  0.6191  1.3218  2.7948
 8575SOL    HW237185   2.966   0.807  12.778  0.5415 -1.0719  0.1750
 8576SOL     OW37186   2.852   3.652   8.487 -0.0669 -0.6773 -0.1932
 8576SOL    HW137187   2.842   3.628   8.395 -0.2106  0.4672 -0.4770
 8576SOL    HW237188   2.838   3.571   8.535  1.5174  0.6015  2.4472
 8577SOL     OW37189   1.828   4.145   4.593 -0.6713  0.0494  0.4161
 8577SOL    HW137190   1.805   4.233   4.564  1.9928  0.8631  0.7869
 8577SOL    HW237191   1.760   4.091   4.552 -0.2294 -0.1528 -0.0616
 8578SOL     OW37192   0.970   0.033   6.332  0.3676  0.1081  0.0055
 8578SOL    HW137193   0.945   0.103   6.393 -1.4577  0.0784 -0.7154
 8578SOL    HW237194   0.958   4.675   6.377  0.2636  0.1696  0.0938
 8579SOL     OW37195   1.059   4.069  16.508  0.1061 -0.0231 -0.5951
 8579SOL    HW137196   1.125   4.114  16.561  0.4361 -0.2540 -0.8086
 8579SOL    HW237197   1.108   3.989  16.489 -1.8900 -2.0480  2.8052
 8580SOL     OW37198   2.338   1.074   3.651 -0.2196  0.0277 -0.1133
 8580SOL    HW137199   2.379   0.987   3.644 -2.2747 -0.5387 -4.7137
 8580SOL    HW237200   2.366   1.114   3.569  0.6992  0.8426  0.5838
 8581SOL     OW37201   2.579   2.392   7.969  0.1544 -0.2126  0.1618
 8581SOL    HW137202   2.507   2.455   7.965  0.5617  0.3378  1.5701
 8581SOL    HW237203   2.641   2.442   8.023 -0.2052  0.0198  0.3548
 8582SOL     OW37204   0.242   4.203   0.721  0.3698 -0.0921  0.2459
 8582SOL    HW137205   0.150   4.217   0.702  0.8824 -1.3982 -3.1909
 8582SOL    HW237206   0.245   4.109   0.704 -0.0018  0.4426 -2.7795
 8583SOL     OW37207   0.147   1.257   8.706  0.3171  0.4939  0.7559
 8583SOL    HW137208   0.207   1.332   8.705 -0.2958  0.9870  1.0948
 8583SOL    HW237209   0.149   1.249   8.802 -1.1420  3.2412  1.0246
 8584SOL     OW37210   1.791   4.570   3.201  0.3867 -0.1924 -0.1017
 8584SOL    HW137211   1.837   4.591   3.283  2.0804 -0.7858 -0.9022
 8584SOL    HW237212   1.721   4.514   3.235 -0.1437 -1.5433 -3.4814
 8585SOL     OW37213   2.073   1.504   7.058  0.2485 -0.0024 -0.3991
 8585SOL    HW137214   2.104   1.588   7.023 -1.5156  0.3914 -1.0302
 8585SOL    HW237215   2.058   1.457   6.976 -0.4510  0.4970 -0.5598
 8586SOL     OW37216   4.488   0.708  15.486  0.2683  0.4824 -0.6749
 8586SOL    HW137217   4.509   0.639  15.548  0.5095  1.1013 -0.0746
 8586SOL    HW237218   4.528   0.674  15.405  4.1544  0.2885  1.3042
 8587SOL     OW37219   1.392   1.619  14.169 -0.4444 -0.1799  0.1106
 8587SOL    HW137220   1.343   1.670  14.233 -1.0205  0.9837 -1.2657
 8587SOL    HW237221   1.424   1.686  14.109 -1.2580 -0.3678 -0.5248
 8588SOL     OW37222   3.418   1.262   2.841 -0.2514  0.9026  0.0938
 8588SOL    HW137223   3.403   1.342   2.892 -1.3987  0.4018  0.5322
 8588SOL    HW237224   3.497   1.277   2.789 -2.0998  0.2651 -2.8962
 8589SOL     OW37225   0.561   4.205   3.351 -0.3655 -0.4388 -0.3036
 8589SOL    HW137226   0.543   4.163   3.435 -3.6143  0.2738 -0.6546
 8589SOL    HW237227   0.638   4.260   3.368 -1.2845  1.0739 -1.0675
 8590SOL     OW37228   1.497   1.376   6.105  0.0838 -0.6122 -0.0124
 8590SOL    HW137229   1.570   1.432   6.080  0.4432 -1.0984 -0.0516
 8590SOL    HW237230   1.547   1.295   6.115 -1.2496 -1.3294  0.8472
 8591SOL     OW37231   2.377   3.980  14.837 -0.3985  0.2456  0.4680
 8591SOL    HW137232   2.438   3.995  14.908  0.8449 -1.2754 -0.2829
 8591SOL    HW237233   2.448   3.970  14.773 -2.2394  0.4020 -1.6301
 8592SOL     OW37234   2.053   1.731   2.934  0.1904 -0.4263  0.0869
 8592SOL    HW137235   1.992   1.782   2.881  1.5114  0.3175 -0.7299
 8592SOL    HW237236   2.001   1.682   2.997 -0.2414  0.2861  0.2788
 8593SOL     OW37237   1.870   1.629   1.411  0.0403 -0.1106  0.2621
 8593SOL    HW137238   1.859   1.703   1.471 -1.2669  0.3464 -0.5372
 8593SOL    HW237239   1.786   1.629   1.365 -1.1491  1.8083  2.4397
 8594SOL     OW37240   4.604   3.898  16.539  0.7381 -0.2681 -0.4171
 8594SOL    HW137241   4.566   3.822  16.582  1.3184 -0.0188  0.5581
 8594SOL    HW237242   4.684   3.902  16.592 -0.5942 -0.7642  1.5960
 8595SOL     OW37243   0.993   2.687   7.619  0.2520 -0.2558  0.3908
 8595SOL    HW137244   1.069   2.740   7.645  0.1600  1.4580 -2.8896
 8595SOL    HW237245   1.010   2.617   7.683  0.4460 -2.4382 -2.0610
 8596SOL     OW37246   1.080   0.978   7.287 -0.0569  0.0242 -0.0149
 8596SOL    HW137247   1.083   0.882   7.279 -1.5923 -0.0909  0.7318
 8596SOL    HW237248   1.161   0.987   7.336  2.1156  0.5436 -3.7078
 8597SOL     OW37249   3.472   0.456   5.255 -0.2959  0.4531 -0.3443
 8597SOL    HW137250   3.540   0.417   5.310 -1.1418 -0.1219  0.2883
 8597SOL    HW237251   3.523   0.519   5.204 -0.4205  0.0320 -0.9916
 8598SOL     OW37252   4.540   1.043   2.673 -0.2555  0.0126  0.2657
 8598SOL    HW137253   4.631   1.020   2.652 -0.1690  2.3234 -1.9542
 8598SOL    HW237254   4.530   1.117   2.612 -3.3669 -0.8020 -0.1995
 8599SOL     OW37255   2.556   3.758   5.530  0.1785  0.5301 -0.3283
 8599SOL    HW137256   2.539   3.723   5.443  1.9477 -0.8762 -0.1221
 8599SOL    HW237257   2.580   3.850   5.521  2.7749 -0.1765 -0.6462
 8600SOL     OW37258   4.553   4.078   6.686  0.7551 -0.0605  0.2372
 8600SOL    HW137259   4.486   4.010   6.691 -1.3760  1.9142 -1.0945
 8600SOL    HW237260   4.636   4.030   6.684  1.3390  0.8816  1.5283
 8601SOL     OW37261   0.647   4.539  11.733  0.5180  1.0176  0.3872
 8601SOL    HW137262   0.604   4.620  11.760 -0.5470  0.9759 -1.1385
 8601SOL    HW237263   0.659   4.495  11.817  3.0262  0.0576 -0.4886
 8602SOL     OW37264   0.200   1.557   2.728 -0.0990  0.1816 -0.4535
 8602SOL    HW137265   0.208   1.536   2.635  2.0242  0.8620 -0.4282
 8602SOL    HW237266   0.180   1.650   2.717  1.2944  0.6925  1.3658
 8603SOL     OW37267   1.678   1.269  17.317  0.2475  0.1208  0.4056
 8603SOL    HW137268   1.711   1.345  17.270  0.0350  1.1652  1.9295
 8603SOL    HW237269   1.672   1.319  17.399  0.0896 -0.8353  0.9868
 8604SOL     OW37270   0.525   1.339  14.974  0.0041  0.1456 -0.0872
 8604SOL    HW137271   0.492   1.325  14.885 -2.2429  1.7687  0.5052
 8604SOL    HW237272   0.563   1.253  14.994 -1.9063 -1.2276 -2.2854
 8605SOL     OW37273   3.937   2.456  15.348 -0.4236  0.3604  0.1578
 8605SOL    HW137274   3.952   2.520  15.278  0.1654  0.8431  0.7319
 8605SOL    HW237275   4.027   2.430  15.367 -0.0634  0.8316 -0.8894
 8606SOL     OW37276   0.109   4.396  13.605 -0.7827 -0.3365  0.3795
 8606SOL    HW137277   0.035   4.381  13.664  0.0025 -0.2205  1.3984
 8606SOL    HW237278   0.066   4.423  13.524 -0.9668 -1.7551 -0.0079
 8607SOL     OW37279   4.126   1.053   7.706 -0.6181  0.2486 -0.2396
 8607SOL    HW137280   4.114   1.006   7.624  0.7347  1.5668 -1.1724
 8607SOL    HW237281   4.221   1.048   7.700 -0.6136  0.5445 -0.3910
 8608SOL     OW37282   2.443   4.477  16.254  0.1119 -0.1322  0.2987
 8608SOL    HW137283   2.351   4.482  16.228  0.7995 -0.3278 -2.1654
 8608SOL    HW237284   2.444   4.465  16.349  2.8054  0.0521  0.2910
 8609SOL     OW37285   0.425   0.031   4.266 -0.2395  0.4719 -0.2564
 8609SOL    HW137286   0.390   4.677   4.226  0.5691  0.6770 -1.3878
 8609SOL    HW237287   0.498   4.707   4.303  0.9053  2.5911  0.3415
 8610SOL     OW37288   2.981   3.331   4.144  0.0361 -0.3660  0.1058
 8610SOL    HW137289   2.953   3.344   4.235 -1.2171 -0.7170 -0.2402
 8610SOL    HW237290   3.019   3.244   4.156  2.0273  0.4526 -0.2876
 8611SOL     OW37291   2.831   1.051   5.179 -0.4401  0.4787 -0.2144
 8611SOL    HW137292   2.845   0.956   5.183  0.3344  0.4517 -3.7124
 8611SOL    HW237293   2.769   1.063   5.108  2.4196  0.4161 -2.7058
 8612SOL     OW37294   2.565   0.449  11.151  0.1378  0.0986  0.1358
 8612SOL    HW137295   2.658   0.471  11.152  0.3845 -0.8819 -1.4310
 8612SOL    HW237296   2.570   0.354  11.161  1.9450  0.2950  1.0520
 8613SOL     OW37297   3.957   3.517   8.107  0.0732  0.3282 -0.1420
 8613SOL    HW137298   4.031   3.457   8.098  0.2802  0.5252  0.2175
 8613SOL    HW237299   3.890   3.456   8.139 -0.4511  1.6345  1.2724
 8614SOL     OW37300   4.694   4.432   4.556 -0.2272 -0.0153 -0.2753
 8614SOL    HW137301   4.650   4.467   4.478 -1.3404  1.4397  1.0201
 8614SOL    HW237302   4.637   4.363   4.591 -1.8255  1.9377  0.9744
 8615SOL     OW37303   1.818   0.578   6.114 -0.6974  0.5184 -0.7355
 8615SOL    HW137304   1.794   0.486   6.100  1.0389 -0.3037  1.7604
 8615SOL    HW237305   1.751   0.597   6.179  0.5472 -0.6958  0.9049
 8616SOL     OW37306   3.487   2.036   7.839  0.1264 -0.7282 -0.0688
 8616SOL    HW137307   3.487   2.130   7.818  0.2740 -0.9519 -1.0762
 8616SOL    HW237308   3.485   2.036   7.934 -0.4142  0.0519 -0.0722
 8617SOL     OW37309   2.758   0.751  10.046 -0.8171 -0.1057 -0.3673
 8617SOL    HW137310   2.750   0.714  10.134 -0.6940 -1.2699 -0.8493
 8617SOL    HW237311   2.833   0.700  10.018  0.4407  0.7641  1.3628
 8618SOL     OW37312   1.041   0.740  14.294  0.2005 -0.3547  0.3232
 8618SOL    HW137313   1.116   0.730  14.236  0.7932  0.7163  0.9025
 8618SOL    HW237314   0.989   0.813  14.260 -1.2595 -0.3696  2.4982
 8619SOL     OW37315   3.117   1.753   0.748 -0.1619 -0.0264 -0.7057
 8619SOL    HW137316   3.027   1.784   0.746 -0.4621 -0.9289 -0.9895
 8619SOL    HW237317   3.114   1.675   0.694 -0.0432 -0.8592  0.4903
 8620SOL     OW37318   1.349   3.134   6.914  0.2849  0.9856  0.3768
 8620SOL    HW137319   1.369   3.226   6.932  1.2537  1.2407 -2.0045
 8620SOL    HW237320   1.258   3.136   6.884  0.7264 -0.1299 -1.0014
 8621SOL     OW37321   1.642   3.066   9.526 -0.4337  0.3179 -0.0248
 8621SOL    HW137322   1.721   3.060   9.472  1.0661  0.6875  2.1192
 8621SOL    HW237323   1.591   3.002   9.477  0.6849  0.0599 -0.8583
 8622SOL     OW37324   2.462   1.002   8.629  0.0116  0.8538 -0.6006
 8622SOL    HW137325   2.441   0.910   8.615  0.4767  0.3434  2.1455
 8622SOL    HW237326   2.552   0.995   8.597 -0.2208  1.2265 -1.3377
 8623SOL     OW37327   1.642   4.047  12.994 -0.6198 -0.4550  0.0114
 8623SOL    HW137328   1.716   4.000  12.956 -2.0925 -3.1932  0.5017
 8623SOL    HW237329   1.657   4.138  12.969  3.8314 -1.0616  0.5121
 8624SOL     OW37330   4.230   0.334   5.201  0.0743  0.4064  0.0894
 8624SOL    HW137331   4.224   0.252   5.153  0.9473  1.3987 -1.7040
 8624SOL    HW237332   4.140   0.360   5.181  0.2790  0.1255 -1.1864
 8625SOL     OW37333   3.257   3.692   4.054  0.4702 -0.5063  0.1069
 8625SOL    HW137334   3.292   3.635   4.123  0.5929  0.3676  0.7580
 8625SOL    HW237335   3.279   3.650   3.971 -0.4713  2.5030 -1.6591
 8626SOL     OW37336   1.467   3.427  12.517  0.1332  0.6699 -0.4204
 8626SOL    HW137337   1.488   3.493  12.583 -0.1316 -0.7540  1.0927
 8626SOL    HW237338   1.512   3.350  12.553 -2.9069 -0.1988  1.5934
 8627SOL     OW37339   1.958   4.373  13.790 -0.4382 -0.1469  0.7119
 8627SOL    HW137340   1.924   4.456  13.757 -0.2677 -0.6899 -0.8465
 8627SOL    HW237341   1.960   4.317  13.712  0.4511  0.5375  0.2441
 8628SOL     OW37342   3.031   0.698  16.796  0.3501 -0.2792  0.2697
 8628SOL    HW137343   3.052   0.616  16.751 -1.2511 -1.3809  1.5539
 8628SOL    HW237344   2.956   0.722  16.741  1.6185  0.8786 -0.9559
 8629SOL     OW37345   2.023   0.047   5.571 -0.0403 -0.5597 -0.5228
 8629SOL    HW137346   2.099   0.048   5.512 -0.1260  0.7774 -0.6110
 8629SOL    HW237347   1.972   4.706   5.524 -0.2106 -1.2977  0.7318
 8630SOL     OW37348   0.255   2.816   4.467  0.3688  0.1861  0.1457
 8630SOL    HW137349   0.255   2.815   4.563 -1.4147  1.0503  0.1546
 8630SOL    HW237350   0.328   2.755   4.456 -0.2666 -0.7286  1.1033
 8631SOL     OW37351   0.283   4.331  12.018  0.5171 -0.4007 -0.0025
 8631SOL    HW137352   0.264   4.276  11.942  1.0403  0.1835 -0.5632
 8631SOL    HW237353   0.225   4.291  12.083  1.5822  2.4279  2.6826
 8632SOL     OW37354   1.013   3.500   2.862 -0.4793 -0.2299  0.2827
 8632SOL    HW137355   1.059   3.582   2.881  0.9876 -0.7904 -0.9150
 8632SOL    HW237356   1.057   3.463   2.786  1.1548 -1.1773  1.6963
 8633SOL     OW37357   3.441   1.583   3.172  0.2548  0.1539 -0.5689
 8633SOL    HW137358   3.346   1.583   3.164  0.1151  0.2980  1.1217
 8633SOL    HW237359   3.445   1.499   3.219  0.5806  1.3618  1.5864
 8634SOL     OW37360   2.094   2.707   7.469  0.0094 -0.4264  0.8204
 8634SOL    HW137361   2.151   2.746   7.403 -0.5693  1.9362  1.7167
 8634SOL    HW237362   2.061   2.633   7.418 -1.3836  0.9539 -0.2756
 8635SOL     OW37363   3.257   0.651   5.572  0.1992 -0.0049 -0.1379
 8635SOL    HW137364   3.201   0.582   5.608 -0.4373  0.3562 -0.4348
 8635SOL    HW237365   3.343   0.613   5.588  0.6278  1.1216  0.2475
 8636SOL     OW37366   4.398   0.998   5.020  0.0605  0.2461  0.8213
 8636SOL    HW137367   4.479   0.967   5.061 -0.1247 -1.9965 -0.4936
 8636SOL    HW237368   4.342   1.027   5.092  0.6433  0.9108  1.0157
 8637SOL     OW37369   1.262   1.249   8.555  0.2179 -0.2909 -0.7458
 8637SOL    HW137370   1.249   1.179   8.620  0.4883  0.2986 -0.0599
 8637SOL    HW237371   1.292   1.326   8.604  0.9651 -0.9478 -0.1611
 8638SOL     OW37372   1.481   4.026   9.392  0.3903  0.0709  1.0775
 8638SOL    HW137373   1.476   3.950   9.449  3.0325 -1.9930 -1.4966
 8638SOL    HW237374   1.556   4.010   9.336  0.7123  0.2030  1.4738
 8639SOL     OW37375   0.796   2.979  10.756 -0.4958  0.6629 -0.2576
 8639SOL    HW137376   0.811   3.061  10.708  1.1898  0.5696  0.1081
 8639SOL    HW237377   0.833   2.920  10.690  0.6842  2.0667 -0.8697
 8640SOL     OW37378   4.670   3.634   8.532 -0.0222  0.0228  0.3393
 8640SOL    HW137379   4.705   3.707   8.480  0.0300 -1.0745 -1.1539
 8640SOL    HW237380   0.023   3.581   8.542  0.4983  0.4607 -1.3897
 8641SOL     OW37381   2.567   0.689   7.740 -0.0435  0.0290 -0.1152
 8641SOL    HW137382   2.629   0.761   7.731  0.6058 -0.5175 -0.0434
 8641SOL    HW237383   2.504   0.736   7.794  1.4019  0.9169  0.8004
 8642SOL     OW37384   1.265   3.943   1.698  0.1185  0.0766  0.0705
 8642SOL    HW137385   1.235   3.902   1.616 -1.1710  0.3245  0.4243
 8642SOL    HW237386   1.252   4.037   1.687  0.4430 -0.1307 -2.2151
 8643SOL     OW37387   0.367   2.622   3.529  0.0553  0.4037  0.0948
 8643SOL    HW137388   0.443   2.603   3.475  0.7006  1.3065  0.6810
 8643SOL    HW237389   0.302   2.610   3.459  0.2575  1.0769 -0.2024
 8644SOL     OW37390   1.390   2.200   7.024 -0.1633 -0.3310  0.0641
 8644SOL    HW137391   1.409   2.228   7.113  1.1442 -1.9785  0.3077
 8644SOL    HW237392   1.427   2.264   6.963 -0.4347 -0.6911 -0.4795
 8645SOL     OW37393   0.241   1.485   3.014  0.0576  0.5335 -0.0921
 8645SOL    HW137394   0.278   1.474   2.926  0.6789  1.1288  0.1004
 8645SOL    HW237395   0.180   1.411   3.021  2.3170 -1.2120  1.1563
 8646SOL     OW37396   3.125   3.255  17.473 -0.5402 -0.0613  0.2033
 8646SOL    HW137397   3.057   3.188  17.478 -0.1855 -0.4214  0.2033
 8646SOL    HW237398   3.171   3.241  17.556 -1.0413 -0.6958  0.3696
 8647SOL     OW37399   3.758   3.593   2.846  0.3121 -0.7347 -0.0212
 8647SOL    HW137400   3.699   3.559   2.914 -0.3178  1.6598  0.6227
 8647SOL    HW237401   3.842   3.558   2.876 -0.3718 -2.4494 -0.0974
 8648SOL     OW37402   1.065   1.366   1.920  0.3153  0.6410 -0.3423
 8648SOL    HW137403   1.031   1.324   1.841 -0.6872 -2.1835  1.5638
 8648SOL    HW237404   1.099   1.290   1.967 -0.5009  1.3771  1.4554
 8649SOL     OW37405   1.843   4.178   6.550 -0.3409  0.3979  0.3130
 8649SOL    HW137406   1.765   4.154   6.601 -0.0113  1.5361  1.3574
 8649SOL    HW237407   1.883   4.238   6.613  2.8198 -0.5544 -0.8299
 8650SOL     OW37408   1.911   1.689   4.318 -0.2701  0.8650 -0.4655
 8650SOL    HW137409   1.931   1.774   4.358 -0.4886  0.4531  0.5094
 8650SOL    HW237410   1.865   1.649   4.392 -0.7436  1.3940 -0.4775
 8651SOL     OW37411   3.029   3.300   4.811  0.7965  0.4492  0.0899
 8651SOL    HW137412   3.043   3.255   4.727  1.4109 -1.8662  1.4240
 8651SOL    HW237413   2.947   3.347   4.796 -0.1480 -0.9929  0.7032
 8652SOL     OW37414   3.901   3.294  17.276 -0.2635 -0.4112 -0.2206
 8652SOL    HW137415   3.907   3.218  17.218 -0.2938  1.3261 -2.5147
 8652SOL    HW237416   3.813   3.328  17.260 -0.4606 -1.0576 -0.5172
 8653SOL     OW37417   3.911   3.256  15.139 -0.2122 -0.0328 -0.3065
 8653SOL    HW137418   3.998   3.270  15.101  0.1796 -0.0966  0.5698
 8653SOL    HW237419   3.860   3.324  15.095 -0.2970 -0.5638 -1.0188
 8654SOL     OW37420   1.592   0.645   3.467  0.3268 -0.1419  0.4024
 8654SOL    HW137421   1.568   0.626   3.377  2.4346 -0.1805 -0.1421
 8654SOL    HW237422   1.681   0.677   3.453  1.5491 -4.2319 -0.9743
 8655SOL     OW37423   2.684   1.384   4.052  0.0852 -0.2818  0.6395
 8655SOL    HW137424   2.778   1.388   4.068 -0.1796  0.7085  1.9005
 8655SOL    HW237425   2.653   1.380   4.142 -2.9723  2.6586 -0.2807
 8656SOL     OW37426   3.463   4.529   7.174 -0.2547  0.3336 -0.2690
 8656SOL    HW137427   3.557   4.550   7.179 -0.2126  0.0536  0.0723
 8656SOL    HW237428   3.431   4.619   7.179  0.8613  0.7957 -1.3741
 8657SOL     OW37429   3.379   4.460  17.218 -0.1385 -0.8129  0.1128
 8657SOL    HW137430   3.398   4.429  17.129  0.6643 -1.3310  0.4643
 8657SOL    HW237431   3.355   4.552  17.212 -0.6284 -0.9804 -0.4585
 8658SOL     OW37432   1.148   0.173   3.748 -0.3767  0.2327 -0.6484
 8658SOL    HW137433   1.058   0.182   3.777 -0.1839 -0.1178  0.0439
 8658SOL    HW237434   1.131   0.150   3.657 -4.6032 -0.1418  0.2430
 8659SOL     OW37435   3.319   4.170   7.618  0.0117 -0.0383 -0.8187
 8659SOL    HW137436   3.338   4.101   7.555  1.0492 -1.0494  0.6226
 8659SOL    HW237437   3.360   4.129   7.693  2.0300 -0.6445 -2.2423
 8660SOL     OW37438   4.052   3.997   3.909  0.5012  0.3240  0.2876
 8660SOL    HW137439   4.043   4.061   3.979 -1.9290 -1.2922  1.4694
 8660SOL    HW237440   4.031   4.040   3.826 -1.4911  0.7247  1.0088
 8661SOL     OW37441   2.333   0.918   8.355 -0.2149  0.1179 -0.5610
 8661SOL    HW137442   2.426   0.914   8.332  0.0024  0.8068  0.2065
 8661SOL    HW237443   2.334   0.828   8.387  1.3925  0.2898 -0.1201
 8662SOL     OW37444   2.848   2.407   9.266  0.2382  0.0836  0.1940
 8662SOL    HW137445   2.864   2.487   9.316 -0.7456  0.2814  0.1817
 8662SOL    HW237446   2.908   2.343   9.305 -2.4233 -1.9508  0.9153
 8663SOL     OW37447   0.817   4.275   9.432 -0.1492 -0.2676 -0.2556
 8663SOL    HW137448   0.787   4.361   9.462 -1.8294 -0.3493 -1.7332
 8663SOL    HW237449   0.837   4.232   9.515  3.3263  2.0253  0.1310
 8664SOL     OW37450   4.692   1.319   4.083  0.3967 -0.0411 -0.6173
 8664SOL    HW137451   4.705   1.259   4.157 -2.1880  1.6012  1.1597
 8664SOL    HW237452   4.600   1.301   4.070  0.2169  0.5247 -0.1618
 8665SOL     OW37453   0.678   0.383  12.665 -0.2543  0.3332  0.0606
 8665SOL    HW137454   0.759   0.342  12.694  0.9869  2.2811 -0.6436
 8665SOL    HW237455   0.691   0.363  12.572 -0.3744 -0.5350  0.2290
 8666SOL     OW37456   3.935   2.608   6.156 -0.3559  0.1691  0.2370
 8666SOL    HW137457   3.858   2.665   6.154  0.6062  1.5066  1.0391
 8666SOL    HW237458   3.907   2.552   6.084 -1.4786  1.9989 -0.7591
 8667SOL     OW37459   3.675   1.977  14.929 -0.6333  0.0759 -1.2235
 8667SOL    HW137460   3.683   2.058  14.879 -1.4825  0.7458 -0.2673
 8667SOL    HW237461   3.739   1.921  14.885 -0.4949 -1.9677  1.5453
 8668SOL     OW37462   1.651   1.899   9.966  0.2334  0.3703 -0.3548
 8668SOL    HW137463   1.734   1.909  10.013  0.3982 -1.9637 -0.1801
 8668SOL    HW237464   1.591   1.869  10.034 -0.1509 -0.8657 -1.2376
 8669SOL     OW37465   2.056   3.945  11.219 -0.3539  0.0849 -0.4675
 8669SOL    HW137466   2.121   3.936  11.288 -2.2669  0.6906  1.4037
 8669SOL    HW237467   1.975   3.938  11.269  0.6436 -1.1923  0.9679
 8670SOL     OW37468   3.932   1.273  16.148  0.8377 -0.2801  0.6248
 8670SOL    HW137469   3.857   1.288  16.206 -0.3025  1.6046 -1.3559
 8670SOL    HW237470   3.902   1.190  16.112 -1.3528  1.1305 -0.7856
 8671SOL     OW37471   3.616   1.165   5.136 -0.3193 -0.7214  0.1342
 8671SOL    HW137472   3.632   1.185   5.044  1.3945 -0.0087  0.5847
 8671SOL    HW237473   3.522   1.152   5.147 -0.3499 -0.8121 -0.2388
 8672SOL     OW37474   3.555   2.480   2.111  0.4673 -0.1883 -0.2340
 8672SOL    HW137475   3.537   2.414   2.044 -1.3255  3.0277 -2.9282
 8672SOL    HW237476   3.576   2.430   2.190 -1.4176  0.3818  0.6289
 8673SOL     OW37477   3.257   1.601   0.403 -0.0008 -0.1095 -0.0326
 8673SOL    HW137478   3.265   1.539   0.331  2.4586  1.3850 -1.0521
 8673SOL    HW237479   3.239   1.688   0.366 -1.2241 -0.1916  0.3754
 8674SOL     OW37480   3.976   3.990   4.727  0.3937  0.2804 -0.3972
 8674SOL    HW137481   3.970   4.082   4.701  0.7838  0.0430 -1.3257
 8674SOL    HW237482   3.945   3.946   4.647 -1.5041 -1.8999  1.5351
 8675SOL     OW37483   0.517   1.724   3.046 -0.1415  0.1211 -0.1172
 8675SOL    HW137484   0.503   1.643   3.094 -1.9206 -0.2754 -1.2964
 8675SOL    HW237485   0.453   1.782   3.087 -0.6220 -1.3559  1.2186
 8676SOL     OW37486   1.230   3.435   7.747 -0.0480  0.0918  0.5952
 8676SOL    HW137487   1.277   3.402   7.670 -1.0107  1.0164 -0.3883
 8676SOL    HW237488   1.194   3.520   7.722 -1.1292 -0.5156  0.0712
 8677SOL     OW37489   0.537   4.283  11.035  0.1208 -0.1331  0.1567
 8677SOL    HW137490   0.568   4.321  11.117 -0.7817  3.0257 -0.9803
 8677SOL    HW237491   0.621   4.257  10.997  0.0516 -0.2189  0.0631
 8678SOL     OW37492   4.248   3.248  14.388 -0.2105 -1.1082 -0.5709
 8678SOL    HW137493   4.237   3.300  14.309 -2.1895 -0.6110  0.0337
 8678SOL    HW237494   4.159   3.231  14.418 -1.0054  0.7997 -1.9168
 8679SOL     OW37495   0.813   0.361   7.699 -0.0884 -0.6865 -0.0695
 8679SOL    HW137496   0.880   0.310   7.653  2.2124 -0.2831  2.9062
 8679SOL    HW237497   0.744   0.296   7.708 -1.2718  0.3989 -1.2194
 8680SOL     OW37498   2.837   0.294  15.556 -0.0523 -0.1640  0.0560
 8680SOL    HW137499   2.908   0.232  15.539 -2.0986 -2.7485  0.9652
 8680SOL    HW237500   2.888   0.358  15.606 -1.6667  0.9033  0.3464
 8681SOL     OW37501   2.619   0.147  15.599 -0.0379  0.0569  0.1432
 8681SOL    HW137502   2.681   0.219  15.589  1.6671 -1.1334  2.2442
 8681SOL    HW237503   2.630   0.115  15.688  0.2011  1.3329  0.5734
 8682SOL     OW37504   4.593   2.699   2.475 -0.3102 -0.4013  0.0922
 8682SOL    HW137505   4.629   2.782   2.443 -1.5638 -0.1729 -0.7168
 8682SOL    HW237506   4.671   2.643   2.487 -0.4765 -0.8268 -0.7932
 8683SOL     OW37507   4.531   0.599   5.777 -0.7355  0.1805 -0.4719
 8683SOL    HW137508   4.489   0.530   5.828  0.4744 -0.3398 -0.1781
 8683SOL    HW237509   4.480   0.600   5.696  0.7511  1.6550 -1.3844
 8684SOL     OW37510   2.557   0.601  13.673 -0.0978 -0.3217  0.3098
 8684SOL    HW137511   2.566   0.565  13.585 -5.4219 -0.8305  0.0251
 8684SOL    HW237512   2.470   0.640  13.673 -0.0297 -0.1707  1.2114
 8685SOL     OW37513   0.178   1.117   6.566 -0.3269  0.3025  0.1588
 8685SOL    HW137514   0.232   1.177   6.515 -1.6864  2.3330  1.1036
 8685SOL    HW237515   0.138   1.185   6.621 -0.8182 -0.1940  0.4223
 8686SOL     OW37516   4.103   2.799   2.518  0.2692  0.2249 -0.5345
 8686SOL    HW137517   4.094   2.774   2.609  0.3087 -0.5040 -0.7338
 8686SOL    HW237518   4.185   2.848   2.521 -0.3340  1.1245  1.1611
 8687SOL     OW37519   4.085   3.357   8.370 -0.5611 -0.5491 -0.3927
 8687SOL    HW137520   4.129   3.299   8.432  0.9775  2.5585  1.4277
 8687SOL    HW237521   4.124   3.331   8.286 -0.7181 -1.2279 -0.2534
 8688SOL     OW37522   3.188   0.768   3.494 -0.1684  0.1329 -0.0987
 8688SOL    HW137523   3.101   0.777   3.534 -0.1509  1.6678 -0.3733
 8688SOL    HW237524   3.241   0.731   3.565  1.1744  2.9457  0.3766
 8689SOL     OW37525   3.534   1.049   9.533 -0.1647 -0.1425 -0.3791
 8689SOL    HW137526   3.590   1.126   9.524  0.7921 -0.9299 -1.0994
 8689SOL    HW237527   3.570   1.031   9.620  0.9975 -1.3699 -1.1207
 8690SOL     OW37528   3.152   0.631   7.275  0.0950 -0.3042  0.5765
 8690SOL    HW137529   3.237   0.657   7.239 -0.5305  1.4440  0.3608
 8690SOL    HW237530   3.116   0.572   7.210 -0.9910 -0.6405  1.4812
 8691SOL     OW37531   4.020   1.023  13.646  0.5669 -0.1860  0.1549
 8691SOL    HW137532   3.968   0.943  13.640 -1.2492  1.1395 -1.5087
 8691SOL    HW237533   3.959   1.077  13.696  1.9419  0.6204  0.9763
 8692SOL     OW37534   3.613   0.442   4.272 -0.1683  0.7847 -0.3649
 8692SOL    HW137535   3.632   0.493   4.193 -0.2594 -1.5828 -1.9267
 8692SOL    HW237536   3.694   0.452   4.321  0.2752 -0.3102 -0.8786
 8693SOL     OW37537   1.555   0.286   5.945  0.0428 -0.3106  0.3494
 8693SOL    HW137538   1.511   0.363   5.981 -0.4366  0.0408 -0.9932
 8693SOL    HW237539   1.535   0.294   5.852  0.7227 -0.6534  0.1681
 8694SOL     OW37540   3.550   2.330   8.608 -0.1884  0.9986 -0.5259
 8694SOL    HW137541   3.611   2.279   8.554  0.2980 -0.1011  1.0399
 8694SOL    HW237542   3.586   2.419   8.612  0.4379  0.7415 -0.4364
 8695SOL     OW37543   3.642   0.168  15.093 -0.3536 -0.0735 -0.0260
 8695SOL    HW137544   3.570   0.200  15.147 -0.6680 -0.1621 -0.3940
 8695SOL    HW237545   3.692   0.246  15.069  1.1447 -0.6226  1.2681
 8696SOL     OW37546   0.414   1.408   6.816 -0.8481 -0.6214  0.3277
 8696SOL    HW137547   0.322   1.435   6.825 -0.6271  0.0894  0.4157
 8696SOL    HW237548   0.424   1.358   6.735  1.7150 -1.9910  1.5014
 8697SOL     OW37549   0.011   0.829   6.392 -0.0993 -0.0923  0.1138
 8697SOL    HW137550   4.712   0.749   6.347 -0.8641  0.3967 -0.3307
 8697SOL    HW237551   0.069   0.868   6.325 -1.0438  1.6813  0.3215
 8698SOL     OW37552   4.575   3.745   3.742 -0.9756 -0.2172 -0.2383
 8698SOL    HW137553   4.646   3.701   3.788 -2.6598  0.3871  2.9632
 8698SOL    HW237554   4.574   3.837   3.771 -2.8569 -0.0721 -0.7577
 8699SOL     OW37555   2.142   0.116   3.349 -0.2230 -0.1132  0.0402
 8699SOL    HW137556   2.085   0.085   3.420  0.7659 -1.5186  0.2274
 8699SOL    HW237557   2.222   0.133   3.398  0.2864  1.6775 -1.4559
 8700SOL     OW37558   0.075   0.720   5.307 -0.1892  0.1629 -0.1901
 8700SOL    HW137559   0.150   0.778   5.295  0.7880 -1.2052 -0.6931
 8700SOL    HW237560   0.024   0.771   5.370 -2.2997 -0.2845 -1.5264
 8701SOL     OW37561   1.854   0.119   4.316 -0.1181 -0.2780 -0.0609
 8701SOL    HW137562   1.774   0.152   4.274 -2.3106 -2.3205  2.5801
 8701SOL    HW237563   1.894   0.206   4.318  1.8290 -1.1532 -0.7682
 8702SOL     OW37564   4.584   2.184   2.831 -0.2563 -0.5908  0.1795
 8702SOL    HW137565   4.529   2.158   2.757 -0.8171  0.2052  0.3156
 8702SOL    HW237566   4.565   2.277   2.844 -1.9642 -0.9170 -0.0416
 8703SOL     OW37567   4.090   3.905  14.301 -0.0746  0.4854 -0.2203
 8703SOL    HW137568   4.015   3.853  14.329 -0.5276  2.1545  1.6507
 8703SOL    HW237569   4.161   3.848  14.331  0.1202  1.6469  1.5132
 8704SOL     OW37570   4.620   1.854   7.936  0.2810 -0.8290 -0.0635
 8704SOL    HW137571   4.656   1.797   8.003  1.0857  0.3397  0.4885
 8704SOL    HW237572   4.582   1.917   7.996  0.8826  3.0557 -3.7503
 8705SOL     OW37573   1.688   4.473  13.908  0.4979 -0.5029  0.1043
 8705SOL    HW137574   1.731   4.504  13.829  1.2723 -0.1271  0.6654
 8705SOL    HW237575   1.760   4.458  13.970  1.2322  0.4422 -0.5331
 8706SOL     OW37576   1.701   1.694   6.789  0.1404  0.4776 -0.4353
 8706SOL    HW137577   1.786   1.737   6.787 -0.0297  0.9994  3.4871
 8706SOL    HW237578   1.725   1.607   6.757  1.2489  1.5477 -2.4963
 8707SOL     OW37579   4.001   3.130   5.080  0.1560 -0.1347  0.4987
 8707SOL    HW137580   4.038   3.161   5.163  2.7805  1.3625 -1.2520
 8707SOL    HW237581   3.939   3.202   5.073  0.6161  0.2648  0.5197
 8708SOL     OW37582   2.552   1.283   5.772  0.3981  0.4569  0.1727
 8708SOL    HW137583   2.511   1.296   5.858 -1.5212 -0.5001 -0.5803
 8708SOL    HW237584   2.637   1.245   5.790 -0.3191 -1.4952 -0.5871
 8709SOL     OW37585   0.011   2.622   4.497  0.9722 -0.0846 -0.1049
 8709SOL    HW137586   0.093   2.586   4.462  0.0614 -1.0728 -1.2381
 8709SOL    HW237587   0.013   2.714   4.474 -1.2331 -0.5368 -2.0905
 8710SOL     OW37588   3.581   2.337   5.792 -0.4428 -0.0692  0.3838
 8710SOL    HW137589   3.595   2.427   5.821  0.9422 -0.3892  0.7307
 8710SOL    HW237590   3.487   2.332   5.810 -0.5289  1.6402  0.3400
 8711SOL     OW37591   0.052   0.751   2.951 -0.0631 -0.3850 -0.3170
 8711SOL    HW137592   0.028   0.842   2.968  1.9289 -0.1017  1.0222
 8711SOL    HW237593   0.042   0.752   2.856  0.9114 -0.2504 -0.4198
 8712SOL     OW37594   3.841   3.852   6.050 -0.1978  0.1993  0.3165
 8712SOL    HW137595   3.776   3.868   5.981 -1.5740  0.4390  1.6630
 8712SOL    HW237596   3.797   3.790   6.109 -0.2525 -0.4471 -0.3974
 8713SOL     OW37597   2.299   2.063   8.888  0.0339 -0.1063 -0.1674
 8713SOL    HW137598   2.209   2.091   8.869  0.0397  0.2888  0.3543
 8713SOL    HW237599   2.310   2.079   8.982  1.1140  1.3782 -0.5467
 8714SOL     OW37600   0.560   1.884   3.508  0.1845  0.0614  0.6667
 8714SOL    HW137601   0.625   1.881   3.437 -0.8722  0.3900 -0.3150
 8714SOL    HW237602   0.486   1.935   3.477  0.6889  0.9944  1.0084
 8715SOL     OW37603   1.032   2.465   7.079 -0.5961 -0.5886 -0.0571
 8715SOL    HW137604   1.067   2.381   7.049  1.0528 -0.2883  0.9722
 8715SOL    HW237605   1.003   2.500   6.995  1.4560  0.0901 -0.4948
 8716SOL     OW37606   2.468   2.266   2.522 -0.5583  0.3855 -0.7003
 8716SOL    HW137607   2.422   2.348   2.504 -1.4185  0.0300 -0.0974
 8716SOL    HW237608   2.408   2.202   2.561  0.1654  0.7376  1.0203
 8717SOL     OW37609   1.130   2.922  10.525 -0.0143  0.4953 -0.2793
 8717SOL    HW137610   1.143   2.904  10.432 -0.7491  0.0742 -0.2980
 8717SOL    HW237611   1.035   2.914  10.537  0.0538  0.9720  0.5956
 8718SOL     OW37612   4.406   4.284   6.770 -0.1766 -0.5319 -0.7889
 8718SOL    HW137613   4.338   4.234   6.815 -1.0390  1.7349  0.4122
 8718SOL    HW237614   4.468   4.217   6.741  1.6399  1.0587 -0.5880
 8719SOL     OW37615   3.861   4.598   9.940 -0.3549 -0.4592  0.3099
 8719SOL    HW137616   3.805   4.520   9.945 -0.3898 -0.5777 -1.6307
 8719SOL    HW237617   3.933   4.571   9.996  0.5773 -1.9476 -1.5960
 8720SOL     OW37618   3.046   0.842   8.746 -0.2982 -0.0046  0.5234
 8720SOL    HW137619   3.120   0.878   8.797  1.1300 -3.3507  0.8166
 8720SOL    HW237620   2.993   0.921   8.757  3.1541  2.1983  1.3517
 8721SOL     OW37621   1.018   4.673   3.934  0.5329 -0.0993 -0.0630
 8721SOL    HW137622   0.935   4.626   3.946  0.1107  0.3740 -1.1164
 8721SOL    HW237623   0.996   0.019   3.875 -0.6158 -0.9828 -0.7286
 8722SOL     OW37624   3.383   2.403   5.165 -0.4914 -0.0339  0.0448
 8722SOL    HW137625   3.305   2.431   5.214  0.3703  1.0994  0.7771
 8722SOL    HW237626   3.450   2.458   5.205  2.7099 -1.6733 -3.1269
 8723SOL     OW37627   1.426   3.875  15.271  0.2156  0.1780 -0.4382
 8723SOL    HW137628   1.406   3.811  15.203 -0.4350  0.3145 -0.3837
 8723SOL    HW237629   1.430   3.818  15.348  1.8845  0.1369 -0.5546
 8724SOL     OW37630   3.857   0.367   1.944 -0.5164  0.2719 -0.1748
 8724SOL    HW137631   3.917   0.304   1.985 -0.0209  0.8010 -0.0875
 8724SOL    HW237632   3.769   0.338   1.968  0.9335 -1.4545  3.1809
 8725SOL     OW37633   0.869   0.274  17.578 -0.2679 -0.0482 -0.0097
 8725SOL    HW137634   0.832   0.360  17.600  0.4930  0.2718  0.0100
 8725SOL    HW237635   0.961   0.297  17.588  0.2604 -2.5930  0.9134
 8726SOL     OW37636   2.629   4.689   0.458 -0.0690  0.0889 -0.2430
 8726SOL    HW137637   2.702   4.632   0.483 -0.8805  0.2548  2.4760
 8726SOL    HW237638   2.652   4.717   0.369  3.7311  0.9060  0.9718
 8727SOL     OW37639   2.981   1.250   0.508 -0.0109  0.7146 -0.1881
 8727SOL    HW137640   3.037   1.309   0.560 -0.8459  0.2328  1.2451
 8727SOL    HW237641   3.016   1.165   0.534 -1.4634 -0.1009 -0.9678
 8728SOL     OW37642   1.417   1.330  16.418 -0.1027  0.1367 -0.4244
 8728SOL    HW137643   1.473   1.364  16.488  0.6171 -1.3028 -0.2906
 8728SOL    HW237644   1.351   1.399  16.423 -0.0356  0.1716  0.0577
 8729SOL     OW37645   2.480   0.534   2.333 -0.2318 -0.1934  0.5946
 8729SOL    HW137646   2.520   0.515   2.418  0.7082  1.6338  0.5727
 8729SOL    HW237647   2.491   0.624   2.301  0.7402 -0.0215  1.3983
 8730SOL     OW37648   1.761   4.120   7.317  0.0277  0.6751  0.1834
 8730SOL    HW137649   1.686   4.123   7.376  0.1718 -4.4243  0.6366
 8730SOL    HW237650   1.829   4.136   7.382 -2.0564  3.1801  1.7447
 8731SOL     OW37651   0.280   2.655   8.281  0.2396 -0.0544 -0.6960
 8731SOL    HW137652   0.287   2.694   8.194  0.5406 -1.2027 -1.1835
 8731SOL    HW237653   0.341   2.582   8.271 -2.4556 -2.3363 -0.4889
 8732SOL     OW37654   0.110   4.575   3.202 -0.0845 -0.3112 -0.1615
 8732SOL    HW137655   0.172   4.626   3.151  1.1564 -3.3016 -1.6362
 8732SOL    HW237656   0.176   4.539   3.262 -1.9613  0.5436  2.4339
 8733SOL     OW37657   0.419   0.556   3.512  0.0732  0.2398  0.5488
 8733SOL    HW137658   0.440   0.491   3.579 -2.9174  0.9298  2.1203
 8733SOL    HW237659   0.500   0.607   3.510 -1.1285  2.1386  0.4449
 8734SOL     OW37660   1.150   3.379   8.430 -0.0865  0.5446 -0.5851
 8734SOL    HW137661   1.227   3.356   8.378  0.2920  1.9201 -0.6333
 8734SOL    HW237662   1.134   3.468   8.402  0.2396  0.7294 -0.1896
 8735SOL     OW37663   3.844   3.538   6.976  0.7657 -0.0057 -0.6089
 8735SOL    HW137664   3.843   3.626   6.938  1.5758 -0.6317 -2.0718
 8735SOL    HW237665   3.900   3.484   6.920  0.9398  0.6054 -1.0194
 8736SOL     OW37666   4.591   0.242   4.054 -0.5504 -0.0774  0.0639
 8736SOL    HW137667   4.672   0.293   4.054 -0.7492  0.2563 -2.0554
 8736SOL    HW237668   4.609   0.184   4.127 -1.4760 -2.2067 -1.3962
 8737SOL     OW37669   1.973   0.708   2.885  0.3857 -0.4094  0.3384
 8737SOL    HW137670   1.992   0.750   2.969 -1.6468  0.9760  0.1107
 8737SOL    HW237671   2.027   0.758   2.824 -0.6438  1.2807  0.8086
 8738SOL     OW37672   3.209   3.232  15.760 -0.8481  0.3250 -0.9158
 8738SOL    HW137673   3.183   3.180  15.836  2.1081  0.1113 -0.0531
 8738SOL    HW237674   3.124   3.268  15.736 -2.0952 -1.5815  0.6273
 8739SOL     OW37675   1.803   4.201  11.477 -0.1719  0.5674  0.2777
 8739SOL    HW137676   1.821   4.202  11.571 -0.6317 -1.6007  0.3877
 8739SOL    HW237677   1.860   4.129  11.451  1.4035  1.0138  2.4609
 8740SOL     OW37678   1.406   2.148   6.019  0.7108 -0.1725 -0.4294
 8740SOL    HW137679   1.407   2.096   5.938 -3.6220 -0.5752 -0.1945
 8740SOL    HW237680   1.332   2.207   6.005  1.0259 -0.1977 -2.1599
 8741SOL     OW37681   1.579   0.651   2.257  0.0294  0.0071  0.0022
 8741SOL    HW137682   1.550   0.649   2.166 -1.6676  3.1220  0.4917
 8741SOL    HW237683   1.655   0.594   2.250  0.3982  0.4501  0.3971
 8742SOL     OW37684   1.823   4.693   4.559 -0.3387 -0.1448  0.4476
 8742SOL    HW137685   1.869   0.043   4.523  0.7640 -0.0349  2.1083
 8742SOL    HW237686   1.731   4.707   4.539 -0.3692  0.7224  1.1622
 8743SOL     OW37687   3.548   1.511  10.520  0.0308 -0.2166 -0.2956
 8743SOL    HW137688   3.540   1.594  10.474 -1.3715  0.5446  1.3234
 8743SOL    HW237689   3.461   1.496  10.557  0.6002  1.0895  1.5954
 8744SOL     OW37690   2.366   4.527   7.671  0.6144 -0.7796  0.5395
 8744SOL    HW137691   2.312   4.595   7.712  1.9527 -0.1818  1.3101
 8744SOL    HW237692   2.455   4.560   7.686 -0.4333  1.5709  1.4898
 8745SOL     OW37693   0.077   1.676   3.113  0.3916 -0.9134  0.1151
 8745SOL    HW137694   0.040   1.730   3.043 -1.2038 -1.5820  0.4466
 8745SOL    HW237695   0.121   1.610   3.059  1.4611 -2.5530  2.9793
 8746SOL     OW37696   0.842   2.719   3.841  0.4245  0.3279  0.5875
 8746SOL    HW137697   0.802   2.700   3.926 -0.6173  0.9105  0.2314
 8746SOL    HW237698   0.823   2.649   3.779 -2.3344 -0.0400  1.8512
 8747SOL     OW37699   0.542   4.584   8.150 -0.2725 -0.3141  0.1167
 8747SOL    HW137700   0.562   4.677   8.134  1.3202 -0.2901  2.3059
 8747SOL    HW237701   0.477   4.599   8.218 -1.9616 -0.2597 -1.5149
 8748SOL     OW37702   3.884   1.760   1.412 -0.0522  0.3666  0.1503
 8748SOL    HW137703   3.803   1.732   1.367  0.5942  2.8607 -2.5454
 8748SOL    HW237704   3.874   1.854   1.424  1.2939  0.5476 -0.2361
 8749SOL     OW37705   1.815   1.690   4.986  0.4189  0.4867 -0.6566
 8749SOL    HW137706   1.804   1.784   4.974  1.3951  0.9818  2.4344
 8749SOL    HW237707   1.778   1.680   5.073 -0.4987  1.7197 -0.9026
 8750SOL     OW37708   2.290   2.307   3.477 -0.5201  0.1596 -0.0778
 8750SOL    HW137709   2.288   2.245   3.404  1.6869 -2.3721  2.0049
 8750SOL    HW237710   2.242   2.376   3.431 -0.2510  0.0119 -0.5787
 8751SOL     OW37711   3.097   3.417   5.564  0.1171 -0.3515 -0.3273
 8751SOL    HW137712   3.079   3.328   5.534 -2.6183  0.0686  0.1124
 8751SOL    HW237713   3.021   3.458   5.524  0.4779  0.1903 -0.4682
 8752SOL     OW37714   3.758   0.103   7.569 -0.4418  0.6973 -0.5759
 8752SOL    HW137715   3.765   0.189   7.527  0.5872  2.1201  2.5195
 8752SOL    HW237716   3.756   0.135   7.659 -0.0416  2.3421 -1.1513
 8753SOL     OW37717   3.971   4.647   7.530 -0.1847 -0.1060  0.0265
 8753SOL    HW137718   3.970   4.648   7.435 -2.6337  0.3620  0.0516
 8753SOL    HW237719   3.898   4.707   7.544 -0.8100 -0.8269 -0.1414
 8754SOL     OW37720   4.614   2.459  11.977 -0.1022  0.0204 -0.1890
 8754SOL    HW137721   4.650   2.520  12.042 -1.5762  1.6806 -0.9606
 8754SOL    HW237722   4.542   2.418  12.025  0.5863  3.2476  3.5724
 8755SOL     OW37723   4.578   3.955   2.597 -0.4957  0.0920  0.1739
 8755SOL    HW137724   4.651   3.945   2.658  0.9698  1.1292 -1.4233
 8755SOL    HW237725   4.562   4.050   2.602 -1.5525 -0.0846  0.3204
 8756SOL     OW37726   0.329   0.497  11.534 -0.3328  0.4168  1.0594
 8756SOL    HW137727   0.419   0.467  11.545 -0.5033 -0.6235 -0.3918
 8756SOL    HW237728   0.308   0.493  11.441 -1.7736  3.1342  1.2844
 8757SOL     OW37729   2.968   1.256  15.360  0.2390  0.4117 -0.3256
 8757SOL    HW137730   2.978   1.264  15.265  0.4061 -2.1906 -0.5343
 8757SOL    HW237731   3.047   1.209  15.386  0.3027 -1.6917 -4.2398
 8758SOL     OW37732   4.059   2.626   4.523  0.6389 -0.1758 -0.0620
 8758SOL    HW137733   4.063   2.700   4.583  1.0208 -1.1488  1.1054
 8758SOL    HW237734   4.093   2.662   4.441 -2.2605  0.5186 -0.9468
 8759SOL     OW37735   2.420   2.047  14.869  0.1261 -0.1152 -0.7007
 8759SOL    HW137736   2.475   1.970  14.878  0.5058  0.1057 -1.1502
 8759SOL    HW237737   2.333   2.014  14.895  0.0023  1.0665  0.3633
 8760SOL     OW37738   2.451   3.280   1.363 -0.7524  0.2765  0.0087
 8760SOL    HW137739   2.443   3.250   1.272 -0.5050  3.0666 -0.9247
 8760SOL    HW237740   2.490   3.205   1.407 -0.5379 -1.2921 -2.8380
 8761SOL     OW37741   2.488   0.542   3.459 -0.2953 -0.1779 -0.2712
 8761SOL    HW137742   2.408   0.579   3.423 -0.7848  0.1048  1.0884
 8761SOL    HW237743   2.520   0.483   3.391  0.0556 -0.1688 -0.1163
 8762SOL     OW37744   4.655   0.017   3.039 -0.0599 -0.0860  0.1297
 8762SOL    HW137745   4.717   0.089   3.031 -0.2447  0.3922  2.9621
 8762SOL    HW237746   4.702   4.677   3.091  1.1945 -0.3343 -1.3425
 8763SOL     OW37747   2.391   1.075  13.141  0.4491 -0.6537 -0.2411
 8763SOL    HW137748   2.453   1.126  13.089  0.6168  1.4964  2.0973
 8763SOL    HW237749   2.307   1.113  13.115  1.6041  1.5738 -0.7459
 8764SOL     OW37750   1.966   3.719  17.130 -0.4882  0.4662 -0.4591
 8764SOL    HW137751   1.901   3.785  17.154 -0.2930  0.4931 -0.0057
 8764SOL    HW237752   1.989   3.748  17.041 -1.7833  2.6081 -0.0968
 8765SOL     OW37753   3.249   3.552   3.817  0.1309 -0.0595 -0.2478
 8765SOL    HW137754   3.187   3.480   3.825  0.2776 -0.1340  0.2269
 8765SOL    HW237755   3.197   3.619   3.773 -0.2740  0.8768  1.6218
 8766SOL     OW37756   2.405   2.575  10.913 -0.9787 -0.7975  0.7053
 8766SOL    HW137757   2.372   2.534  10.993 -0.6245 -2.4814 -0.0147
 8766SOL    HW237758   2.342   2.550  10.845 -1.0105  1.0225  0.0797
 8767SOL     OW37759   1.724   2.179   9.136  0.3361 -0.4904  0.2616
 8767SOL    HW137760   1.683   2.126   9.067 -0.8104 -1.3139  1.5505
 8767SOL    HW237761   1.659   2.250   9.138  2.8833  1.7785  2.4580
 8768SOL     OW37762   1.227   2.570   1.686 -0.2504 -0.9647 -0.3074
 8768SOL    HW137763   1.317   2.548   1.709  0.2428  2.9289  1.5253
 8768SOL    HW237764   1.190   2.595   1.770 -2.4602 -3.7890 -0.4503
 8769SOL     OW37765   1.528   3.036   1.698  0.2923 -0.7086 -0.0213
 8769SOL    HW137766   1.468   3.109   1.683  1.0907 -0.2189 -0.8412
 8769SOL    HW237767   1.570   3.066   1.779  1.4079  1.2735 -1.3148
 8770SOL     OW37768   0.092   3.548  14.816  0.4016 -0.0357  0.1951
 8770SOL    HW137769   0.072   3.640  14.798  3.0866  0.0990 -2.0221
 8770SOL    HW237770   0.007   3.504  14.823  0.2601 -0.0132 -1.3287
 8771SOL     OW37771   2.644   2.153   8.659  0.2207  0.5287 -0.2895
 8771SOL    HW137772   2.644   2.095   8.583 -1.6106  2.5067 -1.7907
 8771SOL    HW237773   2.636   2.082   8.723 -0.0955 -0.7095 -1.7007
 8772SOL     OW37774   4.253   2.025   3.837  0.4415 -0.3966  0.1600
 8772SOL    HW137775   4.189   2.067   3.894  0.7140 -0.4303  0.4846
 8772SOL    HW237776   4.237   1.933   3.856  0.6781 -0.3077  0.7652
 8773SOL     OW37777   4.102   3.097   6.127 -0.3377  0.3603 -0.8457
 8773SOL    HW137778   4.017   3.072   6.164  1.3873 -1.6550  1.8006
 8773SOL    HW237779   4.094   3.047   6.046 -0.5308 -2.5101  0.9455
 8774SOL     OW37780   2.466   1.923   6.562  0.4231  0.3214  0.2277
 8774SOL    HW137781   2.374   1.905   6.581 -0.1149 -0.2876 -2.9794
 8774SOL    HW237782   2.444   2.015   6.549 -0.3088  0.0944 -0.1676
 8775SOL     OW37783   0.577   3.274  13.595 -0.2417  0.1522 -0.5672
 8775SOL    HW137784   0.623   3.229  13.666  0.0669 -1.4709 -1.7758
 8775SOL    HW237785   0.548   3.195  13.548 -2.1295  0.6756 -0.2941
 8776SOL     OW37786   2.828   1.034  17.622 -0.1163  0.3750 -0.1411
 8776SOL    HW137787   2.873   1.117  17.605  0.6394 -0.0030  0.0289
 8776SOL    HW237788   2.881   0.969  17.577 -0.1133 -0.1652  0.6404
 8777SOL     OW37789   3.780   2.024   1.404 -0.4597  0.0001 -0.4676
 8777SOL    HW137790   3.768   2.109   1.362 -0.4680  1.1586  1.8516
 8777SOL    HW237791   3.698   2.014   1.452 -0.0761  0.4430  0.2819
 8778SOL     OW37792   3.044   0.545   1.721 -0.3062 -0.5018 -0.4013
 8778SOL    HW137793   3.120   0.591   1.757  0.0432 -1.3541 -0.0407
 8778SOL    HW237794   3.065   0.453   1.739  0.6743 -0.2509 -0.2298
 8779SOL     OW37795   3.821   0.051   3.124 -0.0233 -0.4018  0.6066
 8779SOL    HW137796   3.843   0.144   3.128 -0.4568 -0.1628 -2.4554
 8779SOL    HW237797   3.791   0.027   3.212 -1.6218 -0.8254 -0.0517
 8780SOL     OW37798   0.618   2.135   1.713 -0.2527 -0.6629  0.1013
 8780SOL    HW137799   0.530   2.133   1.749 -1.2472  0.5779 -2.2905
 8780SOL    HW237800   0.658   2.205   1.764 -1.4444  0.1449 -0.1012
 8781SOL     OW37801   3.953   3.870   0.817  0.0378  0.4846  0.5573
 8781SOL    HW137802   4.004   3.894   0.895 -0.8889  1.9642  0.7084
 8781SOL    HW237803   3.968   3.948   0.765 -1.8498  0.1221 -0.5597
 8782SOL     OW37804   3.811   4.675   8.411 -0.1123  0.9145  0.3852
 8782SOL    HW137805   3.881   4.713   8.358 -1.0172 -0.3347 -1.6921
 8782SOL    HW237806   3.770   0.028   8.447  0.4272  1.0985  0.5965
 8783SOL     OW37807   0.213   3.110   8.349  0.2461 -0.3226 -0.3869
 8783SOL    HW137808   0.250   3.119   8.261 -1.6576 -0.7090 -1.2389
 8783SOL    HW237809   0.246   3.024   8.373  0.4968 -0.1073  0.0168
 8784SOL     OW37810   2.242   1.240   2.863 -0.2284 -0.2010  0.4204
 8784SOL    HW137811   2.318   1.210   2.814 -1.8058 -2.0142 -0.9213
 8784SOL    HW237812   2.174   1.264   2.799 -1.8465 -4.4352  0.5811
 8785SOL     OW37813   4.627   4.547   5.709 -0.3152  0.8408 -0.2984
 8785SOL    HW137814   4.681   4.481   5.754  0.7331  2.5212  0.9101
 8785SOL    HW237815   4.637   4.628   5.760 -2.6691 -0.2973  1.9645
 8786SOL     OW37816   0.081   4.546  16.991  0.3238 -0.0790 -0.0365
 8786SOL    HW137817   0.115   4.564  17.079 -2.1180 -0.0107  0.8759
 8786SOL    HW237818   0.135   4.471  16.968  0.4135 -0.0815  0.1803
 8787SOL     OW37819   1.824   1.370   8.381 -0.2776 -0.3098 -0.4875
 8787SOL    HW137820   1.875   1.289   8.374  0.3042 -0.1176  1.6596
 8787SOL    HW237821   1.886   1.435   8.415 -0.7664 -0.5701  0.8734
 8788SOL     OW37822   2.591   0.083   7.102  1.1830  0.2004 -0.2560
 8788SOL    HW137823   2.656   0.096   7.171  1.9785  1.9483 -1.3351
 8788SOL    HW237824   2.549   0.000   7.126 -0.0614  0.6430 -0.9204
 8789SOL     OW37825   3.362   1.736   6.542  0.0219  1.1497  0.5208
 8789SOL    HW137826   3.405   1.686   6.473 -1.0589  0.6889  0.1828
 8789SOL    HW237827   3.275   1.743   6.503 -1.1904  0.7285  3.1273
 8790SOL     OW37828   2.724   2.401   3.812  0.2820  0.3891 -0.5310
 8790SOL    HW137829   2.716   2.423   3.719 -0.6333 -0.9173 -0.7637
 8790SOL    HW237830   2.643   2.353   3.830 -0.2422  1.2571 -0.5381
 8791SOL     OW37831   3.298   2.669   0.752  0.1545 -0.3217 -0.0614
 8791SOL    HW137832   3.332   2.588   0.713  0.7027  0.4659 -1.2183
 8791SOL    HW237833   3.273   2.719   0.675  0.1247  0.7037  0.6136
 8792SOL     OW37834   3.647   2.270   4.981 -0.2439  0.3296 -0.0786
 8792SOL    HW137835   3.694   2.231   4.907 -0.0919  0.3912 -0.0147
 8792SOL    HW237836   3.557   2.285   4.953 -0.9312 -1.2632  1.2397
 8793SOL     OW37837   1.136   3.932  16.182 -0.0688  0.3719 -0.4457
 8793SOL    HW137838   1.178   3.907  16.264 -1.8871  1.4002  0.8025
 8793SOL    HW237839   1.140   4.027  16.194 -1.1903  0.3238  0.2789
 8794SOL     OW37840   1.534   1.183   6.998  0.6061  0.4118 -0.5274
 8794SOL    HW137841   1.580   1.136   6.928  0.9503  0.1138 -0.1036
 8794SOL    HW237842   1.596   1.254   7.012 -0.4005  0.7640  2.1769
 8795SOL     OW37843   0.950   1.237   1.649 -0.1810  0.1310  0.1547
 8795SOL    HW137844   0.894   1.188   1.709  0.9220 -1.3565 -0.0246
 8795SOL    HW237845   0.919   1.193   1.570 -0.6828  3.6766 -1.6383
 8796SOL     OW37846   2.632   3.480   8.068 -0.4333 -0.0993  0.4958
 8796SOL    HW137847   2.645   3.385   8.063  1.6267  0.1394  1.5759
 8796SOL    HW237848   2.719   3.511   8.092 -0.7245  2.4449 -1.7091
 8797SOL     OW37849   3.763   0.720  17.324  0.5232  0.3046 -0.1239
 8797SOL    HW137850   3.670   0.699  17.330  0.5089  0.4109  0.0307
 8797SOL    HW237851   3.780   0.702  17.231 -0.1787  1.0865 -0.4068
 8798SOL     OW37852   2.763   1.467   2.269  0.2386  0.6493  0.4072
 8798SOL    HW137853   2.800   1.474   2.181 -2.0932 -0.6728 -0.6808
 8798SOL    HW237854   2.757   1.559   2.297  0.3021  0.5001  0.9149
 8799SOL     OW37855   2.713   1.286   0.574  0.0637  0.0387 -0.0293
 8799SOL    HW137856   2.744   1.372   0.602 -0.6302 -0.2332  1.5942
 8799SOL    HW237857   2.800   1.248   0.560 -1.7202 -3.4130 -1.8025
 8800SOL     OW37858   1.596   4.383  13.165  0.2110 -0.3409 -0.0171
 8800SOL    HW137859   1.544   4.463  13.155  0.4718 -0.1491  0.1785
 8800SOL    HW237860   1.608   4.363  13.072  0.2384 -2.0387  0.3538
 8801SOL     OW37861   3.314   4.409  17.536  0.4580  0.0079 -0.0457
 8801SOL    HW137862   3.264   4.377  17.461  0.1614  1.5433 -0.5140
 8801SOL    HW237863   3.371   4.336  17.561 -0.2456  0.1155  1.8905
 8802SOL     OW37864   1.618   2.358   3.565  0.1128 -0.1476  0.3865
 8802SOL    HW137865   1.668   2.304   3.625  1.1659  0.0429 -0.3129
 8802SOL    HW237866   1.563   2.413   3.621 -1.5919  1.1976 -2.6034
 8803SOL     OW37867   2.689   2.220   9.482 -0.5569  0.2067  0.3383
 8803SOL    HW137868   2.621   2.279   9.450  1.3010 -0.6733 -5.3480
 8803SOL    HW237869   2.633   2.168   9.539  0.1734 -1.8720 -0.8491
 8804SOL     OW37870   3.117   0.182   8.211  0.4410 -0.8728  0.4184
 8804SOL    HW137871   3.201   0.173   8.165  2.2334  0.0473  3.4992
 8804SOL    HW237872   3.061   0.195   8.135 -0.5196 -1.6682  0.9914
 8805SOL     OW37873   4.558   1.044  17.146 -0.5158  0.4672 -0.0645
 8805SOL    HW137874   4.627   1.107  17.127  0.8529 -0.1212  2.9288
 8805SOL    HW237875   4.477   1.093  17.156  0.6829  2.5209 -0.5081
 8806SOL     OW37876   4.537   4.457   8.230 -0.4960 -0.1932 -0.3402
 8806SOL    HW137877   4.559   4.524   8.295  1.1525 -0.2285 -0.8560
 8806SOL    HW237878   4.545   4.509   8.150  0.1458  1.1577  0.6055
 8807SOL     OW37879   2.308   3.146   8.962  0.8637  0.1910  0.2698
 8807SOL    HW137880   2.361   3.148   9.041  0.2043  0.7745  0.6927
 8807SOL    HW237881   2.219   3.133   8.995  0.5990 -0.1624 -0.5814
 8808SOL     OW37882   2.150   1.351   8.470  0.2388  0.2040  0.2132
 8808SOL    HW137883   2.159   1.257   8.481  1.9914  0.0583 -2.6167
 8808SOL    HW237884   2.207   1.379   8.542  0.2288 -2.7060  1.3233
 8809SOL     OW37885   0.494   1.712   7.646 -0.2094  0.3107 -0.7626
 8809SOL    HW137886   0.401   1.696   7.630  0.2061 -0.4167 -2.4435
 8809SOL    HW237887   0.527   1.691   7.559 -0.1407  2.6600 -1.2877
 8810SOL     OW37888   2.195   2.343   9.596  0.3496 -0.0396 -0.3620
 8810SOL    HW137889   2.288   2.335   9.615 -0.1678  2.2115  3.0928
 8810SOL    HW237890   2.149   2.268   9.635 -1.2806  0.5573 -1.1046
 8811SOL     OW37891   4.031   2.998  12.074 -0.0933 -0.2337 -0.2635
 8811SOL    HW137892   4.087   3.059  12.121 -0.1378  0.2409 -0.8291
 8811SOL    HW237893   3.965   2.965  12.135  0.6304 -1.3543 -0.0792
 8812SOL     OW37894   3.047   0.484   5.248 -0.7741  0.0189  1.2687
 8812SOL    HW137895   3.046   0.568   5.293  1.0878  0.8681 -0.2938
 8812SOL    HW237896   3.095   0.439   5.317  0.2476  1.0841  1.2483
 8813SOL     OW37897   3.594   1.210   6.613 -0.0893  0.2696  0.0991
 8813SOL    HW137898   3.669   1.161   6.579  0.1550  1.0479 -0.4991
 8813SOL    HW237899   3.638   1.296   6.614  0.5684 -0.0589 -0.5125
 8814SOL     OW37900   1.410   2.359   2.099 -0.2550  0.6355 -0.5500
 8814SOL    HW137901   1.505   2.372   2.096  0.3231 -2.8579  3.1314
 8814SOL    HW237902   1.398   2.321   2.012  4.5542 -1.5770 -0.2385
 8815SOL     OW37903   1.526   0.052   6.102  0.1326 -0.0287  0.1674
 8815SOL    HW137904   1.567   4.703   6.060  0.1111  0.2674 -0.3849
 8815SOL    HW237905   1.539   0.123   6.039 -1.2011 -0.4884 -0.6276
 8816SOL     OW37906   0.934   2.351   8.887  0.2715 -0.1770 -0.5938
 8816SOL    HW137907   1.016   2.366   8.840  0.9180 -4.2413 -0.7179
 8816SOL    HW237908   0.900   2.441   8.895 -1.2090 -0.9618  1.8550
 8817SOL     OW37909   2.683   2.456  15.890 -0.0344  0.2368 -0.3043
 8817SOL    HW137910   2.731   2.456  15.973 -1.5550  0.4278  0.5743
 8817SOL    HW237911   2.627   2.533  15.901 -0.6393 -0.2494  0.0079
 8818SOL     OW37912   1.042   3.007   9.378  0.1138 -0.4596 -0.1781
 8818SOL    HW137913   0.958   2.985   9.419  0.3642 -0.7604  0.1831
 8818SOL    HW237914   1.052   3.098   9.405 -1.2460 -0.0952 -0.9264
 8819SOL     OW37915   1.879   2.902   6.434 -0.6334  0.4912  0.1888
 8819SOL    HW137916   1.924   2.947   6.363 -0.7032  1.0241  0.4857
 8819SOL    HW237917   1.800   2.877   6.386 -0.1635 -3.4334  1.4155
 8820SOL     OW37918   2.886   3.709   1.534 -0.3240  0.1741  0.0211
 8820SOL    HW137919   2.894   3.631   1.479 -1.9354 -0.1629  0.2831
 8820SOL    HW237920   2.811   3.749   1.490 -1.2147 -0.3413  1.1068
 8821SOL     OW37921   0.748   1.899  16.704 -0.5502 -0.0368  0.8672
 8821SOL    HW137922   0.728   1.853  16.622 -0.6801 -0.6769  1.2569
 8821SOL    HW237923   0.818   1.843  16.737  0.5962  0.4422 -0.7507
 8822SOL     OW37924   4.265   1.921   6.862 -0.6540 -0.5576 -0.1785
 8822SOL    HW137925   4.218   2.004   6.855  0.2223 -0.0806 -0.4280
 8822SOL    HW237926   4.209   1.881   6.928 -0.4102  3.5527  2.4983
 8823SOL     OW37927   4.234   1.991  15.683  0.2778 -0.2950 -0.1721
 8823SOL    HW137928   4.153   2.019  15.642  1.5854 -0.8127 -3.1181
 8823SOL    HW237929   4.208   1.922  15.744  1.6161 -0.7527 -0.1212
 8824SOL     OW37930   4.043   3.536   7.337 -0.2112 -0.0346  0.1001
 8824SOL    HW137931   3.995   3.453   7.343  0.1041 -0.2609 -0.6156
 8824SOL    HW237932   4.096   3.531   7.416 -0.0857  0.1515  0.0272
 8825SOL     OW37933   1.948   3.529   4.680 -0.1639 -0.4320  0.2896
 8825SOL    HW137934   1.873   3.506   4.734 -0.9217  0.2762 -0.4582
 8825SOL    HW237935   1.981   3.604   4.731 -0.9908  1.0434 -1.3393
 8826SOL     OW37936   2.068   2.406   3.357  0.3705 -0.2956 -0.3397
 8826SOL    HW137937   2.005   2.461   3.404  0.0859 -1.7617  1.0196
 8826SOL    HW237938   2.039   2.315   3.365  2.7235 -1.0425 -0.1829
 8827SOL     OW37939   2.865   1.450   0.760 -0.2417  0.1139 -0.1531
 8827SOL    HW137940   2.879   1.373   0.815 -1.0652 -0.6724 -1.0365
 8827SOL    HW237941   2.956   1.478   0.748  0.8464 -3.0147  0.6562
 8828SOL     OW37942   0.065   2.723   4.897 -0.7228 -0.0654  0.7221
 8828SOL    HW137943   0.029   2.635   4.904 -0.5477 -0.1923 -0.0190
 8828SOL    HW237944   0.078   2.736   4.991 -1.0569  0.8755  0.6292
 8829SOL     OW37945   1.641   0.830   9.616  0.0899 -0.4741  0.4399
 8829SOL    HW137946   1.616   0.915   9.579  0.2264 -0.8811 -0.5905
 8829SOL    HW237947   1.706   0.848   9.683  0.7602  2.6725 -1.0302
 8830SOL     OW37948   2.968   2.938  16.460  0.4701 -0.0078 -0.2890
 8830SOL    HW137949   2.966   2.894  16.375  0.1595  0.6880 -0.6417
 8830SOL    HW237950   3.047   2.991  16.455 -0.4472  1.3445 -0.5858
 8831SOL     OW37951   1.429   2.979  11.663  0.3585 -0.4368  0.1704
 8831SOL    HW137952   1.433   3.061  11.712 -1.0162 -0.2892  0.0372
 8831SOL    HW237953   1.519   2.970  11.634  1.1231 -0.7450  2.5849
 8832SOL     OW37954   1.164   3.277  17.446 -0.1090 -0.4337 -0.3251
 8832SOL    HW137955   1.075   3.292  17.414  0.1685  1.2823 -0.2601
 8832SOL    HW237956   1.172   3.336  17.521  1.0263 -2.0488  0.8359
 8833SOL     OW37957   0.600   4.565   4.629  0.2411 -0.0182 -0.1267
 8833SOL    HW137958   0.644   4.532   4.551 -0.9598  0.3103 -0.9396
 8833SOL    HW237959   0.595   4.657   4.606  0.0504  0.0397  0.1338
 8834SOL     OW37960   1.998   2.236   0.293  0.0714 -0.3311  0.0282
 8834SOL    HW137961   1.950   2.256   0.213  2.0440  2.6579 -0.4043
 8834SOL    HW237962   2.020   2.142   0.292  0.7790 -0.1992  1.7676
 8835SOL     OW37963   1.354   2.919  14.268  0.0007 -0.3280 -0.0751
 8835SOL    HW137964   1.277   2.918  14.211  2.6519 -0.0748 -3.6474
 8835SOL    HW237965   1.399   3.000  14.246  2.3752 -2.3680 -2.6744
 8836SOL     OW37966   4.488   2.520   5.834  0.1474  0.3305 -0.5692
 8836SOL    HW137967   4.430   2.596   5.844 -2.6244 -1.9200  0.6351
 8836SOL    HW237968   4.549   2.547   5.765  1.7645  0.3150  0.8561
 8837SOL     OW37969   4.663   0.420   2.725  0.5033 -0.0628 -0.4318
 8837SOL    HW137970   4.676   0.482   2.653 -1.5546  0.6973 -0.1483
 8837SOL    HW237971   0.027   0.411   2.757  0.0024  0.7393  1.2346
 8838SOL     OW37972   0.301   4.586   7.127 -0.0716  0.8153  0.6067
 8838SOL    HW137973   0.319   4.599   7.034  1.5735  5.7255  1.6198
 8838SOL    HW237974   0.213   4.623   7.132 -0.6762 -0.7862  1.8030
 8839SOL     OW37975   0.150   1.188   1.436 -0.2449 -0.0563  0.4123
 8839SOL    HW137976   0.104   1.121   1.386  0.7577 -0.7081  0.3539
 8839SOL    HW237977   0.157   1.142   1.520 -2.6321 -1.2718 -0.0694
 8840SOL     OW37978   1.535   0.583   7.538  0.1375  0.1861 -0.1579
 8840SOL    HW137979   1.606   0.647   7.529 -0.2418  0.4711 -1.0527
 8840SOL    HW237980   1.582   0.504   7.566 -0.0718  0.6729  1.5988
 8841SOL     OW37981   1.690   2.722   9.523  0.3651 -0.0916 -0.0177
 8841SOL    HW137982   1.678   2.725   9.618  1.7791  2.7992  0.0732
 8841SOL    HW237983   1.785   2.729   9.513  0.5724  0.1919  2.2825
 8842SOL     OW37984   1.723   1.199   0.490 -0.1668  0.4656 -0.3020
 8842SOL    HW137985   1.772   1.202   0.572  0.1730  0.4528 -0.5017
 8842SOL    HW237986   1.632   1.187   0.518  0.4560  0.7890  1.8805
 8843SOL     OW37987   0.414   2.360   1.788  0.4165 -0.2815 -0.1512
 8843SOL    HW137988   0.469   2.362   1.710 -0.8515  0.3078 -1.0244
 8843SOL    HW237989   0.472   2.411   1.844 -1.2633 -0.7609  2.0610
 8844SOL     OW37990   2.566   2.282  10.538 -0.2930  0.3147  0.6513
 8844SOL    HW137991   2.651   2.325  10.548 -0.0324 -0.2679  0.9800
 8844SOL    HW237992   2.589   2.190  10.554 -1.2188  0.0416  0.4224
 8845SOL     OW37993   3.362   3.040   6.577 -0.6580 -0.8033  0.0713
 8845SOL    HW137994   3.386   3.019   6.486  1.9385 -0.8199  0.7746
 8845SOL    HW237995   3.444   3.006   6.613 -0.4037 -1.7303 -1.3535
 8846SOL     OW37996   3.716   4.689  11.289 -0.2902  0.1675  0.4518
 8846SOL    HW137997   3.810   4.671  11.279 -0.8266 -2.8376  0.9122
 8846SOL    HW237998   3.714   0.059  11.290  0.8477  0.2267 -1.4163
 8847SOL     OW37999   1.385   1.743   3.472 -0.0760 -0.0580  0.2078
 8847SOL    HW138000   1.318   1.810   3.486 -2.1036 -2.1661  0.6741
 8847SOL    HW238001   1.334   1.666   3.495  1.2382 -0.9567  0.1061
 8848SOL     OW38002   0.527   1.107   3.948  0.1016  0.3348  0.3302
 8848SOL    HW138003   0.436   1.120   3.920 -0.0510 -1.0802  0.1661
 8848SOL    HW238004   0.542   1.188   3.997 -0.1272  2.4892 -3.1418
 8849SOL     OW38005   1.061   3.618   6.280 -0.7524 -0.2270  0.5823
 8849SOL    HW138006   1.127   3.662   6.226  0.3310  1.2936  3.1432
 8849SOL    HW238007   1.113   3.577   6.349 -1.6437  1.0945  2.0369
 8850SOL     OW38008   2.707   3.367   2.574  0.2977  0.0586 -0.2596
 8850SOL    HW138009   2.664   3.306   2.634  0.8360  2.0226  2.0963
 8850SOL    HW238010   2.794   3.325   2.570 -0.0765 -0.8157  0.7658
 8851SOL     OW38011   3.970   4.664  12.066 -0.4421 -0.4697 -0.3569
 8851SOL    HW138012   4.057   4.663  12.027 -0.5248  0.3206 -0.5697
 8851SOL    HW238013   3.962   4.585  12.119  2.5996  0.2376  1.1636
 8852SOL     OW38014   4.093   1.995   1.882  0.1592  0.0530 -0.1515
 8852SOL    HW138015   4.154   2.066   1.903 -0.5349  1.2206 -2.0811
 8852SOL    HW238016   4.142   1.917   1.906 -1.5731 -0.9823 -0.0073
 8853SOL     OW38017   0.457   0.497  14.113  0.1688  0.4369 -0.1010
 8853SOL    HW138018   0.545   0.523  14.142 -0.5655 -0.5208  3.0331
 8853SOL    HW238019   0.476   0.404  14.099  0.6674  1.0513 -3.3070
 8854SOL     OW38020   4.564   2.640   6.250 -0.3274 -0.6909 -0.2867
 8854SOL    HW138021   4.519   2.717   6.283  1.3319 -0.0764  0.5404
 8854SOL    HW238022   4.589   2.665   6.161 -2.0242  0.0505 -0.5536
 8855SOL     OW38023   3.969   2.227   5.784 -0.0234  0.5748 -0.0948
 8855SOL    HW138024   4.032   2.265   5.724  0.7987 -0.1442  0.3177
 8855SOL    HW238025   3.973   2.137   5.751 -1.6895  0.1062  0.9640
 8856SOL     OW38026   2.453   3.088   0.914  0.6614 -0.3169  0.1246
 8856SOL    HW138027   2.502   3.076   0.995  0.2677 -3.9914 -0.1959
 8856SOL    HW238028   2.386   3.154   0.932 -0.0657 -0.7425 -1.0411
 8857SOL     OW38029   1.321   1.172   4.630 -0.2627  0.8305  0.0654
 8857SOL    HW138030   1.335   1.083   4.596  1.8295  1.1468  0.1586
 8857SOL    HW238031   1.387   1.184   4.697 -1.4020 -1.7353  1.6546
 8858SOL     OW38032   0.060   0.290   8.283 -0.0461 -0.2719 -0.2402
 8858SOL    HW138033   0.003   0.227   8.238 -1.0786  0.4611  0.0487
 8858SOL    HW238034   0.043   0.256   8.371 -1.8192 -1.1447 -0.9371
 8859SOL     OW38035   1.064   2.547  14.472 -0.2552  0.0142  0.0931
 8859SOL    HW138036   1.146   2.528  14.426 -1.0130 -1.9791 -0.4192
 8859SOL    HW238037   1.017   2.603  14.411 -2.1157 -0.8331  0.7651
 8860SOL     OW38038   3.454   0.473   9.287  0.1577  0.8750 -0.4266
 8860SOL    HW138039   3.539   0.517   9.285  0.0335  1.1056 -0.7048
 8860SOL    HW238040   3.443   0.445   9.377 -1.2707  1.8040 -0.3189
 8861SOL     OW38041   4.625   3.190   2.969 -0.2343  0.3729 -0.3061
 8861SOL    HW138042   4.590   3.144   2.893 -1.7627  1.8877 -0.5242
 8861SOL    HW238043   4.575   3.146   3.038 -1.0375 -0.0844 -1.1785
 8862SOL     OW38044   3.596   3.348   2.932  0.4881 -0.2677  0.2032
 8862SOL    HW138045   3.517   3.303   2.963 -0.0535  0.7219  0.2843
 8862SOL    HW238046   3.665   3.286   2.957  0.4968 -0.1641  0.4435
 8863SOL     OW38047   2.285   3.781  15.444  0.0497  0.5476 -0.2006
 8863SOL    HW138048   2.344   3.788  15.369  1.5778  0.4982  0.9854
 8863SOL    HW238049   2.311   3.694  15.474 -0.2991  0.2016 -0.9107
 8864SOL     OW38050   4.486   1.181  11.247  0.3911  0.0415  0.2743
 8864SOL    HW138051   4.464   1.211  11.335 -2.7138  0.3358 -0.6269
 8864SOL    HW238052   4.580   1.160  11.250  0.2702 -0.8024 -1.4730
 8865SOL     OW38053   3.134   3.526   2.362 -0.1488 -0.2166 -0.5625
 8865SOL    HW138054   3.227   3.538   2.343  0.2131 -0.6987  0.9052
 8865SOL    HW238055   3.112   3.591   2.429  1.4304 -0.1753 -0.1048
 8866SOL     OW38056   0.385   2.130  11.669  0.4737 -0.4567 -0.3865
 8866SOL    HW138057   0.428   2.181  11.737  0.5830  0.6545 -1.2999
 8866SOL    HW238058   0.352   2.202  11.616 -0.4522  0.7403  1.8213
 8867SOL     OW38059   0.359   2.185   5.185  0.1755  0.3978  0.2185
 8867SOL    HW138060   0.367   2.176   5.090  1.0608 -2.3048  0.5650
 8867SOL    HW238061   0.452   2.201   5.203 -0.0216  1.2893  0.4216
 8868SOL     OW38062   0.612   0.667   8.454  0.3164 -0.2590 -0.4018
 8868SOL    HW138063   0.617   0.615   8.375 -0.0648 -2.1024  0.7930
 8868SOL    HW238064   0.607   0.758   8.422 -0.7322 -0.1168  0.1403
 8869SOL     OW38065   4.500   4.358   4.965  0.3556 -0.2419  0.0600
 8869SOL    HW138066   4.447   4.430   4.932  0.2280  0.9910  2.9751
 8869SOL    HW238067   4.442   4.337   5.037 -0.8545  1.2733 -0.4714
 8870SOL     OW38068   4.488   3.586   2.013  0.1782  0.1696 -0.0372
 8870SOL    HW138069   4.477   3.680   2.028  0.6315  0.1189  0.6049
 8870SOL    HW238070   4.573   3.589   1.969 -0.6717 -1.2470 -1.7841
 8871SOL     OW38071   1.626   4.112  10.684  0.0532 -0.0965 -0.4886
 8871SOL    HW138072   1.680   4.133  10.608  2.2314  1.1761  1.4084
 8871SOL    HW238073   1.676   4.043  10.727  0.5795  0.6151  0.0588
 8872SOL     OW38074   2.378   1.452   8.605 -0.0162  0.1998 -0.0936
 8872SOL    HW138075   2.413   1.532   8.565 -0.7843  0.9521  0.7116
 8872SOL    HW238076   2.427   1.439   8.686 -1.6135 -1.7045  0.5625
 8873SOL     OW38077   0.632   4.107   5.939 -0.0283  0.1768  0.5581
 8873SOL    HW138078   0.619   4.114   5.845  2.5751  0.8383  0.2502
 8873SOL    HW238079   0.712   4.056   5.953  1.0294  2.1602  1.6461
 8874SOL     OW38080   3.278   1.929   8.897  0.4198 -0.4173 -0.5771
 8874SOL    HW138081   3.355   1.921   8.842  0.5527 -1.0920 -0.2961
 8874SOL    HW238082   3.297   1.867   8.968  0.8376  2.0382  1.4696
 8875SOL     OW38083   0.790   0.790   2.222 -0.2478  0.0164 -0.0737
 8875SOL    HW138084   0.742   0.839   2.288  0.7761 -0.6614  1.1670
 8875SOL    HW238085   0.880   0.821   2.229  0.6816 -2.4798 -1.2385
 8876SOL     OW38086   2.716   0.936  11.490 -0.1807  0.1816  0.6006
 8876SOL    HW138087   2.623   0.938  11.517  0.4464  3.8954  2.4521
 8876SOL    HW238088   2.728   1.016  11.440 -1.1663 -0.7683 -1.1650
 8877SOL     OW38089   4.710   0.025   1.061  0.2965 -0.2684 -0.0464
 8877SOL    HW138090   4.655   0.017   1.139  0.1563  0.0623 -0.1138
 8877SOL    HW238091   4.678   0.110   1.033 -1.5944 -1.2217 -0.7672
 8878SOL     OW38092   0.004   2.056   0.189 -0.4838 -0.1629 -0.1352
 8878SOL    HW138093   4.716   2.151   0.186 -1.2716 -0.2843 -0.2426
 8878SOL    HW238094   0.096   2.044   0.165 -0.3206 -0.0695  0.4317
 8879SOL     OW38095   2.522   1.378  17.125  0.0264  0.0248 -0.0834
 8879SOL    HW138096   2.511   1.472  17.108 -0.8010 -0.0747 -0.1099
 8879SOL    HW238097   2.486   1.362  17.213  2.4996  1.8582  1.2401
 8880SOL     OW38098   0.423   0.499   4.204  0.1604  0.2675 -0.1973
 8880SOL    HW138099   0.342   0.464   4.242  0.2674  0.6309  0.3619
 8880SOL    HW238100   0.460   0.415   4.177  1.9853  1.2694 -0.7415
 8881SOL     OW38101   3.725   2.869  11.763 -0.0439 -0.2880  0.6256
 8881SOL    HW138102   3.673   2.932  11.813 -2.1747 -3.7171  2.7679
 8881SOL    HW238103   3.662   2.802  11.739  1.0172 -1.2788  0.6044
 8882SOL     OW38104   2.788   3.275   6.598  0.8644 -0.3547 -0.2205
 8882SOL    HW138105   2.815   3.291   6.689 -3.1038  2.0702  0.5415
 8882SOL    HW238106   2.868   3.238   6.562 -0.8148 -1.3410 -2.8908
 8883SOL     OW38107   2.033   2.052   2.767  0.0503  0.5104 -0.1511
 8883SOL    HW138108   2.022   2.042   2.673 -0.1334 -1.1277  0.0490
 8883SOL    HW238109   1.947   2.022   2.795 -0.8455  1.8895 -1.4322
 8884SOL     OW38110   2.682   4.204   8.839  0.1898  0.1591 -0.0456
 8884SOL    HW138111   2.717   4.245   8.918  2.3038 -1.0216 -0.3924
 8884SOL    HW238112   2.723   4.118   8.842 -0.0569  0.0584  0.3748
 8885SOL     OW38113   0.176   2.260   4.073 -0.4480  0.1790 -0.2077
 8885SOL    HW138114   0.208   2.315   4.145 -1.9319 -0.0084  0.6028
 8885SOL    HW238115   0.092   2.232   4.112  0.2697 -0.8820  0.5761
 8886SOL     OW38116   3.922   0.333  15.166  0.5552 -0.1794 -0.0270
 8886SOL    HW138117   3.983   0.323  15.092  2.8959 -0.4632  1.9518
 8886SOL    HW238118   3.853   0.377  15.116  0.1585 -0.2325  0.4739
 8887SOL     OW38119   3.054   1.310   1.353 -0.2353  0.0372  0.7118
 8887SOL    HW138120   3.065   1.268   1.438  0.9819 -0.0678  0.4955
 8887SOL    HW238121   2.970   1.354   1.366 -1.2319 -1.2603 -1.2925
 8888SOL     OW38122   3.171   0.924  15.761 -0.2217 -0.3889 -0.1269
 8888SOL    HW138123   3.185   0.988  15.830  1.7240 -0.4017 -0.5194
 8888SOL    HW238124   3.233   0.958  15.696  0.1980 -0.1689  0.3896
 8889SOL     OW38125   3.274   1.345  13.555 -0.5617 -0.0158 -0.3023
 8889SOL    HW138126   3.213   1.271  13.558 -1.4613  0.6933 -1.0030
 8889SOL    HW238127   3.217   1.421  13.562  1.5406  1.3401  1.9772
 8890SOL     OW38128   0.735   3.723  14.663  0.0156  0.2893 -0.2187
 8890SOL    HW138129   0.776   3.648  14.621 -1.5863 -0.8483  0.2400
 8890SOL    HW238130   0.664   3.738  14.600  1.0858  1.8568 -1.0599
 8891SOL     OW38131   2.848   4.271   2.100 -0.3405 -0.3853 -0.3961
 8891SOL    HW138132   2.799   4.192   2.077  1.4962 -1.4159 -0.7742
 8891SOL    HW238133   2.827   4.280   2.193  0.5419 -1.7630 -0.0616
 8892SOL     OW38134   0.049   1.396   4.914  0.2166  0.2642  0.6275
 8892SOL    HW138135   0.061   1.395   4.819 -1.9687  0.4089  0.3417
 8892SOL    HW238136   0.009   1.481   4.934 -0.5574  0.1154 -0.2792
 8893SOL     OW38137   2.898   1.517   8.173  0.1714 -0.6934 -0.5052
 8893SOL    HW138138   2.989   1.547   8.172 -0.6027  1.6532 -0.5208
 8893SOL    HW238139   2.853   1.601   8.168  2.1100  0.5863  3.3238
 8894SOL     OW38140   4.499   3.576   5.867 -0.5769 -0.3379  0.2298
 8894SOL    HW138141   4.557   3.612   5.934  0.1300 -2.1866  0.6201
 8894SOL    HW238142   4.549   3.605   5.791  0.6215  0.5599  1.3681
 8895SOL     OW38143   0.288   0.919   3.059 -0.7177  0.0972 -0.7855
 8895SOL    HW138144   0.320   0.860   2.991  0.5832 -1.6955  1.3839
 8895SOL    HW238145   0.288   1.005   3.019  0.9637  0.1263 -0.7237
 8896SOL     OW38146   4.419   4.547   6.663 -0.5799  0.1658 -0.4568
 8896SOL    HW138147   4.514   4.537   6.649 -0.6639 -0.0699 -0.8433
 8896SOL    HW238148   4.413   4.463   6.710  0.4743 -0.7559 -1.9762
 8897SOL     OW38149   0.017   1.866   3.479  0.4324 -0.5424 -0.3889
 8897SOL    HW138150   4.664   1.816   3.461  0.4582  0.1274 -2.3484
 8897SOL    HW238151   0.008   1.878   3.574 -2.8314 -1.4674 -0.5994
 8898SOL     OW38152   2.061   2.049   5.953  0.2307 -0.1488  0.3326
 8898SOL    HW138153   2.140   2.103   5.951 -3.4809  5.3201  0.5413
 8898SOL    HW238154   2.028   2.070   6.040 -1.2002 -0.9478 -0.0266
 8899SOL     OW38155   3.178   4.138   5.230 -0.4985  0.0020 -0.3556
 8899SOL    HW138156   3.212   4.093   5.152  2.5760  1.5096  0.1358
 8899SOL    HW238157   3.084   4.120   5.221 -0.7264  0.9954  0.0750
 8900SOL     OW38158   0.376   0.244  14.098 -0.1857  0.2386 -0.3963
 8900SOL    HW138159   0.437   0.184  14.055 -0.0833 -0.2867  0.4865
 8900SOL    HW238160   0.325   0.271  14.021 -1.5854  0.8149  0.7192
 8901SOL     OW38161   0.497   1.531  17.048  0.1757  0.0546  0.8462
 8901SOL    HW138162   0.446   1.470  17.101 -1.1066  2.4730  2.3580
 8901SOL    HW238163   0.442   1.607  17.029 -1.3609 -0.8262  1.7896
 8902SOL     OW38164   1.719   0.380   0.815 -0.6002  0.1076  0.0063
 8902SOL    HW138165   1.735   0.322   0.740 -0.9642  2.2423 -1.7298
 8902SOL    HW238166   1.741   0.326   0.892 -1.8591 -0.4903 -0.0605
 8903SOL     OW38167   1.638   3.213   8.270  0.6273  0.2332  0.7433
 8903SOL    HW138168   1.657   3.188   8.179 -2.7502  1.9539 -0.4442
 8903SOL    HW238169   1.711   3.273   8.284  1.1255 -0.6859  2.0058
 8904SOL     OW38170   0.771   2.615  13.469 -0.3190  0.5049 -0.1576
 8904SOL    HW138171   0.693   2.564  13.449  0.8630 -0.8672 -1.2989
 8904SOL    HW238172   0.827   2.592  13.394 -1.9091 -1.9327 -0.6161
 8905SOL     OW38173   1.984   0.229   5.763  0.0333 -0.3792 -0.0973
 8905SOL    HW138174   1.995   0.176   5.684  2.4624 -0.2707  0.1645
 8905SOL    HW238175   1.934   0.170   5.819  0.5093 -0.6957 -0.0015
 8906SOL     OW38176   1.484   0.955   4.810  0.8954 -0.4892  0.2274
 8906SOL    HW138177   1.535   0.876   4.825  2.5881  0.0087 -2.8569
 8906SOL    HW238178   1.436   0.933   4.731  0.6358  1.8401 -0.2687
 8907SOL     OW38179   2.771   4.628   6.483  0.2204  0.0706  0.1641
 8907SOL    HW138180   2.705   4.578   6.532 -0.0317 -0.8716 -1.1234
 8907SOL    HW238181   2.854   4.588   6.507 -0.5893 -0.3614  2.1987
 8908SOL     OW38182   1.682   2.517   1.471  0.2689 -0.0860 -1.2199
 8908SOL    HW138183   1.720   2.592   1.425 -0.3284 -0.4452 -2.3052
 8908SOL    HW238184   1.708   2.443   1.416  1.4074 -2.1548  2.1201
 8909SOL     OW38185   0.922   1.027   8.723  0.4468 -0.3204  0.1523
 8909SOL    HW138186   0.997   0.967   8.725  1.0159  0.4165  1.4972
 8909SOL    HW238187   0.859   0.957   8.710  0.2759 -0.5005  1.9438
 8910SOL     OW38188   2.313   1.535   5.437 -0.0167  0.0896  0.2240
 8910SOL    HW138189   2.271   1.557   5.520  0.6604  0.6008  0.4318
 8910SOL    HW238190   2.399   1.503   5.465  0.8899  3.2651  1.0264
 8911SOL     OW38191   0.576   0.209   6.826 -0.1470  0.4277  0.1103
 8911SOL    HW138192   0.524   0.129   6.821 -0.5769  0.8193 -1.8168
 8911SOL    HW238193   0.524   0.261   6.886 -1.8562 -1.0848 -0.0618
 8912SOL     OW38194   2.868   0.570   1.409 -0.0398 -0.1299  0.1216
 8912SOL    HW138195   2.795   0.524   1.452  0.0460 -2.7433 -2.4882
 8912SOL    HW238196   2.877   0.652   1.457  1.3190  1.7731 -3.3929
 8913SOL     OW38197   3.629   2.211  10.262 -0.0954  0.1283  0.3181
 8913SOL    HW138198   3.641   2.305  10.270  1.5020  0.1381 -2.1070
 8913SOL    HW238199   3.714   2.194  10.303 -1.1671 -2.8210  1.3863
 8914SOL     OW38200   2.607   0.463   2.592  0.1696 -0.4122 -0.5040
 8914SOL    HW138201   2.537   0.402   2.615 -0.2277 -0.2908 -1.3956
 8914SOL    HW238202   2.672   0.396   2.569 -0.7114 -2.2367  2.3255
 8915SOL     OW38203   2.682   3.857   2.389  0.2050 -0.6972  0.8690
 8915SOL    HW138204   2.613   3.884   2.450 -0.2018  0.7013 -0.2203
 8915SOL    HW238205   2.669   3.762   2.379  1.1275 -0.9727  2.2880
 8916SOL     OW38206   0.216   2.817  13.348 -0.4263 -0.1564  0.4789
 8916SOL    HW138207   0.260   2.750  13.297  0.4241  1.3631 -0.7831
 8916SOL    HW238208   0.198   2.878  13.276  0.8650 -1.3208 -0.8272
 8917SOL     OW38209   2.555   2.632   6.561  0.0130  0.5493 -0.1934
 8917SOL    HW138210   2.568   2.721   6.593  3.5852  0.8788 -2.5713
 8917SOL    HW238211   2.495   2.655   6.490  0.7601 -0.9087 -1.3053
 8918SOL     OW38212   2.095   3.780   5.746  0.5652  0.3402  0.3234
 8918SOL    HW138213   2.144   3.754   5.669 -1.4520 -1.8057 -0.2361
 8918SOL    HW238214   2.148   3.752   5.820  1.3178  3.4191  0.9530
 8919SOL     OW38215   3.603   1.589  16.128  0.5592 -0.0266 -0.3407
 8919SOL    HW138216   3.573   1.662  16.074 -0.4367  0.0735  0.3393
 8919SOL    HW238217   3.528   1.531  16.113  2.7793 -3.0654  0.2273
 8920SOL     OW38218   4.698   2.704   8.334 -0.4283 -0.0659 -0.1671
 8920SOL    HW138219   4.686   2.611   8.351 -0.5632 -0.2795 -1.4541
 8920SOL    HW238220   0.002   2.742   8.417  0.1938 -1.8214  0.4089
 8921SOL     OW38221   3.320   2.114  11.262 -0.5890 -0.5164  0.3165
 8921SOL    HW138222   3.370   2.041  11.297 -1.6804 -1.9877 -1.1921
 8921SOL    HW238223   3.365   2.121  11.178  1.4967  0.4528  1.5179
 8922SOL     OW38224   1.933   2.673   3.381  0.1612 -0.1659 -0.2519
 8922SOL    HW138225   1.869   2.646   3.447 -1.5068  1.5159 -1.1882
 8922SOL    HW238226   1.872   2.659   3.308  1.1873  0.7747 -1.2775
 8923SOL     OW38227   0.867   3.714   2.577 -0.1080 -0.1610  1.4316
 8923SOL    HW138228   0.942   3.757   2.619  0.5474  1.2249 -1.1761
 8923SOL    HW238229   0.795   3.739   2.634 -0.9842 -2.0081  1.1251
 8924SOL     OW38230   1.643   1.421  17.562 -0.6188 -0.0363 -0.4148
 8924SOL    HW138231   1.569   1.481  17.549 -1.2394 -0.7615 -0.2154
 8924SOL    HW238232   1.690   1.462  17.635  1.2628 -0.6543 -1.2790
 8925SOL     OW38233   0.330   0.957   2.739 -0.4065 -0.1082 -0.0161
 8925SOL    HW138234   0.371   0.884   2.691  1.0820  0.7285 -0.0145
 8925SOL    HW238235   0.399   1.016   2.768  0.5300 -0.3857 -1.6521
 8926SOL     OW38236   1.235   0.690  13.563 -0.1972  0.3816 -0.0454
 8926SOL    HW138237   1.265   0.648  13.482 -0.1359  2.5858 -1.1771
 8926SOL    HW238238   1.150   0.719  13.532 -0.3152 -0.0271 -0.1103
 8927SOL     OW38239   0.232   2.281   2.385  0.4915  0.4640  0.4427
 8927SOL    HW138240   0.168   2.214   2.359 -0.6974  1.5204  0.6381
 8927SOL    HW238241   0.251   2.327   2.304  2.4210 -1.1690 -0.0091
 8928SOL     OW38242   2.563   1.760  10.487 -0.0908  0.1638 -0.1196
 8928SOL    HW138243   2.480   1.764  10.439 -0.6677 -1.0932  0.7628
 8928SOL    HW238244   2.596   1.675  10.459  0.6456 -0.3156  2.2339
 8929SOL     OW38245   1.892   4.520   9.045 -0.1794  0.2047  0.3074
 8929SOL    HW138246   1.897   4.549   9.137  4.0141  0.9792 -0.1410
 8929SOL    HW238247   1.979   4.483   9.027 -0.0066  0.4578  0.6151
 8930SOL     OW38248   2.873   3.999   7.627  0.1839 -0.5503  0.2128
 8930SOL    HW138249   2.900   4.024   7.715 -3.3252  0.7722  0.9396
 8930SOL    HW238250   2.951   3.959   7.589 -0.0186 -0.2401 -0.5343
 8931SOL     OW38251   0.351   0.756  13.055  0.4867 -0.3732 -0.4990
 8931SOL    HW138252   0.274   0.708  13.085 -0.9933  1.9125 -0.7042
 8931SOL    HW238253   0.339   0.758  12.960 -0.4195  1.2627 -0.3470
 8932SOL     OW38254   1.496   1.179  13.320 -0.0133 -0.2043  0.2615
 8932SOL    HW138255   1.504   1.210  13.410  0.5977 -1.3456  0.5965
 8932SOL    HW238256   1.453   1.094  13.329 -0.6867 -0.0465 -1.4661
 8933SOL     OW38257   1.617   0.594   5.710 -0.3165  0.5090  0.1184
 8933SOL    HW138258   1.537   0.546   5.732 -0.3772  1.3225  1.6963
 8933SOL    HW238259   1.676   0.526   5.678 -0.4558  0.4650 -0.0462
 8934SOL     OW38260   2.250   0.983   3.316 -0.0377 -0.3438 -0.2254
 8934SOL    HW138261   2.257   1.058   3.257  1.1760  1.3817  2.1170
 8934SOL    HW238262   2.340   0.950   3.309 -0.7847 -2.5321  0.6559
 8935SOL     OW38263   1.198   0.388   5.286  0.2412 -0.2840 -0.3619
 8935SOL    HW138264   1.132   0.369   5.219 -1.2549 -1.0172  1.3248
 8935SOL    HW238265   1.200   0.310   5.341 -3.9444  1.6932  2.5785
 8936SOL     OW38266   4.255   1.386   8.414 -0.3749 -0.6754 -0.4311
 8936SOL    HW138267   4.254   1.431   8.498 -0.3450 -0.2176 -0.6725
 8936SOL    HW238268   4.348   1.367   8.397  0.1482  1.4855 -0.0294
 8937SOL     OW38269   1.789   0.251  14.945  0.3328  0.4345 -0.3597
 8937SOL    HW138270   1.745   0.335  14.934 -1.8407 -0.5123  1.3333
 8937SOL    HW238271   1.832   0.281  15.025  0.8854 -0.2331 -0.4058
 8938SOL     OW38272   3.956   2.754   4.757 -0.0839 -0.5719  0.2299
 8938SOL    HW138273   3.908   2.825   4.799 -0.8657 -0.4811 -0.7966
 8938SOL    HW238274   4.036   2.749   4.809 -0.5089  1.0324  1.0272
 8939SOL     OW38275   2.326   3.537   1.268 -0.1663  1.0701 -0.2149
 8939SOL    HW138276   2.421   3.536   1.265 -0.1355 -0.1329  0.9855
 8939SOL    HW238277   2.313   3.498   1.355  2.7039 -1.1185 -0.7889
 8940SOL     OW38278   1.526   1.591   6.958  0.1480 -0.5898 -0.0767
 8940SOL    HW138279   1.571   1.632   6.884  2.7738  0.1173  1.9148
 8940SOL    HW238280   1.541   1.649   7.032  0.1563 -0.3173 -0.2899
 8941SOL     OW38281   0.085   3.197  17.024 -0.1589  0.3611  0.2072
 8941SOL    HW138282   0.083   3.283  17.068 -2.7599 -0.4804  1.7055
 8941SOL    HW238283   0.002   3.153  17.043  1.4255 -1.9543  1.7298
 8942SOL     OW38284   1.000   1.969   3.438 -0.5070 -0.2742 -0.6909
 8942SOL    HW138285   0.908   1.951   3.419 -0.5131 -0.9915 -0.0039
 8942SOL    HW238286   1.030   2.011   3.357  1.6703  0.4262  0.4836
 8943SOL     OW38287   3.927   3.754   8.626 -0.0446 -0.7028  0.2604
 8943SOL    HW138288   3.888   3.835   8.592  0.8610 -0.1717  0.4870
 8943SOL    HW238289   3.950   3.714   8.542  0.6277  1.1781 -0.4622
 8944SOL     OW38290   3.454   1.363   6.303  0.4550 -0.0750 -0.0878
 8944SOL    HW138291   3.476   1.451   6.275 -0.7223  0.2035 -0.1307
 8944SOL    HW238292   3.530   1.316   6.269  1.3476  0.1468  1.6037
 8945SOL     OW38293   0.112   1.406  11.791  0.6118 -0.1409  0.7350
 8945SOL    HW138294   0.048   1.433  11.726  0.7425 -0.1128  0.6182
 8945SOL    HW238295   0.189   1.456  11.763  0.9367 -0.8640  0.3030
 8946SOL     OW38296   2.807   2.030   9.249 -0.1730  0.6615 -0.1050
 8946SOL    HW138297   2.787   2.085   9.325  1.0917  0.4483  0.3771
 8946SOL    HW238298   2.902   2.026   9.252 -0.1725  1.9450  1.8193
 8947SOL     OW38299   0.465   4.626   5.797  0.5807  0.6160  0.3370
 8947SOL    HW138300   0.538   4.589   5.846  0.4274  0.8455  0.7369
 8947SOL    HW238301   0.495   4.602   5.709  0.0235  0.8010  0.0937
 8948SOL     OW38302   3.832   3.692   4.758 -0.3489  0.3220 -0.2270
 8948SOL    HW138303   3.860   3.615   4.709  1.5190 -0.9211  2.7495
 8948SOL    HW238304   3.804   3.657   4.843 -0.3817  0.3284 -0.2351
 8949SOL     OW38305   3.359   2.617   8.989  0.7013  0.5926  0.7725
 8949SOL    HW138306   3.452   2.600   8.972  0.5651 -0.4123  1.0337
 8949SOL    HW238307   3.346   2.693   8.933  3.3559  0.0329 -0.6249
 8950SOL     OW38308   0.637   4.416  11.250 -0.2735 -0.3426  0.2451
 8950SOL    HW138309   0.630   4.511  11.254  0.0754 -0.4539  3.0041
 8950SOL    HW238310   0.610   4.397  11.340 -1.6844  1.0400  0.1197
 8951SOL     OW38311   4.434   0.965   8.479  0.0872  0.0824  0.4371
 8951SOL    HW138312   4.480   1.017   8.545  1.7107 -0.4161 -0.2961
 8951SOL    HW238313   4.500   0.895   8.477 -0.2354 -0.2344  0.9890
 8952SOL     OW38314   2.969   0.139   7.085 -0.1277  0.1118  0.0890
 8952SOL    HW138315   2.917   0.108   7.159  0.3979  1.3543  0.9885
 8952SOL    HW238316   3.046   0.083   7.098  0.8934  1.3506 -0.6272
 8953SOL     OW38317   4.503   3.148   3.199 -0.1475 -0.2402  0.1284
 8953SOL    HW138318   4.532   3.236   3.223  4.1787 -2.0207  1.6271
 8953SOL    HW238319   4.536   3.095   3.272 -1.3830 -3.3898 -1.5840
 8954SOL     OW38320   1.016   2.014  15.024  0.2383  0.3014  0.8117
 8954SOL    HW138321   1.085   1.951  15.003 -0.3978  0.4654 -1.8170
 8954SOL    HW238322   1.019   2.011  15.120  0.3107 -0.9173  0.7711
 8955SOL     OW38323   0.317   0.786   5.965 -0.3761  0.5073 -0.2359
 8955SOL    HW138324   0.286   0.696   5.967  2.3961 -0.4715 -1.5016
 8955SOL    HW238325   0.367   0.771   5.885  0.8749  1.0912  0.4414
 8956SOL     OW38326   1.676   2.488   7.339  0.0035  0.3731 -0.3829
 8956SOL    HW138327   1.689   2.537   7.257 -1.2620 -0.0474 -0.8441
 8956SOL    HW238328   1.680   2.559   7.404  1.7890  0.8383 -1.0131
 8957SOL     OW38329   0.188   4.513   2.914  0.2225  0.4644 -0.2051
 8957SOL    HW138330   0.212   4.505   3.006 -1.1187 -2.3577 -0.1042
 8957SOL    HW238331   0.204   4.426   2.878 -0.9801 -0.0788  0.5495
 8958SOL     OW38332   3.154   3.808  10.023 -0.2300 -0.6702 -1.0128
 8958SOL    HW138333   3.197   3.769  10.099  1.8898 -1.7754 -2.7681
 8958SOL    HW238334   3.120   3.723   9.996 -0.0167 -0.8532 -0.7086
 8959SOL     OW38335   1.999   0.991   3.411  0.1481  0.6047 -0.1748
 8959SOL    HW138336   1.982   0.930   3.484  1.5488  0.5132  0.0657
 8959SOL    HW238337   2.094   0.989   3.398  0.1799  2.4154 -0.1732
 8960SOL     OW38338   3.799   3.678   5.021  0.0229  0.2721  0.3139
 8960SOL    HW138339   3.724   3.628   5.055 -0.7517 -0.1945 -2.0606
 8960SOL    HW238340   3.829   3.719   5.101 -1.3317  0.1918  0.8553
 8961SOL     OW38341   2.103   1.831   7.819  0.2688  0.1596  0.1293
 8961SOL    HW138342   2.012   1.827   7.792  0.0774 -0.2315  0.8199
 8961SOL    HW238343   2.153   1.803   7.742 -1.3527 -2.6760  0.1062
 8962SOL     OW38344   1.024   2.268   0.992  0.0504  0.2911  0.2829
 8962SOL    HW138345   0.972   2.292   1.069 -0.9364 -0.0489 -0.2691
 8962SOL    HW238346   1.019   2.172   0.988  0.8536  0.2987 -0.6482
 8963SOL     OW38347   0.092   1.389   1.231  0.3666 -0.7353 -0.3413
 8963SOL    HW138348   0.104   1.314   1.290  0.4663 -1.1120 -0.8398
 8963SOL    HW238349   0.184   1.418   1.230  0.2373 -0.3591 -1.0867
 8964SOL     OW38350   1.614   4.387   6.436  0.2164 -0.8768  0.0178
 8964SOL    HW138351   1.530   4.426   6.456 -0.1579 -0.3697 -2.5235
 8964SOL    HW238352   1.604   4.303   6.481  0.3890 -0.8754  0.0589
 8965SOL     OW38353   0.408   4.715  14.697 -0.5003 -0.1455  0.1611
 8965SOL    HW138354   0.490   4.690  14.739 -0.8733  1.6229  2.0023
 8965SOL    HW238355   0.351   4.703  14.773 -0.8416 -3.6162 -0.6297
 8966SOL     OW38356   0.449   3.928   4.459  0.2154 -0.0977  0.4954
 8966SOL    HW138357   0.533   3.920   4.414 -0.8963  2.1159 -1.9894
 8966SOL    HW238358   0.474   3.945   4.550 -0.5647  2.8644  0.1525
 8967SOL     OW38359   0.208   1.795  13.212  0.0064  0.3898  0.2025
 8967SOL    HW138360   0.161   1.818  13.132 -1.1751 -0.4277  0.6633
 8967SOL    HW238361   0.294   1.778  13.173 -0.0613 -2.3229  1.2906
 8968SOL     OW38362   1.909   3.345   7.557 -0.3864 -0.2993 -0.4491
 8968SOL    HW138363   1.966   3.274   7.527  1.0834  0.3115  0.8904
 8968SOL    HW238364   1.945   3.425   7.518  1.9046 -0.1097  1.9791
 8969SOL     OW38365   4.252   0.101   7.374  0.4626  0.1018 -0.5319
 8969SOL    HW138366   4.173   0.155   7.381  1.4274  1.5007 -0.4004
 8969SOL    HW238367   4.293   0.145   7.299  0.1925 -0.6982 -1.1432
 8970SOL     OW38368   3.593   2.594  15.045  0.2572  0.2260  0.3336
 8970SOL    HW138369   3.565   2.668  15.100  0.1262  0.8292 -0.5440
 8970SOL    HW238370   3.577   2.518  15.100 -0.6232  0.3262  0.2226
 8971SOL     OW38371   1.585   0.293  13.726  0.1009  0.3330 -0.1527
 8971SOL    HW138372   1.509   0.258  13.773  1.0797 -1.3203  0.1966
 8971SOL    HW238373   1.557   0.380  13.698 -1.5112  0.2607  1.2215
 8972SOL     OW38374   3.845   0.093   5.839  0.0146  0.1675 -0.1134
 8972SOL    HW138375   3.908   0.051   5.780 -0.5304 -0.1163 -0.4981
 8972SOL    HW238376   3.760   0.061   5.808 -0.0248 -1.0353  1.2463
 8973SOL     OW38377   0.067   2.452   4.744 -0.0403 -0.0399  0.2325
 8973SOL    HW138378   0.088   2.368   4.704 -1.1790 -0.0328 -0.3935
 8973SOL    HW238379   0.032   2.500   4.668  0.9876 -0.4888 -0.5219
 8974SOL     OW38380   2.215   4.004   1.304  0.1945  0.1603  0.0518
 8974SOL    HW138381   2.272   4.079   1.288  1.8698 -0.4547  3.2102
 8974SOL    HW238382   2.128   4.041   1.319  0.1295 -0.3001  0.8388
 8975SOL     OW38383   0.072   2.212  13.068 -0.2193 -0.5616  0.1002
 8975SOL    HW138384   0.144   2.229  13.008  0.5577 -0.7826  0.9694
 8975SOL    HW238385   0.130   2.162  13.125  0.4287  0.0058 -0.0678
 8976SOL     OW38386   3.205   0.252   4.515 -0.3997  0.1250  0.5648
 8976SOL    HW138387   3.281   0.281   4.464 -0.6577 -0.6673 -0.2703
 8976SOL    HW238388   3.153   0.217   4.443 -0.3532 -1.3838  1.2612
 8977SOL     OW38389   0.300   1.524   4.327 -0.1434  0.0730  0.3885
 8977SOL    HW138390   0.296   1.540   4.233 -2.5958  1.6093  0.7681
 8977SOL    HW238391   0.301   1.429   4.338 -2.2892 -0.1112 -1.1545
 8978SOL     OW38392   2.066   3.973   1.714 -0.3481  0.1396 -0.1269
 8978SOL    HW138393   2.132   4.024   1.667 -0.5978  0.7525  0.1794
 8978SOL    HW238394   2.036   4.044   1.770  1.2638 -1.6997  3.0767
 8979SOL     OW38395   1.537   1.803  10.232 -0.5256 -0.0297 -0.3473
 8979SOL    HW138396   1.600   1.825  10.300  1.2211 -0.9635 -1.6323
 8979SOL    HW238397   1.516   1.710  10.242  1.0759 -0.4671 -0.9477
 8980SOL     OW38398   4.122   3.633   7.810 -0.7909  0.3616 -0.5236
 8980SOL    HW138399   4.041   3.655   7.856  0.3912  1.8487  0.8385
 8980SOL    HW238400   4.189   3.671   7.867  0.0701 -2.0244  0.0689
 8981SOL     OW38401   0.429   4.690  14.421 -0.1848  0.4647  0.3169
 8981SOL    HW138402   0.364   0.029  14.394 -1.6936 -0.6073  1.3187
 8981SOL    HW238403   0.409   4.691  14.515  0.4220 -0.2055  0.4496
 8982SOL     OW38404   2.063   0.556   1.276 -0.1744  0.5022 -0.5334
 8982SOL    HW138405   2.023   0.599   1.352  0.0959 -1.5300  0.7701
 8982SOL    HW238406   1.979   0.522   1.244 -0.0368 -1.1322  0.8381
 8983SOL     OW38407   0.284   2.488   4.919  0.2487  0.3338 -0.0953
 8983SOL    HW138408   0.216   2.451   4.862 -1.1235  0.7217  1.2696
 8983SOL    HW238409   0.287   2.578   4.888  0.7934 -0.0366 -1.1077
 8984SOL     OW38410   2.373   3.316   8.349  0.2778  0.3391 -0.1094
 8984SOL    HW138411   2.389   3.228   8.315 -0.9679  0.0070  0.1733
 8984SOL    HW238412   2.462   3.350   8.340  0.6560 -1.5877 -3.7710
 8985SOL     OW38413   0.518   4.382   6.033  0.0773  0.2182  0.0275
 8985SOL    HW138414   0.497   4.405   5.942  0.3514 -0.2472 -0.1510
 8985SOL    HW238415   0.519   4.287   6.020 -1.6102  0.1789  0.1328
 8986SOL     OW38416   3.824   4.137  12.076  0.2938  0.1901  0.5770
 8986SOL    HW138417   3.893   4.095  12.025  0.4558  0.0677  0.8964
 8986SOL    HW238418   3.817   4.096  12.162 -0.3412  0.0171  0.4474
 8987SOL     OW38419   2.243   4.220   5.414  0.4817  0.2555  0.0935
 8987SOL    HW138420   2.253   4.305   5.456  0.3553 -0.1518  0.9391
 8987SOL    HW238421   2.266   4.169   5.491  0.4247 -1.0229 -0.7264
 8988SOL     OW38422   4.105   0.730   5.138  0.0622  0.0181  0.1069
 8988SOL    HW138423   4.055   0.651   5.155 -1.7175  0.8776 -1.1587
 8988SOL    HW238424   4.040   0.793   5.170 -2.0689 -1.2139 -1.8642
 8989SOL     OW38425   0.006   2.382   6.848  0.3808  0.4736  0.1988
 8989SOL    HW138426   4.681   2.391   6.768 -0.8716  2.8259  1.2811
 8989SOL    HW238427   0.091   2.383   6.804  0.5674 -0.8471  0.5163
 8990SOL     OW38428   2.011   4.405   2.562 -0.0032 -0.3500  0.0512
 8990SOL    HW138429   2.075   4.475   2.564 -1.8739  1.3845 -0.8419
 8990SOL    HW238430   1.999   4.368   2.650  1.3341 -3.3361 -1.0443
 8991SOL     OW38431   2.735   1.756   7.127  0.3439 -0.0671  0.3500
 8991SOL    HW138432   2.674   1.707   7.070  1.0369 -2.8630  2.0122
 8991SOL    HW238433   2.718   1.841   7.088  1.6047 -0.0981 -0.2488
 8992SOL     OW38434   4.256   4.214  10.712 -0.3902  0.3820 -0.0730
 8992SOL    HW138435   4.301   4.281  10.660 -0.9528 -0.2623 -1.3592
 8992SOL    HW238436   4.167   4.245  10.727 -0.1272  0.5865  1.1477
 8993SOL     OW38437   2.191   2.116   7.716  0.1301 -0.2477  0.2833
 8993SOL    HW138438   2.237   2.071   7.787  0.7484 -1.1329 -0.6715
 8993SOL    HW238439   2.107   2.115   7.762  0.6917  0.5326  1.3069
 8994SOL     OW38440   0.469   0.833   7.227  0.7567 -0.0707  0.1294
 8994SOL    HW138441   0.555   0.871   7.207  0.1706  1.0515 -0.2163
 8994SOL    HW238442   0.477   0.831   7.322  1.7461 -0.6079  0.0431
 8995SOL     OW38443   1.195   2.106  12.107  0.3004 -0.2912  0.1698
 8995SOL    HW138444   1.146   2.157  12.042 -0.0708 -1.8850 -0.8249
 8995SOL    HW238445   1.236   2.043  12.048 -0.7510 -0.4580 -0.3818
 8996SOL     OW38446   1.244   1.078   0.439  0.0972 -0.2985 -0.2579
 8996SOL    HW138447   1.166   1.048   0.486 -0.7823  1.6601 -0.4668
 8996SOL    HW238448   1.287   1.000   0.406  2.3959  1.4091 -1.2363
 8997SOL     OW38449   1.087   3.203   7.634 -0.0546 -0.1128  0.8473
 8997SOL    HW138450   1.163   3.220   7.690  0.5695 -0.2755  0.0525
 8997SOL    HW238451   1.026   3.261   7.679  1.8551  0.9720  2.0609
 8998SOL     OW38452   3.301   1.071   3.290  0.2371 -0.1661 -0.2049
 8998SOL    HW138453   3.294   1.134   3.218  3.9336  0.9117  0.3546
 8998SOL    HW238454   3.256   1.108   3.365  0.8499 -0.5874  0.3748
 8999SOL     OW38455   1.239   0.276  17.217  0.0292  0.1223  0.0973
 8999SOL    HW138456   1.157   0.244  17.179  0.7977 -2.0615  0.3061
 8999SOL    HW238457   1.216   0.337  17.288 -0.7337 -0.8828  0.7128
 9000SOL     OW38458   1.004   0.555   5.020  0.0204 -0.1955  0.3869
 9000SOL    HW138459   1.083   0.509   4.991 -0.9423 -1.3150 -0.4776
 9000SOL    HW238460   0.936   0.491   4.999 -0.3853  1.0390 -2.0872
 9001SOL     OW38461   0.497   3.789  13.355  0.0824 -0.1716 -0.4539
 9001SOL    HW138462   0.561   3.858  13.373 -2.3363  2.1318 -0.6398
 9001SOL    HW238463   0.529   3.711  13.401  0.5011  1.1906  1.5400
 9002SOL     OW38464   3.644   3.101   0.141 -0.6426  0.0883 -0.2658
 9002SOL    HW138465   3.624   3.021   0.190 -0.4445  0.1790 -0.0375
 9002SOL    HW238466   3.578   3.148   0.191  1.3777  1.7276  0.8377
 9003SOL     OW38467   3.680   4.222  15.879  0.5968 -0.1535  0.0347
 9003SOL    HW138468   3.654   4.130  15.890 -1.7338  0.3136 -1.5248
 9003SOL    HW238469   3.604   4.264  15.920 -0.1312  1.0316 -2.5808
 9004SOL     OW38470   3.120   0.456   5.723 -0.3699  0.0887 -0.0676
 9004SOL    HW138471   3.193   0.457   5.784  0.7840 -2.3053 -1.3845
 9004SOL    HW238472   3.063   0.401   5.776  0.9751 -0.0585  1.2327
 9005SOL     OW38473   2.796   3.971   2.830  0.3941  1.0567  0.0584
 9005SOL    HW138474   2.805   3.912   2.904  0.3110  0.5056 -0.3736
 9005SOL    HW238475   2.876   4.024   2.835  2.4872 -2.0889 -0.2935
 9006SOL     OW38476   4.323   2.697   1.076 -0.1140 -0.4774 -0.0600
 9006SOL    HW138477   4.264   2.694   1.001 -0.5007  1.4940  0.1828
 9006SOL    HW238478   4.404   2.723   1.031 -0.3543 -0.0965 -0.2709
 9007SOL     OW38479   2.639   3.387   2.269 -0.2902  0.5788  0.0400
 9007SOL    HW138480   2.729   3.358   2.251 -0.5635 -1.1752  1.3943
 9007SOL    HW238481   2.599   3.375   2.183  1.3346  0.9662 -0.7834
 9008SOL     OW38482   0.787   0.124   5.323  0.2509  0.1623  0.6349
 9008SOL    HW138483   0.836   0.073   5.259 -1.1062 -1.9235  1.2468
 9008SOL    HW238484   0.824   0.095   5.407 -0.9913 -1.7234  0.5207
 9009SOL     OW38485   4.495   4.476   1.826 -0.4091  0.3372  0.0602
 9009SOL    HW138486   4.423   4.539   1.823  1.2281  2.1776 -0.3877
 9009SOL    HW238487   4.546   4.496   1.904  0.9437  0.1420 -0.7675
 9010SOL     OW38488   2.194   4.149   2.447  0.1300  0.4236 -0.0381
 9010SOL    HW138489   2.221   4.227   2.495 -2.2826  1.3479 -0.1888
 9010SOL    HW238490   2.232   4.168   2.362  0.4941 -1.1597 -0.2167
 9011SOL     OW38491   1.979   4.678   8.822 -0.3353  0.2112 -0.1889
 9011SOL    HW138492   2.042   4.673   8.894 -2.3460 -0.2284  1.5533
 9011SOL    HW238493   1.903   4.633   8.859  0.5902 -0.8926  0.3494
 9012SOL     OW38494   4.131   4.418   5.578  0.1686  0.2244 -0.0329
 9012SOL    HW138495   4.225   4.435   5.579  0.1272  0.4919 -1.0491
 9012SOL    HW238496   4.128   4.362   5.501  0.9023 -1.0670  0.8678
 9013SOL     OW38497   0.279   3.248   3.267  0.5090  0.1857 -0.4856
 9013SOL    HW138498   0.354   3.266   3.209 -1.0205  1.0801 -2.2002
 9013SOL    HW238499   0.223   3.198   3.208 -1.4705  1.1328  0.5879
 9014SOL     OW38500   2.534   3.184   2.416 -0.6954  0.8743 -0.9188
 9014SOL    HW138501   2.528   3.135   2.334 -3.1848  2.1162 -1.4849
 9014SOL    HW238502   2.588   3.259   2.391 -1.8814  2.0821  0.0906
 9015SOL     OW38503   1.605   0.054   0.145  0.0204 -0.2241  0.0975
 9015SOL    HW138504   1.640   0.096   0.223  0.3619 -0.3342  0.0014
 9015SOL    HW238505   1.531   0.009   0.186 -1.2681  2.9901  1.3244
 9016SOL     OW38506   1.545   3.550   8.033  0.4804 -0.1766  0.4199
 9016SOL    HW138507   1.627   3.557   8.083  2.1001 -1.4414 -2.0717
 9016SOL    HW238508   1.548   3.459   8.004 -0.1046 -0.3015  0.7506
 9017SOL     OW38509   1.765   2.397   2.691  0.3038 -0.5623 -0.6059
 9017SOL    HW138510   1.684   2.445   2.706  0.8371  0.2078 -0.1831
 9017SOL    HW238511   1.759   2.319   2.746 -1.5371  0.5603  0.7756
 9018SOL     OW38512   3.785   2.651   8.310  0.2026  0.3930  0.2254
 9018SOL    HW138513   3.736   2.606   8.380  1.5787 -2.1133 -0.4117
 9018SOL    HW238514   3.773   2.743   8.334  0.5737  0.8577 -1.4333
 9019SOL     OW38515   4.378   3.445   2.463 -0.1063 -0.3513  0.5578
 9019SOL    HW138516   4.394   3.461   2.370  0.4571 -0.6138  0.6069
 9019SOL    HW238517   4.405   3.530   2.498  0.0295 -0.4610  0.7162
 9020SOL     OW38518   1.810   3.231   5.860 -0.2235  0.3302  0.0889
 9020SOL    HW138519   1.827   3.307   5.805  1.0344 -1.6961 -2.2926
 9020SOL    HW238520   1.868   3.167   5.819 -1.4480 -0.4445 -0.4364
 9021SOL     OW38521   1.639   3.796   3.690  0.4650  0.8484 -0.3449
 9021SOL    HW138522   1.708   3.850   3.729 -0.7999  2.1145  0.1182
 9021SOL    HW238523   1.674   3.708   3.706 -0.0578 -0.0246 -3.9803
 9022SOL     OW38524   4.348   2.467   3.147  0.0130  0.7540  0.4228
 9022SOL    HW138525   4.432   2.512   3.139  0.2446  0.2758  0.1500
 9022SOL    HW238526   4.322   2.449   3.057 -3.7310 -0.9934  1.8364
 9023SOL     OW38527   3.843   0.575   8.264  0.7521  0.0777 -0.3146
 9023SOL    HW138528   3.932   0.563   8.229  1.9200  2.5647  1.8456
 9023SOL    HW238529   3.794   0.621   8.196  0.4918 -0.4301 -0.4718
 9024SOL     OW38530   1.743   0.828   8.472 -0.3434  0.0923  0.3763
 9024SOL    HW138531   1.652   0.859   8.474 -0.4874 -0.3506  0.5597
 9024SOL    HW238532   1.735   0.764   8.542 -2.7063 -2.5588 -2.3131
 9025SOL     OW38533   1.388   3.911   8.734 -0.2854 -0.3683  0.1500
 9025SOL    HW138534   1.403   3.825   8.692 -1.7391 -0.9545  0.8326
 9025SOL    HW238535   1.295   3.903   8.755 -0.3826 -0.2481 -0.2368
 9026SOL     OW38536   0.432   3.208   3.807 -0.1530 -0.0398  0.2420
 9026SOL    HW138537   0.448   3.186   3.899  1.1306  0.1193  0.0474
 9026SOL    HW238538   0.504   3.166   3.760 -0.6133 -1.4549  0.7700
 9027SOL     OW38539   2.380   3.662   3.964 -0.3816 -0.1522 -0.2221
 9027SOL    HW138540   2.334   3.668   3.881  0.2909  3.2816 -0.3304
 9027SOL    HW238541   2.319   3.704   4.025  1.6079  0.6197  1.2504
 9028SOL     OW38542   1.082   2.083  16.151 -0.8703 -0.5258  0.1691
 9028SOL    HW138543   1.101   2.039  16.069 -0.1630 -0.5722  0.3537
 9028SOL    HW238544   1.171   2.111  16.175 -0.4400 -1.4047 -0.4305
 9029SOL     OW38545   1.728   2.264   5.230  0.0200  0.1285 -0.3950
 9029SOL    HW138546   1.779   2.272   5.310 -1.0997  0.5140  0.2870
 9029SOL    HW238547   1.634   2.251   5.245  0.2960  1.8802  2.8315
 9030SOL     OW38548   3.111   4.085   1.308  0.4139 -0.1389  0.3364
 9030SOL    HW138549   3.094   4.180   1.303  2.7653  0.2796  0.4904
 9030SOL    HW238550   3.061   4.047   1.380  0.2552  0.1083  0.3576
 9031SOL     OW38551   4.020   0.554   9.700 -0.3090  0.0144 -0.5109
 9031SOL    HW138552   3.980   0.469   9.683 -2.5770  0.7815  0.8832
 9031SOL    HW238553   3.952   0.607   9.657 -1.2148 -0.4953  0.2897
 9032SOL     OW38554   4.088   2.406   2.253 -0.2865 -0.9085 -0.1469
 9032SOL    HW138555   4.123   2.495   2.259 -2.0659 -0.1962 -0.2832
 9032SOL    HW238556   4.009   2.413   2.306 -0.3885  2.4397 -0.7534
 9033SOL     OW38557   4.702   4.222   3.535 -0.4095 -0.1095  0.0113
 9033SOL    HW138558   4.609   4.229   3.513 -0.4949 -0.5452  0.2444
 9033SOL    HW238559   0.004   4.305   3.495  1.0705 -0.8708 -0.5466
 9034SOL     OW38560   0.653   0.118   8.712 -0.2373 -0.9838  0.0728
 9034SOL    HW138561   0.614   0.115   8.624 -0.4900 -1.7857  0.2082
 9034SOL    HW238562   0.601   0.189   8.749  0.8762 -0.4774  0.6561
 9035SOL     OW38563   4.201   2.870   4.834 -0.3376 -0.0780  0.0541
 9035SOL    HW138564   4.184   2.876   4.740 -0.8861  0.0957  0.1628
 9035SOL    HW238565   4.148   2.942   4.866 -0.4158  0.0128 -0.2874
 9036SOL     OW38566   2.374   0.384   5.860  0.0735 -0.5347  0.0714
 9036SOL    HW138567   2.436   0.358   5.792  0.1035  1.1209 -0.5375
 9036SOL    HW238568   2.403   0.305   5.905  1.4537  0.0217  0.1448
 9037SOL     OW38569   3.833   2.188   0.652  0.4616 -0.5220  0.5303
 9037SOL    HW138570   3.904   2.130   0.680  0.2269 -1.3687 -0.6251
 9037SOL    HW238571   3.861   2.208   0.563  2.1779 -3.9109  0.3178
 9038SOL     OW38572   1.763   4.055   5.889 -0.1583  0.1793 -0.2662
 9038SOL    HW138573   1.799   4.140   5.916  0.9541 -0.3986  0.0507
 9038SOL    HW238574   1.742   4.022   5.977 -0.9813  2.5731  0.4397
 9039SOL     OW38575   3.998   1.333   4.375  0.3562  0.2672  0.0347
 9039SOL    HW138576   4.063   1.382   4.425  1.3242 -0.3338 -0.6322
 9039SOL    HW238577   3.923   1.391   4.386 -0.7733 -1.0046 -0.9479
 9040SOL     OW38578   1.578   1.894   3.019 -0.1143 -0.0783 -0.5011
 9040SOL    HW138579   1.585   1.924   3.109 -0.2587 -1.1032 -0.1459
 9040SOL    HW238580   1.558   1.801   3.035  1.5751 -0.5862 -1.3700
 9041SOL     OW38581   1.863   3.564   7.991 -0.7591 -0.1208  0.4920
 9041SOL    HW138582   1.913   3.641   8.017 -0.3817  0.7104 -2.7581
 9041SOL    HW238583   1.836   3.524   8.074  2.1531 -0.8209  1.0915
 9042SOL     OW38584   0.366   1.660   9.054  0.2914 -0.0741 -0.0719
 9042SOL    HW138585   0.298   1.622   8.999 -1.3219  1.6715  0.7185
 9042SOL    HW238586   0.364   1.751   9.022 -0.3967  0.3746  1.2542
 9043SOL     OW38587   2.556   2.190   6.944  0.4780  0.9549  0.1660
 9043SOL    HW138588   2.481   2.210   6.889  1.6878 -0.8177 -2.1012
 9043SOL    HW238589   2.532   2.222   7.031  1.6338 -0.7252  1.1043
 9044SOL     OW38590   0.558   2.798   9.125  0.2240 -0.1549  0.0710
 9044SOL    HW138591   0.474   2.753   9.135  0.7319 -0.8881  1.0420
 9044SOL    HW238592   0.616   2.728   9.155  0.5339  0.2653  0.4536
 9045SOL     OW38593   0.509   0.785  11.769  0.4293 -0.3312 -0.0113
 9045SOL    HW138594   0.543   0.848  11.705  1.5204 -1.2066 -0.2807
 9045SOL    HW238595   0.473   0.845  11.834  0.7729  1.2322 -1.2540
 9046SOL     OW38596   0.093   0.867   3.266 -0.3402 -0.1867  0.4136
 9046SOL    HW138597   0.052   0.954   3.265 -0.1077 -0.1317 -2.5835
 9046SOL    HW238598   0.151   0.875   3.191 -0.0130 -0.8079  0.6025
 9047SOL     OW38599   1.997   1.585   7.305 -0.4601  0.4459  0.0378
 9047SOL    HW138600   1.946   1.504   7.317 -0.5666  0.5538  0.3000
 9047SOL    HW238601   2.047   1.566   7.225 -0.2659  0.8523  0.0660
 9048SOL     OW38602   0.227   2.419   8.444 -0.6819 -0.1075 -0.1035
 9048SOL    HW138603   0.316   2.387   8.429 -1.4267 -2.8777  1.2239
 9048SOL    HW238604   0.228   2.506   8.406  2.4325  0.9193  2.3810
 9049SOL     OW38605   2.474   1.683   3.391 -0.1090  0.6241  0.6058
 9049SOL    HW138606   2.493   1.694   3.298  0.9354 -2.2345  0.5002
 9049SOL    HW238607   2.384   1.650   3.388  0.3180 -0.3623 -1.7321
 9050SOL     OW38608   2.777   0.709   6.461  0.1351  0.5253  0.1309
 9050SOL    HW138609   2.684   0.723   6.480  0.0739  0.0635  0.1843
 9050SOL    HW238610   2.821   0.785   6.497 -0.5586  1.1782 -0.3883
 9051SOL     OW38611   3.759   0.027   6.980 -0.2621  0.5100  0.2228
 9051SOL    HW138612   3.690   0.035   6.915 -1.6224 -1.1017  1.4729
 9051SOL    HW238613   3.804   4.670   6.962 -1.4980  0.2873 -1.8132
 9052SOL     OW38614   2.270   0.067   7.704 -0.6743  0.2087  0.1517
 9052SOL    HW138615   2.282   0.133   7.636  1.5183 -0.9723 -0.5951
 9052SOL    HW238616   2.190   0.101   7.745  0.2702  0.5907  1.7144
 9053SOL     OW38617   2.453   4.721   2.678 -0.2699  0.2641 -0.8374
 9053SOL    HW138618   2.523   4.706   2.615  1.0498  0.1466  0.6634
 9053SOL    HW238619   2.449   0.091   2.686 -0.7249  0.3173 -1.6691
 9054SOL     OW38620   3.726   2.690   6.898  0.2166  0.5302  0.2134
 9054SOL    HW138621   3.801   2.739   6.866  0.7012 -0.2752  0.1357
 9054SOL    HW238622   3.760   2.666   6.985 -0.9412  0.8112  0.7533
 9055SOL     OW38623   3.400   4.718  13.803 -0.0159 -0.1903  0.5340
 9055SOL    HW138624   3.473   0.054  13.799  1.6294 -2.0602  1.5375
 9055SOL    HW238625   3.330   0.055  13.819  1.6713  1.3199  2.0557
 9056SOL     OW38626   3.113   4.123  16.980  0.0417  0.0295  0.3584
 9056SOL    HW138627   3.145   4.144  16.892  0.4879  0.4931  0.6356
 9056SOL    HW238628   3.135   4.198  17.034  2.0148 -0.4029  0.1563
 9057SOL     OW38629   3.223   4.314   6.200 -0.4375  0.2016  0.0319
 9057SOL    HW138630   3.177   4.238   6.234  1.6720 -0.6551  0.9925
 9057SOL    HW238631   3.266   4.338   6.283 -1.7895  0.4943  0.6422
 9058SOL     OW38632   3.207   3.648   7.515  0.2196 -0.2200  0.1675
 9058SOL    HW138633   3.294   3.618   7.539 -0.0604 -1.2852 -0.1887
 9058SOL    HW238634   3.152   3.576   7.544 -0.8386 -0.3710 -2.2653
 9059SOL     OW38635   4.061   2.141   7.323  0.2131  0.2293  0.8421
 9059SOL    HW138636   4.068   2.075   7.254  2.4540  1.2392  0.1120
 9059SOL    HW238637   4.151   2.154   7.352  1.3063 -0.9325 -2.0153
 9060SOL     OW38638   3.862   1.907   6.121 -0.1532 -0.4150 -0.3586
 9060SOL    HW138639   3.857   1.965   6.197  2.4482 -0.0364 -0.4526
 9060SOL    HW238640   3.797   1.849   6.159 -2.1951  0.5448 -2.4429
 9061SOL     OW38641   3.913   2.060   9.831 -0.2187  0.0238  0.3498
 9061SOL    HW138642   3.920   2.096   9.920 -1.5776 -2.1634  1.3675
 9061SOL    HW238643   3.887   1.969   9.850 -1.6393  0.4354  0.4180
 9062SOL     OW38644   1.438   3.863   9.616  0.2816 -0.3907  0.1494
 9062SOL    HW138645   1.481   3.778   9.622 -0.3813 -0.7685 -0.5607
 9062SOL    HW238646   1.378   3.864   9.691  0.6183  2.4264  0.4044
 9063SOL     OW38647   3.597   1.122   6.064 -0.0805 -0.0460  0.6215
 9063SOL    HW138648   3.554   1.067   6.129 -0.3862  0.2504  0.6687
 9063SOL    HW238649   3.530   1.185   6.038  0.1087 -1.3518 -3.0436
 9064SOL     OW38650   3.486   3.145  17.029  0.1370  0.0576  0.3512
 9064SOL    HW138651   3.495   3.233  16.992  0.9703  0.0787  0.6013
 9064SOL    HW238652   3.434   3.167  17.106  0.6255  1.2393  0.3415
 9065SOL     OW38653   3.930   4.322  15.865 -0.0044  0.1382  0.4865
 9065SOL    HW138654   3.935   4.350  15.773  2.9106 -0.4545  0.4629
 9065SOL    HW238655   3.845   4.278  15.861  0.4835 -0.9968  2.8113
 9066SOL     OW38656   2.394   4.445   2.055  0.4748  0.1979 -0.0028
 9066SOL    HW138657   2.401   4.445   2.151  1.8461  1.9098 -0.0915
 9066SOL    HW238658   2.442   4.523   2.029  2.7887 -0.8387  1.1330
 9067SOL     OW38659   0.117   2.938  16.790  0.0540  0.1783  0.1555
 9067SOL    HW138660   0.139   2.848  16.815 -0.8618 -0.3067 -0.8179
 9067SOL    HW238661   0.201   2.983  16.781 -0.4174  0.6410 -1.8047
 9068SOL     OW38662   1.754   2.230   3.746 -0.1233 -0.4413  0.6844
 9068SOL    HW138663   1.742   2.268   3.833  3.0314  0.3154  0.7747
 9068SOL    HW238664   1.832   2.174   3.749 -0.5381 -1.1401 -1.4724
 9069SOL     OW38665   0.116   1.519   5.221 -0.3817  0.2878  0.4886
 9069SOL    HW138666   0.153   1.595   5.267 -1.6504  0.6679  0.8835
 9069SOL    HW238667   0.021   1.530   5.226 -0.3686  0.7430 -0.1965
 9070SOL     OW38668   0.534   0.963   1.869 -0.0656  0.1185 -0.3946
 9070SOL    HW138669   0.574   0.891   1.917  0.0646  0.9037  0.7019
 9070SOL    HW238670   0.479   0.999   1.939 -3.1365 -1.3100 -2.1172
 9071SOL     OW38671   1.411   0.140   9.885  0.1081 -0.1966  0.1241
 9071SOL    HW138672   1.423   0.234   9.871 -0.7414  0.0098  0.7627
 9071SOL    HW238673   1.363   0.160   9.965 -3.8483 -1.5734 -1.8869
 9072SOL     OW38674   3.744   0.144  12.031  0.5218 -0.3844  0.5717
 9072SOL    HW138675   3.652   0.118  12.016  0.8533 -2.3226  1.8908
 9072SOL    HW238676   3.784   0.077  12.086 -0.3322 -0.6599  0.8613
 9073SOL     OW38677   2.914   3.417   4.390  0.2778 -0.2906  0.5339
 9073SOL    HW138678   2.917   3.500   4.438  1.1953  0.6723 -1.1614
 9073SOL    HW238679   2.918   3.363   4.469  0.3912  1.2740  1.5898
 9074SOL     OW38680   3.679   0.909   6.374  0.1649 -0.0853  0.0661
 9074SOL    HW138681   3.688   0.991   6.423 -2.0720  0.7590 -0.9508
 9074SOL    HW238682   3.763   0.864   6.385  1.2605  1.6397 -1.0160
 9075SOL     OW38683   4.017   4.108   0.229  0.2207 -0.3400 -0.0522
 9075SOL    HW138684   4.006   4.203   0.223  1.1939 -0.2708 -0.7737
 9075SOL    HW238685   3.999   4.075   0.141  0.4121 -1.8939  0.4982
 9076SOL     OW38686   2.037   0.588  11.237 -0.1039  0.1709  0.9070
 9076SOL    HW138687   2.107   0.537  11.278  0.8869  0.6274 -0.2230
 9076SOL    HW238688   2.072   0.677  11.237  1.1407 -0.3206 -1.0027
 9077SOL     OW38689   2.897   1.506   4.174  0.0296  0.0444 -0.4048
 9077SOL    HW138690   2.970   1.538   4.227 -0.2975  2.6320 -1.5022
 9077SOL    HW238691   2.943   1.528   4.093 -1.9199 -0.3251 -1.6305
 9078SOL     OW38692   0.589   0.549   7.983 -0.4167  0.0724 -0.4725
 9078SOL    HW138693   0.673   0.589   7.962  0.4016 -0.6776  1.3422
 9078SOL    HW238694   0.522   0.611   7.958  0.9762  1.4494 -0.7679
 9079SOL     OW38695   0.968   0.627   1.368  0.0306  0.1839 -0.4192
 9079SOL    HW138696   0.896   0.576   1.330 -0.4007  0.5828 -0.1420
 9079SOL    HW238697   1.012   0.556   1.414 -0.6038  1.7087  2.5294
 9080SOL     OW38698   1.400   3.235  17.599  0.0451  0.7027 -0.4010
 9080SOL    HW138699   1.332   3.203  17.539 -0.0065  0.6055 -0.2909
 9080SOL    HW238700   1.359   3.317  17.628  2.0781  2.1507 -1.6542
 9081SOL     OW38701   0.599   0.311   2.950 -0.2218 -0.0967  0.2538
 9081SOL    HW138702   0.655   0.378   2.910  1.5403 -1.6263  0.1991
 9081SOL    HW238703   0.615   0.334   3.042  3.3855 -1.0817 -0.1467
 9082SOL     OW38704   3.644   1.748   3.120 -0.3828  0.4358 -0.0562
 9082SOL    HW138705   3.574   1.700   3.163 -0.0177 -0.8295 -0.8851
 9082SOL    HW238706   3.620   1.726   3.030 -0.2332  0.4844 -0.1095
 9083SOL     OW38707   0.556   4.200   2.926  0.3354 -1.1312 -0.0347
 9083SOL    HW138708   0.565   4.200   2.831 -3.1845 -1.2441 -0.3736
 9083SOL    HW238709   0.484   4.136   2.926  0.5646 -1.3941 -1.1919
 9084SOL     OW38710   1.608   1.667   7.885 -0.0692 -0.1872  0.0218
 9084SOL    HW138711   1.694   1.680   7.926  0.0185  1.3981 -0.6693
 9084SOL    HW238712   1.598   1.573   7.899 -0.7333 -0.3814 -1.8487
 9085SOL     OW38713   4.493   3.172   2.465  0.1377 -0.1196  0.1328
 9085SOL    HW138714   4.432   3.245   2.462  0.3795  0.0721 -0.2375
 9085SOL    HW238715   4.567   3.218   2.425  1.8578 -1.7277  1.4466
 9086SOL     OW38716   3.775   2.855   8.619 -0.5139 -0.1333 -0.7468
 9086SOL    HW138717   3.835   2.793   8.577 -1.8566 -2.4473  0.7540
 9086SOL    HW238718   3.792   2.835   8.711  0.4044  0.5947 -0.7574
 9087SOL     OW38719   3.876   2.730  17.257 -0.0317  0.3171 -0.3217
 9087SOL    HW138720   3.807   2.688  17.308 -0.2905  1.1964  0.0524
 9087SOL    HW238721   3.835   2.816  17.240  0.0709  0.8423  2.0910
 9088SOL     OW38722   1.958   0.076  10.231  0.5218  0.1813 -0.0265
 9088SOL    HW138723   1.974   0.022  10.154  0.2716 -0.6097  0.4834
 9088SOL    HW238724   1.870   0.046  10.256  0.3444  2.1579  1.7714
 9089SOL     OW38725   4.156   0.859   9.377  0.0302  0.0514  0.2554
 9089SOL    HW138726   4.173   0.788   9.316 -0.4245 -0.7299  1.0333
 9089SOL    HW238727   4.136   0.930   9.317  0.7465  1.0470  1.1903
 9090SOL     OW38728   3.217   0.821  10.752 -0.3500  0.1015  0.2908
 9090SOL    HW138729   3.195   0.740  10.798  0.3328 -0.0885  0.2841
 9090SOL    HW238730   3.149   0.883  10.779 -0.9787 -0.0962 -0.8731
 9091SOL     OW38731   2.957   0.916  10.847  0.7079  0.4337  0.8109
 9091SOL    HW138732   2.922   1.001  10.872  0.2554  0.7915 -1.0432
 9091SOL    HW238733   2.897   0.899  10.774  1.7543  0.3566 -0.0273
 9092SOL     OW38734   1.213   2.593   3.076  0.3124 -0.4255 -1.0258
 9092SOL    HW138735   1.228   2.625   2.987  0.7226  0.9592 -0.4568
 9092SOL    HW238736   1.301   2.571   3.104 -0.0748 -2.1815 -1.1771
 9093SOL     OW38737   0.044   3.294  13.156  0.3867 -0.0280  0.3137
 9093SOL    HW138738   0.114   3.233  13.131  0.4811  0.1484  0.1419
 9093SOL    HW238739   4.704   3.278  13.088 -0.5617  1.7959  0.8260
 9094SOL     OW38740   2.024   1.318   4.857  0.0951 -0.2674 -0.0266
 9094SOL    HW138741   2.003   1.288   4.945 -1.8199  1.5090  0.1109
 9094SOL    HW238742   2.037   1.229   4.823 -0.4437  0.0069 -0.9432
 9095SOL     OW38743   3.144   2.654   7.399 -0.4089  0.2657  0.3477
 9095SOL    HW138744   3.141   2.606   7.481  0.4626  0.5067  0.5196
 9095SOL    HW238745   3.214   2.711   7.430 -0.0916 -0.1881  0.4701
 9096SOL     OW38746   4.407   3.288   1.487 -0.3314 -0.1797  0.2172
 9096SOL    HW138747   4.342   3.333   1.542  1.5532  0.5495  1.8608
 9096SOL    HW238748   4.405   3.198   1.518 -1.8202 -0.1675  0.1724
 9097SOL     OW38749   4.060   0.123   3.759  0.2097 -0.3242 -0.0487
 9097SOL    HW138750   4.054   0.218   3.746 -0.6808 -0.7313 -2.4597
 9097SOL    HW238751   4.028   0.095   3.674  1.2101  1.6638 -1.0738
 9098SOL     OW38752   0.302   2.284   3.215 -0.4692 -0.4648 -0.4709
 9098SOL    HW138753   0.243   2.223   3.259 -0.6433 -0.8304 -1.2089
 9098SOL    HW238754   0.241   2.351   3.185 -0.5751 -0.7679 -0.9327
 9099SOL     OW38755   2.058   3.740  10.209 -0.2103 -0.0136  0.2119
 9099SOL    HW138756   2.087   3.776  10.294  0.1721  1.9385 -0.7423
 9099SOL    HW238757   1.980   3.696  10.242 -0.4892 -0.7476 -1.4643
 9100SOL     OW38758   2.348   0.229   1.928 -0.0507  0.0220  0.4305
 9100SOL    HW138759   2.350   0.290   1.855  2.2243 -3.2493 -2.2569
 9100SOL    HW238760   2.391   0.283   1.995  1.1402 -0.7611  0.3078
 9101SOL     OW38761   3.138   3.999   8.486  0.1344 -0.4703 -0.5046
 9101SOL    HW138762   3.106   3.969   8.401  2.5039  0.1435 -1.6132
 9101SOL    HW238763   3.149   3.919   8.537 -2.8051 -1.2001 -1.0130
 9102SOL     OW38764   0.928   0.380   8.102  0.0803 -0.4053  0.4383
 9102SOL    HW138765   0.859   0.344   8.046  0.0887 -1.7896  1.3177
 9102SOL    HW238766   1.007   0.353   8.054  0.0981 -0.4101  0.4704
 9103SOL     OW38767   4.642   4.245   1.915 -0.0408  0.2995  0.4161
 9103SOL    HW138768   4.656   4.238   1.821 -1.7178 -1.1617  0.2731
 9103SOL    HW238769   4.570   4.306   1.927  1.2747  2.0507 -0.6167
 9104SOL     OW38770   2.118   0.145  14.571 -0.0274  0.2032 -0.3337
 9104SOL    HW138771   2.087   0.226  14.531 -2.1695 -0.7511 -0.6066
 9104SOL    HW238772   2.141   0.096  14.491 -0.7129  0.9337 -0.9783
 9105SOL     OW38773   4.263   4.431  11.628 -0.3053 -0.4839  0.3818
 9105SOL    HW138774   4.323   4.480  11.684 -2.0213 -0.9872  2.6743
 9105SOL    HW238775   4.197   4.501  11.623  1.4923  1.3397  2.4205
 9106SOL     OW38776   2.784   2.319   6.902  0.8341  0.0490 -0.3959
 9106SOL    HW138777   2.768   2.404   6.944 -0.2586 -0.7137  0.7168
 9106SOL    HW238778   2.700   2.278   6.920  0.3065  1.1512 -0.3044
 9107SOL     OW38779   4.639   1.564   4.224  0.3633  0.4365  0.7174
 9107SOL    HW138780   4.697   1.499   4.183 -0.8308  1.0798 -1.9667
 9107SOL    HW238781   4.638   1.529   4.313  1.7531  3.2546  1.8582
 9108SOL     OW38782   3.556   2.214   0.644  0.0849 -0.0671  0.4296
 9108SOL    HW138783   3.552   2.124   0.676 -0.4293  0.1163  0.8616
 9108SOL    HW238784   3.648   2.206   0.618 -0.0159  1.4647 -0.3853
 9109SOL     OW38785   2.831   1.243   5.834  0.3248 -0.0615 -0.0322
 9109SOL    HW138786   2.887   1.267   5.761  0.9659 -1.1495  0.1044
 9109SOL    HW238787   2.899   1.248   5.900  1.6673 -0.9521 -1.3609
 9110SOL     OW38788   2.586   2.543   1.551  0.3287  0.1017  0.1011
 9110SOL    HW138789   2.543   2.530   1.635  0.1599  2.4055  0.3703
 9110SOL    HW238790   2.557   2.464   1.506 -1.3264  0.4268  0.6257
 9111SOL     OW38791   3.447   2.191  13.097  0.3778  0.7712  0.1007
 9111SOL    HW138792   3.372   2.211  13.153 -0.8976  0.4365 -1.4864
 9111SOL    HW238793   3.410   2.163  13.014  0.2378 -0.9081  0.7302
 9112SOL     OW38794   4.208   2.197  14.184 -0.0851  0.4581  0.0722
 9112SOL    HW138795   4.156   2.148  14.121 -0.9219 -1.0591  1.9598
 9112SOL    HW238796   4.162   2.281  14.186  0.1813  0.7135 -3.5954
 9113SOL     OW38797   1.166   3.650   2.522 -0.3478  0.1264 -0.2966
 9113SOL    HW138798   1.224   3.704   2.576  2.3474  0.3051 -3.3660
 9113SOL    HW238799   1.112   3.720   2.485  1.6391  1.5260 -0.5456
 9114SOL     OW38800   1.378   3.716   7.699 -0.2549  0.2084  0.2878
 9114SOL    HW138801   1.463   3.733   7.658 -1.0174  1.5716 -0.7050
 9114SOL    HW238802   1.338   3.658   7.634 -1.5544 -0.3075  1.5547
 9115SOL     OW38803   1.106   1.512  12.672 -0.1535  0.8659  0.8666
 9115SOL    HW138804   1.108   1.608  12.675  0.5902  0.8969 -1.1203
 9115SOL    HW238805   1.172   1.484  12.736 -1.2844 -0.9646  1.2483
 9116SOL     OW38806   2.617   4.429  12.502  0.3435 -0.1031 -0.1482
 9116SOL    HW138807   2.704   4.400  12.527 -0.6302 -3.6980 -0.9644
 9116SOL    HW238808   2.565   4.353  12.528 -2.0642  1.1963 -1.1369
 9117SOL     OW38809   3.986   4.156   5.985 -0.6383 -0.1574  0.1788
 9117SOL    HW138810   3.931   4.093   5.938 -0.6663  2.1131 -2.8524
 9117SOL    HW238811   3.981   4.226   5.919 -1.7438 -1.6282 -1.3050
 9118SOL     OW38812   3.950   2.408   7.240  0.0425 -0.4107  0.7088
 9118SOL    HW138813   3.984   2.319   7.248 -1.7248 -0.8927  2.7185
 9118SOL    HW238814   4.005   2.434   7.166 -0.5452  0.5183  0.5957
 9119SOL     OW38815   4.610   1.587   3.469  0.0549  0.5726  0.2529
 9119SOL    HW138816   4.542   1.548   3.415 -0.0387  1.3065 -0.1680
 9119SOL    HW238817   4.660   1.510   3.494  2.4226  1.6761 -1.0577
 9120SOL     OW38818   2.699   0.238  11.842  1.2850  0.1528 -0.9004
 9120SOL    HW138819   2.751   0.189  11.906 -1.0212 -1.7387 -0.4524
 9120SOL    HW238820   2.651   0.160  11.813 -0.6978  0.8119  0.6327
 9121SOL     OW38821   2.016   2.816   6.161 -0.0901 -0.0257 -0.4850
 9121SOL    HW138822   2.037   2.790   6.072  0.7741  1.0248 -0.5940
 9121SOL    HW238823   1.984   2.904   6.141  0.8967  0.1640 -1.2160
 9122SOL     OW38824   3.947   0.059   4.790 -0.5437 -0.6255  0.0495
 9122SOL    HW138825   4.001   0.079   4.713 -1.8411  1.5107 -0.3268
 9122SOL    HW238826   3.865   0.020   4.759 -0.8972 -0.8110  1.2008
 9123SOL     OW38827   0.171   1.958   4.950  0.3439 -0.1997 -0.2822
 9123SOL    HW138828   0.258   1.997   4.956 -0.0548  0.9867 -1.9983
 9123SOL    HW238829   0.178   1.890   4.883 -2.1450 -1.1050  0.3780
 9124SOL     OW38830   2.685   2.876  17.612 -0.0209 -0.2168  0.0396
 9124SOL    HW138831   2.740   2.817  17.561  0.5043  2.1159 -2.0713
 9124SOL    HW238832   2.639   2.815  17.671  0.1178 -2.0306 -1.7292
 9125SOL     OW38833   0.749   0.372   1.941 -0.3178 -0.1388 -0.3077
 9125SOL    HW138834   0.761   0.464   1.920 -0.6873  0.2460  1.1449
 9125SOL    HW238835   0.795   0.328   1.870  1.1881 -0.3618  0.8175
 9126SOL     OW38836   0.357   1.190   2.967 -0.3169  0.5827  0.0669
 9126SOL    HW138837   0.273   1.210   2.926  0.4081  2.6121 -0.4171
 9126SOL    HW238838   0.409   1.260   2.928  1.4205 -0.9683 -0.3850
 9127SOL     OW38839   0.848   1.300  10.812  0.2558  0.2724  0.2062
 9127SOL    HW138840   0.890   1.215  10.800 -2.9038 -1.2596  0.0236
 9127SOL    HW238841   0.925   1.354  10.830  0.7038 -0.8248  1.6155
 9128SOL     OW38842   2.140   2.253  10.756  0.3109  0.7510 -0.3073
 9128SOL    HW138843   2.091   2.229  10.677  1.6204 -0.3426 -0.7896
 9128SOL    HW238844   2.220   2.202  10.742  0.3174  0.6115  0.2292
 9129SOL     OW38845   3.049   3.169   6.071 -0.2730 -0.1420 -0.8976
 9129SOL    HW138846   2.962   3.170   6.111  0.4182 -0.0297  0.5869
 9129SOL    HW238847   3.039   3.139   5.981 -2.2303  2.2644 -1.4943
 9130SOL     OW38848   4.129   0.957   3.184 -0.3141 -0.5025 -0.1654
 9130SOL    HW138849   4.122   0.955   3.280 -2.2183  0.6592 -0.2767
 9130SOL    HW238850   4.215   0.917   3.171 -0.0423  0.0593 -0.0705
 9131SOL     OW38851   2.214   0.507   7.354  0.0540 -0.0207  0.1447
 9131SOL    HW138852   2.125   0.537   7.332  0.0965 -0.7357 -1.0028
 9131SOL    HW238853   2.244   0.586   7.398  0.9819 -0.6444  0.6227
 9132SOL     OW38854   0.568   2.803   5.129 -0.3200 -0.3373 -0.5169
 9132SOL    HW138855   0.569   2.866   5.201  0.4038 -0.5009 -0.3801
 9132SOL    HW238856   0.479   2.771   5.117  0.1068 -1.0532 -1.8150
 9133SOL     OW38857   1.990   0.320   8.335 -0.2705  0.0212  0.3640
 9133SOL    HW138858   2.065   0.265   8.361 -0.4608  0.2872  1.4784
 9133SOL    HW238859   1.918   0.263   8.362 -0.0903 -0.7133 -0.6842
 9134SOL     OW38860   3.249   1.616   2.686  0.5021  0.0382 -0.3521
 9134SOL    HW138861   3.201   1.698   2.689  0.6354  0.1132 -0.2922
 9134SOL    HW238862   3.295   1.628   2.603  1.4682  0.2767  0.2194
 9135SOL     OW38863   0.656   0.412   3.207  0.5646 -0.0021  0.3662
 9135SOL    HW138864   0.724   0.467   3.168 -0.9652  1.8421  0.3015
 9135SOL    HW238865   0.699   0.384   3.288 -0.1170 -2.2654 -0.0772
 9136SOL     OW38866   1.855   2.786   4.448 -0.0619 -0.3186 -0.1388
 9136SOL    HW138867   1.948   2.809   4.443 -0.8696  2.8988 -0.1018
 9136SOL    HW238868   1.822   2.862   4.496 -2.2515 -0.5569 -1.2570
 9137SOL     OW38869   1.539   4.640  16.301 -0.3819 -0.1870 -0.5412
 9137SOL    HW138870   1.496   4.644  16.215 -0.4317 -0.4032 -0.5242
 9137SOL    HW238871   1.619   4.592  16.279 -2.9981 -4.2832 -1.0008
 9138SOL     OW38872   3.067   3.186   8.110  0.2734 -0.3254  0.1829
 9138SOL    HW138873   3.014   3.169   8.188  1.6044  0.1770  1.1947
 9138SOL    HW238874   3.158   3.185   8.141 -0.3576 -2.0468  1.9667
 9139SOL     OW38875   3.014   4.034  15.356  0.0480 -0.0466 -0.3055
 9139SOL    HW138876   3.061   4.096  15.301  0.7510  1.2674  1.7781
 9139SOL    HW238877   3.081   4.018  15.423 -0.0497  1.8813  0.2399
 9140SOL     OW38878   2.109   3.005   7.133 -0.2492  0.1373 -0.1657
 9140SOL    HW138879   2.159   3.029   7.210  1.2990  0.1554 -1.1698
 9140SOL    HW238880   2.162   3.036   7.059  0.6273 -0.1066  0.3642
 9141SOL     OW38881   3.928   3.954  12.327  0.0155 -0.8369  0.2633
 9141SOL    HW138882   3.851   3.898  12.335 -0.3058 -0.6968 -1.9638
 9141SOL    HW238883   3.983   3.885  12.288  1.6616 -0.7177  2.3259
 9142SOL     OW38884   0.298   3.746   4.916 -0.1943 -0.3811  0.8662
 9142SOL    HW138885   0.321   3.832   4.950  0.0952 -0.8361  1.8092
 9142SOL    HW238886   0.369   3.733   4.853 -2.1099 -1.2781 -1.1369
 9143SOL     OW38887   2.324   0.857   2.022  0.0129  0.2496  0.8659
 9143SOL    HW138888   2.397   0.918   2.010 -1.2119  1.3583 -1.0735
 9143SOL    HW238889   2.325   0.809   1.940  0.4561  2.9618 -0.7378
 9144SOL     OW38890   0.110   4.651   6.032 -0.8270 -0.1710 -0.0139
 9144SOL    HW138891   0.015   4.665   6.040 -1.0029 -0.3845 -1.7534
 9144SOL    HW238892   0.119   4.562   6.066 -2.3566 -0.0800  0.6495
 9145SOL     OW38893   3.185   3.782   2.932  0.5912  0.1965 -0.2032
 9145SOL    HW138894   3.204   3.796   2.839 -0.1525 -1.9972 -0.6851
 9145SOL    HW238895   3.207   3.689   2.942  0.7210  0.3498  0.9216
 9146SOL     OW38896   1.006   0.849   0.244  0.1651  0.3572 -0.2118
 9146SOL    HW138897   0.969   0.773   0.288 -1.1377  0.6204 -0.8732
 9146SOL    HW238898   0.944   0.917   0.272 -1.9317 -1.2214 -1.0539
 9147SOL     OW38899   2.894   3.260  16.889 -0.2872  0.0043  0.0625
 9147SOL    HW138900   2.804   3.286  16.912  0.3744  1.1963  1.3261
 9147SOL    HW238901   2.950   3.310  16.948  1.3530 -1.7354 -0.0444
 9148SOL     OW38902   3.885   0.444   4.761 -0.0928 -0.2863  0.3630
 9148SOL    HW138903   3.870   0.534   4.791 -1.2296 -0.1595 -0.5692
 9148SOL    HW238904   3.980   0.454   4.752 -0.3333 -0.3633 -2.1955
 9149SOL     OW38905   1.211   3.877   7.227 -0.5385 -0.0181 -0.0042
 9149SOL    HW138906   1.136   3.824   7.252 -0.1506 -0.7706 -0.4260
 9149SOL    HW238907   1.285   3.844   7.278 -0.3856  0.9812  0.4169
 9150SOL     OW38908   2.814   2.281   6.392 -0.3303  0.0361  0.1871
 9150SOL    HW138909   2.824   2.306   6.484 -0.1383  0.1359  0.1375
 9150SOL    HW238910   2.860   2.197   6.395 -1.4712 -0.5712  0.9153
 9151SOL     OW38911   2.595   0.970   0.748  0.4078 -0.0166 -0.1827
 9151SOL    HW138912   2.604   0.875   0.747  0.6199 -0.0024  0.3314
 9151SOL    HW238913   2.614   0.994   0.657 -0.0146  0.8289 -0.0427
 9152SOL     OW38914   0.519   2.145   7.173 -0.1447  0.0660 -0.1937
 9152SOL    HW138915   0.581   2.208   7.210  0.6797 -1.9420  1.8541
 9152SOL    HW238916   0.544   2.066   7.222 -3.6345 -0.2533  1.0575
 9153SOL     OW38917   4.714   1.020   2.927  0.0748 -0.0468  0.0644
 9153SOL    HW138918   4.686   0.996   2.839 -2.5221  0.6819  0.6918
 9153SOL    HW238919   0.014   1.112   2.916  1.4381 -0.5151 -0.6690
 9154SOL     OW38920   0.805   1.699   1.174  0.1719 -0.4788 -0.0321
 9154SOL    HW138921   0.769   1.611   1.180  2.3480 -1.5549 -2.6629
 9154SOL    HW238922   0.767   1.735   1.254 -1.8130 -1.0550 -0.7301
 9155SOL     OW38923   4.397   0.463   3.116  0.1968  0.3421 -0.4531
 9155SOL    HW138924   4.424   0.521   3.188 -2.1777  2.1184 -1.0095
 9155SOL    HW238925   4.411   0.518   3.039 -0.9133  1.4128  0.1004
 9156SOL     OW38926   4.346   3.038   8.864  0.3976 -0.0734  0.0364
 9156SOL    HW138927   4.407   3.108   8.888  0.5144 -1.5734  4.1612
 9156SOL    HW238928   4.314   3.071   8.780  0.7385  0.3515  0.0711
 9157SOL     OW38929   3.770   3.348   8.168  0.4761  0.2126  0.1268
 9157SOL    HW138930   3.727   3.304   8.095  0.6608  2.9222 -1.5721
 9157SOL    HW238931   3.696   3.372   8.225  1.2829  0.1517  1.2073
 9158SOL     OW38932   4.096   4.094   3.488  0.6728  0.1099  0.2639
 9158SOL    HW138933   4.050   4.107   3.572  0.4846 -1.6696  0.4364
 9158SOL    HW238934   4.104   4.185   3.459 -1.8619 -0.3198 -1.7282
 9159SOL     OW38935   0.453   2.172  13.410  0.5057  0.4644  0.8101
 9159SOL    HW138936   0.474   2.258  13.448 -0.9522  0.7646  0.9325
 9159SOL    HW238937   0.441   2.116  13.487  3.1294 -0.7194  0.3551
 9160SOL     OW38938   1.630   4.429   2.026 -0.4881  0.0983 -0.1034
 9160SOL    HW138939   1.612   4.337   2.007 -0.8351  0.5199 -1.7634
 9160SOL    HW238940   1.545   4.452   2.064 -0.9734 -1.9636  0.0648
 9161SOL     OW38941   3.145   2.589   5.974  0.4199  0.0350  0.1467
 9161SOL    HW138942   3.161   2.598   6.068 -1.4985 -0.5366  0.5225
 9161SOL    HW238943   3.065   2.537   5.972  0.4530  0.0356 -1.1675
 9162SOL     OW38944   4.277   1.025  11.978  0.5691  0.7622  0.3552
 9162SOL    HW138945   4.350   1.066  12.023  1.3590  0.1638 -0.3570
 9162SOL    HW238946   4.328   0.968  11.920 -2.6320  0.5706 -2.2782
 9163SOL     OW38947   2.828   3.336   7.152 -0.2945 -0.3396  0.5820
 9163SOL    HW138948   2.850   3.329   7.059 -1.4196  2.8754  0.0786
 9163SOL    HW238949   2.892   3.400   7.183  1.3848 -0.6846 -2.2001
 9164SOL     OW38950   4.045   3.114   7.356  0.1242 -0.0760  0.9434
 9164SOL    HW138951   3.982   3.184   7.369  1.7193  1.5911 -0.2634
 9164SOL    HW238952   4.024   3.087   7.266  0.0527  0.0017  0.9367
 9165SOL     OW38953   2.840   0.516  15.829 -0.5021  0.0578  0.1597
 9165SOL    HW138954   2.869   0.509  15.738 -0.4269 -0.4355  0.2203
 9165SOL    HW238955   2.878   0.598  15.860 -0.4388  0.2921 -0.5317
 9166SOL     OW38956   0.866   0.564   0.659 -0.0843  0.3416 -0.4383
 9166SOL    HW138957   0.797   0.549   0.724 -0.9743  0.1139 -1.4352
 9166SOL    HW238958   0.890   0.473   0.644 -0.3891  0.8624 -4.1230
 9167SOL     OW38959   0.324   4.448   3.316  0.6075  0.2465 -0.3522
 9167SOL    HW138960   0.341   4.399   3.397  1.4004  1.0183 -0.0465
 9167SOL    HW238961   0.328   4.374   3.256 -0.9210  2.0119 -2.6397
 9168SOL     OW38962   0.985   2.547   8.196 -0.2387  0.4698  0.2739
 9168SOL    HW138963   0.985   2.472   8.136  1.8770  0.0293  0.8253
 9168SOL    HW238964   1.014   2.504   8.276 -0.2406 -1.1507 -0.5970
 9169SOL     OW38965   3.378   0.308   4.195 -0.1525  0.3183 -0.1866
 9169SOL    HW138966   3.461   0.351   4.218  0.6383 -0.5239 -1.4822
 9169SOL    HW238967   3.411   0.218   4.195  0.4270  0.5321  3.4728
 9170SOL     OW38968   3.643   3.592   8.585 -0.5325 -0.1282 -0.3516
 9170SOL    HW138969   3.689   3.514   8.556  0.4714  0.2693  0.1498
 9170SOL    HW238970   3.683   3.653   8.523  0.1265  2.0384  2.1699
 9171SOL     OW38971   3.553   3.060   4.191 -0.1480 -0.9849  0.0804
 9171SOL    HW138972   3.549   2.991   4.124 -1.6346 -0.4265 -0.3906
 9171SOL    HW238973   3.605   3.118   4.135 -0.7481 -1.0825 -0.5696
 9172SOL     OW38974   4.113   1.371  10.327 -0.0159  0.2187  0.1342
 9172SOL    HW138975   4.124   1.424  10.248  0.1509  0.2347  0.1681
 9172SOL    HW238976   4.104   1.442  10.391  2.1209  0.7472 -0.1721
 9173SOL     OW38977   1.413   1.468   0.625 -0.6937  0.2112  0.2735
 9173SOL    HW138978   1.508   1.465   0.637 -0.6501 -1.4718 -0.4304
 9173SOL    HW238979   1.391   1.561   0.623 -0.6712  0.2168  0.2859
 9174SOL     OW38980   3.868   0.690   1.009 -0.0535 -0.1461 -0.0863
 9174SOL    HW138981   3.919   0.658   0.935 -0.1555  2.6889 -1.3970
 9174SOL    HW238982   3.892   0.783   1.003 -0.3307 -0.0625  0.0888
 9175SOL     OW38983   1.288   3.247   5.006  0.1048  0.1908  0.2707
 9175SOL    HW138984   1.359   3.277   4.948 -1.2487 -0.7535 -1.8946
 9175SOL    HW238985   1.288   3.156   4.973 -0.4122 -0.0281  0.8828
 9176SOL     OW38986   4.362   0.359   2.482 -0.3036  0.8272  0.4944
 9176SOL    HW138987   4.352   0.303   2.559 -1.6560  0.5743  0.1440
 9176SOL    HW238988   4.278   0.406   2.478 -0.9445 -0.3467  0.1614
 9177SOL     OW38989   1.945   4.453  14.041 -0.4696  0.4102  0.2997
 9177SOL    HW138990   1.946   4.428  13.949  1.8238 -0.0517  0.4639
 9177SOL    HW238991   2.003   4.385  14.074  1.4382  2.8142  1.9359
 9178SOL     OW38992   0.383   1.904   6.870  0.1860 -0.1223  0.8346
 9178SOL    HW138993   0.425   1.818   6.868 -0.3205 -0.3299 -0.6727
 9178SOL    HW238994   0.328   1.901   6.948 -2.1986 -0.8690 -0.8581
 9179SOL     OW38995   0.997   2.885   9.671 -0.0031 -0.1610 -0.3699
 9179SOL    HW138996   0.946   2.966   9.676 -2.2369 -1.5968  0.0310
 9179SOL    HW238997   0.927   2.824   9.652 -2.2950  2.4575 -0.2808
 9180SOL     OW38998   3.066   4.062   2.877 -0.0537  0.0736 -0.1326
 9180SOL    HW138999   3.099   3.989   2.825  1.2247 -0.5786  1.6003
 9180SOL    HW239000   3.097   4.039   2.965 -0.2471 -1.2359 -0.4049
 9181SOL     OW39001   2.643   0.344   8.828  0.3759  0.0810 -0.1160
 9181SOL    HW139002   2.725   0.342   8.878 -0.0336  0.7597  0.5756
 9181SOL    HW239003   2.612   0.434   8.828 -0.4773 -0.2050  2.3421
 9182SOL     OW39004   2.782   3.364   5.151  0.3474 -0.2842  0.2358
 9182SOL    HW139005   2.715   3.330   5.092 -0.2348 -0.0923  0.7894
 9182SOL    HW239006   2.789   3.453   5.116 -1.5193 -0.1340  0.2495
 9183SOL     OW39007   1.115   0.950   5.743  0.8059  0.0991 -0.1277
 9183SOL    HW139008   1.038   0.976   5.692 -0.4019 -1.6332  0.8374
 9183SOL    HW239009   1.182   0.947   5.676 -0.6486 -0.9276 -1.5344
 9184SOL     OW39010   4.447   3.728   9.274  0.7087  0.7254 -0.3741
 9184SOL    HW139011   4.509   3.715   9.203 -0.9524 -1.6695 -1.3897
 9184SOL    HW239012   4.465   3.662   9.341 -0.2006  2.8610  1.9740
 9185SOL     OW39013   0.444   2.743  12.199  0.3283 -0.0004 -0.0948
 9185SOL    HW139014   0.378   2.755  12.267  0.4783  0.7527 -0.0771
 9185SOL    HW239015   0.508   2.685  12.238  0.0105  0.4754  1.1391
 9186SOL     OW39016   2.164   3.836   9.649  0.1198 -0.1285 -0.6295
 9186SOL    HW139017   2.230   3.768   9.641  0.0590 -0.3237  0.5396
 9186SOL    HW239018   2.142   3.820   9.741 -0.2454  3.2114 -0.1123
 9187SOL     OW39019   0.995   4.091   6.916  0.5772 -0.2441 -0.1287
 9187SOL    HW139020   1.008   4.182   6.890  0.5077  0.0734  0.9492
 9187SOL    HW239021   0.900   4.084   6.916  0.3688  2.4358 -0.8561
 9188SOL     OW39022   1.783   0.121   0.693 -0.0480 -0.6119  1.1317
 9188SOL    HW139023   1.870   0.106   0.731  0.3613 -2.4837 -0.4922
 9188SOL    HW239024   1.745   0.033   0.695  0.4847 -0.8504  0.8774
 9189SOL     OW39025   0.772   4.448   8.231 -0.2535  0.3251  0.2167
 9189SOL    HW139026   0.805   4.398   8.156  2.0874  2.1523  0.0367
 9189SOL    HW239027   0.692   4.491   8.202  0.3954  1.7965  0.6109
 9190SOL     OW39028   2.835   2.253   1.263 -0.0014 -0.1879 -0.5409
 9190SOL    HW139029   2.888   2.238   1.342 -0.0637  3.1224  0.1325
 9190SOL    HW239030   2.903   2.223   1.203  0.9529 -1.5533  1.2491
 9191SOL     OW39031   1.914   1.493   3.383 -0.0167  0.5471 -0.1921
 9191SOL    HW139032   1.847   1.488   3.452 -1.1196  2.2684 -1.1192
 9191SOL    HW239033   1.981   1.438   3.423 -0.1931 -0.0969 -0.7887
 9192SOL     OW39034   1.815   2.466   0.942 -0.1324 -0.6848  0.0867
 9192SOL    HW139035   1.875   2.391   0.937  2.3139  1.4722 -2.7918
 9192SOL    HW239036   1.870   2.544   0.932  0.4239 -0.8797  1.5474
 9193SOL     OW39037   4.072   3.041   1.576 -0.5310  0.1485  0.6244
 9193SOL    HW139038   4.009   3.001   1.517  1.5030 -1.1930 -0.6263
 9193SOL    HW239039   4.007   3.069   1.640 -0.5073 -0.1068  0.7607
 9194SOL     OW39040   1.122   0.356   9.409 -0.4965 -0.2086 -0.6988
 9194SOL    HW139041   1.121   0.436   9.356 -1.2699  0.3747  0.1902
 9194SOL    HW239042   1.123   0.290   9.340  1.0403  0.4383 -1.2719
 9195SOL     OW39043   3.043   3.394   3.842  0.2143  0.3824 -0.2952
 9195SOL    HW139044   3.013   3.350   3.922  1.9153  0.8355  0.5831
 9195SOL    HW239045   2.979   3.465   3.837 -1.0146 -0.7282 -0.2522
 9196SOL     OW39046   2.802   4.369   7.556  0.0977 -0.0222 -0.2844
 9196SOL    HW139047   2.749   4.290   7.566 -0.8249  0.5263 -0.9702
 9196SOL    HW239048   2.878   4.335   7.604  0.1439  0.4125 -0.0452
 9197SOL     OW39049   4.460   3.955   8.622  0.1650 -0.3597  0.0647
 9197SOL    HW139050   4.541   3.922   8.662 -0.1944  0.2453  1.2728
 9197SOL    HW239051   4.401   3.930   8.693  0.2850  0.0187  0.2961
 9198SOL     OW39052   1.369   0.734   8.830  0.0343 -0.3430  0.1640
 9198SOL    HW139053   1.450   0.785   8.836  1.1274 -2.1683  1.1436
 9198SOL    HW239054   1.405   0.661   8.779 -1.7254 -2.3011  1.6688
 9199SOL     OW39055   2.421   1.421   1.883  0.2360  0.0413 -0.7104
 9199SOL    HW139056   2.413   1.414   1.978 -0.4024  2.7326 -0.5707
 9199SOL    HW239057   2.327   1.421   1.864  0.4669  2.0475 -1.7557
 9200SOL     OW39058   2.994   0.385   9.621  0.1235 -0.4611 -0.5372
 9200SOL    HW139059   3.022   0.322   9.688 -0.7332  0.0430  0.2849
 9200SOL    HW239060   2.977   0.457   9.682  0.4860 -1.4688  0.7641
 9201SOL     OW39061   3.295   1.698   7.368  0.3241  0.8409  0.0807
 9201SOL    HW139062   3.293   1.686   7.463 -0.7077 -1.1431 -0.1802
 9201SOL    HW239063   3.364   1.763   7.374  0.2744  0.8050  1.0642
 9202SOL     OW39064   2.837   3.068   6.195 -0.6766 -0.0755 -0.1162
 9202SOL    HW139065   2.757   3.111   6.226 -1.3104  1.4893 -3.9841
 9202SOL    HW239066   2.823   2.986   6.242  0.5925  0.3645  1.0547
 9203SOL     OW39067   0.615   0.633   5.974 -0.3401 -0.0586  0.3274
 9203SOL    HW139068   0.635   0.546   5.939  2.2143  0.9433 -0.6678
 9203SOL    HW239069   0.579   0.672   5.895 -2.1959  0.6522  1.5237
 9204SOL     OW39070   3.937   2.312   4.173 -0.0290  0.8278 -0.7167
 9204SOL    HW139071   4.016   2.352   4.210  0.2542 -0.6485  0.2463
 9204SOL    HW239072   3.892   2.281   4.251  0.6692 -1.1993 -1.1340
 9205SOL     OW39073   4.507   3.488   8.048  0.4261 -0.5858  0.6248
 9205SOL    HW139074   4.502   3.583   8.039  1.1328 -0.7330 -1.3324
 9205SOL    HW239075   4.467   3.488   8.135 -0.3316 -1.0387  0.2822
 9206SOL     OW39076   2.761   4.249  11.233  0.5030  0.2709 -0.2982
 9206SOL    HW139077   2.720   4.319  11.284 -1.9006 -0.4923 -1.1772
 9206SOL    HW239078   2.683   4.218  11.188  1.5661 -1.7903 -0.7385
 9207SOL     OW39079   1.614   1.662   3.636 -0.4948 -0.3502  0.7160
 9207SOL    HW139080   1.595   1.716   3.712 -0.2934  1.5799 -0.5945
 9207SOL    HW239081   1.541   1.688   3.578  0.1799 -0.8857 -0.3792
 9208SOL     OW39082   2.971   3.388   3.565  0.2087 -0.2696  0.0540
 9208SOL    HW139083   2.973   3.334   3.644  1.3494  0.3538  0.4434
 9208SOL    HW239084   2.985   3.321   3.498  1.8867 -0.4503  0.5878
 9209SOL     OW39085   1.495   4.168   1.895  0.3365 -0.2506  0.3892
 9209SOL    HW139086   1.559   4.149   1.827  1.0730 -1.4416  1.4031
 9209SOL    HW239087   1.431   4.102   1.866  1.2818 -1.1018  0.2567
 9210SOL     OW39088   0.308   2.209   2.649  0.0196  0.1140 -0.1704
 9210SOL    HW139089   0.273   2.261   2.577 -1.0138  0.7594  0.7972
 9210SOL    HW239090   0.232   2.182   2.700 -0.0920  1.7641  0.5370
 9211SOL     OW39091   0.942   3.011  14.688  0.0591  0.4072 -0.3774
 9211SOL    HW139092   0.947   2.982  14.780  0.5580  0.2807 -0.4454
 9211SOL    HW239093   0.970   2.930  14.646  0.2843 -1.3565  3.1320
 9212SOL     OW39094   0.172   1.896  14.908 -0.1425  0.0198 -0.0946
 9212SOL    HW139095   0.143   1.985  14.926  0.2309  0.4858 -1.7565
 9212SOL    HW239096   0.100   1.867  14.852 -0.7150 -1.4528  1.4060
 9213SOL     OW39097   0.231   0.995   7.400  0.0400 -0.2696  0.3909
 9213SOL    HW139098   0.217   0.922   7.339  0.3854  0.0396 -0.0574
 9213SOL    HW239099   0.319   1.024   7.378 -0.7610  0.8602 -1.3465
 9214SOL     OW39100   0.986   0.075   6.743  0.3026  0.6575  0.2180
 9214SOL    HW139101   0.971   0.086   6.649 -1.3980  0.8597  0.5220
 9214SOL    HW239102   0.905   0.035   6.774  0.3823 -2.2628 -3.2462
 9215SOL     OW39103   0.391   3.582   4.616 -0.2269  0.7456  0.6547
 9215SOL    HW139104   0.324   3.609   4.553  0.4145 -1.1885 -0.8856
 9215SOL    HW239105   0.436   3.665   4.632 -0.6997  1.0857  0.2443
 9216SOL     OW39106   1.018   4.528  14.912 -0.4921 -0.3767 -0.2266
 9216SOL    HW139107   0.933   4.543  14.951 -0.7362  1.0117 -1.3034
 9216SOL    HW239108   0.977   4.531  14.826 -1.5045  0.6878  0.2963
 9217SOL     OW39109   3.092   3.861   9.724 -0.2772 -0.3591  0.1153
 9217SOL    HW139110   3.182   3.842   9.697 -0.2241 -0.2568  0.2253
 9217SOL    HW239111   3.088   3.804   9.800 -1.3304 -0.9551 -0.3748
 9218SOL     OW39112   0.094   1.629  10.458  0.2353 -0.0650  0.2706
 9218SOL    HW139113   0.067   1.660  10.371  3.6301  1.5911 -0.2106
 9218SOL    HW239114   0.155   1.560  10.434  3.1038  3.4497 -2.6027
 9219SOL     OW39115   3.513   1.671   6.186 -0.7249 -0.2206  0.3071
 9219SOL    HW139116   3.547   1.630   6.106 -0.5707  0.8487 -0.1851
 9219SOL    HW239117   3.474   1.750   6.148 -0.2938 -0.2792 -0.2694
 9220SOL     OW39118   3.704   2.938   4.614 -0.2712 -0.1719  0.0427
 9220SOL    HW139119   3.679   3.001   4.681  0.0030 -1.8762  1.7372
 9220SOL    HW239120   3.788   2.971   4.582  0.8060 -2.6686  0.2435
 9221SOL     OW39121   0.121   4.273   5.521  0.6603  0.7009 -0.1561
 9221SOL    HW139122   0.161   4.359   5.508  0.7216  0.5809 -0.7635
 9221SOL    HW239123   0.130   4.236   5.433  2.1200 -4.3492  2.1330
 9222SOL     OW39124   1.598   3.763   4.557 -0.4396  0.3434 -0.5696
 9222SOL    HW139125   1.570   3.850   4.530  0.6342  0.5138 -1.1482
 9222SOL    HW239126   1.637   3.727   4.477 -0.8733 -0.4776 -0.4068
 9223SOL     OW39127   0.670   1.696   2.443  0.2009 -0.1554  0.5674
 9223SOL    HW139128   0.611   1.762   2.406 -0.4004 -0.1525  1.5292
 9223SOL    HW239129   0.721   1.748   2.505  1.3103 -0.5818  0.0142
 9224SOL     OW39130   0.169   1.402   1.907  0.8610  0.4695 -0.4854
 9224SOL    HW139131   0.085   1.368   1.877  0.1569  2.5093 -0.8414
 9224SOL    HW239132   0.190   1.341   1.978 -1.5670 -0.8252 -0.8741
 9225SOL     OW39133   2.589   4.417  13.213 -0.3112 -0.3053 -0.0307
 9225SOL    HW139134   2.503   4.397  13.249 -0.5381  0.5104 -0.1291
 9225SOL    HW239135   2.639   4.443  13.291  0.8167  2.0942 -1.5543
 9226SOL     OW39136   1.749   4.445  12.054  0.0692  0.2985 -0.1752
 9226SOL    HW139137   1.837   4.418  12.027  0.3744  2.2276 -1.1387
 9226SOL    HW239138   1.715   4.356  12.051 -0.8118  0.5673  1.9556
 9227SOL     OW39139   0.907   0.534   2.289  0.0217  0.1313 -0.4342
 9227SOL    HW139140   0.873   0.604   2.233  0.6953  0.8164  0.0133
 9227SOL    HW239141   0.982   0.571   2.336 -1.3960  0.3162  1.6521
 9228SOL     OW39142   0.332   3.965   5.853  0.2937  0.0227 -0.0310
 9228SOL    HW139143   0.361   3.943   5.941  0.1844 -0.9934 -0.2457
 9228SOL    HW239144   0.240   3.940   5.857  0.3184 -0.1510 -0.6113
 9229SOL     OW39145   0.092   2.196   7.380 -0.0393  0.6227 -0.0388
 9229SOL    HW139146   0.152   2.123   7.368 -3.4229 -2.0300 -0.8187
 9229SOL    HW239147   0.061   2.171   7.467 -0.2876 -2.0725 -0.9043
 9230SOL     OW39148   2.279   4.006   4.883 -0.7685 -0.0453 -0.3218
 9230SOL    HW139149   2.361   4.011   4.835  0.7507  0.0110  2.3073
 9230SOL    HW239150   2.252   4.096   4.904 -0.7818 -0.7832  2.8050
 9231SOL     OW39151   2.069   2.819  16.427 -0.5125 -0.3283 -0.3117
 9231SOL    HW139152   2.088   2.762  16.353 -1.2986 -2.5207  1.1678
 9231SOL    HW239153   2.047   2.896  16.375 -0.4596 -0.7351 -0.9426
 9232SOL     OW39154   0.382   3.919  10.409  0.3122  0.2679  0.0479
 9232SOL    HW139155   0.398   3.828  10.432 -0.2802  0.5537  1.6264
 9232SOL    HW239156   0.311   3.942  10.469 -0.3584 -1.0829 -0.2299
 9233SOL     OW39157   1.604   2.545   1.718 -0.3935 -0.4705 -0.3557
 9233SOL    HW139158   1.592   2.633   1.682  1.4019 -0.0952 -0.0334
 9233SOL    HW239159   1.648   2.508   1.642 -1.3287 -1.7152 -0.2890
 9234SOL     OW39160   1.807   0.305   6.050 -0.1435 -0.3118 -0.0118
 9234SOL    HW139161   1.824   0.211   6.050  0.0572 -0.2763  0.5909
 9234SOL    HW239162   1.719   0.307   6.012 -0.4126  2.6917  0.7402
 9235SOL     OW39163   1.510   0.656  14.246  0.2012  0.3089 -0.5745
 9235SOL    HW139164   1.528   0.594  14.317 -0.3571 -0.4786 -1.1194
 9235SOL    HW239165   1.577   0.719  14.272  1.2926 -0.8998 -0.4807
 9236SOL     OW39166   1.899   0.813   6.735 -0.1435  0.0969  0.7282
 9236SOL    HW139167   1.944   0.811   6.650  0.5418 -2.5099  1.1539
 9236SOL    HW239168   1.974   0.807   6.794  0.3745  1.8325  0.2332
 9237SOL     OW39169   0.354   0.335   0.274  0.1709  0.0077  0.1759
 9237SOL    HW139170   0.447   0.316   0.261  0.5205 -1.5247  4.9276
 9237SOL    HW239171   0.320   0.298   0.192 -2.3200  2.3577  0.1545
 9238SOL     OW39172   0.789   3.707   5.568 -0.7193 -0.0985 -0.6303
 9238SOL    HW139173   0.709   3.746   5.604 -0.7643 -2.2214  1.6340
 9238SOL    HW239174   0.834   3.672   5.646  0.5092  1.2737 -0.7290
 9239SOL     OW39175   1.174   0.071   3.459 -0.2433  0.2964  0.0876
 9239SOL    HW139176   1.131   0.032   3.383 -0.8395  2.7199 -0.8096
 9239SOL    HW239177   1.257   0.025   3.470 -0.1689  0.3964 -0.0526
 9240SOL     OW39178   3.077   2.991   6.570  0.3122 -0.9069 -0.0374
 9240SOL    HW139179   3.050   3.051   6.500 -1.8129 -1.7470  0.0733
 9240SOL    HW239180   3.173   2.995   6.569  0.2867 -0.7455 -2.1519
 9241SOL     OW39181   1.448   1.561   6.477 -0.0496  0.0178  0.2289
 9241SOL    HW139182   1.392   1.556   6.555 -0.5811 -1.2367 -0.2315
 9241SOL    HW239183   1.411   1.498   6.415  2.3668  0.2705 -1.4357
 9242SOL     OW39184   2.995   4.456   6.536 -0.1149  0.0097 -0.3468
 9242SOL    HW139185   2.998   4.508   6.616  0.8536 -0.1797 -0.2511
 9242SOL    HW239186   3.088   4.432   6.532  0.5985  2.6391  0.1018
 9243SOL     OW39187   4.435   0.612   5.509  0.0006 -0.1728 -0.0460
 9243SOL    HW139188   4.438   0.586   5.416  1.3147  0.8352 -0.2958
 9243SOL    HW239189   4.383   0.539   5.541  0.1013 -0.8266 -1.3709
 9244SOL     OW39190   4.471   3.634   8.750 -0.8200 -0.0766 -0.0309
 9244SOL    HW139191   4.551   3.656   8.702 -1.4351 -0.5026 -1.2363
 9244SOL    HW239192   4.423   3.716   8.743  1.6296  1.2550 -1.2525
 9245SOL     OW39193   4.335   2.436   3.535  0.0596  0.4479 -0.2464
 9245SOL    HW139194   4.260   2.491   3.556 -0.7656 -0.5412 -0.5838
 9245SOL    HW239195   4.324   2.411   3.444 -1.4932 -1.0969  0.3578
 9246SOL     OW39196   3.164   2.284   6.633  0.0780  0.3684 -0.4708
 9246SOL    HW139197   3.249   2.263   6.673  0.0481  0.8669 -0.1473
 9246SOL    HW239198   3.108   2.318   6.703 -1.0293  0.3758 -1.3584
 9247SOL     OW39199   2.570   4.207   2.421 -0.2045 -0.4257 -0.3843
 9247SOL    HW139200   2.564   4.132   2.481  0.5033 -1.2304 -1.3258
 9247SOL    HW239201   2.645   4.177   2.370  0.0993 -0.8766  0.3247
 9248SOL     OW39202   0.096   2.973   5.583 -0.3522  0.2128  0.2637
 9248SOL    HW139203   0.126   3.025   5.657  1.5909  0.8694 -0.9864
 9248SOL    HW239204   0.153   2.899   5.601  0.3519  1.0081  1.2359
 9249SOL     OW39205   3.384   3.596   8.659 -0.4063  0.4122 -0.9811
 9249SOL    HW139206   3.479   3.603   8.646  0.2911 -0.4493  3.7816
 9249SOL    HW239207   3.381   3.665   8.725 -0.1472 -0.0861 -0.4523
 9250SOL     OW39208   2.032   3.355  12.505 -0.1794  0.4178 -0.7859
 9250SOL    HW139209   2.062   3.446  12.515 -2.0594  1.1387 -1.6427
 9250SOL    HW239210   2.006   3.335  12.594  0.2620  0.3263 -0.6798
 9251SOL     OW39211   4.455   1.883   7.703  0.0011  0.5364  0.4052
 9251SOL    HW139212   4.407   1.804   7.725 -1.6457  1.0678 -1.3176
 9251SOL    HW239213   4.523   1.893   7.769  1.2158 -0.6194 -0.6618
 9252SOL     OW39214   2.429   1.996   0.540 -0.1259  0.3697  0.3447
 9252SOL    HW139215   2.471   2.082   0.546 -0.9269  0.9005 -1.7108
 9252SOL    HW239216   2.361   2.004   0.607 -0.1856 -1.0589  0.4546
 9253SOL     OW39217   3.699   4.405   6.982  0.8439  0.2600 -0.5001
 9253SOL    HW139218   3.711   4.311   6.972 -0.9378 -0.1274  0.9546
 9253SOL    HW239219   3.774   4.446   6.939  2.5110 -2.2846 -0.0102
 9254SOL     OW39220   2.085   4.366  17.124 -0.0378 -0.4339 -0.4998
 9254SOL    HW139221   2.051   4.312  17.053  0.2780 -0.0142 -0.9673
 9254SOL    HW239222   2.128   4.426  17.064  1.9461 -0.4789  0.8664
 9255SOL     OW39223   2.107   1.682   6.674  0.5146  0.0854  0.7433
 9255SOL    HW139224   2.119   1.736   6.752 -0.9397  1.1077  0.2357
 9255SOL    HW239225   2.141   1.746   6.611  1.9047  0.5107  1.9127
 9256SOL     OW39226   3.629   4.086   4.531 -0.1237 -0.1660 -0.3197
 9256SOL    HW139227   3.605   4.018   4.469  0.7509  0.1325 -0.9934
 9256SOL    HW239228   3.631   4.158   4.468 -1.3139  0.3151  0.1945
 9257SOL     OW39229   1.328   0.243   7.506 -0.3325  0.3822  0.0513
 9257SOL    HW139230   1.313   0.222   7.598 -0.4270  2.3816  0.4952
 9257SOL    HW239231   1.258   0.194   7.462 -0.7740 -0.8963  2.2038
 9258SOL     OW39232   4.103   2.652   8.284  0.0995 -0.0016  0.1537
 9258SOL    HW139233   4.167   2.592   8.324  2.1435  1.3530 -1.0725
 9258SOL    HW239234   4.024   2.600   8.301 -0.4222  0.5756 -0.5340
 9259SOL     OW39235   1.362   4.113   6.956  0.1329  0.3990 -0.3651
 9259SOL    HW139236   1.300   4.109   7.029 -1.3105  3.3875 -1.4081
 9259SOL    HW239237   1.306   4.149   6.886 -1.7123 -1.1084  0.3348
 9260SOL     OW39238   1.712   0.341  11.300  0.0922 -0.0306  0.2794
 9260SOL    HW139239   1.779   0.297  11.353  1.0063  0.1510 -0.7225
 9260SOL    HW239240   1.634   0.326  11.353 -0.4957 -1.3809 -0.9873
 9261SOL     OW39241   2.087   4.036  10.137 -0.2041 -1.0446  0.3286
 9261SOL    HW139242   2.148   4.085  10.193  0.6778 -0.1092 -1.4442
 9261SOL    HW239243   2.110   3.946  10.157  1.6846 -0.3176  1.4818
 9262SOL     OW39244   1.097   3.080   0.127  0.4221 -0.2564 -0.0839
 9262SOL    HW139245   1.172   3.136   0.144  0.8166 -0.7668 -0.1464
 9262SOL    HW239246   1.098   3.014   0.196 -3.5800 -1.7965 -1.4458
 9263SOL     OW39247   2.186   1.061   7.922 -0.0816 -0.1348  0.8582
 9263SOL    HW139248   2.181   1.153   7.951 -0.2299 -0.3948  1.6597
 9263SOL    HW239249   2.118   1.020   7.975 -0.7053 -1.9579 -1.3910
 9264SOL     OW39250   1.333   3.214  16.815  0.1613 -0.3098  0.4985
 9264SOL    HW139251   1.340   3.308  16.831  1.3299 -0.5018  1.1340
 9264SOL    HW239252   1.299   3.212  16.726  0.9143 -0.0571  0.2072
 9265SOL     OW39253   4.185   4.524   4.431 -0.2116 -0.8413 -0.6442
 9265SOL    HW139254   4.228   4.607   4.452 -0.4075  0.3490 -4.8682
 9265SOL    HW239255   4.207   4.477   4.511 -0.6532 -0.8664 -0.5381
 9266SOL     OW39256   3.684   1.409   1.720  0.3777 -0.7708 -0.6385
 9266SOL    HW139257   3.663   1.339   1.782  0.0111  1.4415  1.7060
 9266SOL    HW239258   3.670   1.365   1.636 -1.5725  4.2020 -2.9490
 9267SOL     OW39259   3.764   1.085  17.091  0.2951 -0.1079  0.5037
 9267SOL    HW139260   3.812   1.122  17.165 -1.5662  1.8474  0.7523
 9267SOL    HW239261   3.825   1.022  17.052  1.8484  0.9207  1.2953
 9268SOL     OW39262   1.614   2.665   8.606  0.3714  0.0658 -0.1802
 9268SOL    HW139263   1.613   2.666   8.511  1.1995  2.4816 -0.1464
 9268SOL    HW239264   1.555   2.737   8.629  1.7643  1.0603  0.2891
 9269SOL     OW39265   3.804   1.780   8.583  0.6264  0.0970  0.4170
 9269SOL    HW139266   3.740   1.713   8.607 -1.8965  2.0188 -0.9092
 9269SOL    HW239267   3.833   1.809   8.669  1.5006 -1.2983  0.5868
 9270SOL     OW39268   2.435   2.790   2.478 -0.3376 -0.1447 -0.1200
 9270SOL    HW139269   2.469   2.710   2.519  0.4784  0.6243  0.6920
 9270SOL    HW239270   2.481   2.857   2.528 -2.9202  1.5711 -0.0248
 9271SOL     OW39271   1.333   2.351   7.732 -0.2992 -0.3108  0.4511
 9271SOL    HW139272   1.282   2.335   7.653 -0.2647  1.2538  0.1250
 9271SOL    HW239273   1.317   2.445   7.731 -0.4973 -0.3407  0.6471
 9272SOL     OW39274   2.772   4.474   9.956 -0.2432 -0.1288  0.1033
 9272SOL    HW139275   2.814   4.388   9.963 -1.2442 -0.6511 -0.3144
 9272SOL    HW239276   2.722   4.480  10.037 -2.0878 -2.0260 -0.9063
 9273SOL     OW39277   2.743   1.985   6.969 -0.0009 -0.1980 -0.0272
 9273SOL    HW139278   2.681   2.058   6.959 -2.0211 -1.7907  0.7755
 9273SOL    HW239279   2.720   1.920   6.903 -2.8953 -0.1442  0.9324
 9274SOL     OW39280   0.573   1.851   8.542 -0.2293 -0.0876  0.2345
 9274SOL    HW139281   0.541   1.888   8.459  0.8901 -2.5480 -1.2925
 9274SOL    HW239282   0.605   1.762   8.528  1.0693  0.5500 -0.8867
 9275SOL     OW39283   1.474   3.723   7.362 -0.0904 -0.0115  0.1474
 9275SOL    HW139284   1.534   3.766   7.301  2.4855 -0.5557  2.3043
 9275SOL    HW239285   1.429   3.658   7.309  1.0931  0.4899 -1.4810
 9276SOL     OW39286   1.888   4.593  15.922  0.4033  0.0511  0.0659
 9276SOL    HW139287   1.845   4.677  15.905  0.1404  0.0973  0.9434
 9276SOL    HW239288   1.945   4.590  15.846  1.3481  1.3862  0.7269
 9277SOL     OW39289   0.537   4.164   7.054  0.3786 -0.5493 -0.4542
 9277SOL    HW139290   0.493   4.192   7.134  2.5884 -0.5947  0.7727
 9277SOL    HW239291   0.464   4.171   6.993  0.5114  1.5226 -0.3811
 9278SOL     OW39292   0.641   2.703   1.162  0.0905  0.2012  0.3656
 9278SOL    HW139293   0.724   2.674   1.123 -0.3394 -1.8483  0.9799
 9278SOL    HW239294   0.585   2.674   1.090  0.3999 -0.9285  0.5779
 9279SOL     OW39295   2.333   1.071   5.269 -0.0256  0.6181  0.1148
 9279SOL    HW139296   2.270   1.006   5.298  0.8225  1.4786  3.8144
 9279SOL    HW239297   2.403   1.064   5.333  0.4483  2.7266 -0.1704
 9280SOL     OW39298   0.680   0.874   8.299  0.1679 -0.1943 -0.4543
 9280SOL    HW139299   0.633   0.954   8.274 -0.4074  0.3690  2.4101
 9280SOL    HW239300   0.676   0.823   8.218  0.4872  1.2720 -1.4032
 9281SOL     OW39301   4.493   1.719   9.712 -0.3791 -0.2194  0.2276
 9281SOL    HW139302   4.493   1.641   9.657 -1.1414 -1.1091  1.4903
 9281SOL    HW239303   4.586   1.742   9.710 -0.0624 -1.6216 -1.2135
 9282SOL     OW39304   2.517   3.281   0.332  0.5866 -0.7653 -0.6737
 9282SOL    HW139305   2.442   3.260   0.277  1.5901  1.1896 -2.7710
 9282SOL    HW239306   2.542   3.190   0.350 -1.1030 -0.4348  3.3806
 9283SOL     OW39307   4.475   4.661   2.781  0.1060 -0.2552  0.1620
 9283SOL    HW139308   4.498   0.002   2.716  0.3221 -2.0706 -1.6252
 9283SOL    HW239309   4.513   4.703   2.858  2.1970  0.5420 -1.3134
 9284SOL     OW39310   1.406   4.475  14.746 -0.0713 -0.3849 -0.2078
 9284SOL    HW139311   1.488   4.435  14.775  1.0501  0.2040 -2.5631
 9284SOL    HW239312   1.357   4.393  14.736 -0.0225 -0.3992 -0.3343
 9285SOL     OW39313   3.438   1.968  17.068 -1.1794  0.0380  0.0484
 9285SOL    HW139314   3.524   2.009  17.068  0.2495 -3.0167  2.5081
 9285SOL    HW239315   3.452   1.914  16.990  2.0077  0.1746  0.5183
 9286SOL     OW39316   1.771   2.810   4.782 -0.5813  0.6022 -0.1214
 9286SOL    HW139317   1.797   2.778   4.869 -0.1054  1.2353 -0.0319
 9286SOL    HW239318   1.800   2.742   4.722 -3.5974  1.2813 -2.3383
 9287SOL     OW39319   3.100   0.399   7.095  0.5882 -0.0969  0.4167
 9287SOL    HW139320   3.184   0.392   7.050  0.0163  0.7247 -0.8064
 9287SOL    HW239321   3.083   0.310   7.124  2.3620 -0.7763 -0.6473
 9288SOL     OW39322   0.278   1.381  17.167  0.1961 -0.2084  0.0478
 9288SOL    HW139323   0.226   1.461  17.173 -0.7109 -0.8697  1.0360
 9288SOL    HW239324   0.327   1.391  17.249 -0.9465 -0.3953  0.7531
 9289SOL     OW39325   0.990   0.393  12.823  0.0246  0.3490  0.0413
 9289SOL    HW139326   0.957   0.317  12.870  2.2643  0.5112  1.8719
 9289SOL    HW239327   1.003   0.351  12.738 -1.8798  0.9194 -0.5418
 9290SOL     OW39328   1.904   4.515   4.952 -0.1774 -0.3513  0.5936
 9290SOL    HW139329   1.889   4.604   4.919  0.5418 -0.2428  0.5607
 9290SOL    HW239330   1.929   4.478   4.867  2.4778  0.5027  1.0111
 9291SOL     OW39331   2.001   2.969  13.155  0.0708 -0.3025 -0.0668
 9291SOL    HW139332   1.921   3.018  13.135 -0.6472 -2.3912 -2.3580
 9291SOL    HW239333   1.985   2.890  13.102  1.9260 -0.5907 -0.2095
 9292SOL     OW39334   2.143   3.401   5.125  0.1830 -0.6206 -0.2339
 9292SOL    HW139335   2.207   3.472   5.125  0.5864 -0.9786 -1.5232
 9292SOL    HW239336   2.107   3.415   5.037 -0.5003 -1.3604 -0.0697
 9293SOL     OW39337   4.265   0.348   4.044  0.1803 -0.2825 -0.1406
 9293SOL    HW139338   4.263   0.281   3.976  1.8785 -2.3209  1.8252
 9293SOL    HW239339   4.353   0.327   4.076 -0.0035 -1.4131 -0.3760
 9294SOL     OW39340   2.123   0.461   5.765  0.7193 -0.4198 -0.6502
 9294SOL    HW139341   2.214   0.442   5.787  0.5795 -1.9241 -1.3278
 9294SOL    HW239342   2.093   0.371   5.752 -0.1195 -0.1750 -0.4002
 9295SOL     OW39343   2.786   1.891   5.610  0.0410 -0.2561 -0.0340
 9295SOL    HW139344   2.823   1.917   5.525 -1.7447  2.4940  0.0241
 9295SOL    HW239345   2.820   1.964   5.662  0.4977  0.7348 -1.7063
 9296SOL     OW39346   0.733   3.873   6.580 -0.4938 -0.1174 -0.0739
 9296SOL    HW139347   0.791   3.797   6.587  1.0173  1.2043  1.6659
 9296SOL    HW239348   0.700   3.867   6.490  0.6012 -0.5773 -0.4465
 9297SOL     OW39349   4.509   0.112   5.176  0.8681  0.0794 -0.6570
 9297SOL    HW139350   4.468   0.090   5.260  2.2848  2.0340  0.5574
 9297SOL    HW239351   4.565   0.035   5.169  0.5073 -0.1635 -0.8899
 9298SOL     OW39352   0.620   0.693   0.413 -0.5071  0.6348 -0.3819
 9298SOL    HW139353   0.588   0.765   0.467  1.5150  0.1865  1.4060
 9298SOL    HW239354   0.544   0.634   0.419 -0.3534  0.5995  1.1559
 9299SOL     OW39355   4.174   1.356   7.404 -0.0180  0.5947  0.2170
 9299SOL    HW139356   4.252   1.391   7.360 -1.7050  3.4767 -0.5313
 9299SOL    HW239357   4.108   1.413   7.365  1.3071  0.5652 -2.1288
 9300SOL     OW39358   0.291   2.656   7.273 -0.0619 -0.0106 -0.0021
 9300SOL    HW139359   0.299   2.595   7.346  2.0290  3.3473  2.5414
 9300SOL    HW239360   0.308   2.604   7.194  0.6110  0.6223 -0.2778
 9301SOL     OW39361   1.516   0.533   0.706 -0.6729 -0.0427 -0.3124
 9301SOL    HW139362   1.570   0.465   0.748 -0.3560 -0.8273 -2.0026
 9301SOL    HW239363   1.561   0.563   0.627  0.1182 -0.9100 -0.1905
 9302SOL     OW39364   3.920   1.337   5.581 -0.3884 -0.1251  0.8953
 9302SOL    HW139365   3.930   1.302   5.492  0.1618 -0.1595  0.9708
 9302SOL    HW239366   3.858   1.279   5.624 -0.2353 -2.2638 -1.7792
 9303SOL     OW39367   1.083   2.091   6.648  0.0911 -0.3795 -0.4407
 9303SOL    HW139368   1.159   2.110   6.703  0.5642  1.7120 -1.8176
 9303SOL    HW239369   1.128   2.052   6.573 -1.8791  0.3245 -2.0230
 9304SOL     OW39370   2.497   3.499   6.706  0.1404 -0.0567  0.1440
 9304SOL    HW139371   2.562   3.480   6.773  0.1286 -0.3912  0.0603
 9304SOL    HW239372   2.537   3.580   6.673  0.3842  0.2729  1.2777
 9305SOL     OW39373   3.000   1.123  14.363 -0.6411  0.3131 -0.0549
 9305SOL    HW139374   3.058   1.134  14.438 -2.3576  3.6348  0.7777
 9305SOL    HW239375   3.051   1.060  14.311  1.1468 -0.2058  2.3326
 9306SOL     OW39376   1.651   0.543   3.722 -0.2804 -0.1314  0.2768
 9306SOL    HW139377   1.626   0.613   3.663 -1.2854  0.8003  1.8178
 9306SOL    HW239378   1.732   0.578   3.759  1.0998 -1.2188 -1.7144
 9307SOL     OW39379   4.274   3.984   2.417 -1.1210  0.0036 -0.0211
 9307SOL    HW139380   4.256   4.069   2.458 -0.9059  0.6617 -1.2962
 9307SOL    HW239381   4.369   3.988   2.428 -0.8670  0.7487 -2.5493
 9308SOL     OW39382   3.928   4.199   4.333 -0.0128  0.0268 -0.5598
 9308SOL    HW139383   3.870   4.269   4.365 -0.9180 -0.9331 -0.0852
 9308SOL    HW239384   3.866   4.128   4.315 -1.3875  0.6315  1.7183
 9309SOL     OW39385   0.219   1.709   3.375 -0.1931  0.0531  0.1818
 9309SOL    HW139386   0.164   1.665   3.311  0.7295 -1.2411  0.2893
 9309SOL    HW239387   0.153   1.765   3.417  0.6703  0.9598  0.3298
 9310SOL     OW39388   2.163   4.311   8.106 -0.0139  0.0754 -0.0358
 9310SOL    HW139389   2.070   4.290   8.109  0.1176 -0.3241  1.2641
 9310SOL    HW239390   2.171   4.384   8.044 -0.2673 -0.0080 -0.1656
 9311SOL     OW39391   4.445   0.321  13.534 -0.0849 -0.3559  0.6214
 9311SOL    HW139392   4.435   0.395  13.594 -0.8018 -0.7783  1.0182
 9311SOL    HW239393   4.532   0.338  13.497 -1.0791  0.5988 -1.2966
 9312SOL     OW39394   1.904   3.134   2.642 -0.2323 -0.4438 -0.2200
 9312SOL    HW139395   1.978   3.153   2.700  0.1022  0.8974 -1.0782
 9312SOL    HW239396   1.922   3.041   2.624  3.4319  0.4134 -0.9641
 9313SOL     OW39397   1.173   0.303   1.466  0.0321  0.2251 -0.0756
 9313SOL    HW139398   1.247   0.287   1.408  1.1824  0.4158  1.3262
 9313SOL    HW239399   1.095   0.296   1.411 -0.1316  1.3641  0.0097
 9314SOL     OW39400   2.585   0.413   7.337  0.4150 -0.4449  0.0701
 9314SOL    HW139401   2.661   0.456   7.297  1.4721 -3.8414 -1.5863
 9314SOL    HW239402   2.544   0.488   7.381  0.2769 -0.3689 -0.1894
 9315SOL     OW39403   0.938   2.722   2.008 -0.1148 -0.2444  0.4815
 9315SOL    HW139404   0.849   2.687   2.011 -0.1647 -0.2473 -0.9976
 9315SOL    HW239405   0.971   2.705   2.096 -1.0202  0.2570  0.9133
 9316SOL     OW39406   1.346   2.274   1.836  0.0140 -0.0519  0.1961
 9316SOL    HW139407   1.365   2.256   1.743  2.4249  2.0322  0.2963
 9316SOL    HW239408   1.256   2.243   1.838 -0.1943  0.4267 -1.8346
 9317SOL     OW39409   3.610   3.018   5.566  0.6917 -0.0733  0.0643
 9317SOL    HW139410   3.669   3.038   5.494  0.1704 -2.1800 -0.9408
 9317SOL    HW239411   3.642   3.087   5.625 -1.0711 -1.2453  2.4067
 9318SOL     OW39412   3.316   1.528  11.696  0.4301 -0.2303 -0.4349
 9318SOL    HW139413   3.387   1.560  11.751  0.2348  0.2981 -0.4918
 9318SOL    HW239414   3.362   1.512  11.614 -1.6394 -1.1722 -1.4290
 9319SOL     OW39415   2.149   3.453  17.399  0.2533  0.1826  0.7452
 9319SOL    HW139416   2.234   3.410  17.394  0.8929  1.3905  1.5113
 9319SOL    HW239417   2.165   3.547  17.392 -3.9516  0.8591  0.2142
 9320SOL     OW39418   0.442   1.389   2.807 -0.1263  0.3397  0.1685
 9320SOL    HW139419   0.491   1.471   2.801 -1.1698  0.9942  0.4851
 9320SOL    HW239420   0.413   1.372   2.717  2.0210 -0.4057 -0.3855
 9321SOL     OW39421   4.522   1.427   5.393 -0.6551  0.8913  0.2635
 9321SOL    HW139422   4.464   1.376   5.449  1.2602 -2.5798 -0.9218
 9321SOL    HW239423   4.509   1.514   5.432  1.1159  1.1204  0.3445
 9322SOL     OW39424   1.802   0.342  11.960 -0.1995 -0.3855  0.0561
 9322SOL    HW139425   1.744   0.371  12.031  1.3815  0.0943  1.1536
 9322SOL    HW239426   1.785   0.408  11.892  0.9432  1.9776  2.0561
 9323SOL     OW39427   1.010   1.029   0.576 -0.0932 -0.0223  0.2202
 9323SOL    HW139428   0.938   1.047   0.515  1.5284  1.3039 -1.2874
 9323SOL    HW239429   0.973   0.953   0.622  2.1636 -1.7732 -0.8691
 9324SOL     OW39430   1.871   1.057  16.208 -0.7742  0.1734  0.6342
 9324SOL    HW139431   1.927   1.128  16.178  2.0685 -2.3297  0.0084
 9324SOL    HW239432   1.809   1.098  16.268 -0.6291  1.4710 -0.1070
 9325SOL     OW39433   0.699   0.762   1.238 -1.2603 -0.0520  0.3064
 9325SOL    HW139434   0.782   0.754   1.284 -0.2717  4.7255 -0.6047
 9325SOL    HW239435   0.680   0.669   1.249  0.0382 -0.1535  1.7059
 9326SOL     OW39436   3.531   0.588  15.732 -0.0323  0.7021 -0.5985
 9326SOL    HW139437   3.515   0.654  15.799 -3.2413 -0.9707  0.2853
 9326SOL    HW239438   3.446   0.591  15.687 -0.6495 -1.1015  0.4447
 9327SOL     OW39439   1.660   0.555   4.554 -0.8968 -0.1769 -0.1861
 9327SOL    HW139440   1.706   0.639   4.548 -2.5813  0.6594 -1.0517
 9327SOL    HW239441   1.665   0.517   4.466 -0.0429 -0.9157  0.1802
 9328SOL     OW39442   2.585   0.852   9.060  0.0685  0.0592 -0.1711
 9328SOL    HW139443   2.627   0.837   9.144  0.4557 -1.1448 -0.5791
 9328SOL    HW239444   2.655   0.899   9.016  0.1984 -0.6546 -0.7371
 9329SOL     OW39445   4.071   3.179   2.923  0.2312 -0.6859 -0.1368
 9329SOL    HW139446   4.129   3.113   2.884  0.8975 -1.2218  1.7442
 9329SOL    HW239447   4.143   3.228   2.964  1.9399 -1.0315 -2.7426
 9330SOL     OW39448   3.261   2.856   0.533  0.0201 -0.1351 -0.2141
 9330SOL    HW139449   3.343   2.821   0.499  1.2791  1.2446  1.3921
 9330SOL    HW239450   3.205   2.807   0.473  0.6259 -1.6178  0.4366
 9331SOL     OW39451   4.685   3.649   4.508  0.2491  0.4245 -0.4083
 9331SOL    HW139452   4.648   3.624   4.592  1.8922  2.1744  0.8308
 9331SOL    HW239453   4.622   3.712   4.470 -0.1263 -0.4796 -1.2864
 9332SOL     OW39454   2.900   1.103   1.875  0.1017  0.6400  0.0105
 9332SOL    HW139455   2.990   1.086   1.902 -0.3163 -1.1587  0.3172
 9332SOL    HW239456   2.874   1.177   1.930 -1.2105 -0.3226  0.6984
 9333SOL     OW39457   1.646   0.847   5.848  0.3169 -0.2574  0.1869
 9333SOL    HW139458   1.627   0.923   5.792 -1.6053 -0.1225  1.0068
 9333SOL    HW239459   1.650   0.787   5.773  3.1300  0.8962 -0.5679
 9334SOL     OW39460   0.333   0.941   4.293 -0.7985  0.0020  0.6790
 9334SOL    HW139461   0.402   0.877   4.279 -1.1692 -0.1401 -0.4690
 9334SOL    HW239462   0.277   0.920   4.218  0.7166 -1.1786 -0.1033
 9335SOL     OW39463   4.268   0.697   3.551  0.0272  0.0598  0.0284
 9335SOL    HW139464   4.345   0.753   3.559  0.1721 -0.3223  1.2020
 9335SOL    HW239465   4.291   0.629   3.614 -0.1299 -0.5806 -0.5944
 9336SOL     OW39466   3.104   2.321  14.687  0.2339 -0.4206  0.4337
 9336SOL    HW139467   3.199   2.315  14.676 -0.0301 -1.3371 -1.3817
 9336SOL    HW239468   3.066   2.295  14.603 -1.2387  2.5971  0.1971
 9337SOL     OW39469   3.857   1.048   5.592  0.2985  0.5577 -0.2514
 9337SOL    HW139470   3.853   1.002   5.676  1.6537 -0.0852 -0.5484
 9337SOL    HW239471   3.764   1.043   5.569  0.8256 -1.4013 -1.9575
 9338SOL     OW39472   3.644   2.589   8.899  0.0336  0.1255 -0.0938
 9338SOL    HW139473   3.651   2.670   8.949 -0.7724  1.0909 -1.5380
 9338SOL    HW239474   3.721   2.543   8.933  0.3460  1.8865  1.5577
 9339SOL     OW39475   0.315   4.172   8.567  0.0618 -0.1148 -0.3449
 9339SOL    HW139476   0.343   4.244   8.623 -1.8523 -1.0837  1.8436
 9339SOL    HW239477   0.395   4.140   8.526 -0.0198 -0.8601  0.0750
 9340SOL     OW39478   0.551   3.035  13.465 -0.0605 -0.2057  0.1523
 9340SOL    HW139479   0.620   3.024  13.398  0.7920 -2.2630  1.3585
 9340SOL    HW239480   0.540   2.947  13.500 -0.1395  0.3127  1.3990
 9341SOL     OW39481   2.819   1.885   1.966 -0.4035  0.2668  0.4156
 9341SOL    HW139482   2.888   1.819   1.973 -0.5164  0.0393 -0.5862
 9341SOL    HW239483   2.741   1.846   1.926  0.9608  0.8715 -2.7739
 9342SOL     OW39484   2.770   0.150   6.376 -0.7233  0.5644  0.2819
 9342SOL    HW139485   2.782   0.070   6.426 -0.4720  0.9942  0.9143
 9342SOL    HW239486   2.699   0.130   6.314  1.3788 -1.5800 -1.4159
 9343SOL     OW39487   0.024   3.890   6.695 -0.4997  0.2598 -0.5958
 9343SOL    HW139488   0.024   3.811   6.641 -3.2346  0.7183 -1.2904
 9343SOL    HW239489   0.091   3.868   6.760 -0.6149  0.5343 -0.3828
 9344SOL     OW39490   3.647   0.590  10.296  0.2330  0.1171  0.7056
 9344SOL    HW139491   3.703   0.516  10.271 -1.5489 -2.0740  3.1700
 9344SOL    HW239492   3.565   0.549  10.321  0.3667 -1.3739 -1.2957
 9345SOL     OW39493   1.503   1.461   3.784  0.1422 -0.5108  0.2898
 9345SOL    HW139494   1.508   1.527   3.715  0.3366 -0.7491  0.0731
 9345SOL    HW239495   1.455   1.392   3.737  0.2367 -0.3171 -0.0962
 9346SOL     OW39496   4.212   0.228   3.093  0.1559 -0.0482 -0.2965
 9346SOL    HW139497   4.262   0.147   3.083 -2.0238 -1.2964 -1.0882
 9346SOL    HW239498   4.258   0.271   3.165  1.2961 -0.5210 -0.7389
 9347SOL     OW39499   4.429   1.218   4.104  0.1814  0.5611  0.1964
 9347SOL    HW139500   4.354   1.188   4.155 -0.5842 -3.1163 -3.1272
 9347SOL    HW239501   4.388   1.259   4.028 -2.2358 -1.4749  0.4152
 9348SOL     OW39502   0.227   3.984  13.098 -0.2240  0.3822  0.2219
 9348SOL    HW139503   0.134   3.963  13.104  0.1776 -0.8050  2.2187
 9348SOL    HW239504   0.249   3.917  13.034 -1.9599 -1.8003  1.9294
 9349SOL     OW39505   0.145   0.446  15.909  0.1983 -0.0800 -0.3382
 9349SOL    HW139506   0.111   0.453  15.820 -1.0071  3.2183  0.3548
 9349SOL    HW239507   0.070   0.407  15.954 -0.3175 -0.5768 -1.6613
 9350SOL     OW39508   3.361   2.262  14.540  0.3234  0.0349  0.3457
 9350SOL    HW139509   3.363   2.209  14.461  1.3966  0.5975 -0.0123
 9350SOL    HW239510   3.377   2.188  14.598 -0.7168 -0.2095  0.3233
 9351SOL     OW39511   4.598   2.249   1.251  0.1095 -0.3068 -0.3557
 9351SOL    HW139512   4.516   2.292   1.225  0.1913 -0.6016 -1.0787
 9351SOL    HW239513   4.569   2.159   1.264  1.2998 -0.6472 -0.1425
 9352SOL     OW39514   1.349   0.893   1.269  0.0472 -0.2529 -0.3042
 9352SOL    HW139515   1.319   0.971   1.223  1.1720 -0.8792 -2.0689
 9352SOL    HW239516   1.360   0.826   1.202  2.8471  0.6094 -0.7003
 9353SOL     OW39517   3.667   1.303   4.913  0.1165  0.3671 -0.1527
 9353SOL    HW139518   3.663   1.306   4.817 -3.1874 -0.9484 -0.0580
 9353SOL    HW239519   3.635   1.389   4.943 -1.8890 -0.1446 -0.7983
 9354SOL     OW39520   2.992   3.083   6.827 -0.2341 -0.7886 -0.2020
 9354SOL    HW139521   3.048   3.041   6.762  1.2797  0.9727 -0.0468
 9354SOL    HW239522   2.974   3.168   6.787 -0.3663 -0.8353 -0.2403
 9355SOL     OW39523   1.215   3.916   3.651  0.0157 -0.1270 -0.0758
 9355SOL    HW139524   1.184   3.863   3.577 -1.2963  1.3459 -0.5966
 9355SOL    HW239525   1.135   3.968   3.660 -0.2862 -0.6159  0.0661
 9356SOL     OW39526   1.456   0.128   2.371  0.4005  0.7402 -0.3104
 9356SOL    HW139527   1.365   0.121   2.344  1.3580 -0.8986 -3.0688
 9356SOL    HW239528   1.467   0.040   2.407 -0.7164  0.2506 -1.1838
 9357SOL     OW39529   0.017   2.806  12.562  0.7585  0.3503  0.1336
 9357SOL    HW139530   4.666   2.758  12.531 -0.2725  1.2620  1.3041
 9357SOL    HW239531   4.713   2.895  12.544 -1.2759 -0.2575  0.5381
 9358SOL     OW39532   2.333   2.579   5.014  0.0280  0.3348 -0.2486
 9358SOL    HW139533   2.275   2.568   4.938  2.2246 -1.1148 -1.7197
 9358SOL    HW239534   2.313   2.668   5.042 -2.6752  0.0023 -1.1606
 9359SOL     OW39535   3.506   1.729   2.858 -0.2920  0.1503  0.8061
 9359SOL    HW139536   3.532   1.685   2.777 -3.5256  0.7059 -0.5435
 9359SOL    HW239537   3.510   1.821   2.832  1.9641 -0.3535 -0.6584
 9360SOL     OW39538   0.261   1.354  13.288 -0.0379 -0.1984  0.0836
 9360SOL    HW139539   0.220   1.432  13.326 -1.0021 -2.4081  3.6111
 9360SOL    HW239540   0.346   1.388  13.260  0.1256 -0.9239 -0.3073
 9361SOL     OW39541   3.668   4.278   3.141 -0.1243  0.1411  0.6274
 9361SOL    HW139542   3.749   4.329   3.139 -0.7498  1.1304  0.3175
 9361SOL    HW239543   3.694   4.188   3.158 -0.6590  0.2773  2.1939
 9362SOL     OW39544   0.800   0.254   3.531  0.2465 -0.2587 -0.0629
 9362SOL    HW139545   0.821   0.163   3.549  0.1563 -0.6590 -2.0010
 9362SOL    HW239546   0.716   0.240   3.488 -0.1000 -1.2671  0.9460
 9363SOL     OW39547   2.129   2.855   2.982  0.6328  0.2227  0.0818
 9363SOL    HW139548   2.188   2.838   2.909 -0.6732  1.4176 -1.2549
 9363SOL    HW239549   2.164   2.782   3.034 -0.1938  0.4197  0.9315
 9364SOL     OW39550   4.106   2.136   9.633 -0.5768  0.3586 -0.3979
 9364SOL    HW139551   4.043   2.088   9.687 -0.8623 -0.0355 -1.0800
 9364SOL    HW239552   4.167   2.065   9.610  1.2321  1.6524  0.4770
 9365SOL     OW39553   0.708   1.803   9.296 -0.5854 -0.4704  0.3156
 9365SOL    HW139554   0.711   1.710   9.273  0.9531 -0.7034  1.4123
 9365SOL    HW239555   0.775   1.837   9.237 -2.0010  2.0902  0.1814
 9366SOL     OW39556   3.687   3.661   6.202 -0.1419 -0.6551  0.0189
 9366SOL    HW139557   3.607   3.701   6.238 -0.7850 -2.6949  0.8491
 9366SOL    HW239558   3.722   3.607   6.273 -2.3758 -0.2425  1.4516
 9367SOL     OW39559   1.391   1.730   8.711 -0.1907 -0.0687 -1.1389
 9367SOL    HW139560   1.313   1.747   8.765 -0.2103  0.1688 -1.2427
 9367SOL    HW239561   1.442   1.700   8.786  0.0694 -1.8018 -2.0256
 9368SOL     OW39562   4.279   2.856   6.271 -0.1025 -0.4296  0.9044
 9368SOL    HW139563   4.352   2.891   6.323  0.3041 -2.5727  1.7853
 9368SOL    HW239564   4.304   2.901   6.191 -0.6483  0.2024  1.0864
 9369SOL     OW39565   1.377   3.035   4.207 -0.5242  0.0680 -0.0876
 9369SOL    HW139566   1.464   3.053   4.173 -1.7172  3.3746 -1.3666
 9369SOL    HW239567   1.330   3.012   4.126  0.8690  0.0490 -0.8791
 9370SOL     OW39568   2.394   1.902  13.630  0.1146  0.0224  0.1631
 9370SOL    HW139569   2.348   1.982  13.652 -0.5917 -0.4790  0.5078
 9370SOL    HW239570   2.406   1.867  13.719  0.7176  0.0836  0.1073
 9371SOL     OW39571   4.255   2.453   8.907 -0.4782  0.1482  0.1333
 9371SOL    HW139572   4.276   2.540   8.940  1.4049 -0.4254  0.4252
 9371SOL    HW239573   4.191   2.426   8.972  2.4434 -1.9743  2.0998
 9372SOL     OW39574   2.632   3.798  15.409  0.1951 -0.3248  0.3350
 9372SOL    HW139575   2.678   3.844  15.338  1.7349 -2.1459  0.1497
 9372SOL    HW239576   2.591   3.722  15.370  2.1431 -0.7715 -0.8345
 9373SOL     OW39577   0.495   2.451   5.893  0.1325  0.0444 -0.7074
 9373SOL    HW139578   0.436   2.518   5.928  0.8229 -0.1656  0.8674
 9373SOL    HW239579   0.570   2.463   5.951  2.2863 -0.3108 -3.4111
 9374SOL     OW39580   3.195   2.657   6.244  0.3272 -0.1093 -0.3008
 9374SOL    HW139581   3.167   2.749   6.249 -2.5970 -1.0737  1.1580
 9374SOL    HW239582   3.162   2.621   6.326 -2.0913 -0.9353 -1.6301
 9375SOL     OW39583   2.942   1.455   4.964 -0.3954 -0.0935 -0.2735
 9375SOL    HW139584   2.860   1.478   5.010 -1.2803 -2.8322 -0.4949
 9375SOL    HW239585   2.913   1.431   4.876 -0.8595 -0.1037 -0.1179
 9376SOL     OW39586   2.491   4.620   8.104  0.4474 -0.0201 -0.0839
 9376SOL    HW139587   2.525   4.561   8.037  3.1848  0.8406  0.5676
 9376SOL    HW239588   2.433   4.566   8.158  0.3169 -0.6748 -0.8880
 9377SOL     OW39589   0.951   0.547   8.978 -0.2861  0.6422  0.4700
 9377SOL    HW139590   1.008   0.602   8.925 -0.1396  1.9000  1.9358
 9377SOL    HW239591   0.967   0.466   8.929  0.5177  0.7633  0.5342
 9378SOL     OW39592   3.867   1.576   4.515 -0.9950 -0.4960  0.1081
 9378SOL    HW139593   3.806   1.638   4.554 -0.0558  0.7152 -0.3238
 9378SOL    HW239594   3.949   1.600   4.560 -1.1823 -1.9461  1.2125
 9379SOL     OW39595   2.828   1.068   2.800 -0.3091  0.1604 -0.9272
 9379SOL    HW139596   2.742   1.029   2.815  0.5981 -0.7367  1.8730
 9379SOL    HW239597   2.870   0.995   2.756 -1.3549 -1.4412  0.7367
 9380SOL     OW39598   2.918   0.992  15.172 -0.3448 -0.4808  0.0220
 9380SOL    HW139599   2.836   0.971  15.216  0.6247  0.2498  2.1757
 9380SOL    HW239600   2.941   0.910  15.127  0.4136  0.2573 -0.9437
 9381SOL     OW39601   4.023   2.846   3.059 -0.0906  0.0284 -0.4085
 9381SOL    HW139602   3.958   2.902   3.102 -1.6444 -1.5389 -0.7394
 9381SOL    HW239603   4.092   2.910   3.043  0.5472 -0.6818 -0.5139
 9382SOL     OW39604   3.755   2.910   7.990 -0.2738 -0.9705  0.2197
 9382SOL    HW139605   3.697   2.882   7.919 -1.7616  0.7038  0.7598
 9382SOL    HW239606   3.825   2.848   7.968  3.4218  2.7731  1.4400
 9383SOL     OW39607   2.287   0.497  11.386  0.0791 -0.1470 -0.6492
 9383SOL    HW139608   2.280   0.498  11.482 -0.5592 -0.3172 -0.6936
 9383SOL    HW239609   2.375   0.534  11.380 -0.1664  0.6001  0.4104
 9384SOL     OW39610   3.233   2.785   8.594 -0.3003 -0.0674 -0.2272
 9384SOL    HW139611   3.172   2.854   8.571 -0.0162  0.9029  1.9473
 9384SOL    HW239612   3.260   2.808   8.683  0.7715  0.7577 -0.7600
 9385SOL     OW39613   1.947   3.841  14.358 -0.1894  0.4464 -0.0487
 9385SOL    HW139614   1.961   3.750  14.332 -0.8736 -0.3636  2.3570
 9385SOL    HW239615   1.856   3.849  14.386  0.6789  2.4401  2.2042
 9386SOL     OW39616   0.231   2.878   3.420  0.1523 -0.1886  0.0252
 9386SOL    HW139617   0.244   2.824   3.342 -0.5186  0.7156 -0.7166
 9386SOL    HW239618   0.166   2.822   3.463  1.1313 -2.3222 -1.2542
 9387SOL     OW39619   2.137   1.730  10.063  0.6374  0.0388  0.1433
 9387SOL    HW139620   2.216   1.678  10.049 -0.6919 -2.1160  0.6147
 9387SOL    HW239621   2.073   1.666  10.030  1.9582 -1.0921 -0.2194
 9388SOL     OW39622   1.865   1.397  11.189 -0.8378 -0.0378 -0.2982
 9388SOL    HW139623   1.845   1.490  11.182 -0.4946  0.1715  1.4849
 9388SOL    HW239624   1.932   1.388  11.122  0.1630  1.4129  0.5129
 9389SOL     OW39625   3.504   2.702  16.681 -0.1795 -0.0784  0.3908
 9389SOL    HW139626   3.452   2.664  16.611 -1.0419  0.8309  0.5424
 9389SOL    HW239627   3.567   2.630  16.688 -2.2820 -2.0733 -1.0749
 9390SOL     OW39628   1.198   1.617   2.705  0.6667 -0.7369 -0.0266
 9390SOL    HW139629   1.130   1.553   2.724 -1.1155  0.6173 -1.8456
 9390SOL    HW239630   1.270   1.589   2.762 -0.1615 -0.8984  0.9339
 9391SOL     OW39631   2.885   3.377   6.824  0.8117  0.4308  0.3288
 9391SOL    HW139632   2.827   3.443   6.860 -1.7222 -0.5961 -1.8130
 9391SOL    HW239633   2.968   3.424   6.817  1.5575 -0.9230 -0.0350
 9392SOL     OW39634   0.359   0.167   2.935 -0.2394  0.1367 -0.3390
 9392SOL    HW139635   0.378   0.142   2.844  3.7023  4.1023 -0.6016
 9392SOL    HW239636   0.425   0.234   2.955 -0.1980 -0.8689  2.8926
 9393SOL     OW39637   3.468   4.186   3.732 -0.1821  0.1046  0.0093
 9393SOL    HW139638   3.467   4.163   3.639  1.0577  0.8293 -0.1929
 9393SOL    HW239639   3.562   4.183   3.753  0.0945  1.2311 -1.0466
 9394SOL     OW39640   2.084   3.728   4.799  0.1485 -0.1063 -0.3100
 9394SOL    HW139641   2.064   3.822   4.795 -1.5661 -0.4722 -0.5683
 9394SOL    HW239642   2.180   3.730   4.801  0.1279  0.4606  0.1870
 9395SOL     OW39643   4.631   4.487   1.569  0.3712 -0.2535  0.5238
 9395SOL    HW139644   4.614   4.394   1.585  3.2726 -0.6577  1.2949
 9395SOL    HW239645   4.573   4.520   1.638 -1.8744  0.3878 -1.6544
 9396SOL     OW39646   0.760   4.281   7.463 -0.3084 -0.2045  1.1596
 9396SOL    HW139647   0.745   4.237   7.379  2.7456 -1.5041  1.3201
 9396SOL    HW239648   0.807   4.360   7.437 -0.5828  0.0785  1.5276
 9397SOL     OW39649   0.514   1.499  15.595  0.5663 -0.1307 -0.1785
 9397SOL    HW139650   0.510   1.489  15.500  1.4606  1.8296 -0.4415
 9397SOL    HW239651   0.605   1.471  15.609  0.3496 -0.1517  1.1835
 9398SOL     OW39652   2.857   2.287   3.307 -0.1119 -0.1089 -0.4722
 9398SOL    HW139653   2.925   2.259   3.246  0.1193  0.7050 -0.5951
 9398SOL    HW239654   2.808   2.354   3.258 -0.8693 -2.3148 -2.7270
 9399SOL     OW39655   3.104   0.679   4.999  0.1037  0.3702  0.2047
 9399SOL    HW139656   3.147   0.627   4.932  1.8129  0.0048  1.5911
 9399SOL    HW239657   3.110   0.622   5.076  0.3897  2.2996  1.6162
 9400SOL     OW39658   3.118   4.324   8.324  0.4093  0.3084  1.0148
 9400SOL    HW139659   3.074   4.365   8.249  0.0901  1.4185  1.8148
 9400SOL    HW239660   3.075   4.355   8.403  0.2972  0.6956  0.7998
 9401SOL     OW39661   4.008   3.944   7.790 -0.2000  0.4155  0.4254
 9401SOL    HW139662   4.077   3.915   7.732  2.1680  2.7426  2.0597
 9401SOL    HW239663   3.945   3.873   7.779 -0.7899  1.0155 -0.1266
 9402SOL     OW39664   1.108   2.443   8.429 -0.3150 -0.3944  0.0923
 9402SOL    HW139665   1.178   2.389   8.391  2.3623  0.6091  3.5499
 9402SOL    HW239666   1.160   2.503   8.483  2.5017  1.4258 -4.6436
 9403SOL     OW39667   0.962   2.033   3.719 -0.1552 -0.3831  0.1533
 9403SOL    HW139668   0.868   2.021   3.707 -0.4748  0.3448  1.9529
 9403SOL    HW239669   0.990   2.019   3.628 -0.4993  1.5697 -0.2711
 9404SOL     OW39670   0.019   2.655  11.820  0.5152  0.4837 -0.3860
 9404SOL    HW139671   0.073   2.673  11.897  1.0276 -0.3671 -0.5528
 9404SOL    HW239672   4.694   2.579  11.848  1.3829  0.7330  1.8947
 9405SOL     OW39673   2.209   1.947   2.927 -0.2367 -0.2062  0.0126
 9405SOL    HW139674   2.159   1.865   2.931 -0.3621 -0.1957 -1.3225
 9405SOL    HW239675   2.144   2.001   2.882  0.1604  2.4570  2.5767
 9406SOL     OW39676   2.541   0.230  14.786  0.1189 -0.2832  0.2718
 9406SOL    HW139677   2.602   0.162  14.816 -0.9242 -0.9519  0.8620
 9406SOL    HW239678   2.463   0.176  14.781  0.5709 -0.7073 -1.8760
 9407SOL     OW39679   2.854   3.603  10.755  0.3944 -0.7923 -0.2020
 9407SOL    HW139680   2.946   3.584  10.775 -0.1854 -0.4888  2.8312
 9407SOL    HW239681   2.805   3.552  10.820 -1.8143 -0.5526 -1.6799
 9408SOL     OW39682   4.110   2.882   5.704 -0.0238  0.2148  1.0081
 9408SOL    HW139683   4.130   2.920   5.618 -3.7709  2.0524  0.9403
 9408SOL    HW239684   4.098   2.790   5.685 -2.4514  0.8962 -0.7091
 9409SOL     OW39685   1.247   1.631   8.487  0.1380  0.4842  0.0835
 9409SOL    HW139686   1.305   1.614   8.412 -0.5643  0.3385 -0.4232
 9409SOL    HW239687   1.306   1.675   8.549  1.8973  1.4161 -2.2317
 9410SOL     OW39688   2.480   0.250  13.629  0.6667 -0.0361  0.1540
 9410SOL    HW139689   2.434   0.332  13.615  1.1850  0.1467 -0.4548
 9410SOL    HW239690   2.487   0.210  13.542  4.4546 -1.4911  1.1278
 9411SOL     OW39691   0.399   3.246   0.709  0.7585 -0.0594 -0.2292
 9411SOL    HW139692   0.413   3.328   0.662  0.2895 -0.4195 -0.9947
 9411SOL    HW239693   0.484   3.248   0.754 -0.1264 -1.1970  1.4831
 9412SOL     OW39694   0.645   2.087   4.544 -0.0135  0.2605 -0.4534
 9412SOL    HW139695   0.681   2.156   4.600 -1.1709  0.7118 -0.2609
 9412SOL    HW239696   0.675   2.107   4.456  0.7197  1.3459  0.0477
 9413SOL     OW39697   3.218   1.245   5.685 -0.2565  0.1355 -0.4419
 9413SOL    HW139698   3.210   1.172   5.747 -0.5774 -1.3615 -2.2296
 9413SOL    HW239699   3.136   1.294   5.682 -1.1637 -1.2688  0.9337
 9414SOL     OW39700   1.838   0.706   3.328 -0.1660 -0.0241 -0.0045
 9414SOL    HW139701   1.923   0.742   3.352  1.0958 -3.0261 -0.0308
 9414SOL    HW239702   1.808   0.765   3.259 -0.3676  0.3232  0.3737
 9415SOL     OW39703   3.424   2.921  17.407 -0.3180  0.4210 -0.0139
 9415SOL    HW139704   3.368   2.968  17.345 -0.7922 -1.0239 -0.6783
 9415SOL    HW239705   3.395   2.959  17.490  2.0337  1.1183  0.4768
 9416SOL     OW39706   3.742   1.751   3.943 -0.1946 -0.1496  0.0864
 9416SOL    HW139707   3.751   1.839   3.979  2.1344 -0.3070 -0.1209
 9416SOL    HW239708   3.832   1.722   3.951  0.2552  1.0563 -0.6540
 9417SOL     OW39709   3.877   3.725   5.721 -0.1936  0.2354  0.1689
 9417SOL    HW139710   3.809   3.788   5.744  0.2393 -0.1075  2.4776
 9417SOL    HW239711   3.938   3.790   5.686 -0.4746  0.1674 -0.4415
 9418SOL     OW39712   0.341   1.436  11.470  0.7014  0.0589  0.2015
 9418SOL    HW139713   0.323   1.498  11.540  0.0288  0.5230 -0.3827
 9418SOL    HW239714   0.424   1.395  11.493  0.0051 -2.0839 -1.1253
 9419SOL     OW39715   2.926   3.499   7.637  0.1776 -0.1828 -0.3761
 9419SOL    HW139716   2.992   3.473   7.701  1.2658 -0.3016 -1.5390
 9419SOL    HW239717   2.863   3.542   7.695  0.1540  0.2893 -0.7446
 9420SOL     OW39718   1.439   2.318  13.416 -0.0128  0.4450 -0.1305
 9420SOL    HW139719   1.357   2.358  13.388 -0.2282  0.4854  0.5407
 9420SOL    HW239720   1.492   2.315  13.337  0.5956  2.2599  0.2176
 9421SOL     OW39721   0.116   3.879  14.768  0.2522 -0.3834 -0.4459
 9421SOL    HW139722   0.181   3.947  14.788 -0.1398 -0.2533  0.3742
 9421SOL    HW239723   0.132   3.876  14.673 -1.8204 -1.1798 -0.7629
 9422SOL     OW39724   3.588   2.806  12.649 -0.1124  0.5385 -0.0419
 9422SOL    HW139725   3.500   2.833  12.623 -0.7461  0.9189  2.5821
 9422SOL    HW239726   3.593   2.710  12.648  1.1015  0.5938 -0.2189
 9423SOL     OW39727   4.387   0.125   2.333 -0.5016  0.0223 -0.4141
 9423SOL    HW139728   4.403   0.214   2.365 -3.1417  0.8315 -1.3228
 9423SOL    HW239729   4.478   0.095   2.334 -1.4293 -2.7541 -0.3869
 9424SOL     OW39730   0.845   3.642  12.573  0.4079  0.2450 -0.4224
 9424SOL    HW139731   0.915   3.670  12.633  0.2704  2.0307 -1.0938
 9424SOL    HW239732   0.784   3.713  12.594  1.9243  0.9550  1.6056
 9425SOL     OW39733   1.112   1.163  16.710 -0.0437 -0.2034 -0.1711
 9425SOL    HW139734   1.053   1.194  16.779 -1.9713  0.3501 -2.0536
 9425SOL    HW239735   1.064   1.084  16.687  0.5031 -0.0049 -2.0177
 9426SOL     OW39736   0.443   1.523   6.266 -0.5923  0.4840 -0.1559
 9426SOL    HW139737   0.426   1.478   6.183  0.7788 -0.2665 -0.0287
 9426SOL    HW239738   0.533   1.501   6.293 -0.9292 -1.6818 -0.7846
 9427SOL     OW39739   0.050   3.637   1.907 -0.0848 -0.2610  0.1656
 9427SOL    HW139740   0.104   3.626   1.829 -0.6960 -1.0099 -0.1537
 9427SOL    HW239741   0.089   3.565   1.956 -0.3596  0.0665  0.8646
 9428SOL     OW39742   0.536   1.975   7.775  0.1853 -0.6236  0.0086
 9428SOL    HW139743   0.497   1.888   7.762 -0.3485 -0.4264  0.2835
 9428SOL    HW239744   0.611   1.945   7.827 -2.4095 -3.6970  1.9744
 9429SOL     OW39745   1.111   3.828   4.051 -0.0611  0.2647 -0.4471
 9429SOL    HW139746   1.202   3.854   4.065 -0.4403  0.2475  2.0214
 9429SOL    HW239747   1.106   3.757   4.114  0.0689  0.7395  0.1003
 9430SOL     OW39748   0.188   2.901   7.250 -0.1663  0.2415 -0.1601
 9430SOL    HW139749   0.118   2.913   7.314 -0.2249  1.8380 -0.5105
 9430SOL    HW239750   0.239   2.828   7.284 -0.0176  0.0808 -0.7257
 9431SOL     OW39751   2.955   3.972   1.503  0.2488  0.1800 -0.5358
 9431SOL    HW139752   2.907   3.894   1.475 -2.2076  0.7514  2.1378
 9431SOL    HW239753   2.902   3.987   1.581  1.3702 -0.1518  0.2964
 9432SOL     OW39754   0.590   4.226  16.466  0.4834 -1.1951 -0.1483
 9432SOL    HW139755   0.677   4.262  16.452  0.7464 -1.3891  0.9696
 9432SOL    HW239756   0.571   4.196  16.378 -2.8319 -1.6583  0.7283
 9433SOL     OW39757   2.224   1.479   6.105  0.0944 -0.6238  0.0208
 9433SOL    HW139758   2.203   1.445   6.192  2.9682  0.1163  1.0039
 9433SOL    HW239759   2.319   1.473   6.117  0.2781 -2.3022 -2.4527
 9434SOL     OW39760   2.424   4.580  15.418 -0.0223  0.4031 -0.0413
 9434SOL    HW139761   2.359   4.610  15.354  1.7656  2.8662 -0.7042
 9434SOL    HW239762   2.389   4.491  15.422  2.5415 -0.6319 -0.6221
 9435SOL     OW39763   2.442   0.295  12.904 -0.1538  0.1591 -0.1612
 9435SOL    HW139764   2.356   0.282  12.864  0.0464  0.4698 -0.6926
 9435SOL    HW239765   2.485   0.209  12.900 -1.0435 -0.1959 -2.1112
 9436SOL     OW39766   0.102   3.983   7.589 -0.4183 -0.4384 -0.6661
 9436SOL    HW139767   0.138   4.058   7.542 -0.6362  0.1058  0.0279
 9436SOL    HW239768   0.140   3.908   7.544  1.0768  0.4954 -0.9403
 9437SOL     OW39769   4.431   1.191  13.906  0.0928  0.0848 -0.3692
 9437SOL    HW139770   4.400   1.116  13.855  1.9299 -0.8714 -0.1087
 9437SOL    HW239771   4.520   1.160  13.925  0.1951  0.5728 -0.0568
 9438SOL     OW39772   0.498   2.123   1.970  0.1171  0.7167 -0.0217
 9438SOL    HW139773   0.580   2.172   1.975 -0.1558  1.1569  0.1343
 9438SOL    HW239774   0.425   2.185   1.971  0.9781  1.7266 -0.1170
 9439SOL     OW39775   2.778   3.716   3.271  0.0437  0.1538 -0.9147
 9439SOL    HW139776   2.824   3.644   3.228 -2.2355 -2.6083  1.2358
 9439SOL    HW239777   2.819   3.794   3.234 -0.2126  1.8372  2.3570
 9440SOL     OW39778   1.463   2.578   5.966 -0.5795 -0.1395  0.1068
 9440SOL    HW139779   1.554   2.574   5.935  0.3744  1.8567  2.6647
 9440SOL    HW239780   1.473   2.545   6.055 -0.0624  0.5409  0.2997
 9441SOL     OW39781   4.384   3.716   7.523 -0.0133  0.7571  0.1339
 9441SOL    HW139782   4.423   3.681   7.443 -0.9342 -0.9166  0.4113
 9441SOL    HW239783   4.318   3.648   7.541  2.1408 -0.8584  1.8856
 9442SOL     OW39784   1.141   0.048   9.511 -0.0647  0.2599 -0.3303
 9442SOL    HW139785   1.155   0.108   9.585 -1.2691 -1.4185  1.2504
 9442SOL    HW239786   1.087   0.098   9.450  0.0512  0.2724 -0.4226
 9443SOL     OW39787   2.905   1.993   8.116  0.3586  0.1901  0.3963
 9443SOL    HW139788   2.918   1.909   8.073 -0.4492  0.0946  0.3488
 9443SOL    HW239789   2.814   2.020   8.122 -0.2115 -0.7283 -4.2430
 9444SOL     OW39790   4.050   4.425   6.580  0.1707  0.2013 -0.2796
 9444SOL    HW139791   4.003   4.465   6.506  0.1934  0.2359 -0.2757
 9444SOL    HW239792   4.003   4.342   6.585  2.0700 -0.7695  1.6954
 9445SOL     OW39793   2.330   2.023   2.108 -0.3573  0.2248 -0.2328
 9445SOL    HW139794   2.362   1.938   2.080  0.5325  0.0053  1.4610
 9445SOL    HW239795   2.359   2.088   2.044 -1.8496  0.7631 -0.3638
 9446SOL     OW39796   3.488   2.320   9.614  0.1016 -0.9474 -0.0055
 9446SOL    HW139797   3.511   2.352   9.701 -0.0591 -0.4982 -0.1277
 9446SOL    HW239798   3.452   2.400   9.576 -0.8345 -1.4682 -0.2121
 9447SOL     OW39799   2.422   2.468  12.804 -0.9120  0.0848 -0.2858
 9447SOL    HW139800   2.391   2.538  12.862 -2.4274 -1.3157  0.5855
 9447SOL    HW239801   2.378   2.392  12.841  0.1627 -0.2757  0.2408
 9448SOL     OW39802   1.125   0.184  11.564  0.4435  0.2051  0.3454
 9448SOL    HW139803   1.188   0.192  11.635  0.2790  1.9840  0.2967
 9448SOL    HW239804   1.068   0.259  11.584  1.4752  0.6307  1.7215
 9449SOL     OW39805   1.879   3.087  11.424 -0.2048  0.2287 -0.3815
 9449SOL    HW139806   1.974   3.095  11.417 -0.2964  0.5646 -1.1986
 9449SOL    HW239807   1.873   3.063  11.517 -1.0092 -1.1454 -0.7961
 9450SOL     OW39808   4.420   2.464  10.786  0.1968  0.2541 -0.4707
 9450SOL    HW139809   4.364   2.390  10.810 -0.3289  0.8512  0.1090
 9450SOL    HW239810   4.499   2.417  10.756  2.2892  2.6110  1.3687
 9451SOL     OW39811   3.011   4.660   6.743  0.0689 -0.1112 -0.3471
 9451SOL    HW139812   2.928   4.670   6.790 -1.7262  0.0421 -3.5966
 9451SOL    HW239813   3.073   4.617   6.802  0.6837  0.8034 -0.3368
 9452SOL     OW39814   0.371   0.269   7.287 -0.2854  0.4954 -0.1293
 9452SOL    HW139815   0.418   0.347   7.258 -0.4434 -0.2362 -2.3606
 9452SOL    HW239816   0.280   0.299   7.297  0.1497  1.6337  0.2723
 9453SOL     OW39817   3.182   0.196  17.290 -0.1727  0.1130 -0.2210
 9453SOL    HW139818   3.254   0.157  17.340  0.1599  1.1954  0.1402
 9453SOL    HW239819   3.212   0.179  17.200 -0.4218 -1.8561  0.0820
 9454SOL     OW39820   1.457   3.269   3.459  0.1577 -0.1994  0.1944
 9454SOL    HW139821   1.510   3.260   3.379  1.2928  2.2598  0.6897
 9454SOL    HW239822   1.515   3.251   3.533  0.4431 -0.5208 -0.0993
 9455SOL     OW39823   1.477   4.435   8.701 -0.5242 -0.1684  0.3489
 9455SOL    HW139824   1.453   4.343   8.698 -0.7739 -0.1360  1.4401
 9455SOL    HW239825   1.436   4.463   8.783  1.0630 -1.3742  1.5408
 9456SOL     OW39826   4.451   1.254  11.522 -0.0450  0.0325  0.0323
 9456SOL    HW139827   4.469   1.212  11.606  1.7830 -1.6730 -1.2008
 9456SOL    HW239828   4.514   1.326  11.525  0.9663 -0.8418 -0.0813
 9457SOL     OW39829   2.739   3.122   9.378 -0.0810  0.8927 -0.7267
 9457SOL    HW139830   2.753   3.059   9.449 -1.7801 -1.1251 -2.1936
 9457SOL    HW239831   2.728   3.203   9.428 -0.2257  0.0101  0.6918
 9458SOL     OW39832   3.522   2.426   7.147 -0.0901 -0.3055 -0.5232
 9458SOL    HW139833   3.523   2.364   7.220 -1.0143  0.3108  0.0197
 9458SOL    HW239834   3.539   2.368   7.073  3.3702  0.9900 -0.7403
 9459SOL     OW39835   3.497   2.040   0.904 -0.3148 -0.4650  0.5706
 9459SOL    HW139836   3.553   1.963   0.917  2.3301  1.2285 -0.8479
 9459SOL    HW239837   3.545   2.113   0.943 -0.3198 -0.4674  0.5812
 9460SOL     OW39838   3.527   0.345  17.437  0.1559  0.3166 -0.2586
 9460SOL    HW139839   3.502   0.276  17.375  0.7915 -1.2735  1.2562
 9460SOL    HW239840   3.490   0.305  17.516 -0.7823  1.2763 -0.2029
 9461SOL     OW39841   3.559   0.336  16.737  0.6549 -0.2037 -0.2386
 9461SOL    HW139842   3.466   0.322  16.725  0.3357  1.8353 -0.1448
 9461SOL    HW239843   3.568   0.333  16.832 -2.7353  0.8621  0.0774
 9462SOL     OW39844   0.844   4.408  16.508 -0.1451  0.2547  0.0682
 9462SOL    HW139845   0.922   4.356  16.490 -0.9009 -1.1724  0.9765
 9462SOL    HW239846   0.811   4.361  16.584  3.2218 -1.5190  0.4429
 9463SOL     OW39847   4.567   1.721   5.468 -0.0483  0.1242 -0.2220
 9463SOL    HW139848   4.637   1.699   5.530 -0.2833  2.2420  0.7794
 9463SOL    HW239849   4.497   1.740   5.531  0.0443 -1.3685  0.3410
 9464SOL     OW39850   2.346   3.642   2.648 -1.0203  1.0298  0.1313
 9464SOL    HW139851   2.403   3.633   2.571 -0.7553 -0.6322  0.5260
 9464SOL    HW239852   2.308   3.554   2.642 -0.0840  0.7227 -1.3141
 9465SOL     OW39853   2.431   3.199   1.723  0.3868  0.1266 -0.3299
 9465SOL    HW139854   2.340   3.184   1.751 -0.2255  1.2827 -1.7246
 9465SOL    HW239855   2.457   3.121   1.674  1.3032  0.0572  0.2653
 9466SOL     OW39856   2.241   4.173   7.318  0.2576 -0.0821  0.4959
 9466SOL    HW139857   2.163   4.163   7.263 -0.5593  0.4545  1.5612
 9466SOL    HW239858   2.241   4.268   7.332  0.0369  0.0391 -0.2841
 9467SOL     OW39859   4.325   0.675   8.697  0.1041 -0.2369  0.1005
 9467SOL    HW139860   4.309   0.724   8.778  1.5416  2.2112 -1.0908
 9467SOL    HW239861   4.418   0.656   8.704 -0.0503 -1.3421 -0.9322
 9468SOL     OW39862   0.338   0.321   6.195 -0.0718 -0.3839  0.6733
 9468SOL    HW139863   0.376   0.409   6.191  0.9070 -0.7234  2.8184
 9468SOL    HW239864   0.257   0.341   6.241 -1.0752 -1.7226 -0.4985
 9469SOL     OW39865   4.350   2.104   3.362 -0.0201  0.4201  0.2138
 9469SOL    HW139866   4.362   2.143   3.449  0.2289  0.0298  0.3521
 9469SOL    HW239867   4.435   2.129   3.325 -0.4429  1.1752 -0.2611
 9470SOL     OW39868   4.385   2.024   8.706  0.7936 -0.5181  0.2805
 9470SOL    HW139869   4.293   1.998   8.697  1.1717 -1.4316 -0.9146
 9470SOL    HW239870   4.385   2.012   8.801  0.7163 -0.0864  0.3351
 9471SOL     OW39871   0.609   0.066   0.703 -0.2950 -0.0578 -0.2560
 9471SOL    HW139872   0.547   4.720   0.700 -1.9432  1.3506  0.0747
 9471SOL    HW239873   0.684   0.031   0.751  0.4841  0.6062 -0.9809
 9472SOL     OW39874   3.499   0.068   4.870 -0.7717  0.5221  0.6419
 9472SOL    HW139875   3.422   0.118   4.841 -1.6379 -1.3586 -0.3231
 9472SOL    HW239876   3.499   0.106   4.957  0.9050  0.9664  0.4500
 9473SOL     OW39877   1.583   1.033   2.602 -0.1596 -0.1161  0.0567
 9473SOL    HW139878   1.591   0.947   2.561 -2.4125 -1.0752  1.6407
 9473SOL    HW239879   1.500   1.065   2.566 -0.8642 -1.5219  0.4228
 9474SOL     OW39880   1.529   1.124  12.254  0.3222 -0.2655  0.0498
 9474SOL    HW139881   1.507   1.174  12.175 -1.3821 -0.5545  0.3504
 9474SOL    HW239882   1.486   1.179  12.320  1.2712  1.4166 -0.7427
 9475SOL     OW39883   3.121   2.940   6.229  0.4896 -0.2301 -0.2940
 9475SOL    HW139884   3.093   2.980   6.147  0.1431  0.7137  0.2852
 9475SOL    HW239885   3.071   3.001   6.283 -0.7731 -0.5766 -1.0674
 9476SOL     OW39886   3.310   1.593   5.723 -0.3367  0.2901  0.4290
 9476SOL    HW139887   3.217   1.607   5.740 -0.1887  0.2830  1.2924
 9476SOL    HW239888   3.332   1.676   5.682 -0.3257  0.3034  0.4617
 9477SOL     OW39889   3.942   1.193  17.260  0.5069  0.1733  0.5487
 9477SOL    HW139890   3.987   1.273  17.233  0.2889  0.7469  1.9250
 9477SOL    HW239891   3.957   1.191  17.354 -0.7599 -0.2915  0.7353
 9478SOL     OW39892   2.096   1.769   0.659  0.7795  0.5406 -0.9194
 9478SOL    HW139893   2.125   1.858   0.679  0.0516  1.1315 -2.5132
 9478SOL    HW239894   2.179   1.724   0.673  0.8807  0.9070 -0.3642
 9479SOL     OW39895   2.155   3.305   9.187 -0.3175  0.3944  0.6379
 9479SOL    HW139896   2.120   3.224   9.149  1.8581 -0.2245 -0.0859
 9479SOL    HW239897   2.077   3.335   9.232 -1.3474 -0.7880 -0.3472
 9480SOL     OW39898   1.429   0.389   3.260 -0.4747 -0.0811  0.2603
 9480SOL    HW139899   1.338   0.417   3.267 -0.1663  1.5575 -2.2121
 9480SOL    HW239900   1.464   0.476   3.241 -0.5952 -0.6484 -2.5386
 9481SOL     OW39901   2.783   4.318   4.664  0.0070 -0.2140  0.3862
 9481SOL    HW139902   2.839   4.388   4.698 -1.0842 -0.3617  2.4241
 9481SOL    HW239903   2.718   4.366   4.612  1.6325  0.8238 -0.7189
 9482SOL     OW39904   0.629   0.093   4.561  0.0760  0.1042 -0.2036
 9482SOL    HW139905   0.676   0.168   4.597 -1.0211 -0.3594  2.2189
 9482SOL    HW239906   0.538   0.113   4.582  0.2538  0.5188  0.1917
 9483SOL     OW39907   2.833   4.391   5.827  0.1824  0.0911  0.1885
 9483SOL    HW139908   2.903   4.392   5.892 -0.0536  0.8981  0.4291
 9483SOL    HW239909   2.768   4.338   5.873  1.9099 -0.9967  1.3957
 9484SOL     OW39910   0.356   3.636  12.373  0.2470  0.1552  0.0455
 9484SOL    HW139911   0.394   3.631  12.286  1.6219  1.1827  0.5986
 9484SOL    HW239912   0.265   3.657  12.352  0.1484 -1.5688 -1.1439
 9485SOL     OW39913   2.550   3.224   4.416 -0.4415 -0.1653  0.0943
 9485SOL    HW139914   2.534   3.175   4.497 -0.8693 -2.3080 -1.2960
 9485SOL    HW239915   2.611   3.290   4.450  0.2912 -0.8021  0.0330
 9486SOL     OW39916   0.926   3.737   7.788 -0.4569 -0.0594 -0.3171
 9486SOL    HW139917   0.924   3.686   7.707  2.7134 -0.8484  0.0905
 9486SOL    HW239918   0.869   3.810   7.763  0.1477  0.7549  0.6883
 9487SOL     OW39919   3.584   2.245   2.613 -0.0659  0.6229 -0.1574
 9487SOL    HW139920   3.661   2.208   2.658  0.9043  0.8616 -1.6287
 9487SOL    HW239921   3.518   2.177   2.626  2.0675 -0.8006  3.5066
 9488SOL     OW39922   3.919   2.064   5.452 -0.1066  0.2716 -0.4913
 9488SOL    HW139923   3.909   1.982   5.500 -0.1221  0.4393 -0.2020
 9488SOL    HW239924   3.846   2.114   5.488 -0.7775 -0.9552 -0.1636
 9489SOL     OW39925   4.046   2.381  15.973 -0.2470  0.2970 -0.8626
 9489SOL    HW139926   4.017   2.364  16.062  2.2324 -2.5558 -0.6195
 9489SOL    HW239927   4.054   2.476  15.977 -2.0246  0.4110 -0.2017
 9490SOL     OW39928   3.333   2.514   8.402 -0.1040 -0.5096  0.2417
 9490SOL    HW139929   3.270   2.501   8.473 -0.3596  0.4688  0.1929
 9490SOL    HW239930   3.356   2.425   8.373  0.3531 -0.2590 -0.1564
 9491SOL     OW39931   2.617   0.046   4.824  0.5839 -0.2454  0.1550
 9491SOL    HW139932   2.711   0.046   4.842  1.0121 -1.1736 -1.9833
 9491SOL    HW239933   2.614   0.124   4.769  1.8665 -0.9370 -0.8909
 9492SOL     OW39934   0.411   0.294   1.066 -0.0291 -0.0757 -0.5869
 9492SOL    HW139935   0.334   0.341   1.034 -0.0146  0.0674 -0.4087
 9492SOL    HW239936   0.429   0.343   1.146 -0.5650  1.1986 -1.2535
 9493SOL     OW39937   3.341   2.321   6.202 -0.4331 -0.1216 -0.5743
 9493SOL    HW139938   3.397   2.361   6.268  0.5670 -1.1204 -0.8138
 9493SOL    HW239939   3.361   2.380   6.129 -1.4441  1.2931  0.3137
 9494SOL     OW39940   3.826   3.042   5.323  0.4703 -0.3137 -0.4307
 9494SOL    HW139941   3.914   3.080   5.317  0.9949 -1.3984  0.2379
 9494SOL    HW239942   3.780   3.113   5.278  0.0660 -0.2763  0.0441
 9495SOL     OW39943   4.175   2.006   0.401 -0.1476 -0.3568 -0.2214
 9495SOL    HW139944   4.090   1.970   0.377  0.0541  0.1168 -1.6441
 9495SOL    HW239945   4.161   2.096   0.431 -0.3674 -0.3223 -0.4243
 9496SOL     OW39946   2.974   1.328   8.345 -0.1752 -0.3940 -0.2735
 9496SOL    HW139947   2.886   1.320   8.383 -1.3340 -0.6473 -3.0010
 9496SOL    HW239948   2.943   1.383   8.273  0.5218  1.8211  1.1239
 9497SOL     OW39949   2.131   4.685   8.362 -0.6639  0.0126 -0.8467
 9497SOL    HW139950   2.188   0.021   8.406 -1.9853  0.9342 -0.4165
 9497SOL    HW239951   2.201   4.642   8.314  0.6678 -1.3865  2.3536
 9498SOL     OW39952   2.739   2.182  10.295 -0.7108  0.2969  0.3097
 9498SOL    HW139953   2.723   2.125  10.370 -0.8434 -0.1954 -0.0968
 9498SOL    HW239954   2.789   2.255  10.331  0.3328  0.0121 -0.5314
 9499SOL     OW39955   2.805   4.124  15.500 -0.0889  0.2145 -0.1119
 9499SOL    HW139956   2.862   4.101  15.427 -0.0412  0.3106 -0.1052
 9499SOL    HW239957   2.828   4.214  15.521  0.7279 -0.0726  0.1904
 9500SOL     OW39958   4.563   3.264   1.862 -0.0177 -0.7349  0.0162
 9500SOL    HW139959   4.623   3.190   1.868 -0.5535 -1.1660  0.0908
 9500SOL    HW239960   4.599   3.317   1.933  4.6856 -1.4028 -1.8913
 9501SOL     OW39961   1.859   0.836  15.109  0.3097 -0.2730 -0.1996
 9501SOL    HW139962   1.765   0.850  15.103  0.5227  0.3692 -2.3634
 9501SOL    HW239963   1.883   0.786  15.031 -1.3403 -2.1485  0.5022
 9502SOL     OW39964   4.584   0.199   4.665 -0.0107  0.0972 -0.1441
 9502SOL    HW139965   4.555   0.200   4.756  0.4098  0.4550 -0.0172
 9502SOL    HW239966   4.650   0.130   4.673 -0.1020 -0.0857 -0.9248
 9503SOL     OW39967   0.554   4.648   3.437 -0.0646  0.5109 -0.3549
 9503SOL    HW139968   0.485   4.655   3.502 -0.0539  0.5445 -0.3472
 9503SOL    HW239969   0.525   4.592   3.365  0.3058 -0.5726  0.3246
 9504SOL     OW39970   1.483   4.372   4.064 -0.0881 -0.5132  0.3880
 9504SOL    HW139971   1.567   4.357   4.021 -0.9711  0.1540 -1.5745
 9504SOL    HW239972   1.425   4.391   3.990  1.1842 -1.2491 -0.7931
 9505SOL     OW39973   1.328   2.120  16.278 -0.4207  0.2995  0.2027
 9505SOL    HW139974   1.418   2.107  16.308  0.5872  1.0296 -2.5052
 9505SOL    HW239975   1.338   2.207  16.239 -2.0175  1.2323  1.8872
 9506SOL     OW39976   2.252   3.085   0.434  0.3227  0.0394 -0.0767
 9506SOL    HW139977   2.190   3.156   0.416 -0.4839 -0.6588 -0.0890
 9506SOL    HW239978   2.301   3.096   0.353  0.1648  1.1160 -0.0279
 9507SOL     OW39979   3.227   1.776   3.822  0.4136 -0.2635  0.1293
 9507SOL    HW139980   3.239   1.819   3.737 -1.0312  0.3111  0.2039
 9507SOL    HW239981   3.301   1.801   3.877 -0.7172  0.5267  1.2853
 9508SOL     OW39982   4.633   2.355   2.279  0.2188 -0.2568  0.0334
 9508SOL    HW139983   4.693   2.356   2.353 -0.0361 -1.4854  0.2563
 9508SOL    HW239984   4.567   2.289   2.302  2.5044 -2.2622  0.7415
 9509SOL     OW39985   0.019   3.710   2.951 -0.4246 -0.3018 -0.0850
 9509SOL    HW139986   0.086   3.646   2.975 -1.6770 -1.7839 -0.4951
 9509SOL    HW239987   4.726   3.750   3.036 -1.8107 -0.2510 -0.4174
 9510SOL     OW39988   0.074   4.055   3.357  0.4296  0.5255 -0.3519
 9510SOL    HW139989   0.150   4.102   3.323  1.0116  0.5269  0.9413
 9510SOL    HW239990   0.048   4.109   3.431  1.1584  1.4739 -0.7871
 9511SOL     OW39991   3.504   3.611  10.615  0.0420  0.1219 -0.0980
 9511SOL    HW139992   3.532   3.617  10.707  1.6828 -1.3288 -0.4871
 9511SOL    HW239993   3.442   3.538  10.614  0.8577 -0.6125  3.0326
 9512SOL     OW39994   3.895   1.383   8.985 -0.1661 -0.5036 -0.2077
 9512SOL    HW139995   3.822   1.333   8.947 -1.2037  1.0526 -0.2340
 9512SOL    HW239996   3.966   1.319   8.974 -0.0726 -0.3908 -0.2603
 9513SOL     OW39997   0.281   1.521   7.830  0.4225 -0.0464  0.1995
 9513SOL    HW139998   0.271   1.451   7.895  0.6143  0.8931  1.2344
 9513SOL    HW239999   0.275   1.603   7.879 -0.8558  0.3843 -0.6559
 9514SOL     OW40000   2.506   2.079  13.464  0.1253 -0.0390 -0.4862
 9514SOL    HW140001   2.467   2.009  13.517  0.2772 -0.9542 -1.5730
 9514SOL    HW240002   2.467   2.069  13.377  0.3343 -0.1649 -0.5687
 9515SOL     OW40003   4.376   3.131  12.375 -0.1160 -0.2237 -0.0356
 9515SOL    HW140004   4.310   3.062  12.383 -0.5212  0.4007  1.8984
 9515SOL    HW240005   4.306   3.193  12.353 -0.2577 -0.2136  0.4597
 9516SOL     OW40006   0.886   1.044   0.893 -0.0017  0.1877 -0.2622
 9516SOL    HW140007   0.974   1.082   0.888  0.6229 -1.2331 -0.1115
 9516SOL    HW240008   0.874   1.014   0.803 -0.7918  0.8790 -0.3849
 9517SOL     OW40009   0.576   0.243  17.524  0.4570  0.2853 -0.3007
 9517SOL    HW140010   0.605   0.199  17.604 -2.2821  1.1431  1.1695
 9517SOL    HW240011   0.663   0.260  17.486 -0.1806 -0.3837 -2.0653
 9518SOL     OW40012   0.554   0.989   1.216 -0.0905 -0.1012  0.8590
 9518SOL    HW140013   0.617   0.918   1.226 -2.2107 -2.1409 -0.4023
 9518SOL    HW240014   0.491   0.942   1.161  0.2517  0.2379  0.1732
 9519SOL     OW40015   4.523   3.109   2.733 -0.0550 -0.1352  0.2675
 9519SOL    HW140016   4.509   3.151   2.648 -0.1673 -2.7907 -1.0396
 9519SOL    HW240017   4.438   3.065   2.735 -1.0396  1.8740  1.5678
 9520SOL     OW40018   4.166   0.423   7.659  0.2566  0.6203 -0.1513
 9520SOL    HW140019   4.154   0.351   7.721  1.0133  0.1385 -0.5681
 9520SOL    HW240020   4.259   0.405   7.646  0.2895 -0.3472  1.4199
 9521SOL     OW40021   3.986   0.104  12.596  0.1409  0.0154 -0.4689
 9521SOL    HW140022   3.903   0.061  12.575  0.8576 -1.5868 -0.0803
 9521SOL    HW240023   4.014   0.042  12.663  0.0630  1.1343  0.5935
 9522SOL     OW40024   0.592   2.843  14.680 -0.3286  0.3823 -0.4918
 9522SOL    HW140025   0.532   2.770  14.686  2.6788 -2.1811 -1.3474
 9522SOL    HW240026   0.667   2.783  14.684 -1.1072 -0.6031 -0.9098
 9523SOL     OW40027   1.669   4.324   9.279  0.9543  0.7651 -0.6095
 9523SOL    HW140028   1.615   4.384   9.332  1.7579  0.4345  0.5727
 9523SOL    HW240029   1.717   4.291   9.355 -0.2747 -0.6600 -0.4497
 9524SOL     OW40030   3.771   4.080   2.678  0.1761  0.0335 -0.1325
 9524SOL    HW140031   3.775   4.020   2.604 -3.1678  0.7709 -0.8964
 9524SOL    HW240032   3.846   4.053   2.731 -0.5008 -0.1114  0.7516
 9525SOL     OW40033   2.668   0.471   3.279  0.1369 -0.8178 -0.7695
 9525SOL    HW140034   2.739   0.412   3.303  0.6956  1.7309  3.8341
 9525SOL    HW240035   2.660   0.447   3.187 -0.8261 -1.0893 -0.6219
 9526SOL     OW40036   0.940   1.615   8.810 -0.1385 -0.6084  0.3440
 9526SOL    HW140037   0.944   1.636   8.717  0.0993 -0.4233  0.3952
 9526SOL    HW240038   0.856   1.647   8.843  0.1472  1.6300 -1.0954
 9527SOL     OW40039   4.386   4.450  10.680  0.4296 -0.1656 -0.2037
 9527SOL    HW140040   4.370   4.519  10.615  1.1869  1.6156  1.5280
 9527SOL    HW240041   4.367   4.500  10.759 -0.9634 -1.4698  0.3014
 9528SOL     OW40042   2.819   1.024   4.271  0.6665 -0.1430  0.7471
 9528SOL    HW140043   2.825   1.084   4.345  3.4074  1.9903 -1.2057
 9528SOL    HW240044   2.829   1.081   4.196  0.7102 -1.6921 -0.4258
 9529SOL     OW40045   0.310   2.209   6.252  0.3392 -1.0959 -0.3935
 9529SOL    HW140046   0.222   2.207   6.214  0.5262  1.8986 -0.9912
 9529SOL    HW240047   0.355   2.126   6.240  1.4184 -0.7895  1.4117
 9530SOL     OW40048   2.633   1.413   5.266 -0.1243 -0.1413 -0.5508
 9530SOL    HW140049   2.591   1.446   5.346  0.5923 -0.4152 -0.0548
 9530SOL    HW240050   2.558   1.368   5.228 -1.2865 -0.0454  1.5992
 9531SOL     OW40051   2.822   2.377   6.650  0.1313 -0.6976 -0.0220
 9531SOL    HW140052   2.839   2.458   6.698 -3.4308 -0.8528  1.5058
 9531SOL    HW240053   2.828   2.318   6.725  0.9368 -0.6139 -0.0210
 9532SOL     OW40054   2.289   4.370  11.865  0.0409 -0.0431 -0.1058
 9532SOL    HW140055   2.357   4.408  11.922  0.1347  0.6093 -0.6517
 9532SOL    HW240056   2.334   4.287  11.853  2.0271  0.8932  0.8032
 9533SOL     OW40057   1.246   2.830  11.792  0.6027 -0.4718 -0.1860
 9533SOL    HW140058   1.280   2.897  11.732  1.1857 -0.5265  0.0873
 9533SOL    HW240059   1.289   2.750  11.763 -2.5026 -2.5818  1.1123
 9534SOL     OW40060   2.918   2.266   3.943  0.3163  0.5904  0.1042
 9534SOL    HW140061   2.866   2.328   3.893 -1.7440 -1.3036 -0.0839
 9534SOL    HW240062   2.989   2.239   3.884 -0.2331  0.7994 -0.6433
 9535SOL     OW40063   3.505   2.930   1.910 -0.1334 -0.2287 -0.0879
 9535SOL    HW140064   3.497   2.972   1.996  0.8520 -1.0594  0.4042
 9535SOL    HW240065   3.502   2.843   1.950 -1.4770  0.9935  2.5160
 9536SOL     OW40066   3.037   2.509   1.584  0.0178  0.1343  0.5141
 9536SOL    HW140067   3.027   2.538   1.675  2.2479  2.3844  0.0565
 9536SOL    HW240068   3.110   2.560   1.549 -1.6666  0.1463 -2.9858
 9537SOL     OW40069   0.025   3.965   5.572  0.0039 -0.2319  0.0304
 9537SOL    HW140070   4.721   3.947   5.661 -0.3614  0.5814  0.0694
 9537SOL    HW240071   0.064   4.052   5.576  1.0827 -0.7272  0.4060
 9538SOL     OW40072   4.398   2.186   1.502  0.8191 -0.2021  0.1757
 9538SOL    HW140073   4.486   2.224   1.503  1.9521 -2.7631 -0.8270
 9538SOL    HW240074   4.418   2.101   1.462 -2.1013  0.0851 -1.8403
 9539SOL     OW40075   1.404   3.251   0.999 -0.1009 -0.0444  0.2459
 9539SOL    HW140076   1.404   3.289   1.087  0.6861  1.9449 -0.5986
 9539SOL    HW240077   1.441   3.323   0.948 -0.6761  1.5410  2.0596
 9540SOL     OW40078   1.366   3.050   7.608  0.5319 -0.5138  1.5849
 9540SOL    HW140079   1.364   3.091   7.521  1.2467 -0.5124  1.5679
 9540SOL    HW240080   1.331   2.966   7.579  0.9231 -0.0598 -0.1958
 9541SOL     OW40081   2.498   0.843   9.907 -0.1639  0.4507  0.6458
 9541SOL    HW140082   2.509   0.916   9.968 -0.2178 -0.6618  1.9883
 9541SOL    HW240083   2.588   0.810   9.908  0.5499  2.3357 -1.8525
 9542SOL     OW40084   3.133   1.879   6.282  0.3479 -0.6445 -0.6485
 9542SOL    HW140085   3.115   1.803   6.337 -0.7957 -0.1411 -0.3231
 9542SOL    HW240086   3.116   1.946   6.348  2.6002 -1.0100  0.3054
 9543SOL     OW40087   2.525   3.305  13.836 -0.3212  0.2689 -0.3757
 9543SOL    HW140088   2.553   3.394  13.814 -0.7816  0.8188  1.2681
 9543SOL    HW240089   2.599   3.255  13.801  0.5854  0.1454  1.7548
 9544SOL     OW40090   4.660   3.739   9.047 -0.3908 -0.0208 -0.1192
 9544SOL    HW140091   4.722   3.801   9.086 -1.2590  2.3945 -2.5994
 9544SOL    HW240092   4.722   3.676   9.012 -3.0268 -3.2832  1.1290
 9545SOL     OW40093   3.184   4.550   0.802 -0.1137  0.0051  0.3610
 9545SOL    HW140094   3.264   4.504   0.777  0.2885  1.6566 -1.3191
 9545SOL    HW240095   3.211   4.608   0.873 -1.1573 -2.5652  2.8800
 9546SOL     OW40096   4.589   0.514   4.903  0.0993 -0.2387  0.1034
 9546SOL    HW140097   4.534   0.592   4.911  2.1718  1.1435  0.9849
 9546SOL    HW240098   4.634   0.516   4.988  0.4144 -3.9100  0.0311
 9547SOL     OW40099   2.693   1.934   3.265  0.1105 -0.1381 -0.2045
 9547SOL    HW140100   2.662   1.994   3.197  3.3094  2.1832  0.4087
 9547SOL    HW240101   2.620   1.872   3.262 -0.6330  0.6730  1.1257
 9548SOL     OW40102   4.453   3.133   6.417  0.7518 -0.0703 -0.2012
 9548SOL    HW140103   4.532   3.187   6.428  1.4143 -1.3221  1.0124
 9548SOL    HW240104   4.407   3.188   6.353  1.3475  1.4725  0.6879
 9549SOL     OW40105   3.035   2.010   7.552  0.1630  0.2979 -0.1054
 9549SOL    HW140106   2.961   1.984   7.498  0.9159 -0.7484 -0.6455
 9549SOL    HW240107   3.105   2.018   7.487  1.0068 -0.2526  0.7289
 9550SOL     OW40108   2.149   3.494   3.415  0.5881 -0.1226  0.0839
 9550SOL    HW140109   2.171   3.403   3.435  0.1747 -0.3834 -0.6462
 9550SOL    HW240110   2.211   3.506   3.343  1.9709  0.2754  1.3474
 9551SOL     OW40111   2.146   1.249   7.132 -0.6848 -0.3152  0.2126
 9551SOL    HW140112   2.128   1.340   7.158  1.1457 -0.0807  0.6811
 9551SOL    HW240113   2.194   1.251   7.050  0.1692  0.0611  0.7161
 9552SOL     OW40114   2.198   3.580   0.569  0.0487 -0.4173 -0.5731
 9552SOL    HW140115   2.286   3.616   0.561 -0.7156  1.7686  0.9043
 9552SOL    HW240116   2.149   3.639   0.511 -0.0698 -0.8744 -0.9454
 9553SOL     OW40117   0.453   2.484   8.922  0.5815 -0.0344 -0.7151
 9553SOL    HW140118   0.394   2.414   8.895  0.0207  0.2789 -0.3046
 9553SOL    HW240119   0.518   2.443   8.980 -0.2884 -0.8307 -0.3037
 9554SOL     OW40120   4.340   2.673  15.825 -0.4401 -0.2319  0.5118
 9554SOL    HW140121   4.427   2.633  15.821 -0.4948 -0.1496 -1.1981
 9554SOL    HW240122   4.284   2.602  15.795 -0.9639  0.6635 -0.6167
 9555SOL     OW40123   2.201   1.933  17.601  0.1228 -0.5090 -0.4421
 9555SOL    HW140124   2.225   1.911  17.511  2.9553 -2.3016  0.7187
 9555SOL    HW240125   2.112   1.965  17.589  0.9238  1.5950 -0.7001
 9556SOL     OW40126   4.096   4.556   2.531  0.3442  0.1494 -0.2234
 9556SOL    HW140127   4.091   4.627   2.595 -0.7675 -1.8440  1.9057
 9556SOL    HW240128   4.022   4.503   2.558  0.2749  1.2440  1.6922
 9557SOL     OW40129   2.526   2.443   9.480  0.0153  0.7910  0.1169
 9557SOL    HW140130   2.603   2.489   9.449 -0.2653  0.4540 -1.0746
 9557SOL    HW240131   2.547   2.424   9.572  1.3298 -2.3601 -0.8124
 9558SOL     OW40132   2.678   0.644   8.459 -0.2383  0.6061  0.2959
 9558SOL    HW140133   2.680   0.696   8.539 -1.9529  2.0737 -0.6315
 9558SOL    HW240134   2.670   0.716   8.397 -0.9814  0.2040 -0.0673
 9559SOL     OW40135   2.436   4.716   6.500 -0.1890  0.1304 -0.4119
 9559SOL    HW140136   2.459   0.083   6.501  0.9634 -0.1488 -0.2994
 9559SOL    HW240137   2.429   4.701   6.406  0.2311 -1.7059 -0.1526
 9560SOL     OW40138   2.599   2.662  15.242 -1.0639  0.5140 -0.0706
 9560SOL    HW140139   2.616   2.641  15.333 -5.0776 -0.8935  0.3883
 9560SOL    HW240140   2.661   2.604  15.197 -1.4288 -0.8147  1.1256
 9561SOL     OW40141   3.255   3.188   3.849 -0.1110 -0.8505  0.7739
 9561SOL    HW140142   3.284   3.125   3.784 -1.4325 -0.4990 -0.1483
 9561SOL    HW240143   3.172   3.216   3.810  0.8422 -0.5071 -0.9970
 9562SOL     OW40144   2.992   0.544   3.861  0.0704 -0.4286  0.1617
 9562SOL    HW140145   2.907   0.506   3.842  0.5646 -0.8978 -1.1245
 9562SOL    HW240146   3.015   0.491   3.938 -0.4449  0.4172  0.9034
 9563SOL     OW40147   2.465   3.099   3.851  0.5497 -0.1642  0.3102
 9563SOL    HW140148   2.486   3.010   3.881  1.0569  0.2957  1.3416
 9563SOL    HW240149   2.414   3.121   3.929  1.8808 -1.1185  1.4672
 9564SOL     OW40150   1.233   3.287  14.657 -0.4963 -0.1990 -0.2655
 9564SOL    HW140151   1.248   3.216  14.719 -0.6802 -1.8476 -2.0700
 9564SOL    HW240152   1.137   3.294  14.661 -0.5975 -1.8988  0.5080
 9565SOL     OW40153   1.259   1.839  15.208  0.2803 -0.3806 -0.0358
 9565SOL    HW140154   1.302   1.870  15.128  3.1161  1.8782  2.3889
 9565SOL    HW240155   1.238   1.917  15.259  1.1256  0.4884 -1.0191
   4.72591   4.72591  17.70481
